<event>
 7    1  0.2577508E-013  0.7246138E+02  0.7816164E-02  0.1226709E+00
        -11   -1    0    0    0    0  0.00000000000E+00  0.00000000000E+00  0.45593999997E+02  0.45594000000E+02  0.51100000000E-03 0. -1.
         11   -1    0    0    0    0 -0.00000000000E+00 -0.00000000000E+00 -0.45593999997E+02  0.45594000000E+02  0.51100000000E-03 0.  1.
    9900012    2    1    2    0    0 -0.10989525844E+02 -0.67816692046E+01  0.13561913371E+02  0.72461382319E+02  0.69999755126E+02 0.  0.
        -12    1    1    2    0    0  0.10989525844E+02  0.67816692046E+01 -0.13561913371E+02  0.18726617681E+02  0.00000000000E+00 0.  1.
         11    1    3    3    0    0  0.58816256880E+01 -0.20074346290E+01 -0.54898662982E+01  0.82922823611E+01  0.51100000000E-03 0. -1.
        -11    1    3    3    0    0  0.60616038431E+01  0.21815126186E+02  0.18193950153E+02  0.29045870517E+02  0.51100000000E-03 0.  1.
         12    1    3    3    0    0 -0.22932755376E+02 -0.26589360762E+02  0.85782951642E+00  0.35123229440E+02  0.00000000000E+00 0. -1.
</event>
<event>
 7    1  0.2577508E-013  0.7246155E+02  0.7816164E-02  0.1226708E+00
        -11   -1    0    0    0    0  0.00000000000E+00  0.00000000000E+00  0.45593999997E+02  0.45594000000E+02  0.51100000000E-03 0. -1.
         11   -1    0    0    0    0 -0.00000000000E+00 -0.00000000000E+00 -0.45593999997E+02  0.45594000000E+02  0.51100000000E-03 0.  1.
    9900012    2    1    2    0    0  0.76994851665E+01 -0.15493671022E+02  0.71654869140E+01  0.72461545016E+02  0.69999967070E+02 0.  0.
        -12    1    1    2    0    0 -0.76994851665E+01  0.15493671022E+02 -0.71654869140E+01  0.18726454984E+02  0.00000000000E+00 0.  1.
         11    1    3    3    0    0  0.31921040085E+01 -0.95756487064E+00  0.16794444628E+02  0.17121910790E+02  0.51100000000E-03 0. -1.
        -11    1    3    3    0    0 -0.11099835141E+02  0.16405429583E+02 -0.44282081432E+01  0.20296637347E+02  0.51100000000E-03 0.  1.
        -12    1    3    3    0    0  0.15607216299E+02 -0.30941535734E+02 -0.52007495704E+01  0.35042996879E+02  0.00000000000E+00 0.  1.
</event>
<event>
 7    1  0.2577508E-013  0.7246157E+02  0.7816164E-02  0.1226708E+00
        -11   -1    0    0    0    0  0.00000000000E+00  0.00000000000E+00  0.45593999997E+02  0.45594000000E+02  0.51100000000E-03 0. -1.
         11   -1    0    0    0    0 -0.00000000000E+00 -0.00000000000E+00 -0.45593999997E+02  0.45594000000E+02  0.51100000000E-03 0.  1.
    9900012    2    1    2    0    0 -0.13030610730E+02 -0.59301242920E+01  0.12071295037E+02  0.72461565369E+02  0.69999993584E+02 0.  0.
        -12    1    1    2    0    0  0.13030610730E+02  0.59301242920E+01 -0.12071295037E+02  0.18726434631E+02  0.00000000000E+00 0.  1.
         11    1    3    3    0    0 -0.11997058324E+01 -0.60931407461E+01  0.35282792703E+02  0.35825146467E+02  0.51100000000E-03 0. -1.
        -11    1    3    3    0    0  0.18449544714E+01  0.69684378768E+01  0.17075132192E+01  0.74080081735E+01  0.51100000000E-03 0.  1.
        -12    1    3    3    0    0 -0.13675859369E+02 -0.68054214227E+01 -0.24919010885E+02  0.29228410729E+02  0.00000000000E+00 0.  1.
</event>
<event>
 7    1  0.2577508E-013  0.7246146E+02  0.7816164E-02  0.1226708E+00
        -11   -1    0    0    0    0  0.00000000000E+00  0.00000000000E+00  0.45593999997E+02  0.45594000000E+02  0.51100000000E-03 0. -1.
         11   -1    0    0    0    0 -0.00000000000E+00 -0.00000000000E+00 -0.45593999997E+02  0.45594000000E+02  0.51100000000E-03 0.  1.
    9900012    2    1    2    0    0  0.43336695137E+01  0.17992029785E+02 -0.28617215172E+01  0.72461460616E+02  0.69999857124E+02 0.  0.
        -12    1    1    2    0    0 -0.43336695137E+01 -0.17992029785E+02  0.28617215172E+01  0.18726539384E+02  0.00000000000E+00 0.  1.
         11    1    3    3    0    0 -0.11515884247E+02 -0.11924185909E+02  0.12502792836E+02  0.20763468605E+02  0.51100000000E-03 0. -1.
        -11    1    3    3    0    0  0.13951992590E+02 -0.42589241235E+01 -0.11396365409E+01  0.14631995887E+02  0.51100000000E-03 0.  1.
        -12    1    3    3    0    0  0.18975611703E+01  0.34175139817E+02 -0.14224877812E+02  0.37065996124E+02  0.00000000000E+00 0.  1.
</event>
<event>
 7    1  0.2577508E-013  0.7246157E+02  0.7816164E-02  0.1226708E+00
        -11   -1    0    0    0    0  0.00000000000E+00  0.00000000000E+00  0.45593999997E+02  0.45594000000E+02  0.51100000000E-03 0. -1.
         11   -1    0    0    0    0 -0.00000000000E+00 -0.00000000000E+00 -0.45593999997E+02  0.45594000000E+02  0.51100000000E-03 0.  1.
    9900012    2    1    2    0    0  0.14574868299E+02 -0.20625914331E+01  0.11575749104E+02  0.72461573841E+02  0.70000004621E+02 0.  0.
        -12    1    1    2    0    0 -0.14574868299E+02  0.20625914331E+01 -0.11575749104E+02  0.18726426159E+02  0.00000000000E+00 0.  1.
         11    1    3    3    0    0  0.14291687007E+02 -0.85162710178E+01  0.27118301389E+02  0.31814799387E+02  0.51100000000E-03 0. -1.
        -11    1    3    3    0    0 -0.22812351790E+01  0.13421657464E+02  0.81165045078E+01  0.15850002168E+02  0.51100000000E-03 0.  1.
        -12    1    3    3    0    0  0.25644164713E+01 -0.69679778794E+01 -0.23659056792E+02  0.24796772287E+02  0.00000000000E+00 0.  1.
</event>
<event>
 7    1  0.2577508E-013  0.7246152E+02  0.7816164E-02  0.1226708E+00
        -11   -1    0    0    0    0  0.00000000000E+00  0.00000000000E+00  0.45593999997E+02  0.45594000000E+02  0.51100000000E-03 0.  1.
         11   -1    0    0    0    0 -0.00000000000E+00 -0.00000000000E+00 -0.45593999997E+02  0.45594000000E+02  0.51100000000E-03 0. -1.
    9900012    2    1    2    0    0 -0.21615636366E+01 -0.16155190420E+01 -0.18531019169E+02  0.72461523274E+02  0.69999938747E+02 0.  0.
        -12    1    1    2    0    0  0.21615636366E+01  0.16155190420E+01  0.18531019169E+02  0.18726476726E+02  0.00000000000E+00 0.  1.
         11    1    3    3    0    0  0.10988338824E+02 -0.61449148863E+01  0.12143914830E+02  0.17492233612E+02  0.51100000000E-03 0. -1.
        -11    1    3    3    0    0  0.53874686981E+01  0.19497276473E+02 -0.70635233556E+01  0.21425731523E+02  0.51100000000E-03 0.  1.
         12    1    3    3    0    0 -0.18537371159E+02 -0.14967880629E+02 -0.23611410644E+02  0.33543558139E+02  0.00000000000E+00 0. -1.
</event>
<event>
 7    1  0.2577508E-013  0.7246153E+02  0.7816164E-02  0.1226708E+00
        -11   -1    0    0    0    0  0.00000000000E+00  0.00000000000E+00  0.45593999997E+02  0.45594000000E+02  0.51100000000E-03 0.  1.
         11   -1    0    0    0    0 -0.00000000000E+00 -0.00000000000E+00 -0.45593999997E+02  0.45594000000E+02  0.51100000000E-03 0. -1.
    9900012    2    1    2    0    0  0.34955587897E+01  0.18397150024E+02  0.80807864155E-01  0.72461532363E+02  0.69999950587E+02 0.  0.
        -12    1    1    2    0    0 -0.34955587897E+01 -0.18397150024E+02 -0.80807864155E-01  0.18726467637E+02  0.00000000000E+00 0.  1.
         11    1    3    3    0    0  0.14187082886E+02 -0.32407671651E+01 -0.69394011903E+01  0.16122381393E+02  0.51100000000E-03 0. -1.
        -11    1    3    3    0    0  0.75714160931E+01  0.29380198203E+02  0.16297901961E+02  0.34440441297E+02  0.51100000000E-03 0.  1.
         12    1    3    3    0    0 -0.18262940190E+02 -0.77422810146E+01 -0.92776929069E+01  0.21898709673E+02  0.00000000000E+00 0. -1.
</event>
<event>
 7    1  0.2577508E-013  0.7246173E+02  0.7816164E-02  0.1226708E+00
        -11   -1    0    0    0    0  0.00000000000E+00  0.00000000000E+00  0.45593999997E+02  0.45594000000E+02  0.51100000000E-03 0.  1.
         11   -1    0    0    0    0 -0.00000000000E+00 -0.00000000000E+00 -0.45593999997E+02  0.45594000000E+02  0.51100000000E-03 0. -1.
    9900012    2    1    2    0    0 -0.56776880402E+01  0.53602629244E+01 -0.17020715022E+02  0.72461727013E+02  0.70000204155E+02 0.  0.
        -12    1    1    2    0    0  0.56776880402E+01 -0.53602629244E+01  0.17020715022E+02  0.18726272987E+02  0.00000000000E+00 0.  1.
         11    1    3    3    0    0  0.19848628881E+01 -0.15895298460E+02 -0.19421448204E+02  0.25175242688E+02  0.51100000000E-03 0. -1.
        -11    1    3    3    0    0 -0.86947808589E+01  0.28556068519E+02 -0.11145790726E+02  0.31863410279E+02  0.51100000000E-03 0.  1.
         12    1    3    3    0    0  0.10322299306E+01 -0.73005071343E+01  0.13546523907E+02  0.15423074046E+02  0.00000000000E+00 0. -1.
</event>
<event>
 7    1  0.3082860E-013  0.7246146E+02  0.7816164E-02  0.1226708E+00
        -11   -1    0    0    0    0  0.00000000000E+00  0.00000000000E+00  0.45593999997E+02  0.45594000000E+02  0.51100000000E-03 0. -1.
         11   -1    0    0    0    0 -0.00000000000E+00 -0.00000000000E+00 -0.45593999997E+02  0.45594000000E+02  0.51100000000E-03 0.  1.
    9900012    2    1    2    0    0 -0.33111539122E+01 -0.90136765189E+01  0.16077105488E+02  0.72461456659E+02  0.69999851969E+02 0.  0.
        -12    1    1    2    0    0  0.33111539122E+01  0.90136765189E+01 -0.16077105488E+02  0.18726543341E+02  0.00000000000E+00 0.  1.
         11    1    3    3    0    0 -0.15185519855E+02 -0.45479133114E+01 -0.13199247862E+01  0.15906782530E+02  0.51100000000E-03 0. -1.
        -11    1    3    3    0    0  0.13243936220E+02 -0.88476197067E+01 -0.16157207076E+02  0.22687828495E+02  0.51100000000E-03 0.  1.
         12    1    3    3    0    0 -0.13695702771E+01  0.43818564992E+01  0.33554237350E+02  0.33866845635E+02  0.00000000000E+00 0. -1.
</event>
<event>
 7    1  0.2577508E-013  0.7246164E+02  0.7816164E-02  0.1226708E+00
        -11   -1    0    0    0    0  0.00000000000E+00  0.00000000000E+00  0.45593999997E+02  0.45594000000E+02  0.51100000000E-03 0. -1.
         11   -1    0    0    0    0 -0.00000000000E+00 -0.00000000000E+00 -0.45593999997E+02  0.45594000000E+02  0.51100000000E-03 0.  1.
    9900012    2    1    2    0    0 -0.83671047397E+01  0.62257329343E+01  0.15553409697E+02  0.72461635016E+02  0.70000084312E+02 0.  0.
        -12    1    1    2    0    0  0.83671047397E+01 -0.62257329343E+01 -0.15553409697E+02  0.18726364984E+02  0.00000000000E+00 0.  1.
         11    1    3    3    0    0 -0.27745568274E+01  0.21400286927E+02  0.24355223474E+02  0.32539934801E+02  0.51100000000E-03 0. -1.
        -11    1    3    3    0    0 -0.17321985644E+02  0.64606781328E+00  0.20175412788E+01  0.17451047629E+02  0.51100000000E-03 0.  1.
        -12    1    3    3    0    0  0.11729437732E+02 -0.15820621806E+02 -0.10819355056E+02  0.22470652586E+02  0.00000000000E+00 0.  1.
</event>
<event>
 7    1  0.2577508E-013  0.7246159E+02  0.7816164E-02  0.1226708E+00
        -11   -1    0    0    0    0  0.00000000000E+00  0.00000000000E+00  0.45593999997E+02  0.45594000000E+02  0.51100000000E-03 0. -1.
         11   -1    0    0    0    0 -0.00000000000E+00 -0.00000000000E+00 -0.45593999997E+02  0.45594000000E+02  0.51100000000E-03 0.  1.
    9900012    2    1    2    0    0 -0.12746651135E+02  0.12317494713E+02  0.60399243313E+01  0.72461588782E+02  0.70000024084E+02 0.  0.
        -12    1    1    2    0    0  0.12746651135E+02 -0.12317494713E+02 -0.60399243313E+01  0.18726411218E+02  0.00000000000E+00 0.  1.
         11    1    3    3    0    0 -0.26493274827E+02  0.29240710641E+02 -0.66848982891E+01  0.40020002939E+02  0.51100000000E-03 0. -1.
        -11    1    3    3    0    0 -0.52665131447E+01 -0.20760645417E+01  0.16428182178E+01  0.58944937563E+01  0.51100000000E-03 0.  1.
        -12    1    3    3    0    0  0.19013136837E+02 -0.14847151386E+02  0.11082004403E+02  0.26547092086E+02  0.00000000000E+00 0.  1.
</event>
<event>
 7    1  0.2577508E-013  0.7246156E+02  0.7816164E-02  0.1226708E+00
        -11   -1    0    0    0    0  0.00000000000E+00  0.00000000000E+00  0.45593999997E+02  0.45594000000E+02  0.51100000000E-03 0.  1.
         11   -1    0    0    0    0 -0.00000000000E+00 -0.00000000000E+00 -0.45593999997E+02  0.45594000000E+02  0.51100000000E-03 0. -1.
    9900012    2    1    2    0    0  0.73557112240E+00  0.76832574624E+01 -0.17061827528E+02  0.72461562306E+02  0.69999989594E+02 0.  0.
        -12    1    1    2    0    0 -0.73557112240E+00 -0.76832574624E+01  0.17061827528E+02  0.18726437694E+02  0.00000000000E+00 0.  1.
         11    1    3    3    0    0  0.15356417305E+02 -0.13659239276E+02 -0.14770010293E+02  0.25309041356E+02  0.51100000000E-03 0. -1.
        -11    1    3    3    0    0  0.58425609377E+01  0.16676129337E+02  0.12352832034E+02  0.21559713994E+02  0.51100000000E-03 0.  1.
         12    1    3    3    0    0 -0.20463407120E+02  0.46663674015E+01 -0.14644649269E+02  0.25592806957E+02  0.00000000000E+00 0. -1.
</event>
<event>
 7    1  0.2577508E-013  0.7246157E+02  0.7816164E-02  0.1226708E+00
        -11   -1    0    0    0    0  0.00000000000E+00  0.00000000000E+00  0.45593999997E+02  0.45594000000E+02  0.51100000000E-03 0.  1.
         11   -1    0    0    0    0 -0.00000000000E+00 -0.00000000000E+00 -0.45593999997E+02  0.45594000000E+02  0.51100000000E-03 0. -1.
    9900012    2    1    2    0    0 -0.13138738480E+02 -0.20622362834E+01 -0.13183320999E+02  0.72461568949E+02  0.69999998247E+02 0.  0.
        -12    1    1    2    0    0  0.13138738480E+02  0.20622362834E+01  0.13183320999E+02  0.18726431051E+02  0.00000000000E+00 0.  1.
         11    1    3    3    0    0  0.10497048225E+02 -0.97562302862E+01 -0.26489348763E+02  0.30117397779E+02  0.51100000000E-03 0. -1.
        -11    1    3    3    0    0  0.77511169726E+01  0.28018576571E+01  0.44516086255E+01  0.93673390175E+01  0.51100000000E-03 0.  1.
        -12    1    3    3    0    0 -0.31386903678E+02  0.48921363458E+01  0.88544191384E+01  0.32976832152E+02  0.00000000000E+00 0.  1.
</event>
<event>
 7    1  0.2577508E-013  0.7246152E+02  0.7816164E-02  0.1226708E+00
        -11   -1    0    0    0    0  0.00000000000E+00  0.00000000000E+00  0.45593999997E+02  0.45594000000E+02  0.51100000000E-03 0.  1.
         11   -1    0    0    0    0 -0.00000000000E+00 -0.00000000000E+00 -0.45593999997E+02  0.45594000000E+02  0.51100000000E-03 0. -1.
    9900012    2    1    2    0    0 -0.60289226380E+01 -0.15056971956E+02 -0.93605968233E+01  0.72461519136E+02  0.69999933356E+02 0.  0.
        -12    1    1    2    0    0  0.60289226380E+01  0.15056971956E+02  0.93605968233E+01  0.18726480864E+02  0.00000000000E+00 0.  1.
         11    1    3    3    0    0 -0.16113755679E+02 -0.26053785748E+02  0.14589097060E+02  0.33930732783E+02  0.51100000000E-03 0. -1.
        -11    1    3    3    0    0 -0.61638399001E+01  0.11558930030E+02 -0.63063144978E+01  0.14538617148E+02  0.51100000000E-03 0.  1.
        -12    1    3    3    0    0  0.16248672941E+02 -0.56211623829E+00 -0.17643379386E+02  0.23992169205E+02  0.00000000000E+00 0.  1.
</event>
<event>
 7    1  0.2577508E-013  0.7246168E+02  0.7816164E-02  0.1226708E+00
        -11   -1    0    0    0    0  0.00000000000E+00  0.00000000000E+00  0.45593999997E+02  0.45594000000E+02  0.51100000000E-03 0. -1.
         11   -1    0    0    0    0 -0.00000000000E+00 -0.00000000000E+00 -0.45593999997E+02  0.45594000000E+02  0.51100000000E-03 0.  1.
    9900012    2    1    2    0    0 -0.37672578071E+01  0.15409640631E+02  0.99511795462E+01  0.72461675477E+02  0.70000137020E+02 0.  0.
        -12    1    1    2    0    0  0.37672578071E+01 -0.15409640631E+02 -0.99511795462E+01  0.18726324523E+02  0.00000000000E+00 0.  1.
         11    1    3    3    0    0 -0.28227411247E+02 -0.28909428313E+01  0.18278497613E+02  0.33752744650E+02  0.51100000000E-03 0. -1.
        -11    1    3    3    0    0  0.10060561796E+02  0.20194500798E+01  0.67266062920E+01  0.12269487142E+02  0.51100000000E-03 0.  1.
        -12    1    3    3    0    0  0.14399591644E+02  0.16281133383E+02 -0.15053924359E+02  0.26439443685E+02  0.00000000000E+00 0.  1.
</event>
<event>
 7    1  0.2577508E-013  0.7246210E+02  0.7816164E-02  0.1226707E+00
        -11   -1    0    0    0    0  0.00000000000E+00  0.00000000000E+00  0.45593999997E+02  0.45594000000E+02  0.51100000000E-03 0. -1.
         11   -1    0    0    0    0 -0.00000000000E+00 -0.00000000000E+00 -0.45593999997E+02  0.45594000000E+02  0.51100000000E-03 0.  1.
    9900012    2    1    2    0    0  0.18254556326E+02 -0.19067828310E+01  0.37141394098E+01  0.72462096044E+02  0.70000684883E+02 0.  0.
        -12    1    1    2    0    0 -0.18254556326E+02  0.19067828310E+01 -0.37141394098E+01  0.18725903956E+02  0.00000000000E+00 0.  1.
         11    1    3    3    0    0  0.14569032495E+02  0.17645407375E+02  0.60049301229E+01  0.23657478634E+02  0.51100000000E-03 0. -1.
        -11    1    3    3    0    0 -0.19814036599E+02 -0.31077894095E+01 -0.14911725462E+01  0.20111638352E+02  0.51100000000E-03 0.  1.
         12    1    3    3    0    0  0.23499560430E+02 -0.16444400797E+02 -0.79961816687E+00  0.28692979057E+02  0.00000000000E+00 0. -1.
</event>
<event>
 7    1  0.2577508E-013  0.7246158E+02  0.7816164E-02  0.1226708E+00
        -11   -1    0    0    0    0  0.00000000000E+00  0.00000000000E+00  0.45593999997E+02  0.45594000000E+02  0.51100000000E-03 0.  1.
         11   -1    0    0    0    0 -0.00000000000E+00 -0.00000000000E+00 -0.45593999997E+02  0.45594000000E+02  0.51100000000E-03 0. -1.
    9900012    2    1    2    0    0  0.82318711559E+01 -0.18674229885E+01 -0.16716098292E+02  0.72461577131E+02  0.70000008906E+02 0.  0.
        -12    1    1    2    0    0 -0.82318711559E+01  0.18674229885E+01  0.16716098292E+02  0.18726422869E+02  0.00000000000E+00 0.  1.
         11    1    3    3    0    0  0.23686558513E+02  0.31212465944E+01 -0.59443707119E+01  0.24619723352E+02  0.51100000000E-03 0. -1.
        -11    1    3    3    0    0  0.10659901536E+02  0.81475741461E+01  0.53666778566E+01  0.14450525828E+02  0.51100000000E-03 0.  1.
        -12    1    3    3    0    0 -0.26114588893E+02 -0.13136243729E+02 -0.16138405437E+02  0.33391327952E+02  0.00000000000E+00 0.  1.
</event>
<event>
 7    1  0.2577508E-013  0.7246162E+02  0.7816164E-02  0.1226708E+00
        -11   -1    0    0    0    0  0.00000000000E+00  0.00000000000E+00  0.45593999997E+02  0.45594000000E+02  0.51100000000E-03 0. -1.
         11   -1    0    0    0    0 -0.00000000000E+00 -0.00000000000E+00 -0.45593999997E+02  0.45594000000E+02  0.51100000000E-03 0.  1.
    9900012    2    1    2    0    0  0.16012326093E+02 -0.86669241232E+01 -0.43780176234E+01  0.72461622908E+02  0.70000068539E+02 0.  0.
        -12    1    1    2    0    0 -0.16012326093E+02  0.86669241232E+01  0.43780176234E+01  0.18726377092E+02  0.00000000000E+00 0.  1.
         11    1    3    3    0    0 -0.83873853230E+00 -0.77098683744E+01 -0.17224268748E+02  0.18889705843E+02  0.51100000000E-03 0. -1.
        -11    1    3    3    0    0  0.49971091767E+01 -0.12366979723E+02 -0.15713849963E+02  0.20611607616E+02  0.51100000000E-03 0.  1.
         12    1    3    3    0    0  0.11853955449E+02  0.11409923974E+02  0.28560101087E+02  0.32960309449E+02  0.00000000000E+00 0. -1.
</event>
<event>
 7    1  0.2577508E-013  0.7246156E+02  0.7816164E-02  0.1226708E+00
        -11   -1    0    0    0    0  0.00000000000E+00  0.00000000000E+00  0.45593999997E+02  0.45594000000E+02  0.51100000000E-03 0. -1.
         11   -1    0    0    0    0 -0.00000000000E+00 -0.00000000000E+00 -0.45593999997E+02  0.45594000000E+02  0.51100000000E-03 0.  1.
    9900012    2    1    2    0    0 -0.14507484970E+02  0.11833957575E+02  0.41203910102E+00  0.72461562852E+02  0.69999990305E+02 0.  0.
        -12    1    1    2    0    0  0.14507484970E+02 -0.11833957575E+02 -0.41203910102E+00  0.18726437148E+02  0.00000000000E+00 0.  1.
         11    1    3    3    0    0 -0.27645672497E+02  0.23885066346E+02 -0.16368215702E+02  0.40033711890E+02  0.51100000000E-03 0. -1.
        -11    1    3    3    0    0 -0.59820546335E+00  0.49973713657E+01  0.33227969806E+00  0.50440044015E+01  0.51100000000E-03 0.  1.
         12    1    3    3    0    0  0.13736392990E+02 -0.17048480137E+02  0.16447975105E+02  0.27383846560E+02  0.00000000000E+00 0. -1.
</event>
<event>
 7    1  0.2577508E-013  0.7246159E+02  0.7816164E-02  0.1226708E+00
        -11   -1    0    0    0    0  0.00000000000E+00  0.00000000000E+00  0.45593999997E+02  0.45594000000E+02  0.51100000000E-03 0. -1.
         11   -1    0    0    0    0 -0.00000000000E+00 -0.00000000000E+00 -0.45593999997E+02  0.45594000000E+02  0.51100000000E-03 0.  1.
    9900012    2    1    2    0    0  0.79170928772E+01 -0.10152248913E+02  0.13598895161E+02  0.72461589046E+02  0.70000024428E+02 0.  0.
        -12    1    1    2    0    0 -0.79170928772E+01  0.10152248913E+02 -0.13598895161E+02  0.18726410954E+02  0.00000000000E+00 0.  1.
         11    1    3    3    0    0 -0.14070773430E+02 -0.90833208800E+01  0.18632947956E+02  0.25053545317E+02  0.51100000000E-03 0. -1.
        -11    1    3    3    0    0 -0.56091692475E+01 -0.11400000080E+02  0.81828611588E+01  0.15112312811E+02  0.51100000000E-03 0.  1.
        -12    1    3    3    0    0  0.27597035555E+02  0.10331072048E+02 -0.13216913954E+02  0.32295730919E+02  0.00000000000E+00 0.  1.
</event>
<event>
 7    1  0.2577508E-013  0.7246157E+02  0.7816164E-02  0.1226708E+00
        -11   -1    0    0    0    0  0.00000000000E+00  0.00000000000E+00  0.45593999997E+02  0.45594000000E+02  0.51100000000E-03 0.  1.
         11   -1    0    0    0    0 -0.00000000000E+00 -0.00000000000E+00 -0.45593999997E+02  0.45594000000E+02  0.51100000000E-03 0. -1.
    9900012    2    1    2    0    0  0.39480094975E+01 -0.15683633992E+02 -0.94401330710E+01  0.72461567702E+02  0.69999996623E+02 0.  0.
        -12    1    1    2    0    0 -0.39480094975E+01  0.15683633992E+02  0.94401330710E+01  0.18726432298E+02  0.00000000000E+00 0.  1.
         11    1    3    3    0    0  0.52059791213E+01 -0.75743149868E+01  0.16642471988E+02  0.19011689569E+02  0.51100000000E-03 0.  1.
        -11    1    3    3    0    0  0.14026966200E+02  0.13950965496E+02 -0.12053767867E+02  0.23166323383E+02  0.51100000000E-03 0. -1.
         12    1    3    3    0    0 -0.15284935823E+02 -0.22060284501E+02 -0.14028837192E+02  0.30283554751E+02  0.00000000000E+00 0. -1.
</event>
<event>
 7    1  0.2577508E-013  0.7246164E+02  0.7816164E-02  0.1226708E+00
        -11   -1    0    0    0    0  0.00000000000E+00  0.00000000000E+00  0.45593999997E+02  0.45594000000E+02  0.51100000000E-03 0. -1.
         11   -1    0    0    0    0 -0.00000000000E+00 -0.00000000000E+00 -0.45593999997E+02  0.45594000000E+02  0.51100000000E-03 0.  1.
    9900012    2    1    2    0    0  0.15038383694E+02  0.46634347257E+01 -0.10137845090E+02  0.72461641287E+02  0.70000092481E+02 0.  0.
        -12    1    1    2    0    0 -0.15038383694E+02 -0.46634347257E+01  0.10137845090E+02  0.18726358713E+02  0.00000000000E+00 0.  1.
         11    1    3    3    0    0  0.45320737316E+01 -0.75492564800E+01  0.98198875027E+01  0.13189433518E+02  0.51100000000E-03 0. -1.
        -11    1    3    3    0    0 -0.79733457563E+01 -0.14450799530E+02 -0.21127373101E+02  0.26809806863E+02  0.51100000000E-03 0.  1.
         12    1    3    3    0    0  0.18479655719E+02  0.26663490735E+02  0.11696405086E+01  0.32462400906E+02  0.00000000000E+00 0. -1.
</event>
<event>
 7    1  0.2577508E-013  0.7246170E+02  0.7816164E-02  0.1226708E+00
        -11   -1    0    0    0    0  0.00000000000E+00  0.00000000000E+00  0.45593999997E+02  0.45594000000E+02  0.51100000000E-03 0. -1.
         11   -1    0    0    0    0 -0.00000000000E+00 -0.00000000000E+00 -0.45593999997E+02  0.45594000000E+02  0.51100000000E-03 0.  1.
    9900012    2    1    2    0    0 -0.51176969570E+01 -0.17324836197E+02  0.49329118903E+01  0.72461697880E+02  0.70000166203E+02 0.  0.
        -12    1    1    2    0    0  0.51176969570E+01  0.17324836197E+02 -0.49329118903E+01  0.18726302120E+02  0.00000000000E+00 0.  1.
         11    1    3    3    0    0  0.68924337484E+01 -0.82898430067E+01 -0.87106480144E+01  0.13860105669E+02  0.51100000000E-03 0. -1.
        -11    1    3    3    0    0  0.73462165618E+01  0.18902037281E+02 -0.34288441519E+01  0.20567228389E+02  0.51100000000E-03 0.  1.
         12    1    3    3    0    0 -0.19356347267E+02 -0.27937030471E+02  0.17072404057E+02  0.38034363822E+02  0.00000000000E+00 0. -1.
</event>
<event>
 7    1  0.2577508E-013  0.7246155E+02  0.7816164E-02  0.1226708E+00
        -11   -1    0    0    0    0  0.00000000000E+00  0.00000000000E+00  0.45593999997E+02  0.45594000000E+02  0.51100000000E-03 0.  1.
         11   -1    0    0    0    0 -0.00000000000E+00 -0.00000000000E+00 -0.45593999997E+02  0.45594000000E+02  0.51100000000E-03 0. -1.
    9900012    2    1    2    0    0 -0.85414709746E+01 -0.11915184309E+02  0.11651242272E+02  0.72461553728E+02  0.69999978419E+02 0.  0.
        -12    1    1    2    0    0  0.85414709746E+01  0.11915184309E+02 -0.11651242272E+02  0.18726446272E+02  0.00000000000E+00 0.  1.
         11    1    3    3    0    0 -0.79617111287E+01 -0.39320577249E+00 -0.98606252944E+01  0.12679723433E+02  0.51100000000E-03 0. -1.
        -11    1    3    3    0    0 -0.30761950188E+01  0.19760982640E+02 -0.26524678153E+01  0.20174116993E+02  0.51100000000E-03 0.  1.
         12    1    3    3    0    0  0.24964351729E+01 -0.31282961176E+02  0.24164335381E+02  0.39607713301E+02  0.00000000000E+00 0. -1.
</event>
<event>
 7    1  0.2577508E-013  0.7246152E+02  0.7816164E-02  0.1226708E+00
        -11   -1    0    0    0    0  0.00000000000E+00  0.00000000000E+00  0.45593999997E+02  0.45594000000E+02  0.51100000000E-03 0. -1.
         11   -1    0    0    0    0 -0.00000000000E+00 -0.00000000000E+00 -0.45593999997E+02  0.45594000000E+02  0.51100000000E-03 0.  1.
    9900012    2    1    2    0    0  0.11937106226E+02 -0.14223321662E+02 -0.24256122577E+01  0.72461521981E+02  0.69999937063E+02 0.  0.
        -12    1    1    2    0    0 -0.11937106226E+02  0.14223321662E+02  0.24256122577E+01  0.18726478019E+02  0.00000000000E+00 0.  1.
         11    1    3    3    0    0  0.69119006883E+01 -0.18922676536E+01  0.96896210567E+00  0.72314546131E+01  0.51100000000E-03 0. -1.
        -11    1    3    3    0    0 -0.67510190617E+01 -0.24067083665E+02  0.23044674450E+02  0.33997908689E+02  0.51100000000E-03 0.  1.
         12    1    3    3    0    0  0.11776224600E+02  0.11736029656E+02 -0.26439248813E+02  0.31232158679E+02  0.00000000000E+00 0. -1.
</event>
<event>
 7    1  0.2577508E-013  0.7246169E+02  0.7816164E-02  0.1226708E+00
        -11   -1    0    0    0    0  0.00000000000E+00  0.00000000000E+00  0.45593999997E+02  0.45594000000E+02  0.51100000000E-03 0.  1.
         11   -1    0    0    0    0 -0.00000000000E+00 -0.00000000000E+00 -0.45593999997E+02  0.45594000000E+02  0.51100000000E-03 0. -1.
    9900012    2    1    2    0    0 -0.17368179438E+02  0.55761451012E+01 -0.42341164673E+01  0.72461687137E+02  0.70000152209E+02 0.  0.
        -12    1    1    2    0    0  0.17368179438E+02 -0.55761451012E+01  0.42341164673E+01  0.18726312863E+02  0.00000000000E+00 0.  1.
         11    1    3    3    0    0 -0.27225768374E+02  0.23622033344E+02  0.10853798069E+01  0.36061350120E+02  0.51100000000E-03 0. -1.
        -11    1    3    3    0    0 -0.36797427928E+01  0.59132611890E+01  0.30980229874E+01  0.76226577781E+01  0.51100000000E-03 0.  1.
        -12    1    3    3    0    0  0.13537331729E+02 -0.23959149432E+02 -0.84175192616E+01  0.28777679239E+02  0.00000000000E+00 0.  1.
</event>
<event>
 7    1  0.2577508E-013  0.7246158E+02  0.7816164E-02  0.1226708E+00
        -11   -1    0    0    0    0  0.00000000000E+00  0.00000000000E+00  0.45593999997E+02  0.45594000000E+02  0.51100000000E-03 0. -1.
         11   -1    0    0    0    0 -0.00000000000E+00 -0.00000000000E+00 -0.45593999997E+02  0.45594000000E+02  0.51100000000E-03 0.  1.
    9900012    2    1    2    0    0  0.10098757743E+02  0.81072672057E+01  0.13526499737E+02  0.72461577901E+02  0.70000009910E+02 0.  0.
        -12    1    1    2    0    0 -0.10098757743E+02 -0.81072672057E+01 -0.13526499737E+02  0.18726422099E+02  0.00000000000E+00 0.  1.
         11    1    3    3    0    0  0.18280460815E+02  0.65815845058E+01 -0.56796041329E+01  0.20242292498E+02  0.51100000000E-03 0. -1.
        -11    1    3    3    0    0  0.19720431080E+01 -0.15870629840E+02 -0.83853091894E+01  0.18057664744E+02  0.51100000000E-03 0.  1.
         12    1    3    3    0    0 -0.10153746180E+02  0.17396312540E+02  0.27591413059E+02  0.34161620659E+02  0.00000000000E+00 0. -1.
</event>
<event>
 7    1  0.2577508E-013  0.7246158E+02  0.7816164E-02  0.1226708E+00
        -11   -1    0    0    0    0  0.00000000000E+00  0.00000000000E+00  0.45593999997E+02  0.45594000000E+02  0.51100000000E-03 0.  1.
         11   -1    0    0    0    0 -0.00000000000E+00 -0.00000000000E+00 -0.45593999997E+02  0.45594000000E+02  0.51100000000E-03 0. -1.
    9900012    2    1    2    0    0 -0.43925289828E+00 -0.14761734285E+02 -0.11514207742E+02  0.72461582239E+02  0.70000015560E+02 0.  0.
        -12    1    1    2    0    0  0.43925289828E+00  0.14761734285E+02  0.11514207742E+02  0.18726417761E+02  0.00000000000E+00 0.  1.
         11    1    3    3    0    0 -0.57196199788E+01 -0.16092552360E+02 -0.27669236695E+02  0.32515703186E+02  0.51100000000E-03 0. -1.
        -11    1    3    3    0    0  0.17197370473E+02 -0.53537936763E+01 -0.97024143822E+00  0.18037572636E+02  0.51100000000E-03 0.  1.
        -12    1    3    3    0    0 -0.11917003392E+02  0.66846117509E+01  0.17125270391E+02  0.21908306417E+02  0.00000000000E+00 0.  1.
</event>
<event>
 7    1  0.2577508E-013  0.7246156E+02  0.7816164E-02  0.1226708E+00
        -11   -1    0    0    0    0  0.00000000000E+00  0.00000000000E+00  0.45593999997E+02  0.45594000000E+02  0.51100000000E-03 0.  1.
         11   -1    0    0    0    0 -0.00000000000E+00 -0.00000000000E+00 -0.45593999997E+02  0.45594000000E+02  0.51100000000E-03 0. -1.
    9900012    2    1    2    0    0 -0.95779571549E+00 -0.17873837392E+02 -0.55034665671E+01  0.72461559335E+02  0.69999985723E+02 0.  0.
        -12    1    1    2    0    0  0.95779571549E+00  0.17873837392E+02  0.55034665671E+01  0.18726440665E+02  0.00000000000E+00 0.  1.
         11    1    3    3    0    0 -0.19159936223E+02 -0.13479384285E+02 -0.25092723508E+02  0.34328439086E+02  0.51100000000E-03 0. -1.
        -11    1    3    3    0    0 -0.51512366889E+01 -0.37451005914E+01 -0.16285743632E+01  0.65736802921E+01  0.51100000000E-03 0.  1.
        -12    1    3    3    0    0  0.23353377196E+02 -0.64935251546E+00  0.21217831304E+02  0.31559439957E+02  0.00000000000E+00 0.  1.
</event>
<event>
 7    1  0.2577508E-013  0.7246151E+02  0.7816164E-02  0.1226708E+00
        -11   -1    0    0    0    0  0.00000000000E+00  0.00000000000E+00  0.45593999997E+02  0.45594000000E+02  0.51100000000E-03 0.  1.
         11   -1    0    0    0    0 -0.00000000000E+00 -0.00000000000E+00 -0.45593999997E+02  0.45594000000E+02  0.51100000000E-03 0. -1.
    9900012    2    1    2    0    0 -0.87476434742E+01 -0.56441079880E+01 -0.15566128374E+02  0.72461506097E+02  0.69999916372E+02 0.  0.
        -12    1    1    2    0    0  0.87476434742E+01  0.56441079880E+01  0.15566128374E+02  0.18726493903E+02  0.00000000000E+00 0.  1.
         11    1    3    3    0    0 -0.94720483113E+01 -0.78292906673E+01 -0.72894598179E+01  0.14288236989E+02  0.51100000000E-03 0. -1.
        -11    1    3    3    0    0  0.11639158566E+02  0.13058020404E+02  0.19632152858E+02  0.26294549532E+02  0.51100000000E-03 0.  1.
         12    1    3    3    0    0 -0.10914753729E+02 -0.10872837725E+02 -0.27908821414E+02  0.31878719577E+02  0.00000000000E+00 0. -1.
</event>
<event>
 7    1  0.2577508E-013  0.7246159E+02  0.7816164E-02  0.1226708E+00
        -11   -1    0    0    0    0  0.00000000000E+00  0.00000000000E+00  0.45593999997E+02  0.45594000000E+02  0.51100000000E-03 0. -1.
         11   -1    0    0    0    0 -0.00000000000E+00 -0.00000000000E+00 -0.45593999997E+02  0.45594000000E+02  0.51100000000E-03 0.  1.
    9900012    2    1    2    0    0 -0.15872102765E+02  0.43900826799E+01 -0.89152699425E+01  0.72461587897E+02  0.70000022930E+02 0.  0.
        -12    1    1    2    0    0  0.15872102765E+02 -0.43900826799E+01  0.89152699425E+01  0.18726412103E+02  0.00000000000E+00 0.  1.
         11    1    3    3    0    0 -0.29517732709E+02 -0.86588362382E+01  0.68073413881E+01  0.31505743703E+02  0.51100000000E-03 0. -1.
        -11    1    3    3    0    0 -0.84588846501E+01  0.81649858638E-01 -0.12547304907E+02  0.15132556193E+02  0.51100000000E-03 0.  1.
        -12    1    3    3    0    0  0.22104514594E+02  0.12967269059E+02 -0.31753064231E+01  0.25823288001E+02  0.00000000000E+00 0.  1.
</event>
<event>
 7    1  0.2577508E-013  0.7246159E+02  0.7816164E-02  0.1226708E+00
        -11   -1    0    0    0    0  0.00000000000E+00  0.00000000000E+00  0.45593999997E+02  0.45594000000E+02  0.51100000000E-03 0.  1.
         11   -1    0    0    0    0 -0.00000000000E+00 -0.00000000000E+00 -0.45593999997E+02  0.45594000000E+02  0.51100000000E-03 0. -1.
    9900012    2    1    2    0    0 -0.52224085005E+01 -0.78837362330E+01 -0.16163279085E+02  0.72461589818E+02  0.70000025433E+02 0.  0.
        -12    1    1    2    0    0  0.52224085005E+01  0.78837362330E+01  0.16163279085E+02  0.18726410182E+02  0.00000000000E+00 0.  1.
         11    1    3    3    0    0 -0.60524943658E+01  0.25194690433E+02 -0.19094398874E+02  0.32186972251E+02  0.51100000000E-03 0. -1.
        -11    1    3    3    0    0  0.70159009412E+01 -0.24072880466E+01 -0.37029515302E+01  0.82903408888E+01  0.51100000000E-03 0.  1.
        -12    1    3    3    0    0 -0.61858150759E+01 -0.30671138619E+02  0.66340713193E+01  0.31984276678E+02  0.00000000000E+00 0.  1.
</event>
<event>
 7    1  0.2577508E-013  0.7246197E+02  0.7816164E-02  0.1226707E+00
        -11   -1    0    0    0    0  0.00000000000E+00  0.00000000000E+00  0.45593999997E+02  0.45594000000E+02  0.51100000000E-03 0.  1.
         11   -1    0    0    0    0 -0.00000000000E+00 -0.00000000000E+00 -0.45593999997E+02  0.45594000000E+02  0.51100000000E-03 0. -1.
    9900012    2    1    2    0    0  0.20162066885E+01 -0.10210752802E+02 -0.15567267683E+02  0.72461965040E+02  0.70000514228E+02 0.  0.
        -12    1    1    2    0    0 -0.20162066885E+01  0.10210752802E+02  0.15567267683E+02  0.18726034960E+02  0.00000000000E+00 0.  1.
         11    1    3    3    0    0  0.70530421461E+01 -0.67763171203E+01  0.14932399538E+01  0.98941216411E+01  0.51100000000E-03 0. -1.
        -11    1    3    3    0    0  0.62196029851E+00  0.22685515749E+02  0.97608778519E+01  0.24704133179E+02  0.51100000000E-03 0.  1.
        -12    1    3    3    0    0 -0.56587957561E+01 -0.26119951431E+02 -0.26821385488E+02  0.37863710221E+02  0.00000000000E+00 0.  1.
</event>
<event>
 7    1  0.2577508E-013  0.7246155E+02  0.7816164E-02  0.1226708E+00
        -11   -1    0    0    0    0  0.00000000000E+00  0.00000000000E+00  0.45593999997E+02  0.45594000000E+02  0.51100000000E-03 0. -1.
         11   -1    0    0    0    0 -0.00000000000E+00 -0.00000000000E+00 -0.45593999997E+02  0.45594000000E+02  0.51100000000E-03 0.  1.
    9900012    2    1    2    0    0 -0.16063170968E+01  0.99182850457E+00  0.18631049929E+02  0.72461548124E+02  0.69999971119E+02 0.  0.
        -12    1    1    2    0    0  0.16063170968E+01 -0.99182850457E+00 -0.18631049929E+02  0.18726451876E+02  0.00000000000E+00 0.  1.
         11    1    3    3    0    0  0.18405605975E+02  0.13920250970E+01  0.27102787565E+02  0.32791236013E+02  0.51100000000E-03 0. -1.
        -11    1    3    3    0    0  0.22769427308E+01 -0.87539954147E+01 -0.12601525187E+02  0.15511780724E+02  0.51100000000E-03 0.  1.
        -12    1    3    3    0    0 -0.22288865803E+02  0.83537988222E+01  0.41297875515E+01  0.24158531387E+02  0.00000000000E+00 0.  1.
</event>
<event>
 7    1  0.2577508E-013  0.7246159E+02  0.7816164E-02  0.1226708E+00
        -11   -1    0    0    0    0  0.00000000000E+00  0.00000000000E+00  0.45593999997E+02  0.45594000000E+02  0.51100000000E-03 0.  1.
         11   -1    0    0    0    0 -0.00000000000E+00 -0.00000000000E+00 -0.45593999997E+02  0.45594000000E+02  0.51100000000E-03 0. -1.
    9900012    2    1    2    0    0  0.28281392320E+01 -0.12991595570E+02 -0.13187056246E+02  0.72461591391E+02  0.70000027482E+02 0.  0.
        -12    1    1    2    0    0 -0.28281392320E+01  0.12991595570E+02  0.13187056246E+02  0.18726408609E+02  0.00000000000E+00 0.  1.
         11    1    3    3    0    0  0.22164981327E+02 -0.65366628933E+01  0.27759427606E+01  0.23274883834E+02  0.51100000000E-03 0. -1.
        -11    1    3    3    0    0  0.11408866861E+02 -0.21463249771E+01  0.39970219306E+01  0.12277831182E+02  0.51100000000E-03 0.  1.
         12    1    3    3    0    0 -0.30745708956E+02 -0.43086076992E+01 -0.19960020937E+02  0.36908876375E+02  0.00000000000E+00 0. -1.
</event>
<event>
 7    1  0.2577508E-013  0.7246159E+02  0.7816164E-02  0.1226708E+00
        -11   -1    0    0    0    0  0.00000000000E+00  0.00000000000E+00  0.45593999997E+02  0.45594000000E+02  0.51100000000E-03 0. -1.
         11   -1    0    0    0    0 -0.00000000000E+00 -0.00000000000E+00 -0.45593999997E+02  0.45594000000E+02  0.51100000000E-03 0.  1.
    9900012    2    1    2    0    0 -0.18082022072E+02  0.20816978969E+00 -0.48657680630E+01  0.72461586683E+02  0.70000021349E+02 0.  0.
        -12    1    1    2    0    0  0.18082022072E+02 -0.20816978969E+00  0.48657680630E+01  0.18726413317E+02  0.00000000000E+00 0.  1.
         11    1    3    3    0    0  0.16634120946E+02  0.72247770502E+01  0.13681533607E+02  0.22717300569E+02  0.51100000000E-03 0. -1.
        -11    1    3    3    0    0  0.16285795799E+01 -0.21716872782E+00  0.54313990621E+01  0.56744629470E+01  0.51100000000E-03 0.  1.
        -12    1    3    3    0    0 -0.36344722598E+02 -0.67994385327E+01 -0.23978700732E+02  0.44069823166E+02  0.00000000000E+00 0.  1.
</event>
<event>
 7    1  0.2577508E-013  0.7246140E+02  0.7816164E-02  0.1226708E+00
        -11   -1    0    0    0    0  0.00000000000E+00  0.00000000000E+00  0.45593999997E+02  0.45594000000E+02  0.51100000000E-03 0. -1.
         11   -1    0    0    0    0 -0.00000000000E+00 -0.00000000000E+00 -0.45593999997E+02  0.45594000000E+02  0.51100000000E-03 0.  1.
    9900012    2    1    2    0    0 -0.13949039637E+02 -0.12464146873E+02  0.86877181982E+00  0.72461403178E+02  0.69999782300E+02 0.  0.
        -12    1    1    2    0    0  0.13949039637E+02  0.12464146873E+02 -0.86877181982E+00  0.18726596822E+02  0.00000000000E+00 0.  1.
         11    1    3    3    0    0 -0.47740994381E+01 -0.16548208715E+02 -0.26623499436E+02  0.31708767866E+02  0.51100000000E-03 0. -1.
        -11    1    3    3    0    0 -0.88788242215E+01 -0.67686485151E+01 -0.31910483342E-01  0.11164637962E+02  0.51100000000E-03 0.  1.
         12    1    3    3    0    0 -0.29611597699E+00  0.10852710357E+02  0.27524181739E+02  0.29587997350E+02  0.00000000000E+00 0. -1.
</event>
<event>
 7    1  0.2577508E-013  0.7246157E+02  0.7816164E-02  0.1226708E+00
        -11   -1    0    0    0    0  0.00000000000E+00  0.00000000000E+00  0.45593999997E+02  0.45594000000E+02  0.51100000000E-03 0. -1.
         11   -1    0    0    0    0 -0.00000000000E+00 -0.00000000000E+00 -0.45593999997E+02  0.45594000000E+02  0.51100000000E-03 0.  1.
    9900012    2    1    2    0    0 -0.73642537535E+01 -0.15701041463E+02  0.70656962411E+01  0.72461574828E+02  0.70000005906E+02 0.  0.
        -12    1    1    2    0    0  0.73642537535E+01  0.15701041463E+02 -0.70656962411E+01  0.18726425172E+02  0.00000000000E+00 0.  1.
         11    1    3    3    0    0  0.47117411509E+01  0.11138879971E+02 -0.14182381082E+02  0.18639074148E+02  0.51100000000E-03 0. -1.
        -11    1    3    3    0    0  0.13799778013E+02 -0.74218077764E+01  0.10946895126E+01  0.15707178272E+02  0.51100000000E-03 0.  1.
         12    1    3    3    0    0 -0.25875772917E+02 -0.19418113657E+02  0.20153387810E+02  0.38115322408E+02  0.00000000000E+00 0. -1.
</event>
<event>
 7    1  0.2577508E-013  0.7246159E+02  0.7816164E-02  0.1226708E+00
        -11   -1    0    0    0    0  0.00000000000E+00  0.00000000000E+00  0.45593999997E+02  0.45594000000E+02  0.51100000000E-03 0.  1.
         11   -1    0    0    0    0 -0.00000000000E+00 -0.00000000000E+00 -0.45593999997E+02  0.45594000000E+02  0.51100000000E-03 0. -1.
    9900012    2    1    2    0    0  0.17991558462E+02  0.28897815740E+01 -0.43163974748E+01  0.72461593495E+02  0.70000030223E+02 0.  0.
        -12    1    1    2    0    0 -0.17991558462E+02 -0.28897815740E+01  0.43163974748E+01  0.18726406505E+02  0.00000000000E+00 0.  1.
         11    1    3    3    0    0 -0.90177752641E+01  0.20864983393E+01 -0.70590179935E+01  0.11640596262E+02  0.51100000000E-03 0. -1.
        -11    1    3    3    0    0 -0.10003688095E+02  0.17470684869E+02  0.18734046750E+01  0.20219007162E+02  0.51100000000E-03 0.  1.
         12    1    3    3    0    0  0.37013021821E+02 -0.16667401634E+02  0.86921584375E+00  0.40601990071E+02  0.00000000000E+00 0. -1.
</event>
<event>
 7    1  0.2577508E-013  0.7246154E+02  0.7816164E-02  0.1226708E+00
        -11   -1    0    0    0    0  0.00000000000E+00  0.00000000000E+00  0.45593999997E+02  0.45594000000E+02  0.51100000000E-03 0. -1.
         11   -1    0    0    0    0 -0.00000000000E+00 -0.00000000000E+00 -0.45593999997E+02  0.45594000000E+02  0.51100000000E-03 0.  1.
    9900012    2    1    2    0    0 -0.50599516060E+01 -0.52410053667E+00  0.18022275619E+02  0.72461542510E+02  0.69999963806E+02 0.  0.
        -12    1    1    2    0    0  0.50599516060E+01  0.52410053667E+00 -0.18022275619E+02  0.18726457490E+02  0.00000000000E+00 0.  1.
         11    1    3    3    0    0 -0.29638512319E+02  0.46797016455E+01  0.12126088179E+02  0.32363297649E+02  0.51100000000E-03 0. -1.
        -11    1    3    3    0    0  0.89767572519E-02 -0.50709858946E+01 -0.97356696405E+01  0.10977169131E+02  0.51100000000E-03 0.  1.
        -12    1    3    3    0    0  0.24569583955E+02 -0.13281628756E+00  0.15631857080E+02  0.29121075730E+02  0.00000000000E+00 0.  1.
</event>
<event>
 7    1  0.2577508E-013  0.7246158E+02  0.7816164E-02  0.1226708E+00
        -11   -1    0    0    0    0  0.00000000000E+00  0.00000000000E+00  0.45593999997E+02  0.45594000000E+02  0.51100000000E-03 0. -1.
         11   -1    0    0    0    0 -0.00000000000E+00 -0.00000000000E+00 -0.45593999997E+02  0.45594000000E+02  0.51100000000E-03 0.  1.
    9900012    2    1    2    0    0  0.54292724239E+01  0.17754377549E+02  0.24462320690E+01  0.72461575554E+02  0.70000006851E+02 0.  0.
        -12    1    1    2    0    0 -0.54292724239E+01 -0.17754377549E+02 -0.24462320690E+01  0.18726424446E+02  0.00000000000E+00 0.  1.
         11    1    3    3    0    0  0.16781875849E+02  0.15685413652E+02  0.23283823030E+01  0.23088631897E+02  0.51100000000E-03 0. -1.
        -11    1    3    3    0    0  0.17612401783E+02  0.21651380684E+00 -0.78367606755E+01  0.19278443738E+02  0.51100000000E-03 0.  1.
        -12    1    3    3    0    0 -0.28965005209E+02  0.18524500903E+01  0.79546104416E+01  0.30094499919E+02  0.00000000000E+00 0.  1.
</event>
<event>
 7    1  0.2577508E-013  0.7246139E+02  0.7816164E-02  0.1226708E+00
        -11   -1    0    0    0    0  0.00000000000E+00  0.00000000000E+00  0.45593999997E+02  0.45594000000E+02  0.51100000000E-03 0.  1.
         11   -1    0    0    0    0 -0.00000000000E+00 -0.00000000000E+00 -0.45593999997E+02  0.45594000000E+02  0.51100000000E-03 0. -1.
    9900012    2    1    2    0    0  0.13118703121E+02  0.11146269295E+02 -0.73719810676E+01  0.72461393376E+02  0.69999769531E+02 0.  0.
        -12    1    1    2    0    0 -0.13118703121E+02 -0.11146269295E+02  0.73719810676E+01  0.18726606624E+02  0.00000000000E+00 0.  1.
         11    1    3    3    0    0 -0.13937502265E+02 -0.48193858154E+01  0.96401963262E+01  0.17618565052E+02  0.51100000000E-03 0. -1.
        -11    1    3    3    0    0 -0.21969514572E+01 -0.43122221515E+01  0.93642766359E+01  0.10540945535E+02  0.51100000000E-03 0.  1.
         12    1    3    3    0    0  0.29253156843E+02  0.20277877262E+02 -0.26376454030E+02  0.44301882790E+02  0.00000000000E+00 0. -1.
</event>
<event>
 7    1  0.2577508E-013  0.7246158E+02  0.7816164E-02  0.1226708E+00
        -11   -1    0    0    0    0  0.00000000000E+00  0.00000000000E+00  0.45593999997E+02  0.45594000000E+02  0.51100000000E-03 0. -1.
         11   -1    0    0    0    0 -0.00000000000E+00 -0.00000000000E+00 -0.45593999997E+02  0.45594000000E+02  0.51100000000E-03 0.  1.
    9900012    2    1    2    0    0  0.22759755556E+01 -0.12636158853E+02  0.13631808631E+02  0.72461580645E+02  0.70000013484E+02 0.  0.
        -12    1    1    2    0    0 -0.22759755556E+01  0.12636158853E+02 -0.13631808631E+02  0.18726419355E+02  0.00000000000E+00 0.  1.
         11    1    3    3    0    0  0.13991213353E+02 -0.11460332668E+02  0.15697307935E+02  0.23947833986E+02  0.51100000000E-03 0. -1.
        -11    1    3    3    0    0  0.17745181347E+02 -0.33458911594E+00 -0.60980645649E+01  0.18766720614E+02  0.51100000000E-03 0.  1.
         12    1    3    3    0    0 -0.29460419144E+02 -0.84123706982E+00  0.40325652612E+01  0.29747026046E+02  0.00000000000E+00 0. -1.
</event>
<event>
 7    1  0.2577508E-013  0.7246155E+02  0.7816164E-02  0.1226708E+00
        -11   -1    0    0    0    0  0.00000000000E+00  0.00000000000E+00  0.45593999997E+02  0.45594000000E+02  0.51100000000E-03 0.  1.
         11   -1    0    0    0    0 -0.00000000000E+00 -0.00000000000E+00 -0.45593999997E+02  0.45594000000E+02  0.51100000000E-03 0. -1.
    9900012    2    1    2    0    0 -0.12326285521E+02 -0.12010928983E+01 -0.14046346018E+02  0.72461554118E+02  0.69999978928E+02 0.  0.
        -12    1    1    2    0    0  0.12326285521E+02  0.12010928983E+01  0.14046346018E+02  0.18726445882E+02  0.00000000000E+00 0.  1.
         11    1    3    3    0    0  0.12878104226E+01 -0.27477846598E+02 -0.13370445908E+02  0.30585279685E+02  0.51100000000E-03 0. -1.
        -11    1    3    3    0    0  0.36038797888E+01  0.31209368449E+01 -0.10388222119E+02  0.11429932431E+02  0.51100000000E-03 0.  1.
        -12    1    3    3    0    0 -0.17217975732E+02  0.23155816855E+02  0.97123220088E+01  0.30446342002E+02  0.00000000000E+00 0.  1.
</event>
<event>
 7    1  0.2577508E-013  0.7246157E+02  0.7816164E-02  0.1226708E+00
        -11   -1    0    0    0    0  0.00000000000E+00  0.00000000000E+00  0.45593999997E+02  0.45594000000E+02  0.51100000000E-03 0. -1.
         11   -1    0    0    0    0 -0.00000000000E+00 -0.00000000000E+00 -0.45593999997E+02  0.45594000000E+02  0.51100000000E-03 0.  1.
    9900012    2    1    2    0    0 -0.48242764059E+01 -0.10604432295E+02  0.14661226062E+02  0.72461570100E+02  0.69999999747E+02 0.  0.
        -12    1    1    2    0    0  0.48242764059E+01  0.10604432295E+02 -0.14661226062E+02  0.18726429900E+02  0.00000000000E+00 0.  1.
         11    1    3    3    0    0 -0.73037263882E+01 -0.74548316492E+01  0.22517432045E+02  0.24818414137E+02  0.51100000000E-03 0. -1.
        -11    1    3    3    0    0  0.23555898254E+02  0.47134995128E+01 -0.68604869654E+00  0.24032646198E+02  0.51100000000E-03 0.  1.
         12    1    3    3    0    0 -0.21076448272E+02 -0.78631001590E+01 -0.71701572865E+01  0.23610509765E+02  0.00000000000E+00 0. -1.
</event>
<event>
 7    1  0.2577508E-013  0.7246083E+02  0.7816164E-02  0.1226710E+00
        -11   -1    0    0    0    0  0.00000000000E+00  0.00000000000E+00  0.45593999997E+02  0.45594000000E+02  0.51100000000E-03 0.  1.
         11   -1    0    0    0    0 -0.00000000000E+00 -0.00000000000E+00 -0.45593999997E+02  0.45594000000E+02  0.51100000000E-03 0. -1.
    9900012    2    1    2    0    0 -0.97556570382E+01 -0.89586226394E+01 -0.13239223270E+02  0.72460832659E+02  0.69999039086E+02 0.  0.
        -12    1    1    2    0    0  0.97556570382E+01  0.89586226394E+01  0.13239223270E+02  0.18727167341E+02  0.00000000000E+00 0.  1.
         11    1    3    3    0    0 -0.15379805065E+01  0.18409965010E+02 -0.27061757546E+02  0.32766307657E+02  0.51100000000E-03 0. -1.
        -11    1    3    3    0    0 -0.53172288539E+00  0.24108800888E+00 -0.52412460669E+01  0.52736622237E+01  0.51100000000E-03 0.  1.
        -12    1    3    3    0    0 -0.76859536462E+01 -0.27609675658E+02  0.19063780343E+02  0.34420862778E+02  0.00000000000E+00 0.  1.
</event>
<event>
 7    1  0.2577508E-013  0.7246159E+02  0.7816164E-02  0.1226708E+00
        -11   -1    0    0    0    0  0.00000000000E+00  0.00000000000E+00  0.45593999997E+02  0.45594000000E+02  0.51100000000E-03 0.  1.
         11   -1    0    0    0    0 -0.00000000000E+00 -0.00000000000E+00 -0.45593999997E+02  0.45594000000E+02  0.51100000000E-03 0. -1.
    9900012    2    1    2    0    0 -0.81261284342E+01 -0.24765117971E+00 -0.16869590250E+02  0.72461591652E+02  0.70000027822E+02 0.  0.
        -12    1    1    2    0    0  0.81261284342E+01  0.24765117971E+00  0.16869590250E+02  0.18726408348E+02  0.00000000000E+00 0.  1.
         11    1    3    3    0    0 -0.16095387184E+02 -0.13354991658E+01 -0.26790582189E+02  0.31282268794E+02  0.51100000000E-03 0. -1.
        -11    1    3    3    0    0 -0.66811126885E+01  0.48145842447E+01 -0.11998388485E+02  0.14552622262E+02  0.51100000000E-03 0.  1.
        -12    1    3    3    0    0  0.14650371438E+02 -0.37267362585E+01  0.21919380424E+02  0.26626700596E+02  0.00000000000E+00 0.  1.
</event>
<event>
 7    1  0.2577508E-013  0.7246153E+02  0.7816164E-02  0.1226708E+00
        -11   -1    0    0    0    0  0.00000000000E+00  0.00000000000E+00  0.45593999997E+02  0.45594000000E+02  0.51100000000E-03 0.  1.
         11   -1    0    0    0    0 -0.00000000000E+00 -0.00000000000E+00 -0.45593999997E+02  0.45594000000E+02  0.51100000000E-03 0. -1.
    9900012    2    1    2    0    0  0.13261477707E+02  0.13108666769E+02  0.17253517609E+01  0.72461527451E+02  0.69999944189E+02 0.  0.
        -12    1    1    2    0    0 -0.13261477707E+02 -0.13108666769E+02 -0.17253517609E+01  0.18726472549E+02  0.00000000000E+00 0.  1.
         11    1    3    3    0    0 -0.18669892041E+01  0.95757261180E+01 -0.63746232295E+01  0.11654012226E+02  0.51100000000E-03 0. -1.
        -11    1    3    3    0    0  0.22262225123E+02 -0.23393562216E+02  0.24614423563E+01  0.32387098038E+02  0.51100000000E-03 0.  1.
         12    1    3    3    0    0 -0.71337582118E+01  0.26926502867E+02  0.56385326341E+01  0.28420417188E+02  0.00000000000E+00 0. -1.
</event>
<event>
 7    1  0.2577508E-013  0.7246152E+02  0.7816164E-02  0.1226708E+00
        -11   -1    0    0    0    0  0.00000000000E+00  0.00000000000E+00  0.45593999997E+02  0.45594000000E+02  0.51100000000E-03 0.  1.
         11   -1    0    0    0    0 -0.00000000000E+00 -0.00000000000E+00 -0.45593999997E+02  0.45594000000E+02  0.51100000000E-03 0. -1.
    9900012    2    1    2    0    0 -0.16836877922E+02 -0.49742683345E+01 -0.65159186551E+01  0.72461521433E+02  0.69999936349E+02 0.  0.
        -12    1    1    2    0    0  0.16836877922E+02  0.49742683345E+01  0.65159186551E+01  0.18726478567E+02  0.00000000000E+00 0.  1.
         11    1    3    3    0    0 -0.16337751006E+02 -0.15085710522E+02  0.63718254784E+01  0.23132248704E+02  0.51100000000E-03 0.  1.
        -11    1    3    3    0    0  0.91164898365E+01  0.26310225899E+01  0.15648961988E+02  0.18300892830E+02  0.51100000000E-03 0. -1.
         12    1    3    3    0    0 -0.96156167520E+01  0.74804195976E+01 -0.28536706122E+02  0.31028379899E+02  0.00000000000E+00 0. -1.
</event>
<event>
 7    1  0.2577508E-013  0.7246171E+02  0.7816164E-02  0.1226708E+00
        -11   -1    0    0    0    0  0.00000000000E+00  0.00000000000E+00  0.45593999997E+02  0.45594000000E+02  0.51100000000E-03 0.  1.
         11   -1    0    0    0    0 -0.00000000000E+00 -0.00000000000E+00 -0.45593999997E+02  0.45594000000E+02  0.51100000000E-03 0. -1.
    9900012    2    1    2    0    0  0.30215930053E+01 -0.14650285825E+01 -0.18422743503E+02  0.72461713363E+02  0.70000186373E+02 0.  0.
        -12    1    1    2    0    0 -0.30215930053E+01  0.14650285825E+01  0.18422743503E+02  0.18726286637E+02  0.00000000000E+00 0.  1.
         11    1    3    3    0    0 -0.42663032863E+01  0.19585317185E+02 -0.30333342128E+02  0.36357910251E+02  0.51100000000E-03 0. -1.
        -11    1    3    3    0    0 -0.20890420940E+01  0.10260323396E+01 -0.58255115304E+01  0.62732307533E+01  0.51100000000E-03 0.  1.
        -12    1    3    3    0    0  0.93769383856E+01 -0.22076378107E+02  0.17736110155E+02  0.29830572358E+02  0.00000000000E+00 0.  1.
</event>
<event>
 7    1  0.2577508E-013  0.7246180E+02  0.7816164E-02  0.1226707E+00
        -11   -1    0    0    0    0  0.00000000000E+00  0.00000000000E+00  0.45593999997E+02  0.45594000000E+02  0.51100000000E-03 0. -1.
         11   -1    0    0    0    0 -0.00000000000E+00 -0.00000000000E+00 -0.45593999997E+02  0.45594000000E+02  0.51100000000E-03 0.  1.
    9900012    2    1    2    0    0  0.13567203267E+02 -0.10749620334E+02 -0.71447382957E+01  0.72461798380E+02  0.70000297123E+02 0.  0.
        -12    1    1    2    0    0 -0.13567203267E+02  0.10749620334E+02  0.71447382957E+01  0.18726201620E+02  0.00000000000E+00 0.  1.
         11    1    3    3    0    0  0.15566361631E+02 -0.13046737895E+02  0.14925654794E+02  0.25205240634E+02  0.51100000000E-03 0. -1.
        -11    1    3    3    0    0  0.11884361004E+02 -0.15254230521E+02 -0.88673820557E+01  0.21273458817E+02  0.51100000000E-03 0.  1.
        -12    1    3    3    0    0 -0.13883519368E+02  0.17551348083E+02 -0.13203011034E+02  0.25983098928E+02  0.00000000000E+00 0.  1.
</event>
<event>
 7    1  0.2577508E-013  0.7246154E+02  0.7816164E-02  0.1226708E+00
        -11   -1    0    0    0    0  0.00000000000E+00  0.00000000000E+00  0.45593999997E+02  0.45594000000E+02  0.51100000000E-03 0.  1.
         11   -1    0    0    0    0 -0.00000000000E+00 -0.00000000000E+00 -0.45593999997E+02  0.45594000000E+02  0.51100000000E-03 0. -1.
    9900012    2    1    2    0    0 -0.40786811897E+01  0.15516071527E+02 -0.96589884665E+01  0.72461543473E+02  0.69999965060E+02 0.  0.
        -12    1    1    2    0    0  0.40786811897E+01 -0.15516071527E+02  0.96589884665E+01  0.18726456527E+02  0.00000000000E+00 0.  1.
         11    1    3    3    0    0 -0.13329707898E+02  0.31412067365E+02 -0.58820014218E+01  0.34626536497E+02  0.51100000000E-03 0. -1.
        -11    1    3    3    0    0 -0.11115912499E+02  0.66250135929E+00 -0.31747910776E+01  0.11579366018E+02  0.51100000000E-03 0.  1.
        -12    1    3    3    0    0  0.20366939207E+02 -0.16558497198E+02 -0.60219596709E+00  0.26255640958E+02  0.00000000000E+00 0.  1.
</event>
<event>
 7    1  0.2577508E-013  0.7246116E+02  0.7816164E-02  0.1226709E+00
        -11   -1    0    0    0    0  0.00000000000E+00  0.00000000000E+00  0.45593999997E+02  0.45594000000E+02  0.51100000000E-03 0. -1.
         11   -1    0    0    0    0 -0.00000000000E+00 -0.00000000000E+00 -0.45593999997E+02  0.45594000000E+02  0.51100000000E-03 0.  1.
    9900012    2    1    2    0    0  0.26185895884E+01  0.16692943349E+02  0.80736000373E+01  0.72461163998E+02  0.69999470721E+02 0.  0.
        -12    1    1    2    0    0 -0.26185895884E+01 -0.16692943349E+02 -0.80736000373E+01  0.18726836002E+02  0.00000000000E+00 0.  1.
         11    1    3    3    0    0  0.12419072810E+01  0.21650067582E+01 -0.47860598465E+01  0.53977733440E+01  0.51100000000E-03 0. -1.
        -11    1    3    3    0    0  0.12274433328E+01  0.25174311314E+02 -0.20219903101E+02  0.32312490603E+02  0.51100000000E-03 0.  1.
         12    1    3    3    0    0  0.14923897453E+00 -0.10646374723E+02  0.33079562985E+02  0.34750900050E+02  0.00000000000E+00 0. -1.
</event>
<event>
 7    1  0.2577508E-013  0.7246159E+02  0.7816164E-02  0.1226708E+00
        -11   -1    0    0    0    0  0.00000000000E+00  0.00000000000E+00  0.45593999997E+02  0.45594000000E+02  0.51100000000E-03 0.  1.
         11   -1    0    0    0    0 -0.00000000000E+00 -0.00000000000E+00 -0.45593999997E+02  0.45594000000E+02  0.51100000000E-03 0. -1.
    9900012    2    1    2    0    0  0.51092011649E+01 -0.12285710534E+02 -0.13177091055E+02  0.72461592214E+02  0.70000028555E+02 0.  0.
        -12    1    1    2    0    0 -0.51092011649E+01  0.12285710534E+02  0.13177091055E+02  0.18726407786E+02  0.00000000000E+00 0.  1.
         11    1    3    3    0    0  0.29652967206E+02 -0.24989527564E+02 -0.52115146496E+01  0.39127162397E+02  0.51100000000E-03 0. -1.
        -11    1    3    3    0    0  0.59571879446E+00 -0.27664541075E+01 -0.10380149122E+01  0.30142369565E+01  0.51100000000E-03 0.  1.
        -12    1    3    3    0    0 -0.25139484836E+02  0.15470271137E+02 -0.69275614936E+01  0.30320192861E+02  0.00000000000E+00 0.  1.
</event>
<event>
 7    1  0.2577508E-013  0.7246158E+02  0.7816164E-02  0.1226708E+00
        -11   -1    0    0    0    0  0.00000000000E+00  0.00000000000E+00  0.45593999997E+02  0.45594000000E+02  0.51100000000E-03 0.  1.
         11   -1    0    0    0    0 -0.00000000000E+00 -0.00000000000E+00 -0.45593999997E+02  0.45594000000E+02  0.51100000000E-03 0. -1.
    9900012    2    1    2    0    0  0.44645957679E+01 -0.21031544681E+00 -0.18185213363E+02  0.72461579279E+02  0.70000011705E+02 0.  0.
        -12    1    1    2    0    0 -0.44645957679E+01  0.21031544681E+00  0.18185213363E+02  0.18726420721E+02  0.00000000000E+00 0.  1.
         11    1    3    3    0    0 -0.37215967373E+01 -0.73722012218E+01 -0.15671381242E+02  0.17714170131E+02  0.51100000000E-03 0. -1.
        -11    1    3    3    0    0 -0.11361111935E+02 -0.17975396877E+02  0.53918007412E+01  0.21937667898E+02  0.51100000000E-03 0.  1.
         12    1    3    3    0    0  0.19547304440E+02  0.25137282652E+02 -0.79056328618E+01  0.32809741251E+02  0.00000000000E+00 0. -1.
</event>
<event>
 7    1  0.2577508E-013  0.7246159E+02  0.7816164E-02  0.1226708E+00
        -11   -1    0    0    0    0  0.00000000000E+00  0.00000000000E+00  0.45593999997E+02  0.45594000000E+02  0.51100000000E-03 0.  1.
         11   -1    0    0    0    0 -0.00000000000E+00 -0.00000000000E+00 -0.45593999997E+02  0.45594000000E+02  0.51100000000E-03 0. -1.
    9900012    2    1    2    0    0 -0.18696743321E+02 -0.10146074007E+01  0.28455773535E+00  0.72461585178E+02  0.70000019389E+02 0.  0.
        -12    1    1    2    0    0  0.18696743321E+02  0.10146074007E+01 -0.28455773535E+00  0.18726414822E+02  0.00000000000E+00 0.  1.
         11    1    3    3    0    0 -0.73802875610E+01 -0.21225966163E+02  0.21094717638E+01  0.22571224057E+02  0.51100000000E-03 0. -1.
        -11    1    3    3    0    0  0.93938303076E+01 -0.87206721643E+01 -0.58371551470E+01  0.14084266091E+02  0.51100000000E-03 0.  1.
        -12    1    3    3    0    0 -0.20710286067E+02  0.28932030927E+02  0.40122411185E+01  0.35806095030E+02  0.00000000000E+00 0.  1.
</event>
<event>
 7    1  0.2577508E-013  0.7246162E+02  0.7816164E-02  0.1226708E+00
        -11   -1    0    0    0    0  0.00000000000E+00  0.00000000000E+00  0.45593999997E+02  0.45594000000E+02  0.51100000000E-03 0.  1.
         11   -1    0    0    0    0 -0.00000000000E+00 -0.00000000000E+00 -0.45593999997E+02  0.45594000000E+02  0.51100000000E-03 0. -1.
    9900012    2    1    2    0    0  0.15353176201E+02 -0.96277573224E+01 -0.47184113344E+01  0.72461624589E+02  0.70000070728E+02 0.  0.
        -12    1    1    2    0    0 -0.15353176201E+02  0.96277573224E+01  0.47184113344E+01  0.18726375411E+02  0.00000000000E+00 0.  1.
         11    1    3    3    0    0  0.24830856241E+02 -0.42818039667E+01 -0.15663751787E+01  0.25245965982E+02  0.51100000000E-03 0. -1.
        -11    1    3    3    0    0  0.54253221383E+01  0.87210695195E+01  0.16100337200E+02  0.19097435222E+02  0.51100000000E-03 0.  1.
        -12    1    3    3    0    0 -0.14903002178E+02 -0.14067022875E+02 -0.19252373355E+02  0.28118223385E+02  0.00000000000E+00 0.  1.
</event>
<event>
 7    1  0.2577508E-013  0.7246176E+02  0.7816164E-02  0.1226708E+00
        -11   -1    0    0    0    0  0.00000000000E+00  0.00000000000E+00  0.45593999997E+02  0.45594000000E+02  0.51100000000E-03 0.  1.
         11   -1    0    0    0    0 -0.00000000000E+00 -0.00000000000E+00 -0.45593999997E+02  0.45594000000E+02  0.51100000000E-03 0. -1.
    9900012    2    1    2    0    0 -0.10499372103E+02 -0.15500719880E+02  0.40367626247E+00  0.72461759431E+02  0.70000246385E+02 0.  0.
        -12    1    1    2    0    0  0.10499372103E+02  0.15500719880E+02 -0.40367626247E+00  0.18726240569E+02  0.00000000000E+00 0.  1.
         11    1    3    3    0    0 -0.13473680391E+01  0.20505853167E+02 -0.60783177014E+00  0.20559058210E+02  0.51100000000E-03 0. -1.
        -11    1    3    3    0    0 -0.47162134054E+01 -0.43483062831E+01 -0.14879441970E+02  0.16203340089E+02  0.51100000000E-03 0.  1.
        -12    1    3    3    0    0 -0.44357906584E+01 -0.31658266764E+02  0.15890950003E+02  0.35699361132E+02  0.00000000000E+00 0.  1.
</event>
<event>
 7    1  0.2577508E-013  0.7246159E+02  0.7816164E-02  0.1226708E+00
        -11   -1    0    0    0    0  0.00000000000E+00  0.00000000000E+00  0.45593999997E+02  0.45594000000E+02  0.51100000000E-03 0. -1.
         11   -1    0    0    0    0 -0.00000000000E+00 -0.00000000000E+00 -0.45593999997E+02  0.45594000000E+02  0.51100000000E-03 0.  1.
    9900012    2    1    2    0    0 -0.59496343570E+01 -0.11556749817E+02  0.13480421091E+02  0.72461591692E+02  0.70000027875E+02 0.  0.
        -12    1    1    2    0    0  0.59496343570E+01  0.11556749817E+02 -0.13480421091E+02  0.18726408308E+02  0.00000000000E+00 0.  1.
         11    1    3    3    0    0 -0.14573888576E+02  0.11841553164E+01  0.44905190316E+01  0.15295921466E+02  0.51100000000E-03 0. -1.
        -11    1    3    3    0    0  0.10034852809E+02  0.12199991982E+02 -0.15536938178E+02  0.22157042300E+02  0.51100000000E-03 0.  1.
        -12    1    3    3    0    0 -0.14105985903E+01 -0.24940897116E+02  0.24526840237E+02  0.35008627927E+02  0.00000000000E+00 0.  1.
</event>
<event>
 7    1  0.2577508E-013  0.7246155E+02  0.7816164E-02  0.1226708E+00
        -11   -1    0    0    0    0  0.00000000000E+00  0.00000000000E+00  0.45593999997E+02  0.45594000000E+02  0.51100000000E-03 0.  1.
         11   -1    0    0    0    0 -0.00000000000E+00 -0.00000000000E+00 -0.45593999997E+02  0.45594000000E+02  0.51100000000E-03 0. -1.
    9900012    2    1    2    0    0 -0.64212728571E+01 -0.59155138990E+01 -0.16566649641E+02  0.72461549986E+02  0.69999973545E+02 0.  0.
        -12    1    1    2    0    0  0.64212728571E+01  0.59155138990E+01  0.16566649641E+02  0.18726450014E+02  0.00000000000E+00 0.  1.
         11    1    3    3    0    0  0.30388004265E+00 -0.46975950184E+01  0.16903245112E+01  0.50016936383E+01  0.51100000000E-03 0. -1.
        -11    1    3    3    0    0 -0.14589312596E+02 -0.30871889709E+02 -0.75873255935E+01  0.34978409428E+02  0.51100000000E-03 0.  1.
         12    1    3    3    0    0  0.78641596962E+01  0.29653970828E+02 -0.10669648559E+02  0.32481446919E+02  0.00000000000E+00 0. -1.
</event>
<event>
 7    1  0.2577508E-013  0.7246160E+02  0.7816164E-02  0.1226708E+00
        -11   -1    0    0    0    0  0.00000000000E+00  0.00000000000E+00  0.45593999997E+02  0.45594000000E+02  0.51100000000E-03 0. -1.
         11   -1    0    0    0    0 -0.00000000000E+00 -0.00000000000E+00 -0.45593999997E+02  0.45594000000E+02  0.51100000000E-03 0.  1.
    9900012    2    1    2    0    0  0.18707154917E+02  0.72712353156E+00  0.43772961321E+00  0.72461602564E+02  0.70000042037E+02 0.  0.
        -12    1    1    2    0    0 -0.18707154917E+02 -0.72712353156E+00 -0.43772961321E+00  0.18726397436E+02  0.00000000000E+00 0.  1.
         11    1    3    3    0    0  0.57227160493E+01  0.23775048721E+01  0.53599960932E+01  0.81933855504E+01  0.51100000000E-03 0. -1.
        -11    1    3    3    0    0 -0.23323461703E+02 -0.78705769839E+01 -0.10950294406E+02  0.26941395579E+02  0.51100000000E-03 0.  1.
         12    1    3    3    0    0  0.36307900571E+02  0.62201956434E+01  0.60280279261E+01  0.37326821435E+02  0.00000000000E+00 0. -1.
</event>
<event>
 7    1  0.2577508E-013  0.7246158E+02  0.7816164E-02  0.1226708E+00
        -11   -1    0    0    0    0  0.00000000000E+00  0.00000000000E+00  0.45593999997E+02  0.45594000000E+02  0.51100000000E-03 0. -1.
         11   -1    0    0    0    0 -0.00000000000E+00 -0.00000000000E+00 -0.45593999997E+02  0.45594000000E+02  0.51100000000E-03 0.  1.
    9900012    2    1    2    0    0  0.53780468111E+01  0.14939843014E+02  0.99275701877E+01  0.72461576246E+02  0.70000007753E+02 0.  0.
        -12    1    1    2    0    0 -0.53780468111E+01 -0.14939843014E+02 -0.99275701877E+01  0.18726423754E+02  0.00000000000E+00 0.  1.
         11    1    3    3    0    0  0.68435343496E+01  0.15611380492E+02  0.19567608972E+02  0.25950731866E+02  0.51100000000E-03 0. -1.
        -11    1    3    3    0    0  0.14949929716E+02  0.19670291963E+01  0.11964907032E+02  0.19249119536E+02  0.51100000000E-03 0.  1.
        -12    1    3    3    0    0 -0.16415417255E+02 -0.26385666739E+01 -0.21604945816E+02  0.27261724844E+02  0.00000000000E+00 0.  1.
</event>
<event>
 7    1  0.2577508E-013  0.7246157E+02  0.7816164E-02  0.1226708E+00
        -11   -1    0    0    0    0  0.00000000000E+00  0.00000000000E+00  0.45593999997E+02  0.45594000000E+02  0.51100000000E-03 0.  1.
         11   -1    0    0    0    0 -0.00000000000E+00 -0.00000000000E+00 -0.45593999997E+02  0.45594000000E+02  0.51100000000E-03 0. -1.
    9900012    2    1    2    0    0 -0.25433475527E+01  0.50848119100E+01 -0.17842517159E+02  0.72461565543E+02  0.69999993810E+02 0.  0.
        -12    1    1    2    0    0  0.25433475527E+01 -0.50848119100E+01  0.17842517159E+02  0.18726434457E+02  0.00000000000E+00 0.  1.
         11    1    3    3    0    0 -0.15183316559E+02  0.24601539931E+02 -0.11607587357E+02  0.31152928485E+02  0.51100000000E-03 0. -1.
        -11    1    3    3    0    0  0.12328259509E+02  0.52582170504E+01 -0.93425198842E+01  0.16337610202E+02  0.51100000000E-03 0.  1.
        -12    1    3    3    0    0  0.31170949671E+00 -0.24774945071E+02  0.31075900825E+01  0.24971026855E+02  0.00000000000E+00 0.  1.
</event>
<event>
 7    1  0.2577508E-013  0.7246157E+02  0.7816164E-02  0.1226708E+00
        -11   -1    0    0    0    0  0.00000000000E+00  0.00000000000E+00  0.45593999997E+02  0.45594000000E+02  0.51100000000E-03 0.  1.
         11   -1    0    0    0    0 -0.00000000000E+00 -0.00000000000E+00 -0.45593999997E+02  0.45594000000E+02  0.51100000000E-03 0. -1.
    9900012    2    1    2    0    0  0.16159130013E+01  0.18559171943E+02 -0.19040025897E+01  0.72461567775E+02  0.69999996718E+02 0.  0.
        -12    1    1    2    0    0 -0.16159130013E+01 -0.18559171943E+02  0.19040025897E+01  0.18726432225E+02  0.00000000000E+00 0.  1.
         11    1    3    3    0    0  0.20555020506E+02  0.27999303433E+01  0.63878574448E+01  0.21706063690E+02  0.51100000000E-03 0. -1.
        -11    1    3    3    0    0 -0.24061693149E+02  0.35823811999E+00  0.10212431280E+02  0.26141674864E+02  0.51100000000E-03 0.  1.
         12    1    3    3    0    0  0.51225856449E+01  0.15401003480E+02 -0.18504291314E+02  0.24613829221E+02  0.00000000000E+00 0. -1.
</event>
<event>
 7    1  0.2577508E-013  0.7246178E+02  0.7816164E-02  0.1226707E+00
        -11   -1    0    0    0    0  0.00000000000E+00  0.00000000000E+00  0.45593999997E+02  0.45594000000E+02  0.51100000000E-03 0.  1.
         11   -1    0    0    0    0 -0.00000000000E+00 -0.00000000000E+00 -0.45593999997E+02  0.45594000000E+02  0.51100000000E-03 0. -1.
    9900012    2    1    2    0    0 -0.16555594642E+02 -0.78005437799E+01 -0.39667544245E+01  0.72461779402E+02  0.70000272401E+02 0.  0.
        -12    1    1    2    0    0  0.16555594642E+02  0.78005437799E+01  0.39667544245E+01  0.18726220598E+02  0.00000000000E+00 0.  1.
         11    1    3    3    0    0 -0.82795544321E+01  0.10367854823E+02 -0.20206185802E+02  0.24172988647E+02  0.51100000000E-03 0. -1.
        -11    1    3    3    0    0  0.99503941048E+01  0.84415609231E+01  0.66159778342E+01  0.14630155728E+02  0.51100000000E-03 0.  1.
         12    1    3    3    0    0 -0.18226434315E+02 -0.26609959526E+02  0.96234535431E+01  0.33658635027E+02  0.00000000000E+00 0. -1.
</event>
<event>
 7    1  0.2577508E-013  0.7246158E+02  0.7816164E-02  0.1226708E+00
        -11   -1    0    0    0    0  0.00000000000E+00  0.00000000000E+00  0.45593999997E+02  0.45594000000E+02  0.51100000000E-03 0.  1.
         11   -1    0    0    0    0 -0.00000000000E+00 -0.00000000000E+00 -0.45593999997E+02  0.45594000000E+02  0.51100000000E-03 0. -1.
    9900012    2    1    2    0    0 -0.11520907558E+02  0.47909929238E+01 -0.13964022565E+02  0.72461578816E+02  0.70000011101E+02 0.  0.
        -12    1    1    2    0    0  0.11520907558E+02 -0.47909929238E+01  0.13964022565E+02  0.18726421184E+02  0.00000000000E+00 0.  1.
         11    1    3    3    0    0 -0.18129183123E+02  0.98008016716E+01 -0.28825181995E+02  0.35434645637E+02  0.51100000000E-03 0. -1.
        -11    1    3    3    0    0 -0.10479766415E+02 -0.67465819029E+01 -0.23815679090E+01  0.12689118860E+02  0.51100000000E-03 0.  1.
        -12    1    3    3    0    0  0.17088041980E+02  0.17367731551E+01  0.17242727340E+02  0.24337814319E+02  0.00000000000E+00 0.  1.
</event>
<event>
 7    1  0.2577508E-013  0.7246156E+02  0.7816164E-02  0.1226708E+00
        -11   -1    0    0    0    0  0.00000000000E+00  0.00000000000E+00  0.45593999997E+02  0.45594000000E+02  0.51100000000E-03 0.  1.
         11   -1    0    0    0    0 -0.00000000000E+00 -0.00000000000E+00 -0.45593999997E+02  0.45594000000E+02  0.51100000000E-03 0. -1.
    9900012    2    1    2    0    0 -0.91518409164E+01  0.14697220820E+02  0.71354758461E+01  0.72461561269E+02  0.69999988243E+02 0.  0.
        -12    1    1    2    0    0  0.91518409164E+01 -0.14697220820E+02 -0.71354758461E+01  0.18726438731E+02  0.00000000000E+00 0.  1.
         11    1    3    3    0    0  0.20260650274E+02  0.59182537689E+01 -0.12681025036E+02  0.24623729885E+02  0.51100000000E-03 0. -1.
        -11    1    3    3    0    0 -0.16800035579E+01  0.13567141600E+02  0.13035697605E+02  0.18889657368E+02  0.51100000000E-03 0.  1.
        -12    1    3    3    0    0 -0.27732487633E+02 -0.47881745487E+01  0.67808032775E+01  0.28948174016E+02  0.00000000000E+00 0.  1.
</event>
<event>
 7    1  0.2577508E-013  0.7246161E+02  0.7816164E-02  0.1226708E+00
        -11   -1    0    0    0    0  0.00000000000E+00  0.00000000000E+00  0.45593999997E+02  0.45594000000E+02  0.51100000000E-03 0. -1.
         11   -1    0    0    0    0 -0.00000000000E+00 -0.00000000000E+00 -0.45593999997E+02  0.45594000000E+02  0.51100000000E-03 0.  1.
    9900012    2    1    2    0    0 -0.18615034497E+02 -0.87035924938E+00 -0.18440898124E+01  0.72461609484E+02  0.70000051051E+02 0.  0.
        -12    1    1    2    0    0  0.18615034497E+02  0.87035924938E+00  0.18440898124E+01  0.18726390516E+02  0.00000000000E+00 0.  1.
         11    1    3    3    0    0 -0.83730216828E+01 -0.30184282962E+02  0.21695526697E+01  0.31399130387E+02  0.51100000000E-03 0. -1.
        -11    1    3    3    0    0 -0.11824010769E+02  0.92716853853E+00  0.19319932626E+01  0.12016633073E+02  0.51100000000E-03 0.  1.
        -12    1    3    3    0    0  0.15819979557E+01  0.28386755174E+02 -0.59456357448E+01  0.29045846024E+02  0.00000000000E+00 0.  1.
</event>
<event>
 7    1  0.2577508E-013  0.7246171E+02  0.7816164E-02  0.1226708E+00
        -11   -1    0    0    0    0  0.00000000000E+00  0.00000000000E+00  0.45593999997E+02  0.45594000000E+02  0.51100000000E-03 0.  1.
         11   -1    0    0    0    0 -0.00000000000E+00 -0.00000000000E+00 -0.45593999997E+02  0.45594000000E+02  0.51100000000E-03 0. -1.
    9900012    2    1    2    0    0 -0.37391538153E+01 -0.17546089792E+02 -0.53691007070E+01  0.72461714179E+02  0.70000187437E+02 0.  0.
        -12    1    1    2    0    0  0.37391538153E+01  0.17546089792E+02  0.53691007070E+01  0.18726285821E+02  0.00000000000E+00 0.  1.
         11    1    3    3    0    0  0.40976675334E+01  0.39428409611E+00  0.82305297444E-01  0.41174158869E+01  0.51100000000E-03 0. -1.
        -11    1    3    3    0    0  0.68694793013E+01 -0.88394037496E+01  0.28292371708E+02  0.30426684040E+02  0.51100000000E-03 0.  1.
         12    1    3    3    0    0 -0.14706300650E+02 -0.91009701382E+01 -0.33743777713E+02  0.37917614252E+02  0.00000000000E+00 0. -1.
</event>
<event>
 7    1  0.2577508E-013  0.7246157E+02  0.7816164E-02  0.1226708E+00
        -11   -1    0    0    0    0  0.00000000000E+00  0.00000000000E+00  0.45593999997E+02  0.45594000000E+02  0.51100000000E-03 0. -1.
         11   -1    0    0    0    0 -0.00000000000E+00 -0.00000000000E+00 -0.45593999997E+02  0.45594000000E+02  0.51100000000E-03 0.  1.
    9900012    2    1    2    0    0  0.86819400741E+01 -0.16573308165E+02 -0.79278473365E+00  0.72461571226E+02  0.70000001214E+02 0.  0.
        -12    1    1    2    0    0 -0.86819400741E+01  0.16573308165E+02  0.79278473365E+00  0.18726428774E+02  0.00000000000E+00 0.  1.
         11    1    3    3    0    0 -0.10246725846E+02 -0.53876249234E+01  0.12614007482E+02  0.17121187981E+02  0.51100000000E-03 0. -1.
        -11    1    3    3    0    0  0.77216754017E+01 -0.13010306410E+02 -0.30946181974E+02  0.34446458786E+02  0.51100000000E-03 0.  1.
         12    1    3    3    0    0  0.11206990518E+02  0.18246231682E+01  0.17539389758E+02  0.20893924458E+02  0.00000000000E+00 0. -1.
</event>
<event>
 7    1  0.2577508E-013  0.7246156E+02  0.7816164E-02  0.1226708E+00
        -11   -1    0    0    0    0  0.00000000000E+00  0.00000000000E+00  0.45593999997E+02  0.45594000000E+02  0.51100000000E-03 0. -1.
         11   -1    0    0    0    0 -0.00000000000E+00 -0.00000000000E+00 -0.45593999997E+02  0.45594000000E+02  0.51100000000E-03 0.  1.
    9900012    2    1    2    0    0  0.60992622255E+00  0.13387150769E+02  0.13080202870E+02  0.72461560861E+02  0.69999987711E+02 0.  0.
        -12    1    1    2    0    0 -0.60992622255E+00 -0.13387150769E+02 -0.13080202870E+02  0.18726439139E+02  0.00000000000E+00 0.  1.
         11    1    3    3    0    0  0.54614242367E+01  0.14805845739E+02 -0.29985925969E+01  0.16063367659E+02  0.51100000000E-03 0. -1.
        -11    1    3    3    0    0 -0.29255831041E+02  0.91913930114E+00  0.59320838275E+01  0.29865332507E+02  0.51100000000E-03 0.  1.
        -12    1    3    3    0    0  0.24404333027E+02 -0.23378342707E+01  0.10146711639E+02  0.26532860695E+02  0.00000000000E+00 0.  1.
</event>
<event>
 7    1  0.2577508E-013  0.7246154E+02  0.7816164E-02  0.1226708E+00
        -11   -1    0    0    0    0  0.00000000000E+00  0.00000000000E+00  0.45593999997E+02  0.45594000000E+02  0.51100000000E-03 0.  1.
         11   -1    0    0    0    0 -0.00000000000E+00 -0.00000000000E+00 -0.45593999997E+02  0.45594000000E+02  0.51100000000E-03 0. -1.
    9900012    2    1    2    0    0 -0.11942776154E+02  0.13445211313E+02  0.52227160491E+01  0.72461538176E+02  0.69999958160E+02 0.  0.
        -12    1    1    2    0    0  0.11942776154E+02 -0.13445211313E+02 -0.52227160491E+01  0.18726461824E+02  0.00000000000E+00 0.  1.
         11    1    3    3    0    0  0.15496644753E+00  0.13687935985E+02  0.13455603260E+01  0.13754786040E+02  0.51100000000E-03 0. -1.
        -11    1    3    3    0    0 -0.15026123804E+01  0.26118335227E+02  0.12530481532E+02  0.29007554993E+02  0.51100000000E-03 0.  1.
         12    1    3    3    0    0 -0.10595130221E+02 -0.26361059899E+02 -0.86533258088E+01  0.29699197143E+02  0.00000000000E+00 0. -1.
</event>
<event>
 7    1  0.2577508E-013  0.7246162E+02  0.7816164E-02  0.1226708E+00
        -11   -1    0    0    0    0  0.00000000000E+00  0.00000000000E+00  0.45593999997E+02  0.45594000000E+02  0.51100000000E-03 0.  1.
         11   -1    0    0    0    0 -0.00000000000E+00 -0.00000000000E+00 -0.45593999997E+02  0.45594000000E+02  0.51100000000E-03 0. -1.
    9900012    2    1    2    0    0 -0.23421257785E+01 -0.11816752071E+02 -0.14337226661E+02  0.72461621519E+02  0.70000066730E+02 0.  0.
        -12    1    1    2    0    0  0.23421257785E+01  0.11816752071E+02  0.14337226661E+02  0.18726378481E+02  0.00000000000E+00 0.  1.
         11    1    3    3    0    0  0.30875407027E+01 -0.19177049420E+02 -0.84251822715E+01  0.21172525325E+02  0.51100000000E-03 0. -1.
        -11    1    3    3    0    0  0.79839720587E+01 -0.18322497033E+02 -0.94341270467E+01  0.22101141617E+02  0.51100000000E-03 0.  1.
        -12    1    3    3    0    0 -0.13413638540E+02  0.25682794382E+02  0.35220826571E+01  0.29187954577E+02  0.00000000000E+00 0.  1.
</event>
<event>
 7    1  0.2577508E-013  0.7246153E+02  0.7816164E-02  0.1226708E+00
        -11   -1    0    0    0    0  0.00000000000E+00  0.00000000000E+00  0.45593999997E+02  0.45594000000E+02  0.51100000000E-03 0. -1.
         11   -1    0    0    0    0 -0.00000000000E+00 -0.00000000000E+00 -0.45593999997E+02  0.45594000000E+02  0.51100000000E-03 0.  1.
    9900012    2    1    2    0    0 -0.10258705382E+02 -0.49388316994E+00  0.15658723060E+02  0.72461533046E+02  0.69999951477E+02 0.  0.
        -12    1    1    2    0    0  0.10258705382E+02  0.49388316994E+00 -0.15658723060E+02  0.18726466954E+02  0.00000000000E+00 0.  1.
         11    1    3    3    0    0 -0.89883462876E+01 -0.23984532366E+01 -0.18883073072E+02  0.21050258806E+02  0.51100000000E-03 0. -1.
        -11    1    3    3    0    0 -0.15658594997E+02  0.97316377686E+01  0.77278705691E+01  0.19990406567E+02  0.51100000000E-03 0.  1.
         12    1    3    3    0    0  0.14388235902E+02 -0.78270677019E+01  0.26813925563E+02  0.31420867672E+02  0.00000000000E+00 0. -1.
</event>
<event>
 7    1  0.2577508E-013  0.7246140E+02  0.7816164E-02  0.1226708E+00
        -11   -1    0    0    0    0  0.00000000000E+00  0.00000000000E+00  0.45593999997E+02  0.45594000000E+02  0.51100000000E-03 0.  1.
         11   -1    0    0    0    0 -0.00000000000E+00 -0.00000000000E+00 -0.45593999997E+02  0.45594000000E+02  0.51100000000E-03 0. -1.
    9900012    2    1    2    0    0 -0.14962057060E+02  0.11120730821E+02  0.17752711897E+01  0.72461404120E+02  0.69999783527E+02 0.  0.
        -12    1    1    2    0    0  0.14962057060E+02 -0.11120730821E+02 -0.17752711897E+01  0.18726595880E+02  0.00000000000E+00 0.  1.
         11    1    3    3    0    0  0.75906761272E+01 -0.21954707935E+02 -0.74877035184E+01  0.24406828323E+02  0.51100000000E-03 0. -1.
        -11    1    3    3    0    0 -0.53541372567E+01 -0.31142899360E+01  0.46006979570E+01  0.77156989004E+01  0.51100000000E-03 0.  1.
        -12    1    3    3    0    0 -0.17198595930E+02  0.36189728692E+02  0.46622767511E+01  0.40338876896E+02  0.00000000000E+00 0.  1.
</event>
<event>
 7    1  0.2577508E-013  0.7246158E+02  0.7816164E-02  0.1226708E+00
        -11   -1    0    0    0    0  0.00000000000E+00  0.00000000000E+00  0.45593999997E+02  0.45594000000E+02  0.51100000000E-03 0. -1.
         11   -1    0    0    0    0 -0.00000000000E+00 -0.00000000000E+00 -0.45593999997E+02  0.45594000000E+02  0.51100000000E-03 0.  1.
    9900012    2    1    2    0    0  0.97827770907E+01  0.10698245397E+02  0.11854262794E+02  0.72461582068E+02  0.70000015338E+02 0.  0.
        -12    1    1    2    0    0 -0.97827770907E+01 -0.10698245397E+02 -0.11854262794E+02  0.18726417932E+02  0.00000000000E+00 0.  1.
         11    1    3    3    0    0 -0.18101854984E+02  0.14639170010E+02  0.20232725960E+01  0.23368270897E+02  0.51100000000E-03 0. -1.
        -11    1    3    3    0    0 -0.96207409924E+01  0.11414173354E+01 -0.96326855889E+00  0.97359836356E+01  0.51100000000E-03 0.  1.
         12    1    3    3    0    0  0.37505373067E+02 -0.50823419492E+01  0.10794258757E+02  0.39357327535E+02  0.00000000000E+00 0. -1.
</event>
<event>
 7    1  0.2577508E-013  0.7246161E+02  0.7816164E-02  0.1226708E+00
        -11   -1    0    0    0    0  0.00000000000E+00  0.00000000000E+00  0.45593999997E+02  0.45594000000E+02  0.51100000000E-03 0. -1.
         11   -1    0    0    0    0 -0.00000000000E+00 -0.00000000000E+00 -0.45593999997E+02  0.45594000000E+02  0.51100000000E-03 0.  1.
    9900012    2    1    2    0    0  0.13645644121E+02  0.73233157557E+01  0.10528201411E+02  0.72461612679E+02  0.70000055214E+02 0.  0.
        -12    1    1    2    0    0 -0.13645644121E+02 -0.73233157557E+01 -0.10528201411E+02  0.18726387321E+02  0.00000000000E+00 0.  1.
         11    1    3    3    0    0 -0.11441414223E+02  0.27987122228E+02  0.32975698969E+01  0.30414781563E+02  0.51100000000E-03 0. -1.
        -11    1    3    3    0    0 -0.84079315632E+00 -0.13128799711E+02 -0.24141921252E+01  0.13375374345E+02  0.51100000000E-03 0.  1.
        -12    1    3    3    0    0  0.25927851500E+02 -0.75350067614E+01  0.96448236396E+01  0.28671456771E+02  0.00000000000E+00 0.  1.
</event>
<event>
 7    1  0.2577508E-013  0.7246159E+02  0.7816164E-02  0.1226708E+00
        -11   -1    0    0    0    0  0.00000000000E+00  0.00000000000E+00  0.45593999997E+02  0.45594000000E+02  0.51100000000E-03 0. -1.
         11   -1    0    0    0    0 -0.00000000000E+00 -0.00000000000E+00 -0.45593999997E+02  0.45594000000E+02  0.51100000000E-03 0.  1.
    9900012    2    1    2    0    0 -0.78994206618E+01  0.14848133267E+02  0.82347222099E+01  0.72461586617E+02  0.70000021264E+02 0.  0.
        -12    1    1    2    0    0  0.78994206618E+01 -0.14848133267E+02 -0.82347222099E+01  0.18726413383E+02  0.00000000000E+00 0.  1.
         11    1    3    3    0    0 -0.40791666282E+01  0.27094517512E+01 -0.10508322003E+02  0.11593341224E+02  0.51100000000E-03 0. -1.
        -11    1    3    3    0    0 -0.11295830676E+02 -0.70696044083E+01 -0.15783913181E+02  0.20656887779E+02  0.51100000000E-03 0.  1.
         12    1    3    3    0    0  0.74755766423E+01  0.19208285924E+02  0.34526957394E+02  0.40211357614E+02  0.00000000000E+00 0. -1.
</event>
<event>
 7    1  0.2577508E-013  0.7246179E+02  0.7816164E-02  0.1226707E+00
        -11   -1    0    0    0    0  0.00000000000E+00  0.00000000000E+00  0.45593999997E+02  0.45594000000E+02  0.51100000000E-03 0. -1.
         11   -1    0    0    0    0 -0.00000000000E+00 -0.00000000000E+00 -0.45593999997E+02  0.45594000000E+02  0.51100000000E-03 0.  1.
    9900012    2    1    2    0    0  0.52896918933E+01  0.17830425078E+00  0.17962688123E+02  0.72461793835E+02  0.70000291203E+02 0.  0.
        -12    1    1    2    0    0 -0.52896918933E+01 -0.17830425078E+00 -0.17962688123E+02  0.18726206165E+02  0.00000000000E+00 0.  1.
         11    1    3    3    0    0  0.13647359712E+02 -0.72006838498E+01 -0.52965161039E+00  0.15439585684E+02  0.51100000000E-03 0. -1.
        -11    1    3    3    0    0  0.50560306137E+01  0.28083691174E+02  0.52206832840E+01  0.29008838131E+02  0.51100000000E-03 0.  1.
         12    1    3    3    0    0 -0.13413698432E+02 -0.20704703073E+02  0.13271656449E+02  0.28013370020E+02  0.00000000000E+00 0. -1.
</event>
<event>
 7    1  0.2577508E-013  0.7246156E+02  0.7816164E-02  0.1226708E+00
        -11   -1    0    0    0    0  0.00000000000E+00  0.00000000000E+00  0.45593999997E+02  0.45594000000E+02  0.51100000000E-03 0.  1.
         11   -1    0    0    0    0 -0.00000000000E+00 -0.00000000000E+00 -0.45593999997E+02  0.45594000000E+02  0.51100000000E-03 0. -1.
    9900012    2    1    2    0    0  0.32244312315E+01 -0.16347618849E+02 -0.85462265513E+01  0.72461559146E+02  0.69999985477E+02 0.  0.
        -12    1    1    2    0    0 -0.32244312315E+01  0.16347618849E+02  0.85462265513E+01  0.18726440854E+02  0.00000000000E+00 0.  1.
         11    1    3    3    0    0 -0.16722084358E+02 -0.54862573182E+01 -0.11143487471E+02  0.20830372966E+02  0.51100000000E-03 0. -1.
        -11    1    3    3    0    0  0.51519708328E+01 -0.11949651902E+02 -0.20440044070E+02  0.24230814801E+02  0.51100000000E-03 0.  1.
        -12    1    3    3    0    0  0.14794544757E+02  0.10882903710E+01  0.23037304990E+02  0.27400371379E+02  0.00000000000E+00 0.  1.
</event>
<event>
 7    1  0.2577508E-013  0.7246158E+02  0.7816164E-02  0.1226708E+00
        -11   -1    0    0    0    0  0.00000000000E+00  0.00000000000E+00  0.45593999997E+02  0.45594000000E+02  0.51100000000E-03 0. -1.
         11   -1    0    0    0    0 -0.00000000000E+00 -0.00000000000E+00 -0.45593999997E+02  0.45594000000E+02  0.51100000000E-03 0.  1.
    9900012    2    1    2    0    0 -0.12132508721E+02  0.86119119647E+01 -0.11371726538E+02  0.72461575889E+02  0.70000007288E+02 0.  0.
        -12    1    1    2    0    0  0.12132508721E+02 -0.86119119647E+01  0.11371726538E+02  0.18726424111E+02  0.00000000000E+00 0.  1.
         11    1    3    3    0    0  0.12361664215E+02 -0.15288489159E+02 -0.15757236838E+02  0.25196014684E+02  0.51100000000E-03 0. -1.
        -11    1    3    3    0    0 -0.10326974252E+02 -0.42618851773E+01 -0.76296188742E+01  0.13528530847E+02  0.51100000000E-03 0.  1.
        -12    1    3    3    0    0 -0.14167198684E+02  0.28162286301E+02  0.12015129175E+02  0.33737030357E+02  0.00000000000E+00 0.  1.
</event>
<event>
 7    1  0.2577508E-013  0.7246161E+02  0.7816164E-02  0.1226708E+00
        -11   -1    0    0    0    0  0.00000000000E+00  0.00000000000E+00  0.45593999997E+02  0.45594000000E+02  0.51100000000E-03 0.  1.
         11   -1    0    0    0    0 -0.00000000000E+00 -0.00000000000E+00 -0.45593999997E+02  0.45594000000E+02  0.51100000000E-03 0. -1.
    9900012    2    1    2    0    0  0.15697159010E+02 -0.10211504072E+02  0.45369205637E-01  0.72461610205E+02  0.70000051991E+02 0.  0.
        -12    1    1    2    0    0 -0.15697159010E+02  0.10211504072E+02 -0.45369205637E-01  0.18726389795E+02  0.00000000000E+00 0.  1.
         11    1    3    3    0    0 -0.67766574149E+01 -0.10192965206E+02 -0.11816201523E+02  0.17013002207E+02  0.51100000000E-03 0. -1.
        -11    1    3    3    0    0  0.79363767514E+01  0.10971183743E+02  0.28002401016E+02  0.31104459673E+02  0.51100000000E-03 0.  1.
         12    1    3    3    0    0  0.14537439673E+02 -0.10989722610E+02 -0.16140830287E+02  0.24344148325E+02  0.00000000000E+00 0. -1.
</event>
<event>
 7    1  0.2577508E-013  0.7246156E+02  0.7816164E-02  0.1226708E+00
        -11   -1    0    0    0    0  0.00000000000E+00  0.00000000000E+00  0.45593999997E+02  0.45594000000E+02  0.51100000000E-03 0.  1.
         11   -1    0    0    0    0 -0.00000000000E+00 -0.00000000000E+00 -0.45593999997E+02  0.45594000000E+02  0.51100000000E-03 0. -1.
    9900012    2    1    2    0    0  0.10945046590E+02 -0.14924538037E+02 -0.28536969264E+01  0.72461562362E+02  0.69999989666E+02 0.  0.
        -12    1    1    2    0    0 -0.10945046590E+02  0.14924538037E+02  0.28536969264E+01  0.18726437638E+02  0.00000000000E+00 0.  1.
         11    1    3    3    0    0  0.38324248868E+00 -0.73154658687E+01 -0.24826241568E+02  0.25884458394E+02  0.51100000000E-03 0. -1.
        -11    1    3    3    0    0  0.67834771588E+01  0.13239990302E+02 -0.15042476706E+01  0.14952446853E+02  0.51100000000E-03 0.  1.
        -12    1    3    3    0    0  0.37783269421E+01 -0.20849062471E+02  0.23476792312E+02  0.31624657115E+02  0.00000000000E+00 0.  1.
</event>
<event>
 7    1  0.2577508E-013  0.7246148E+02  0.7816164E-02  0.1226708E+00
        -11   -1    0    0    0    0  0.00000000000E+00  0.00000000000E+00  0.45593999997E+02  0.45594000000E+02  0.51100000000E-03 0.  1.
         11   -1    0    0    0    0 -0.00000000000E+00 -0.00000000000E+00 -0.45593999997E+02  0.45594000000E+02  0.51100000000E-03 0. -1.
    9900012    2    1    2    0    0  0.11015829097E+02 -0.13280878937E+02  0.72768387474E+01  0.72461478215E+02  0.69999880049E+02 0.  0.
        -12    1    1    2    0    0 -0.11015829097E+02  0.13280878937E+02 -0.72768387474E+01  0.18726521785E+02  0.00000000000E+00 0.  1.
         11    1    3    3    0    0 -0.29169369329E+01 -0.32675679011E+02 -0.28614969094E+01  0.32930178936E+02  0.51100000000E-03 0. -1.
        -11    1    3    3    0    0  0.11391429486E+02 -0.56825518723E+01  0.56560394960E+01  0.13930069797E+02  0.51100000000E-03 0.  1.
        -12    1    3    3    0    0  0.25413365438E+01  0.25077351947E+02  0.44822961608E+01  0.25601229482E+02  0.00000000000E+00 0.  1.
</event>
<event>
 7    1  0.2577508E-013  0.7246159E+02  0.7816164E-02  0.1226708E+00
        -11   -1    0    0    0    0  0.00000000000E+00  0.00000000000E+00  0.45593999997E+02  0.45594000000E+02  0.51100000000E-03 0.  1.
         11   -1    0    0    0    0 -0.00000000000E+00 -0.00000000000E+00 -0.45593999997E+02  0.45594000000E+02  0.51100000000E-03 0. -1.
    9900012    2    1    2    0    0  0.10312518772E+02  0.35450086553E+00 -0.15627052803E+02  0.72461588342E+02  0.70000023511E+02 0.  0.
        -12    1    1    2    0    0 -0.10312518772E+02 -0.35450086553E+00  0.15627052803E+02  0.18726411658E+02  0.00000000000E+00 0.  1.
         11    1    3    3    0    0  0.35293182108E+02  0.68063260519E+01 -0.17842739546E+02  0.40128520187E+02  0.51100000000E-03 0. -1.
        -11    1    3    3    0    0  0.30479843059E+01 -0.11870201082E+01  0.19597141648E+01  0.38130965022E+01  0.51100000000E-03 0.  1.
        -12    1    3    3    0    0 -0.28028647642E+02 -0.52648050782E+01  0.25597257885E+00  0.28519971653E+02  0.00000000000E+00 0.  1.
</event>
<event>
 7    1  0.2577508E-013  0.7246158E+02  0.7816164E-02  0.1226708E+00
        -11   -1    0    0    0    0  0.00000000000E+00  0.00000000000E+00  0.45593999997E+02  0.45594000000E+02  0.51100000000E-03 0. -1.
         11   -1    0    0    0    0 -0.00000000000E+00 -0.00000000000E+00 -0.45593999997E+02  0.45594000000E+02  0.51100000000E-03 0.  1.
    9900012    2    1    2    0    0 -0.17237085134E+02  0.72880951846E+01  0.66730216177E+00  0.72461582096E+02  0.70000015374E+02 0.  0.
        -12    1    1    2    0    0  0.17237085134E+02 -0.72880951846E+01 -0.66730216177E+00  0.18726417904E+02  0.00000000000E+00 0.  1.
         11    1    3    3    0    0 -0.89055779833E+01 -0.76001563399E+01  0.83573620281E+01  0.14384616642E+02  0.51100000000E-03 0. -1.
        -11    1    3    3    0    0  0.19696160710E+02  0.12912444247E+02 -0.16355836840E+02  0.28673739939E+02  0.51100000000E-03 0.  1.
         12    1    3    3    0    0 -0.28027667861E+02  0.19758072778E+01  0.86657769735E+01  0.29403225514E+02  0.00000000000E+00 0. -1.
</event>
<event>
 7    1  0.2577508E-013  0.7246156E+02  0.7816164E-02  0.1226708E+00
        -11   -1    0    0    0    0  0.00000000000E+00  0.00000000000E+00  0.45593999997E+02  0.45594000000E+02  0.51100000000E-03 0. -1.
         11   -1    0    0    0    0 -0.00000000000E+00 -0.00000000000E+00 -0.45593999997E+02  0.45594000000E+02  0.51100000000E-03 0.  1.
    9900012    2    1    2    0    0 -0.18668972506E+02 -0.60938619162E+00  0.13333443594E+01  0.72461556314E+02  0.69999981788E+02 0.  0.
        -12    1    1    2    0    0  0.18668972506E+02  0.60938619162E+00 -0.13333443594E+01  0.18726443686E+02  0.00000000000E+00 0.  1.
         11    1    3    3    0    0 -0.30968933884E+01  0.32599922596E+01  0.56892985843E+01  0.72516492492E+01  0.51100000000E-03 0. -1.
        -11    1    3    3    0    0 -0.21273661948E+02  0.22346838221E+02 -0.17352631127E+02  0.35398639499E+02  0.51100000000E-03 0.  1.
         12    1    3    3    0    0  0.57015828302E+01 -0.26216216672E+02  0.12996676902E+02  0.29811267565E+02  0.00000000000E+00 0. -1.
</event>
<event>
 7    1  0.2577508E-013  0.7246156E+02  0.7816164E-02  0.1226708E+00
        -11   -1    0    0    0    0  0.00000000000E+00  0.00000000000E+00  0.45593999997E+02  0.45594000000E+02  0.51100000000E-03 0. -1.
         11   -1    0    0    0    0 -0.00000000000E+00 -0.00000000000E+00 -0.45593999997E+02  0.45594000000E+02  0.51100000000E-03 0.  1.
    9900012    2    1    2    0    0 -0.12082218523E+02 -0.96044942135E+01  0.10604402101E+02  0.72461557267E+02  0.69999983029E+02 0.  0.
        -12    1    1    2    0    0  0.12082218523E+02  0.96044942135E+01 -0.10604402101E+02  0.18726442733E+02  0.00000000000E+00 0.  1.
         11    1    3    3    0    0 -0.11774739206E+02  0.70295216866E+00  0.29696005030E+02  0.31952955108E+02  0.51100000000E-03 0. -1.
        -11    1    3    3    0    0  0.14807971450E+02 -0.11907309826E+02 -0.46949971551E+01  0.19573018272E+02  0.51100000000E-03 0.  1.
        -12    1    3    3    0    0 -0.15115450766E+02  0.15998634438E+01 -0.14396605773E+02  0.20935583887E+02  0.00000000000E+00 0.  1.
</event>
<event>
 7    1  0.2577508E-013  0.7246153E+02  0.7816164E-02  0.1226708E+00
        -11   -1    0    0    0    0  0.00000000000E+00  0.00000000000E+00  0.45593999997E+02  0.45594000000E+02  0.51100000000E-03 0.  1.
         11   -1    0    0    0    0 -0.00000000000E+00 -0.00000000000E+00 -0.45593999997E+02  0.45594000000E+02  0.51100000000E-03 0. -1.
    9900012    2    1    2    0    0  0.11641695097E+02  0.54463848418E+01 -0.13619413441E+02  0.72461532232E+02  0.69999950417E+02 0.  0.
        -12    1    1    2    0    0 -0.11641695097E+02 -0.54463848418E+01  0.13619413441E+02  0.18726467768E+02  0.00000000000E+00 0.  1.
         11    1    3    3    0    0  0.29635063662E+02  0.27569155758E+02 -0.93118530792E+01  0.41533191010E+02  0.51100000000E-03 0. -1.
        -11    1    3    3    0    0 -0.62632964137E+01 -0.32008106463E+01  0.27819027259E+01  0.75639311073E+01  0.51100000000E-03 0.  1.
        -12    1    3    3    0    0 -0.11730072152E+02 -0.18921960270E+02 -0.70894630878E+01  0.23364410115E+02  0.00000000000E+00 0.  1.
</event>
<event>
 7    1  0.2577508E-013  0.7246164E+02  0.7816164E-02  0.1226708E+00
        -11   -1    0    0    0    0  0.00000000000E+00  0.00000000000E+00  0.45593999997E+02  0.45594000000E+02  0.51100000000E-03 0.  1.
         11   -1    0    0    0    0 -0.00000000000E+00 -0.00000000000E+00 -0.45593999997E+02  0.45594000000E+02  0.51100000000E-03 0. -1.
    9900012    2    1    2    0    0 -0.12918141120E+02  0.13292294076E+02  0.26670216668E+01  0.72461642736E+02  0.70000094369E+02 0.  0.
        -12    1    1    2    0    0  0.12918141120E+02 -0.13292294076E+02 -0.26670216668E+01  0.18726357264E+02  0.00000000000E+00 0.  1.
         11    1    3    3    0    0  0.30291279162E+01 -0.13021558236E+02 -0.19122158265E+02  0.23332242322E+02  0.51100000000E-03 0. -1.
        -11    1    3    3    0    0  0.59271646281E+01  0.50428191669E+00 -0.34892696808E+01  0.68964181969E+01  0.51100000000E-03 0.  1.
        -12    1    3    3    0    0 -0.21874433665E+02  0.25809570395E+02  0.25278449612E+02  0.42232982217E+02  0.00000000000E+00 0.  1.
</event>
<event>
 7    1  0.2577508E-013  0.7246159E+02  0.7816164E-02  0.1226708E+00
        -11   -1    0    0    0    0  0.00000000000E+00  0.00000000000E+00  0.45593999997E+02  0.45594000000E+02  0.51100000000E-03 0.  1.
         11   -1    0    0    0    0 -0.00000000000E+00 -0.00000000000E+00 -0.45593999997E+02  0.45594000000E+02  0.51100000000E-03 0. -1.
    9900012    2    1    2    0    0 -0.26269183813E+01 -0.18530155191E+02 -0.64102849256E+00  0.72461594336E+02  0.70000031318E+02 0.  0.
        -12    1    1    2    0    0  0.26269183813E+01  0.18530155191E+02  0.64102849256E+00  0.18726405664E+02  0.00000000000E+00 0.  1.
         11    1    3    3    0    0 -0.10057352389E+02  0.94282363545E+01 -0.15719146062E+01  0.13874901572E+02  0.51100000000E-03 0. -1.
        -11    1    3    3    0    0 -0.11989079016E+02  0.76682548325E+01 -0.89674128118E+01  0.16821255620E+02  0.51100000000E-03 0.  1.
        -12    1    3    3    0    0  0.19419513024E+02 -0.35626646378E+02  0.98982989254E+01  0.41765437144E+02  0.00000000000E+00 0.  1.
</event>
<event>
 7    1  0.2577508E-013  0.7246141E+02  0.7816164E-02  0.1226708E+00
        -11   -1    0    0    0    0  0.00000000000E+00  0.00000000000E+00  0.45593999997E+02  0.45594000000E+02  0.51100000000E-03 0. -1.
         11   -1    0    0    0    0 -0.00000000000E+00 -0.00000000000E+00 -0.45593999997E+02  0.45594000000E+02  0.51100000000E-03 0.  1.
    9900012    2    1    2    0    0 -0.40620997944E+01  0.17685948191E+02  0.46251118506E+01  0.72461412543E+02  0.69999794500E+02 0.  0.
        -12    1    1    2    0    0  0.40620997944E+01 -0.17685948191E+02 -0.46251118506E+01  0.18726587457E+02  0.00000000000E+00 0.  1.
         11    1    3    3    0    0 -0.37217096425E+01  0.97128755551E+01  0.10041746259E+02  0.14457791754E+02  0.51100000000E-03 0. -1.
        -11    1    3    3    0    0 -0.14683095395E+02  0.28563797519E+02 -0.69612356396E+01  0.32862480444E+02  0.51100000000E-03 0.  1.
        -12    1    3    3    0    0  0.14342705243E+02 -0.20590724883E+02  0.15446012316E+01  0.25141140345E+02  0.00000000000E+00 0.  1.
</event>
<event>
 7    1  0.2577508E-013  0.7246122E+02  0.7816164E-02  0.1226709E+00
        -11   -1    0    0    0    0  0.00000000000E+00  0.00000000000E+00  0.45593999997E+02  0.45594000000E+02  0.51100000000E-03 0. -1.
         11   -1    0    0    0    0 -0.00000000000E+00 -0.00000000000E+00 -0.45593999997E+02  0.45594000000E+02  0.51100000000E-03 0.  1.
    9900012    2    1    2    0    0  0.94356075636E+01  0.15633160413E+02  0.41552455320E+01  0.72461215439E+02  0.69999537733E+02 0.  0.
        -12    1    1    2    0    0 -0.94356075636E+01 -0.15633160413E+02 -0.41552455320E+01  0.18726784561E+02  0.00000000000E+00 0.  1.
         11    1    3    3    0    0 -0.28884409442E+01 -0.13170755291E+02 -0.78180245154E+01  0.15586320721E+02  0.51100000000E-03 0. -1.
        -11    1    3    3    0    0  0.15391515056E+02 -0.81252753805E+01  0.92718376243E+01  0.19720187852E+02  0.51100000000E-03 0.  1.
         12    1    3    3    0    0 -0.30674665482E+01  0.36929191084E+02  0.27014324231E+01  0.37154706866E+02  0.00000000000E+00 0. -1.
</event>
<event>
 7    1  0.2577508E-013  0.7246155E+02  0.7816164E-02  0.1226708E+00
        -11   -1    0    0    0    0  0.00000000000E+00  0.00000000000E+00  0.45593999997E+02  0.45594000000E+02  0.51100000000E-03 0. -1.
         11   -1    0    0    0    0 -0.00000000000E+00 -0.00000000000E+00 -0.45593999997E+02  0.45594000000E+02  0.51100000000E-03 0.  1.
    9900012    2    1    2    0    0 -0.23533134959E+00 -0.14570309441E+02  0.11761404599E+02  0.72461549824E+02  0.69999973334E+02 0.  0.
        -12    1    1    2    0    0  0.23533134959E+00  0.14570309441E+02 -0.11761404599E+02  0.18726450176E+02  0.00000000000E+00 0.  1.
         11    1    3    3    0    0  0.12123437574E+02  0.27450686821E+01  0.24153426505E+02  0.27164336047E+02  0.51100000000E-03 0. -1.
        -11    1    3    3    0    0 -0.21110583442E+02  0.29888569013E+01 -0.42833077444E+01  0.21747108413E+02  0.51100000000E-03 0.  1.
        -12    1    3    3    0    0  0.87518145181E+01 -0.20304235024E+02 -0.81087141618E+01  0.23550105364E+02  0.00000000000E+00 0.  1.
</event>
<event>
 7    1  0.2577508E-013  0.7246164E+02  0.7816164E-02  0.1226708E+00
        -11   -1    0    0    0    0  0.00000000000E+00  0.00000000000E+00  0.45593999997E+02  0.45594000000E+02  0.51100000000E-03 0. -1.
         11   -1    0    0    0    0 -0.00000000000E+00 -0.00000000000E+00 -0.45593999997E+02  0.45594000000E+02  0.51100000000E-03 0.  1.
    9900012    2    1    2    0    0 -0.10501896150E+02 -0.14751431309E+02 -0.47730521185E+01  0.72461639570E+02  0.70000090245E+02 0.  0.
        -12    1    1    2    0    0  0.10501896150E+02  0.14751431309E+02  0.47730521185E+01  0.18726360430E+02  0.00000000000E+00 0.  1.
         11    1    3    3    0    0  0.16001072275E+02 -0.31657589485E+02  0.81615292872E+01  0.36398459398E+02  0.51100000000E-03 0. -1.
        -11    1    3    3    0    0 -0.14176594591E+02  0.48867139179E+01 -0.11286370191E+02  0.18768003609E+02  0.51100000000E-03 0.  1.
        -12    1    3    3    0    0 -0.12326373834E+02  0.12019444258E+02 -0.16482112151E+01  0.17295176564E+02  0.00000000000E+00 0.  1.
</event>
<event>
 7    1  0.2577508E-013  0.7246160E+02  0.7816164E-02  0.1226708E+00
        -11   -1    0    0    0    0  0.00000000000E+00  0.00000000000E+00  0.45593999997E+02  0.45594000000E+02  0.51100000000E-03 0.  1.
         11   -1    0    0    0    0 -0.00000000000E+00 -0.00000000000E+00 -0.45593999997E+02  0.45594000000E+02  0.51100000000E-03 0. -1.
    9900012    2    1    2    0    0 -0.11674589240E+02 -0.14609160172E+02 -0.97687387650E+00  0.72461604793E+02  0.70000044941E+02 0.  0.
        -12    1    1    2    0    0  0.11674589240E+02  0.14609160172E+02  0.97687387650E+00  0.18726395207E+02  0.00000000000E+00 0.  1.
         11    1    3    3    0    0 -0.97648360373E+00 -0.24294812036E+01 -0.22824296354E+02  0.22973994068E+02  0.51100000000E-03 0. -1.
        -11    1    3    3    0    0  0.15840466036E+02 -0.69601018870E+01  0.97291058960E+01  0.19849908924E+02  0.51100000000E-03 0.  1.
        -12    1    3    3    0    0 -0.26538571672E+02 -0.52195770815E+01  0.12118316581E+02  0.29637701801E+02  0.00000000000E+00 0.  1.
</event>
<event>
 7    1  0.2577508E-013  0.7246153E+02  0.7816164E-02  0.1226708E+00
        -11   -1    0    0    0    0  0.00000000000E+00  0.00000000000E+00  0.45593999997E+02  0.45594000000E+02  0.51100000000E-03 0. -1.
         11   -1    0    0    0    0 -0.00000000000E+00 -0.00000000000E+00 -0.45593999997E+02  0.45594000000E+02  0.51100000000E-03 0.  1.
    9900012    2    1    2    0    0  0.11006498236E+00  0.16572770236E+02 -0.87184806859E+01  0.72461528548E+02  0.69999945617E+02 0.  0.
        -12    1    1    2    0    0 -0.11006498236E+00 -0.16572770236E+02  0.87184806859E+01  0.18726471452E+02  0.00000000000E+00 0.  1.
         11    1    3    3    0    0 -0.17158832108E+01  0.30828594662E+02  0.36316825433E+01  0.31089156025E+02  0.51100000000E-03 0. -1.
        -11    1    3    3    0    0 -0.62690433047E+01  0.84199678868E+01  0.50663743781E+01  0.11656110534E+02  0.51100000000E-03 0.  1.
        -12    1    3    3    0    0  0.80949914979E+01 -0.22675792313E+02 -0.17416537607E+02  0.29716261989E+02  0.00000000000E+00 0.  1.
</event>
<event>
 7    1  0.2577508E-013  0.7246159E+02  0.7816164E-02  0.1226708E+00
        -11   -1    0    0    0    0  0.00000000000E+00  0.00000000000E+00  0.45593999997E+02  0.45594000000E+02  0.51100000000E-03 0.  1.
         11   -1    0    0    0    0 -0.00000000000E+00 -0.00000000000E+00 -0.45593999997E+02  0.45594000000E+02  0.51100000000E-03 0. -1.
    9900012    2    1    2    0    0 -0.72808035787E+01 -0.79421688267E+01  0.15316344138E+02  0.72461586992E+02  0.70000021751E+02 0.  0.
        -12    1    1    2    0    0  0.72808035787E+01  0.79421688267E+01 -0.15316344138E+02  0.18726413008E+02  0.00000000000E+00 0.  1.
         11    1    3    3    0    0 -0.48891558585E+00 -0.43309571410E+01  0.18188260317E+02  0.18703182665E+02  0.51100000000E-03 0. -1.
        -11    1    3    3    0    0 -0.54592253551E+01  0.40419345631E+01  0.24438342798E+02  0.25364797958E+02  0.51100000000E-03 0.  1.
         12    1    3    3    0    0 -0.13326626377E+01 -0.76531462488E+01 -0.27310258977E+02  0.28393606368E+02  0.00000000000E+00 0. -1.
</event>
<event>
 7    1  0.2577508E-013  0.7246155E+02  0.7816164E-02  0.1226708E+00
        -11   -1    0    0    0    0  0.00000000000E+00  0.00000000000E+00  0.45593999997E+02  0.45594000000E+02  0.51100000000E-03 0. -1.
         11   -1    0    0    0    0 -0.00000000000E+00 -0.00000000000E+00 -0.45593999997E+02  0.45594000000E+02  0.51100000000E-03 0.  1.
    9900012    2    1    2    0    0 -0.16696604809E+02 -0.84701550108E+01 -0.39959295166E+00  0.72461553124E+02  0.69999977633E+02 0.  0.
        -12    1    1    2    0    0  0.16696604809E+02  0.84701550108E+01  0.39959295166E+00  0.18726446876E+02  0.00000000000E+00 0.  1.
         11    1    3    3    0    0  0.18574811729E+02  0.50703258110E+01  0.76603056204E+01  0.20722261388E+02  0.51100000000E-03 0. -1.
        -11    1    3    3    0    0  0.36325721777E+01  0.37617355338E+01 -0.75179550336E+01  0.91578317849E+01  0.51100000000E-03 0.  1.
         12    1    3    3    0    0 -0.38903988715E+02 -0.17302216356E+02 -0.54194353847E+00  0.42581459951E+02  0.00000000000E+00 0. -1.
</event>
<event>
 7    1  0.2577508E-013  0.7246154E+02  0.7816164E-02  0.1226708E+00
        -11   -1    0    0    0    0  0.00000000000E+00  0.00000000000E+00  0.45593999997E+02  0.45594000000E+02  0.51100000000E-03 0.  1.
         11   -1    0    0    0    0 -0.00000000000E+00 -0.00000000000E+00 -0.45593999997E+02  0.45594000000E+02  0.51100000000E-03 0. -1.
    9900012    2    1    2    0    0 -0.18575544759E+02  0.41004124062E+00 -0.23369555781E+01  0.72461538554E+02  0.69999958652E+02 0.  0.
        -12    1    1    2    0    0  0.18575544759E+02 -0.41004124062E+00  0.23369555781E+01  0.18726461446E+02  0.00000000000E+00 0.  1.
         11    1    3    3    0    0 -0.16065593054E+01  0.10719195450E+02 -0.16031924285E+02  0.19352125993E+02  0.51100000000E-03 0. -1.
        -11    1    3    3    0    0  0.16090090813E+02 -0.62033864695E+01  0.90471904684E+01  0.19473692041E+02  0.51100000000E-03 0.  1.
        -12    1    3    3    0    0 -0.33059076267E+02 -0.41057677402E+01  0.46477782388E+01  0.33635720520E+02  0.00000000000E+00 0.  1.
</event>
<event>
 7    1  0.2577508E-013  0.7246184E+02  0.7816164E-02  0.1226707E+00
        -11   -1    0    0    0    0  0.00000000000E+00  0.00000000000E+00  0.45593999997E+02  0.45594000000E+02  0.51100000000E-03 0.  1.
         11   -1    0    0    0    0 -0.00000000000E+00 -0.00000000000E+00 -0.45593999997E+02  0.45594000000E+02  0.51100000000E-03 0. -1.
    9900012    2    1    2    0    0  0.43015703682E+01 -0.65277464227E+01 -0.17016292317E+02  0.72461836879E+02  0.70000347276E+02 0.  0.
        -12    1    1    2    0    0 -0.43015703682E+01  0.65277464227E+01  0.17016292317E+02  0.18726163121E+02  0.00000000000E+00 0.  1.
         11    1    3    3    0    0  0.10421969488E+02 -0.60853025310E+00 -0.25616506148E+02  0.27662124730E+02  0.51100000000E-03 0. -1.
        -11    1    3    3    0    0  0.55247731550E+01 -0.51506833963E+01 -0.15932650471E+02  0.17632413595E+02  0.51100000000E-03 0.  1.
        -12    1    3    3    0    0 -0.11645172275E+02 -0.76853277332E+00  0.24532864302E+02  0.27167298555E+02  0.00000000000E+00 0.  1.
</event>
<event>
 7    1  0.2577508E-013  0.7246161E+02  0.7816164E-02  0.1226708E+00
        -11   -1    0    0    0    0  0.00000000000E+00  0.00000000000E+00  0.45593999997E+02  0.45594000000E+02  0.51100000000E-03 0.  1.
         11   -1    0    0    0    0 -0.00000000000E+00 -0.00000000000E+00 -0.45593999997E+02  0.45594000000E+02  0.51100000000E-03 0. -1.
    9900012    2    1    2    0    0  0.16884988218E+02 -0.45237323128E+01 -0.67164383109E+01  0.72461614210E+02  0.70000057208E+02 0.  0.
        -12    1    1    2    0    0 -0.16884988218E+02  0.45237323128E+01  0.67164383109E+01  0.18726385790E+02  0.00000000000E+00 0.  1.
         11    1    3    3    0    0  0.23432714556E+02  0.97354303956E+01 -0.10944350243E+02  0.27634209215E+02  0.51100000000E-03 0. -1.
        -11    1    3    3    0    0  0.16480497651E+02 -0.50258813035E+01  0.91873739684E+01  0.19526241993E+02  0.51100000000E-03 0.  1.
         12    1    3    3    0    0 -0.23028223988E+02 -0.92332814049E+01 -0.49594620367E+01  0.25301163002E+02  0.00000000000E+00 0. -1.
</event>
<event>
 7    1  0.2577508E-013  0.7246157E+02  0.7816164E-02  0.1226708E+00
        -11   -1    0    0    0    0  0.00000000000E+00  0.00000000000E+00  0.45593999997E+02  0.45594000000E+02  0.51100000000E-03 0. -1.
         11   -1    0    0    0    0 -0.00000000000E+00 -0.00000000000E+00 -0.45593999997E+02  0.45594000000E+02  0.51100000000E-03 0.  1.
    9900012    2    1    2    0    0 -0.12990968109E+02  0.11005550533E+02  0.77969075921E+01  0.72461570470E+02  0.70000000229E+02 0.  0.
        -12    1    1    2    0    0  0.12990968109E+02 -0.11005550533E+02 -0.77969075921E+01  0.18726429530E+02  0.00000000000E+00 0.  1.
         11    1    3    3    0    0 -0.15567699524E+02  0.38285209260E+01 -0.92776403514E+01  0.18522566013E+02  0.51100000000E-03 0. -1.
        -11    1    3    3    0    0 -0.10808289162E+02  0.25042518924E+02  0.27471651148E+01  0.27413386969E+02  0.51100000000E-03 0.  1.
         12    1    3    3    0    0  0.13385020577E+02 -0.17865489317E+02  0.14327382829E+02  0.26525617488E+02  0.00000000000E+00 0. -1.
</event>
<event>
 7    1  0.2577508E-013  0.7246155E+02  0.7816164E-02  0.1226708E+00
        -11   -1    0    0    0    0  0.00000000000E+00  0.00000000000E+00  0.45593999997E+02  0.45594000000E+02  0.51100000000E-03 0. -1.
         11   -1    0    0    0    0 -0.00000000000E+00 -0.00000000000E+00 -0.45593999997E+02  0.45594000000E+02  0.51100000000E-03 0.  1.
    9900012    2    1    2    0    0  0.48745832525E+01  0.24903442166E+01  0.17908557816E+02  0.72461552947E+02  0.69999977401E+02 0.  0.
        -12    1    1    2    0    0 -0.48745832525E+01 -0.24903442166E+01 -0.17908557816E+02  0.18726447053E+02  0.00000000000E+00 0.  1.
         11    1    3    3    0    0 -0.18019618693E+02  0.19718533786E+02  0.21966431897E+02  0.34583975524E+02  0.51100000000E-03 0. -1.
        -11    1    3    3    0    0  0.12317648119E+02  0.16282479350E+01 -0.94323059687E+01  0.15599488539E+02  0.51100000000E-03 0.  1.
        -12    1    3    3    0    0  0.10576553827E+02 -0.18856437504E+02  0.53744318877E+01  0.22278088884E+02  0.00000000000E+00 0.  1.
</event>
<event>
 7    1  0.2577508E-013  0.7246157E+02  0.7816164E-02  0.1226708E+00
        -11   -1    0    0    0    0  0.00000000000E+00  0.00000000000E+00  0.45593999997E+02  0.45594000000E+02  0.51100000000E-03 0.  1.
         11   -1    0    0    0    0 -0.00000000000E+00 -0.00000000000E+00 -0.45593999997E+02  0.45594000000E+02  0.51100000000E-03 0. -1.
    9900012    2    1    2    0    0 -0.44879763809E+00  0.11719700082E+02 -0.14598847835E+02  0.72461570884E+02  0.70000000768E+02 0.  0.
        -12    1    1    2    0    0  0.44879763809E+00 -0.11719700082E+02  0.14598847835E+02  0.18726429116E+02  0.00000000000E+00 0.  1.
         11    1    3    3    0    0 -0.11727197088E+02  0.22567037056E+02  0.52438201652E+01  0.25967209385E+02  0.51100000000E-03 0. -1.
        -11    1    3    3    0    0  0.73779496370E+01  0.73020594324E+01 -0.25132294303E+02  0.27191661038E+02  0.51100000000E-03 0.  1.
         12    1    3    3    0    0  0.39004498133E+01 -0.18149396406E+02  0.52896263033E+01  0.19302700461E+02  0.00000000000E+00 0. -1.
</event>
<event>
 7    1  0.2577508E-013  0.7246158E+02  0.7816164E-02  0.1226708E+00
        -11   -1    0    0    0    0  0.00000000000E+00  0.00000000000E+00  0.45593999997E+02  0.45594000000E+02  0.51100000000E-03 0.  1.
         11   -1    0    0    0    0 -0.00000000000E+00 -0.00000000000E+00 -0.45593999997E+02  0.45594000000E+02  0.51100000000E-03 0. -1.
    9900012    2    1    2    0    0  0.70019175934E+01 -0.17311708317E+02 -0.13988750043E+01  0.72461576259E+02  0.70000007770E+02 0.  0.
        -12    1    1    2    0    0 -0.70019175934E+01  0.17311708317E+02  0.13988750043E+01  0.18726423741E+02  0.00000000000E+00 0.  1.
         11    1    3    3    0    0 -0.76967049358E+01 -0.22741898184E+02 -0.10098548186E+02  0.26046379318E+02  0.51100000000E-03 0. -1.
        -11    1    3    3    0    0 -0.11416497034E+02  0.77105702395E+01  0.14031487303E+02  0.19663975543E+02  0.51100000000E-03 0.  1.
         12    1    3    3    0    0  0.26115119563E+02 -0.22803803732E+01 -0.53318141212E+01  0.26751221398E+02  0.00000000000E+00 0. -1.
</event>
<event>
 7    1  0.2577508E-013  0.7246153E+02  0.7816164E-02  0.1226708E+00
        -11   -1    0    0    0    0  0.00000000000E+00  0.00000000000E+00  0.45593999997E+02  0.45594000000E+02  0.51100000000E-03 0. -1.
         11   -1    0    0    0    0 -0.00000000000E+00 -0.00000000000E+00 -0.45593999997E+02  0.45594000000E+02  0.51100000000E-03 0.  1.
    9900012    2    1    2    0    0  0.14588296342E+02 -0.11418077452E+02  0.27367241855E+01  0.72461533645E+02  0.69999952258E+02 0.  0.
        -12    1    1    2    0    0 -0.14588296342E+02  0.11418077452E+02 -0.27367241855E+01  0.18726466355E+02  0.00000000000E+00 0.  1.
         11    1    3    3    0    0  0.97122979297E+00  0.40920932408E+00 -0.23524743397E+01  0.25777655754E+01  0.51100000000E-03 0. -1.
        -11    1    3    3    0    0 -0.20867494393E+02  0.10872560373E+02  0.14366271634E+02  0.27569088709E+02  0.51100000000E-03 0.  1.
         12    1    3    3    0    0  0.34484560942E+02 -0.22699847149E+02 -0.92770731086E+01  0.42314679361E+02  0.00000000000E+00 0. -1.
</event>
<event>
 7    1  0.2577508E-013  0.7246162E+02  0.7816164E-02  0.1226708E+00
        -11   -1    0    0    0    0  0.00000000000E+00  0.00000000000E+00  0.45593999997E+02  0.45594000000E+02  0.51100000000E-03 0. -1.
         11   -1    0    0    0    0 -0.00000000000E+00 -0.00000000000E+00 -0.45593999997E+02  0.45594000000E+02  0.51100000000E-03 0.  1.
    9900012    2    1    2    0    0  0.10079555214E+02  0.84399074126E+01 -0.13335963014E+02  0.72461618076E+02  0.70000062245E+02 0.  0.
        -12    1    1    2    0    0 -0.10079555214E+02 -0.84399074126E+01  0.13335963014E+02  0.18726381924E+02  0.00000000000E+00 0.  1.
         11    1    3    3    0    0  0.10285418690E+01  0.12927180704E+02 -0.75667418763E+01  0.15014176042E+02  0.51100000000E-03 0. -1.
        -11    1    3    3    0    0  0.12979447478E+02  0.21258026505E+02 -0.15848280085E+02  0.29521817858E+02  0.51100000000E-03 0.  1.
        -12    1    3    3    0    0 -0.39284341336E+01 -0.25745299797E+02  0.10079058947E+02  0.27925624176E+02  0.00000000000E+00 0.  1.
</event>
<event>
 7    1  0.2577508E-013  0.7246159E+02  0.7816164E-02  0.1226708E+00
        -11   -1    0    0    0    0  0.00000000000E+00  0.00000000000E+00  0.45593999997E+02  0.45594000000E+02  0.51100000000E-03 0.  1.
         11   -1    0    0    0    0 -0.00000000000E+00 -0.00000000000E+00 -0.45593999997E+02  0.45594000000E+02  0.51100000000E-03 0. -1.
    9900012    2    1    2    0    0 -0.34999969979E+01 -0.70431154070E+01 -0.16994790390E+02  0.72461592069E+02  0.70000028365E+02 0.  0.
        -12    1    1    2    0    0  0.34999969979E+01  0.70431154070E+01  0.16994790390E+02  0.18726407931E+02  0.00000000000E+00 0.  1.
         11    1    3    3    0    0 -0.57284295867E+01  0.14477743254E+02  0.15721910100E+02  0.22126870830E+02  0.51100000000E-03 0. -1.
        -11    1    3    3    0    0  0.14491914537E+02 -0.36265960279E+01 -0.64598845553E+01  0.16275684146E+02  0.51100000000E-03 0.  1.
        -12    1    3    3    0    0 -0.12263481948E+02 -0.17894262633E+02 -0.26256815934E+02  0.34059037093E+02  0.00000000000E+00 0.  1.
</event>
<event>
 7    1  0.2577508E-013  0.7246156E+02  0.7816164E-02  0.1226708E+00
        -11   -1    0    0    0    0  0.00000000000E+00  0.00000000000E+00  0.45593999997E+02  0.45594000000E+02  0.51100000000E-03 0. -1.
         11   -1    0    0    0    0 -0.00000000000E+00 -0.00000000000E+00 -0.45593999997E+02  0.45594000000E+02  0.51100000000E-03 0.  1.
    9900012    2    1    2    0    0 -0.30514590699E+01 -0.30423316685E+01  0.18223945347E+02  0.72461564983E+02  0.69999993080E+02 0.  0.
        -12    1    1    2    0    0  0.30514590699E+01  0.30423316685E+01 -0.18223945347E+02  0.18726435017E+02  0.00000000000E+00 0.  1.
         11    1    3    3    0    0 -0.22946733691E+02  0.11673647890E+02  0.32442154895E+02  0.41416422547E+02  0.51100000000E-03 0. -1.
        -11    1    3    3    0    0 -0.14827332552E+01  0.24651187215E+00 -0.72014123290E+00  0.16666942328E+01  0.51100000000E-03 0.  1.
        -12    1    3    3    0    0  0.21378007876E+02 -0.14962491431E+02 -0.13498068314E+02  0.29378448203E+02  0.00000000000E+00 0.  1.
</event>
<event>
 7    1  0.2577508E-013  0.7246161E+02  0.7816164E-02  0.1226708E+00
        -11   -1    0    0    0    0  0.00000000000E+00  0.00000000000E+00  0.45593999997E+02  0.45594000000E+02  0.51100000000E-03 0.  1.
         11   -1    0    0    0    0 -0.00000000000E+00 -0.00000000000E+00 -0.45593999997E+02  0.45594000000E+02  0.51100000000E-03 0. -1.
    9900012    2    1    2    0    0 -0.17674972747E+02  0.56842625464E+01 -0.24417910007E+01  0.72461605644E+02  0.70000046049E+02 0.  0.
        -12    1    1    2    0    0  0.17674972747E+02 -0.56842625464E+01  0.24417910007E+01  0.18726394356E+02  0.00000000000E+00 0.  1.
         11    1    3    3    0    0  0.19685458549E+01  0.24222924660E+02  0.30529603139E+01  0.24493791434E+02  0.51100000000E-03 0. -1.
        -11    1    3    3    0    0 -0.14917621129E+02  0.10342685240E+02  0.20014450206E+00  0.18153418857E+02  0.51100000000E-03 0.  1.
         12    1    3    3    0    0 -0.47258974724E+01 -0.28881347353E+02 -0.56948958166E+01  0.29814395352E+02  0.00000000000E+00 0. -1.
</event>
<event>
 7    1  0.2577508E-013  0.7246157E+02  0.7816164E-02  0.1226708E+00
        -11   -1    0    0    0    0  0.00000000000E+00  0.00000000000E+00  0.45593999997E+02  0.45594000000E+02  0.51100000000E-03 0.  1.
         11   -1    0    0    0    0 -0.00000000000E+00 -0.00000000000E+00 -0.45593999997E+02  0.45594000000E+02  0.51100000000E-03 0. -1.
    9900012    2    1    2    0    0  0.94832301545E+01  0.68813353525E+00 -0.16133013177E+02  0.72461566915E+02  0.69999995598E+02 0.  0.
        -12    1    1    2    0    0 -0.94832301545E+01 -0.68813353525E+00  0.16133013177E+02  0.18726433085E+02  0.00000000000E+00 0.  1.
         11    1    3    3    0    0  0.11433295419E+02  0.19706034705E+02 -0.31715683540E+02  0.39050385793E+02  0.51100000000E-03 0. -1.
        -11    1    3    3    0    0  0.43912557402E+01  0.23747555106E+01 -0.16073417987E+01  0.52446295035E+01  0.51100000000E-03 0.  1.
        -12    1    3    3    0    0 -0.63413210046E+01 -0.21392656680E+02  0.17190012162E+02  0.28166551618E+02  0.00000000000E+00 0.  1.
</event>
<event>
 7    1  0.2577508E-013  0.7246156E+02  0.7816164E-02  0.1226708E+00
        -11   -1    0    0    0    0  0.00000000000E+00  0.00000000000E+00  0.45593999997E+02  0.45594000000E+02  0.51100000000E-03 0. -1.
         11   -1    0    0    0    0 -0.00000000000E+00 -0.00000000000E+00 -0.45593999997E+02  0.45594000000E+02  0.51100000000E-03 0.  1.
    9900012    2    1    2    0    0 -0.20567558162E+00 -0.18303100291E+02  0.39539656907E+01  0.72461558069E+02  0.69999984074E+02 0.  0.
        -12    1    1    2    0    0  0.20567558162E+00  0.18303100291E+02 -0.39539656907E+01  0.18726441931E+02  0.00000000000E+00 0.  1.
         11    1    3    3    0    0  0.18052400809E+02 -0.12073110220E+02  0.56904825144E+01  0.22450629320E+02  0.51100000000E-03 0. -1.
        -11    1    3    3    0    0  0.12127934835E+02 -0.92242393288E+01  0.89384083764E+01  0.17665461758E+02  0.51100000000E-03 0.  1.
        -12    1    3    3    0    0 -0.30386011226E+02  0.29942492577E+01 -0.10674925200E+02  0.32345466991E+02  0.00000000000E+00 0.  1.
</event>
<event>
 7    1  0.2577508E-013  0.7246153E+02  0.7816164E-02  0.1226708E+00
        -11   -1    0    0    0    0  0.00000000000E+00  0.00000000000E+00  0.45593999997E+02  0.45594000000E+02  0.51100000000E-03 0. -1.
         11   -1    0    0    0    0 -0.00000000000E+00 -0.00000000000E+00 -0.45593999997E+02  0.45594000000E+02  0.51100000000E-03 0.  1.
    9900012    2    1    2    0    0  0.50081862452E+01  0.18044232955E+02  0.66010007082E-01  0.72461531306E+02  0.69999949211E+02 0.  0.
        -12    1    1    2    0    0 -0.50081862452E+01 -0.18044232955E+02 -0.66010007082E-01  0.18726468694E+02  0.00000000000E+00 0.  1.
         11    1    3    3    0    0 -0.12702360768E+02  0.18715836850E+01  0.23475930066E+02  0.26757654742E+02  0.51100000000E-03 0. -1.
        -11    1    3    3    0    0 -0.66477318941E+01  0.22988143002E+01  0.25652472817E+01  0.74871476812E+01  0.51100000000E-03 0.  1.
        -12    1    3    3    0    0  0.24358278908E+02  0.13873834970E+02 -0.25975167341E+02  0.38216728883E+02  0.00000000000E+00 0.  1.
</event>
<event>
 7    1  0.2577508E-013  0.7246167E+02  0.7816164E-02  0.1226708E+00
        -11   -1    0    0    0    0  0.00000000000E+00  0.00000000000E+00  0.45593999997E+02  0.45594000000E+02  0.51100000000E-03 0. -1.
         11   -1    0    0    0    0 -0.00000000000E+00 -0.00000000000E+00 -0.45593999997E+02  0.45594000000E+02  0.51100000000E-03 0.  1.
    9900012    2    1    2    0    0 -0.38581766791E+01 -0.66604517533E+01  0.17071274792E+02  0.72461666459E+02  0.70000125272E+02 0.  0.
        -12    1    1    2    0    0  0.38581766791E+01  0.66604517533E+01 -0.17071274792E+02  0.18726333541E+02  0.00000000000E+00 0.  1.
         11    1    3    3    0    0  0.81647742475E+01 -0.40286775741E+01  0.30043205442E+01  0.95874774420E+01  0.51100000000E-03 0. -1.
        -11    1    3    3    0    0  0.44776419089E+01  0.23657159348E+02 -0.73382246420E+01  0.25170617923E+02  0.51100000000E-03 0.  1.
        -12    1    3    3    0    0 -0.16500592835E+02 -0.26288933527E+02  0.21405178890E+02  0.37703571094E+02  0.00000000000E+00 0.  1.
</event>
<event>
 7    1  0.2577508E-013  0.7246157E+02  0.7816164E-02  0.1226708E+00
        -11   -1    0    0    0    0  0.00000000000E+00  0.00000000000E+00  0.45593999997E+02  0.45594000000E+02  0.51100000000E-03 0. -1.
         11   -1    0    0    0    0 -0.00000000000E+00 -0.00000000000E+00 -0.45593999997E+02  0.45594000000E+02  0.51100000000E-03 0.  1.
    9900012    2    1    2    0    0  0.60486068568E+01 -0.86856162583E+01  0.15448414080E+02  0.72461572891E+02  0.70000003382E+02 0.  0.
        -12    1    1    2    0    0 -0.60486068568E+01  0.86856162583E+01 -0.15448414080E+02  0.18726427109E+02  0.00000000000E+00 0.  1.
         11    1    3    3    0    0 -0.50361323058E+01 -0.17842687462E+02 -0.62953489403E+01  0.19579467383E+02  0.51100000000E-03 0. -1.
        -11    1    3    3    0    0 -0.10950449589E+02  0.18746409147E+02  0.20405693747E+01  0.21806057089E+02  0.51100000000E-03 0.  1.
        -12    1    3    3    0    0  0.22035188752E+02 -0.95893379440E+01  0.19703193645E+02  0.31076048419E+02  0.00000000000E+00 0.  1.
</event>
<event>
 7    1  0.2577508E-013  0.7246148E+02  0.7816164E-02  0.1226708E+00
        -11   -1    0    0    0    0  0.00000000000E+00  0.00000000000E+00  0.45593999997E+02  0.45594000000E+02  0.51100000000E-03 0.  1.
         11   -1    0    0    0    0 -0.00000000000E+00 -0.00000000000E+00 -0.45593999997E+02  0.45594000000E+02  0.51100000000E-03 0. -1.
    9900012    2    1    2    0    0 -0.14155619011E+02  0.87347312246E+00 -0.12228576771E+02  0.72461478841E+02  0.69999880865E+02 0.  0.
        -12    1    1    2    0    0  0.14155619011E+02 -0.87347312246E+00  0.12228576771E+02  0.18726521159E+02  0.00000000000E+00 0.  1.
         11    1    3    3    0    0 -0.15056268143E+02  0.81183884515E+01  0.84460470927E+01  0.19077084505E+02  0.51100000000E-03 0. -1.
        -11    1    3    3    0    0  0.17029018696E+02  0.32252710397E+01  0.78154619577E+01  0.19012398504E+02  0.51100000000E-03 0.  1.
        -12    1    3    3    0    0 -0.16128369563E+02 -0.10470186369E+02 -0.28490085821E+02  0.34371995832E+02  0.00000000000E+00 0.  1.
</event>
<event>
 7    1  0.2577508E-013  0.7246156E+02  0.7816164E-02  0.1226708E+00
        -11   -1    0    0    0    0  0.00000000000E+00  0.00000000000E+00  0.45593999997E+02  0.45594000000E+02  0.51100000000E-03 0. -1.
         11   -1    0    0    0    0 -0.00000000000E+00 -0.00000000000E+00 -0.45593999997E+02  0.45594000000E+02  0.51100000000E-03 0.  1.
    9900012    2    1    2    0    0 -0.13078924531E+02  0.78179290436E+01  0.10885821112E+02  0.72461564602E+02  0.69999992585E+02 0.  0.
        -12    1    1    2    0    0  0.13078924531E+02 -0.78179290436E+01 -0.10885821112E+02  0.18726435398E+02  0.00000000000E+00 0.  1.
         11    1    3    3    0    0 -0.15959628718E+02  0.26741571638E+02  0.18138608694E+02  0.36039291448E+02  0.51100000000E-03 0. -1.
        -11    1    3    3    0    0 -0.18062955101E+01  0.80587125317E+01 -0.24808072196E+01  0.86232218955E+01  0.51100000000E-03 0.  1.
        -12    1    3    3    0    0  0.46869996977E+01 -0.26982355126E+02 -0.47719803624E+01  0.27799051258E+02  0.00000000000E+00 0.  1.
</event>
<event>
 7    1  0.2577508E-013  0.7246156E+02  0.7816164E-02  0.1226708E+00
        -11   -1    0    0    0    0  0.00000000000E+00  0.00000000000E+00  0.45593999997E+02  0.45594000000E+02  0.51100000000E-03 0. -1.
         11   -1    0    0    0    0 -0.00000000000E+00 -0.00000000000E+00 -0.45593999997E+02  0.45594000000E+02  0.51100000000E-03 0.  1.
    9900012    2    1    2    0    0 -0.93487096274E+01 -0.14185689365E+02 -0.78770121334E+01  0.72461562148E+02  0.69999989388E+02 0.  0.
        -12    1    1    2    0    0  0.93487096274E+01  0.14185689365E+02  0.78770121334E+01  0.18726437852E+02  0.00000000000E+00 0.  1.
         11    1    3    3    0    0 -0.60062260265E+01 -0.18616392201E+02 -0.70731732010E+01  0.20800831451E+02  0.51100000000E-03 0. -1.
        -11    1    3    3    0    0 -0.11219181473E+02  0.10055197807E+02 -0.22972099931E+02  0.27471702011E+02  0.51100000000E-03 0.  1.
        -12    1    3    3    0    0  0.78766978717E+01 -0.56244949715E+01  0.22168260999E+02  0.24189028686E+02  0.00000000000E+00 0.  1.
</event>
<event>
 7    1  0.2577508E-013  0.7246155E+02  0.7816164E-02  0.1226708E+00
        -11   -1    0    0    0    0  0.00000000000E+00  0.00000000000E+00  0.45593999997E+02  0.45594000000E+02  0.51100000000E-03 0.  1.
         11   -1    0    0    0    0 -0.00000000000E+00 -0.00000000000E+00 -0.45593999997E+02  0.45594000000E+02  0.51100000000E-03 0. -1.
    9900012    2    1    2    0    0  0.16864262298E+02  0.62755574520E+01 -0.51859290355E+01  0.72461552816E+02  0.69999977231E+02 0.  0.
        -12    1    1    2    0    0 -0.16864262298E+02 -0.62755574520E+01  0.51859290355E+01  0.18726447184E+02  0.00000000000E+00 0.  1.
         11    1    3    3    0    0 -0.70620147625E+01  0.13140311414E+02 -0.32061372749E+01  0.15258412534E+02  0.51100000000E-03 0. -1.
        -11    1    3    3    0    0 -0.26331417869E+01  0.12587861377E+02 -0.16752362616E+02  0.21119406791E+02  0.51100000000E-03 0.  1.
         12    1    3    3    0    0  0.26559418847E+02 -0.19452615339E+02  0.14772570855E+02  0.36083733492E+02  0.00000000000E+00 0. -1.
</event>
<event>
 7    1  0.2577508E-013  0.7246162E+02  0.7816164E-02  0.1226708E+00
        -11   -1    0    0    0    0  0.00000000000E+00  0.00000000000E+00  0.45593999997E+02  0.45594000000E+02  0.51100000000E-03 0.  1.
         11   -1    0    0    0    0 -0.00000000000E+00 -0.00000000000E+00 -0.45593999997E+02  0.45594000000E+02  0.51100000000E-03 0. -1.
    9900012    2    1    2    0    0 -0.79054023475E+00 -0.81767148480E+01 -0.16828364848E+02  0.72461615325E+02  0.70000058660E+02 0.  0.
        -12    1    1    2    0    0  0.79054023475E+00  0.81767148480E+01  0.16828364848E+02  0.18726384675E+02  0.00000000000E+00 0.  1.
         11    1    3    3    0    0 -0.11917320436E+01 -0.17194677029E+02  0.10842244134E+01  0.17269993811E+02  0.51100000000E-03 0. -1.
        -11    1    3    3    0    0 -0.18098020861E+02 -0.64837164668E+01  0.70432099190E+01  0.20473977252E+02  0.51100000000E-03 0.  1.
         12    1    3    3    0    0  0.18499212670E+02  0.15501678648E+02 -0.24955799180E+02  0.34717644261E+02  0.00000000000E+00 0. -1.
</event>
<event>
 7    1  0.2577508E-013  0.7246157E+02  0.7816164E-02  0.1226708E+00
        -11   -1    0    0    0    0  0.00000000000E+00  0.00000000000E+00  0.45593999997E+02  0.45594000000E+02  0.51100000000E-03 0.  1.
         11   -1    0    0    0    0 -0.00000000000E+00 -0.00000000000E+00 -0.45593999997E+02  0.45594000000E+02  0.51100000000E-03 0. -1.
    9900012    2    1    2    0    0  0.40318403744E+01 -0.32885333139E+01 -0.17989136134E+02  0.72461569294E+02  0.69999998696E+02 0.  0.
        -12    1    1    2    0    0 -0.40318403744E+01  0.32885333139E+01  0.17989136134E+02  0.18726430706E+02  0.00000000000E+00 0.  1.
         11    1    3    3    0    0  0.74620153549E+01  0.13472864093E+01 -0.96101019913E+01  0.12241360805E+02  0.51100000000E-03 0. -1.
        -11    1    3    3    0    0  0.16845503257E+02 -0.79673616288E+01 -0.26788212784E+02  0.32632164742E+02  0.51100000000E-03 0.  1.
        -12    1    3    3    0    0 -0.20275678238E+02  0.33315419056E+01  0.18409178642E+02  0.27588043746E+02  0.00000000000E+00 0.  1.
</event>
<event>
 7    1  0.2577508E-013  0.7246146E+02  0.7816164E-02  0.1226708E+00
        -11   -1    0    0    0    0  0.00000000000E+00  0.00000000000E+00  0.45593999997E+02  0.45594000000E+02  0.51100000000E-03 0. -1.
         11   -1    0    0    0    0 -0.00000000000E+00 -0.00000000000E+00 -0.45593999997E+02  0.45594000000E+02  0.51100000000E-03 0.  1.
    9900012    2    1    2    0    0 -0.15958844573E+02 -0.50091492262E+01 -0.84206281718E+01  0.72461460680E+02  0.69999857207E+02 0.  0.
        -12    1    1    2    0    0  0.15958844573E+02  0.50091492262E+01  0.84206281718E+01  0.18726539320E+02  0.00000000000E+00 0.  1.
         11    1    3    3    0    0  0.15009776214E+00 -0.35678260352E+01 -0.98613895012E+01  0.10488036762E+02  0.51100000000E-03 0. -1.
        -11    1    3    3    0    0 -0.13942085679E+02 -0.11381659900E+02 -0.26615468860E+02  0.32129536536E+02  0.51100000000E-03 0.  1.
         12    1    3    3    0    0 -0.21668566568E+01  0.99403367092E+01  0.28056230189E+02  0.29843887382E+02  0.00000000000E+00 0. -1.
</event>
<event>
 7    1  0.2577508E-013  0.7246156E+02  0.7816164E-02  0.1226708E+00
        -11   -1    0    0    0    0  0.00000000000E+00  0.00000000000E+00  0.45593999997E+02  0.45594000000E+02  0.51100000000E-03 0.  1.
         11   -1    0    0    0    0 -0.00000000000E+00 -0.00000000000E+00 -0.45593999997E+02  0.45594000000E+02  0.51100000000E-03 0. -1.
    9900012    2    1    2    0    0  0.77098615266E+01  0.24490770900E+01 -0.16889039431E+02  0.72461558900E+02  0.69999985157E+02 0.  0.
        -12    1    1    2    0    0 -0.77098615266E+01 -0.24490770900E+01  0.16889039431E+02  0.18726441100E+02  0.00000000000E+00 0.  1.
         11    1    3    3    0    0 -0.26297485476E+01 -0.60395039014E+01 -0.19715032728E+02  0.20786382574E+02  0.51100000000E-03 0. -1.
        -11    1    3    3    0    0 -0.16768316217E+02  0.11615552987E+02 -0.85413075651E+01  0.22114507346E+02  0.51100000000E-03 0.  1.
        -12    1    3    3    0    0  0.27107926292E+02 -0.31269719952E+01  0.11367300862E+02  0.29560668980E+02  0.00000000000E+00 0.  1.
</event>
<event>
 7    1  0.2577508E-013  0.7246162E+02  0.7816164E-02  0.1226708E+00
        -11   -1    0    0    0    0  0.00000000000E+00  0.00000000000E+00  0.45593999997E+02  0.45594000000E+02  0.51100000000E-03 0.  1.
         11   -1    0    0    0    0 -0.00000000000E+00 -0.00000000000E+00 -0.45593999997E+02  0.45594000000E+02  0.51100000000E-03 0. -1.
    9900012    2    1    2    0    0  0.16734178345E+02  0.83236330193E+01  0.11670000788E+01  0.72461615386E+02  0.70000058741E+02 0.  0.
        -12    1    1    2    0    0 -0.16734178345E+02 -0.83236330193E+01 -0.11670000788E+01  0.18726384614E+02  0.00000000000E+00 0.  1.
         11    1    3    3    0    0 -0.18735567601E+02 -0.65721948027E+00 -0.11654554660E+02  0.22074466593E+02  0.51100000000E-03 0. -1.
        -11    1    3    3    0    0  0.26865744382E+01  0.11759857485E+02  0.12658919105E+02  0.17485999069E+02  0.51100000000E-03 0.  1.
        -12    1    3    3    0    0  0.32783171508E+02 -0.27790049858E+01  0.16263563407E+00  0.32901149724E+02  0.00000000000E+00 0.  1.
</event>
<event>
 7    1  0.2577508E-013  0.7246156E+02  0.7816164E-02  0.1226708E+00
        -11   -1    0    0    0    0  0.00000000000E+00  0.00000000000E+00  0.45593999997E+02  0.45594000000E+02  0.51100000000E-03 0.  1.
         11   -1    0    0    0    0 -0.00000000000E+00 -0.00000000000E+00 -0.45593999997E+02  0.45594000000E+02  0.51100000000E-03 0. -1.
    9900012    2    1    2    0    0  0.91635990312E+01 -0.36545229640E+00 -0.16327106161E+02  0.72461561519E+02  0.69999988568E+02 0.  0.
        -12    1    1    2    0    0 -0.91635990312E+01  0.36545229640E+00  0.16327106161E+02  0.18726438481E+02  0.00000000000E+00 0.  1.
         11    1    3    3    0    0 -0.12299434732E+01  0.18914968366E+01 -0.90262297022E+01  0.93039423970E+01  0.51100000000E-03 0. -1.
        -11    1    3    3    0    0 -0.77844369545E+01  0.14272747247E+02  0.20429200455E+02  0.26108638497E+02  0.51100000000E-03 0.  1.
         12    1    3    3    0    0  0.18177979459E+02 -0.16529696380E+02 -0.27730076915E+02  0.37048980624E+02  0.00000000000E+00 0. -1.
</event>
<event>
 7    1  0.2577508E-013  0.7246156E+02  0.7816164E-02  0.1226708E+00
        -11   -1    0    0    0    0  0.00000000000E+00  0.00000000000E+00  0.45593999997E+02  0.45594000000E+02  0.51100000000E-03 0. -1.
         11   -1    0    0    0    0 -0.00000000000E+00 -0.00000000000E+00 -0.45593999997E+02  0.45594000000E+02  0.51100000000E-03 0.  1.
    9900012    2    1    2    0    0  0.11010215323E+02 -0.12700602882E+02 -0.82552645352E+01  0.72461560201E+02  0.69999986851E+02 0.  0.
        -12    1    1    2    0    0 -0.11010215323E+02  0.12700602882E+02  0.82552645352E+01  0.18726439799E+02  0.00000000000E+00 0.  1.
         11    1    3    3    0    0  0.34734108803E+02  0.76284325835E+01 -0.87082612582E+01  0.36612635966E+02  0.51100000000E-03 0. -1.
        -11    1    3    3    0    0 -0.76461399088E+00  0.25488946293E+01 -0.20228220248E+01  0.33426497859E+01  0.51100000000E-03 0.  1.
        -12    1    3    3    0    0 -0.22959279489E+02 -0.22877930094E+02  0.24758187477E+01  0.32506274448E+02  0.00000000000E+00 0.  1.
</event>
<event>
 7    1  0.2577508E-013  0.7246129E+02  0.7816164E-02  0.1226709E+00
        -11   -1    0    0    0    0  0.00000000000E+00  0.00000000000E+00  0.45593999997E+02  0.45594000000E+02  0.51100000000E-03 0. -1.
         11   -1    0    0    0    0 -0.00000000000E+00 -0.00000000000E+00 -0.45593999997E+02  0.45594000000E+02  0.51100000000E-03 0.  1.
    9900012    2    1    2    0    0 -0.11032279033E+02 -0.26093743144E+01  0.14905358693E+02  0.72461288256E+02  0.69999632592E+02 0.  0.
        -12    1    1    2    0    0  0.11032279033E+02  0.26093743144E+01 -0.14905358693E+02  0.18726711744E+02  0.00000000000E+00 0.  1.
         11    1    3    3    0    0 -0.11953991293E+02  0.13172861758E+02  0.20983098304E+02  0.27508409794E+02  0.51100000000E-03 0. -1.
        -11    1    3    3    0    0 -0.30520650842E+01 -0.28781385126E+02  0.22193539050E+01  0.29027724042E+02  0.51100000000E-03 0.  1.
         12    1    3    3    0    0  0.39737773442E+01  0.12999149053E+02 -0.82970935157E+01  0.15925154420E+02  0.00000000000E+00 0. -1.
</event>
<event>
 7    1  0.2577508E-013  0.7246154E+02  0.7816164E-02  0.1226708E+00
        -11   -1    0    0    0    0  0.00000000000E+00  0.00000000000E+00  0.45593999997E+02  0.45594000000E+02  0.51100000000E-03 0. -1.
         11   -1    0    0    0    0 -0.00000000000E+00 -0.00000000000E+00 -0.45593999997E+02  0.45594000000E+02  0.51100000000E-03 0.  1.
    9900012    2    1    2    0    0  0.71117341207E+01 -0.13953669512E+02  0.10266375755E+02  0.72461544751E+02  0.69999966725E+02 0.  0.
        -12    1    1    2    0    0 -0.71117341207E+01  0.13953669512E+02 -0.10266375755E+02  0.18726455249E+02  0.00000000000E+00 0.  1.
         11    1    3    3    0    0 -0.32629351216E+01  0.40207752750E+01 -0.55128467068E+00  0.52074268568E+01  0.51100000000E-03 0. -1.
        -11    1    3    3    0    0  0.15626619017E+02  0.92176782411E+01 -0.19197572369E+02  0.26414079563E+02  0.51100000000E-03 0.  1.
         12    1    3    3    0    0 -0.52519497751E+01 -0.27192123028E+02  0.30015232794E+02  0.40840038331E+02  0.00000000000E+00 0. -1.
</event>
<event>
 7    1  0.2577508E-013  0.7246158E+02  0.7816164E-02  0.1226708E+00
        -11   -1    0    0    0    0  0.00000000000E+00  0.00000000000E+00  0.45593999997E+02  0.45594000000E+02  0.51100000000E-03 0.  1.
         11   -1    0    0    0    0 -0.00000000000E+00 -0.00000000000E+00 -0.45593999997E+02  0.45594000000E+02  0.51100000000E-03 0. -1.
    9900012    2    1    2    0    0  0.50970598010E+00 -0.20122254441E+01 -0.18611013681E+02  0.72461583320E+02  0.70000016968E+02 0.  0.
        -12    1    1    2    0    0 -0.50970598010E+00  0.20122254441E+01  0.18611013681E+02  0.18726416680E+02  0.00000000000E+00 0.  1.
         11    1    3    3    0    0  0.96557151853E+01 -0.16593543388E+02 -0.16888832284E+02  0.25569731600E+02  0.51100000000E-03 0. -1.
        -11    1    3    3    0    0  0.16076822324E+02 -0.79993250275E+00 -0.57136342966E+01  0.17080682808E+02  0.51100000000E-03 0.  1.
        -12    1    3    3    0    0 -0.25222831530E+02  0.15381250446E+02  0.39914528994E+01  0.29811168912E+02  0.00000000000E+00 0.  1.
</event>
<event>
 7    1  0.2577508E-013  0.7246156E+02  0.7816164E-02  0.1226708E+00
        -11   -1    0    0    0    0  0.00000000000E+00  0.00000000000E+00  0.45593999997E+02  0.45594000000E+02  0.51100000000E-03 0. -1.
         11   -1    0    0    0    0 -0.00000000000E+00 -0.00000000000E+00 -0.45593999997E+02  0.45594000000E+02  0.51100000000E-03 0.  1.
    9900012    2    1    2    0    0 -0.15421577649E+01 -0.52818310600E+00  0.18655353511E+02  0.72461563003E+02  0.69999990502E+02 0.  0.
        -12    1    1    2    0    0  0.15421577649E+01  0.52818310600E+00 -0.18655353511E+02  0.18726436997E+02  0.00000000000E+00 0.  1.
         11    1    3    3    0    0  0.19611491573E+01 -0.91716789304E+01  0.25907307106E+02  0.27552755981E+02  0.51100000000E-03 0. -1.
        -11    1    3    3    0    0  0.15999510952E+02 -0.73660686808E+01 -0.86796975673E+01  0.19636203010E+02  0.51100000000E-03 0.  1.
        -12    1    3    3    0    0 -0.19502817875E+02  0.16009564505E+02  0.14277439726E+01  0.25272604012E+02  0.00000000000E+00 0.  1.
</event>
<event>
 7    1  0.2577508E-013  0.7246163E+02  0.7816164E-02  0.1226708E+00
        -11   -1    0    0    0    0  0.00000000000E+00  0.00000000000E+00  0.45593999997E+02  0.45594000000E+02  0.51100000000E-03 0. -1.
         11   -1    0    0    0    0 -0.00000000000E+00 -0.00000000000E+00 -0.45593999997E+02  0.45594000000E+02  0.51100000000E-03 0.  1.
    9900012    2    1    2    0    0 -0.13314769517E+02 -0.11120569042E+02  0.70517309292E+01  0.72461626827E+02  0.70000073645E+02 0.  0.
        -12    1    1    2    0    0  0.13314769517E+02  0.11120569042E+02 -0.70517309292E+01  0.18726373173E+02  0.00000000000E+00 0.  1.
         11    1    3    3    0    0  0.20756755286E+02 -0.15647878470E+01  0.99535232491E+01  0.23073016195E+02  0.51100000000E-03 0. -1.
        -11    1    3    3    0    0 -0.11632477317E+02  0.11544254520E+02  0.57951764032E+01  0.17382991997E+02  0.51100000000E-03 0.  1.
        -12    1    3    3    0    0 -0.22439047486E+02 -0.21100035715E+02 -0.86969687232E+01  0.32005618635E+02  0.00000000000E+00 0.  1.
</event>
<event>
 7    1  0.2577508E-013  0.7246161E+02  0.7816164E-02  0.1226708E+00
        -11   -1    0    0    0    0  0.00000000000E+00  0.00000000000E+00  0.45593999997E+02  0.45594000000E+02  0.51100000000E-03 0.  1.
         11   -1    0    0    0    0 -0.00000000000E+00 -0.00000000000E+00 -0.45593999997E+02  0.45594000000E+02  0.51100000000E-03 0. -1.
    9900012    2    1    2    0    0 -0.14370748217E+01 -0.28172832138E+01 -0.18457390789E+02  0.72461613710E+02  0.70000056557E+02 0.  0.
        -12    1    1    2    0    0  0.14370748217E+01  0.28172832138E+01  0.18457390789E+02  0.18726386290E+02  0.00000000000E+00 0.  1.
         11    1    3    3    0    0 -0.10084647412E+02 -0.20424763329E+02 -0.12044544412E+02  0.25767074355E+02  0.51100000000E-03 0. -1.
        -11    1    3    3    0    0 -0.15458531719E+02  0.17330739903E+01 -0.85531712319E+01  0.17751802352E+02  0.51100000000E-03 0.  1.
         12    1    3    3    0    0  0.24106104308E+02  0.15874406125E+02  0.21403248546E+01  0.28942737003E+02  0.00000000000E+00 0. -1.
</event>
<event>
 7    1  0.2577508E-013  0.7246154E+02  0.7816164E-02  0.1226708E+00
        -11   -1    0    0    0    0  0.00000000000E+00  0.00000000000E+00  0.45593999997E+02  0.45594000000E+02  0.51100000000E-03 0.  1.
         11   -1    0    0    0    0 -0.00000000000E+00 -0.00000000000E+00 -0.45593999997E+02  0.45594000000E+02  0.51100000000E-03 0. -1.
    9900012    2    1    2    0    0  0.13986923523E+02 -0.12115467482E+02  0.28743238500E+01  0.72461539589E+02  0.69999960001E+02 0.  0.
        -12    1    1    2    0    0 -0.13986923523E+02  0.12115467482E+02 -0.28743238500E+01  0.18726460411E+02  0.00000000000E+00 0.  1.
         11    1    3    3    0    0 -0.39064523858E+00 -0.32201299703E+01 -0.52726662826E+01  0.61905452682E+01  0.51100000000E-03 0. -1.
        -11    1    3    3    0    0  0.25157126031E+01  0.23624531121E+02 -0.11578749909E+02  0.26429429247E+02  0.51100000000E-03 0.  1.
         12    1    3    3    0    0  0.11861856158E+02 -0.32519868633E+02  0.19725740041E+02  0.39841565074E+02  0.00000000000E+00 0. -1.
</event>
<event>
 7    1  0.2577508E-013  0.7246166E+02  0.7816164E-02  0.1226708E+00
        -11   -1    0    0    0    0  0.00000000000E+00  0.00000000000E+00  0.45593999997E+02  0.45594000000E+02  0.51100000000E-03 0. -1.
         11   -1    0    0    0    0 -0.00000000000E+00 -0.00000000000E+00 -0.45593999997E+02  0.45594000000E+02  0.51100000000E-03 0.  1.
    9900012    2    1    2    0    0  0.55273967285E+01 -0.91035127591E+01  0.15402908250E+02  0.72461664488E+02  0.70000122705E+02 0.  0.
        -12    1    1    2    0    0 -0.55273967285E+01  0.91035127591E+01 -0.15402908250E+02  0.18726335512E+02  0.00000000000E+00 0.  1.
         11    1    3    3    0    0 -0.13885093832E+02  0.21810555830E+02  0.60155575823E+01  0.26545868033E+02  0.51100000000E-03 0. -1.
        -11    1    3    3    0    0  0.69596568872E+01  0.18096314731E+00 -0.58721936383E+01  0.91078114844E+01  0.51100000000E-03 0.  1.
        -12    1    3    3    0    0  0.12452833674E+02 -0.31095031736E+02  0.15259544306E+02  0.36807984971E+02  0.00000000000E+00 0.  1.
</event>
<event>
 7    1  0.2577508E-013  0.7246157E+02  0.7816164E-02  0.1226708E+00
        -11   -1    0    0    0    0  0.00000000000E+00  0.00000000000E+00  0.45593999997E+02  0.45594000000E+02  0.51100000000E-03 0. -1.
         11   -1    0    0    0    0 -0.00000000000E+00 -0.00000000000E+00 -0.45593999997E+02  0.45594000000E+02  0.51100000000E-03 0.  1.
    9900012    2    1    2    0    0  0.12856045430E+02 -0.26852378568E+01  0.13348812341E+02  0.72461569551E+02  0.69999999032E+02 0.  0.
        -12    1    1    2    0    0 -0.12856045430E+02  0.26852378568E+01 -0.13348812341E+02  0.18726430449E+02  0.00000000000E+00 0.  1.
         11    1    3    3    0    0  0.28286326699E+02 -0.15754424825E+02 -0.10239623908E+02  0.33958328547E+02  0.51100000000E-03 0. -1.
        -11    1    3    3    0    0  0.25043743500E+01  0.62833036877E+00  0.14717463698E+02  0.14942236376E+02  0.51100000000E-03 0.  1.
        -12    1    3    3    0    0 -0.17934655618E+02  0.12440856600E+02  0.88709725505E+01  0.23561004628E+02  0.00000000000E+00 0.  1.
</event>
<event>
 7    1  0.2577508E-013  0.7246139E+02  0.7816164E-02  0.1226708E+00
        -11   -1    0    0    0    0  0.00000000000E+00  0.00000000000E+00  0.45593999997E+02  0.45594000000E+02  0.51100000000E-03 0. -1.
         11   -1    0    0    0    0 -0.00000000000E+00 -0.00000000000E+00 -0.45593999997E+02  0.45594000000E+02  0.51100000000E-03 0.  1.
    9900012    2    1    2    0    0 -0.48605551583E+01 -0.17597949710E+02  0.41681082624E+01  0.72461389070E+02  0.69999763921E+02 0.  0.
        -12    1    1    2    0    0  0.48605551583E+01  0.17597949710E+02 -0.41681082624E+01  0.18726610930E+02  0.00000000000E+00 0.  1.
         11    1    3    3    0    0 -0.88998574092E+01 -0.82638863763E+01  0.16362396013E+02  0.20377126478E+02  0.51100000000E-03 0. -1.
        -11    1    3    3    0    0 -0.15678516116E+01 -0.25896692186E+02  0.62316049810E+01  0.26682011276E+02  0.51100000000E-03 0.  1.
        -12    1    3    3    0    0  0.56071538625E+01  0.16562628852E+02 -0.18425892732E+02  0.25402251316E+02  0.00000000000E+00 0.  1.
</event>
<event>
 7    1  0.2577508E-013  0.7246158E+02  0.7816164E-02  0.1226708E+00
        -11   -1    0    0    0    0  0.00000000000E+00  0.00000000000E+00  0.45593999997E+02  0.45594000000E+02  0.51100000000E-03 0. -1.
         11   -1    0    0    0    0 -0.00000000000E+00 -0.00000000000E+00 -0.45593999997E+02  0.45594000000E+02  0.51100000000E-03 0.  1.
    9900012    2    1    2    0    0 -0.37167146853E+01 -0.12923679722E+02  0.13032391322E+02  0.72461583119E+02  0.70000016707E+02 0.  0.
        -12    1    1    2    0    0  0.37167146853E+01  0.12923679722E+02 -0.13032391322E+02  0.18726416881E+02  0.00000000000E+00 0.  1.
         11    1    3    3    0    0 -0.68953709872E+01 -0.56145808835E+01 -0.13380181649E+02  0.16065457378E+02  0.51100000000E-03 0.  1.
        -11    1    3    3    0    0 -0.54536864685E+01  0.19750873440E+02  0.57798224292E+01  0.21289575977E+02  0.51100000000E-03 0. -1.
        -12    1    3    3    0    0  0.86323427704E+01 -0.27059972278E+02  0.20632750542E+02  0.35106549764E+02  0.00000000000E+00 0.  1.
</event>
<event>
 7    1  0.2577508E-013  0.7246157E+02  0.7816164E-02  0.1226708E+00
        -11   -1    0    0    0    0  0.00000000000E+00  0.00000000000E+00  0.45593999997E+02  0.45594000000E+02  0.51100000000E-03 0. -1.
         11   -1    0    0    0    0 -0.00000000000E+00 -0.00000000000E+00 -0.45593999997E+02  0.45594000000E+02  0.51100000000E-03 0.  1.
    9900012    2    1    2    0    0 -0.87988121304E+01 -0.13875012337E+02 -0.89857716817E+01  0.72461570682E+02  0.70000000506E+02 0.  0.
        -12    1    1    2    0    0  0.87988121304E+01  0.13875012337E+02  0.89857716817E+01  0.18726429318E+02  0.00000000000E+00 0.  1.
         11    1    3    3    0    0  0.58704660295E+00 -0.29478361184E+00  0.85257314707E+01  0.85510010211E+01  0.51100000000E-03 0. -1.
        -11    1    3    3    0    0  0.14416712458E+02  0.12804108427E+02 -0.20631932166E+02  0.28239394750E+02  0.51100000000E-03 0.  1.
         12    1    3    3    0    0 -0.23802571191E+02 -0.26384337153E+02  0.31204290138E+01  0.35671174911E+02  0.00000000000E+00 0. -1.
</event>
<event>
 7    1  0.2577508E-013  0.7246152E+02  0.7816164E-02  0.1226708E+00
        -11   -1    0    0    0    0  0.00000000000E+00  0.00000000000E+00  0.45593999997E+02  0.45594000000E+02  0.51100000000E-03 0. -1.
         11   -1    0    0    0    0 -0.00000000000E+00 -0.00000000000E+00 -0.45593999997E+02  0.45594000000E+02  0.51100000000E-03 0.  1.
    9900012    2    1    2    0    0 -0.17441065418E+02 -0.25064543714E+01  0.63409699819E+01  0.72461522041E+02  0.69999937141E+02 0.  0.
        -12    1    1    2    0    0  0.17441065418E+02  0.25064543714E+01 -0.63409699819E+01  0.18726477959E+02  0.00000000000E+00 0.  1.
         11    1    3    3    0    0  0.12692701859E+02 -0.40417843933E+00 -0.16516226297E+02  0.20833957186E+02  0.51100000000E-03 0. -1.
        -11    1    3    3    0    0  0.32425688840E+01 -0.54972664023E+01 -0.49308336655E+01  0.80651913655E+01  0.51100000000E-03 0.  1.
         12    1    3    3    0    0 -0.33376336161E+02  0.33949904702E+01  0.27788029944E+02  0.43562373489E+02  0.00000000000E+00 0. -1.
</event>
<event>
 7    1  0.2577508E-013  0.7246156E+02  0.7816164E-02  0.1226708E+00
        -11   -1    0    0    0    0  0.00000000000E+00  0.00000000000E+00  0.45593999997E+02  0.45594000000E+02  0.51100000000E-03 0.  1.
         11   -1    0    0    0    0 -0.00000000000E+00 -0.00000000000E+00 -0.45593999997E+02  0.45594000000E+02  0.51100000000E-03 0. -1.
    9900012    2    1    2    0    0 -0.16623170280E+02  0.48092640056E+01 -0.71568605318E+01  0.72461562456E+02  0.69999989789E+02 0.  0.
        -12    1    1    2    0    0  0.16623170280E+02 -0.48092640056E+01  0.71568605318E+01  0.18726437544E+02  0.00000000000E+00 0.  1.
         11    1    3    3    0    0  0.98242654027E+01 -0.78036528610E+01 -0.16027873446E+02  0.20354506041E+02  0.51100000000E-03 0. -1.
        -11    1    3    3    0    0  0.63742447164E+01 -0.55156939039E+01 -0.74158073402E+01  0.11227113330E+02  0.51100000000E-03 0.  1.
         12    1    3    3    0    0 -0.32821680399E+02  0.18128610771E+02  0.16286820255E+02  0.40879943086E+02  0.00000000000E+00 0. -1.
</event>
<event>
 7    1  0.2577508E-013  0.7246142E+02  0.7816164E-02  0.1226708E+00
        -11   -1    0    0    0    0  0.00000000000E+00  0.00000000000E+00  0.45593999997E+02  0.45594000000E+02  0.51100000000E-03 0. -1.
         11   -1    0    0    0    0 -0.00000000000E+00 -0.00000000000E+00 -0.45593999997E+02  0.45594000000E+02  0.51100000000E-03 0.  1.
    9900012    2    1    2    0    0  0.12905123021E+02  0.13555429578E+02 -0.62674302289E+00  0.72461423216E+02  0.69999808403E+02 0.  0.
        -12    1    1    2    0    0 -0.12905123021E+02 -0.13555429578E+02  0.62674302289E+00  0.18726576784E+02  0.00000000000E+00 0.  1.
         11    1    3    3    0    0  0.22770355903E+02  0.26324411079E+02  0.11856304060E+02  0.36770037705E+02  0.51100000000E-03 0. -1.
        -11    1    3    3    0    0  0.65658506312E+01  0.53865120958E+01 -0.71242003205E+00  0.85224673442E+01  0.51100000000E-03 0.  1.
        -12    1    3    3    0    0 -0.16431083513E+02 -0.18155493597E+02 -0.11770627050E+02  0.27168918166E+02  0.00000000000E+00 0.  1.
</event>
<event>
 7    1  0.2577508E-013  0.7246152E+02  0.7816164E-02  0.1226708E+00
        -11   -1    0    0    0    0  0.00000000000E+00  0.00000000000E+00  0.45593999997E+02  0.45594000000E+02  0.51100000000E-03 0.  1.
         11   -1    0    0    0    0 -0.00000000000E+00 -0.00000000000E+00 -0.45593999997E+02  0.45594000000E+02  0.51100000000E-03 0. -1.
    9900012    2    1    2    0    0  0.13520618555E+02  0.25236674687E+01 -0.12708459615E+02  0.72461522238E+02  0.69999937397E+02 0.  0.
        -12    1    1    2    0    0 -0.13520618555E+02 -0.25236674687E+01  0.12708459615E+02  0.18726477762E+02  0.00000000000E+00 0.  1.
         11    1    3    3    0    0  0.11436378807E+02  0.81232269683E+01 -0.79780586501E+00  0.14050411776E+02  0.51100000000E-03 0. -1.
        -11    1    3    3    0    0  0.22081245179E+02  0.16340590402E+02 -0.66391959802E+01  0.28260842289E+02  0.51100000000E-03 0.  1.
        -12    1    3    3    0    0 -0.19997005431E+02 -0.21940149902E+02 -0.52714577695E+01  0.30150268174E+02  0.00000000000E+00 0.  1.
</event>
<event>
 7    1  0.2577508E-013  0.7246155E+02  0.7816164E-02  0.1226708E+00
        -11   -1    0    0    0    0  0.00000000000E+00  0.00000000000E+00  0.45593999997E+02  0.45594000000E+02  0.51100000000E-03 0.  1.
         11   -1    0    0    0    0 -0.00000000000E+00 -0.00000000000E+00 -0.45593999997E+02  0.45594000000E+02  0.51100000000E-03 0. -1.
    9900012    2    1    2    0    0  0.10137991502E+01  0.10251536759E+02 -0.15638353188E+02  0.72461551189E+02  0.69999975111E+02 0.  0.
        -12    1    1    2    0    0 -0.10137991502E+01 -0.10251536759E+02  0.15638353188E+02  0.18726448811E+02  0.00000000000E+00 0.  1.
         11    1    3    3    0    0  0.50169631517E+01 -0.80754343549E+01 -0.19183495566E+02  0.21410022459E+02  0.51100000000E-03 0. -1.
        -11    1    3    3    0    0  0.20089108928E+02  0.36920174199E+01 -0.60029095521E+01  0.21289392042E+02  0.51100000000E-03 0.  1.
         12    1    3    3    0    0 -0.24092272930E+02  0.14634953694E+02  0.95480519303E+01  0.29762136688E+02  0.00000000000E+00 0. -1.
</event>
<event>
 7    1  0.2577508E-013  0.7246092E+02  0.7816164E-02  0.1226710E+00
        -11   -1    0    0    0    0  0.00000000000E+00  0.00000000000E+00  0.45593999997E+02  0.45594000000E+02  0.51100000000E-03 0. -1.
         11   -1    0    0    0    0 -0.00000000000E+00 -0.00000000000E+00 -0.45593999997E+02  0.45594000000E+02  0.51100000000E-03 0.  1.
    9900012    2    1    2    0    0 -0.15453936844E+02 -0.10551539027E+02 -0.73773877954E+00  0.72460923391E+02  0.69999157283E+02 0.  0.
        -12    1    1    2    0    0  0.15453936844E+02  0.10551539027E+02  0.73773877954E+00  0.18727076609E+02  0.00000000000E+00 0.  1.
         11    1    3    3    0    0 -0.66103756989E+01 -0.85456766514E+01 -0.70397683145E+01  0.12895115141E+02  0.51100000000E-03 0. -1.
        -11    1    3    3    0    0 -0.27042440639E+02  0.98045907293E-01  0.22448420215E+02  0.35145907004E+02  0.51100000000E-03 0.  1.
         12    1    3    3    0    0  0.18198879494E+02 -0.21039082827E+01 -0.16146390680E+02  0.24419901247E+02  0.00000000000E+00 0. -1.
</event>
<event>
 7    1  0.2577508E-013  0.7246192E+02  0.7816164E-02  0.1226707E+00
        -11   -1    0    0    0    0  0.00000000000E+00  0.00000000000E+00  0.45593999997E+02  0.45594000000E+02  0.51100000000E-03 0.  1.
         11   -1    0    0    0    0 -0.00000000000E+00 -0.00000000000E+00 -0.45593999997E+02  0.45594000000E+02  0.51100000000E-03 0. -1.
    9900012    2    1    2    0    0 -0.12354472771E+02  0.13881214622E+02 -0.23119435955E+01  0.72461916586E+02  0.70000451107E+02 0.  0.
        -12    1    1    2    0    0  0.12354472771E+02 -0.13881214622E+02  0.23119435955E+01  0.18726083414E+02  0.00000000000E+00 0.  1.
         11    1    3    3    0    0 -0.13254569527E+01  0.16107552311E+02 -0.19275755782E+02  0.25154817408E+02  0.51100000000E-03 0. -1.
        -11    1    3    3    0    0 -0.65782405625E+00 -0.86821745265E+01 -0.12601669047E+02  0.15317145623E+02  0.51100000000E-03 0.  1.
        -12    1    3    3    0    0 -0.10371191762E+02  0.64558368383E+01  0.29565481234E+02  0.31989953555E+02  0.00000000000E+00 0.  1.
</event>
<event>
 7    1  0.2577508E-013  0.7246154E+02  0.7816164E-02  0.1226708E+00
        -11   -1    0    0    0    0  0.00000000000E+00  0.00000000000E+00  0.45593999997E+02  0.45594000000E+02  0.51100000000E-03 0.  1.
         11   -1    0    0    0    0 -0.00000000000E+00 -0.00000000000E+00 -0.45593999997E+02  0.45594000000E+02  0.51100000000E-03 0. -1.
    9900012    2    1    2    0    0 -0.18055780942E+01 -0.11489171584E+02 -0.14677164395E+02  0.72461539293E+02  0.69999959615E+02 0.  0.
        -12    1    1    2    0    0  0.18055780942E+01  0.11489171584E+02  0.14677164395E+02  0.18726460707E+02  0.00000000000E+00 0.  1.
         11    1    3    3    0    0  0.10404218757E+02  0.13593745845E+02  0.17038527740E+02  0.24152621428E+02  0.51100000000E-03 0. -1.
        -11    1    3    3    0    0 -0.91020022883E+01 -0.11077325805E-01 -0.20252744898E+01  0.93246075190E+01  0.51100000000E-03 0.  1.
        -12    1    3    3    0    0 -0.31077945630E+01 -0.25071840103E+02 -0.29690417645E+02  0.38984310346E+02  0.00000000000E+00 0.  1.
</event>
<event>
 7    1  0.2577508E-013  0.7246158E+02  0.7816164E-02  0.1226708E+00
        -11   -1    0    0    0    0  0.00000000000E+00  0.00000000000E+00  0.45593999997E+02  0.45594000000E+02  0.51100000000E-03 0.  1.
         11   -1    0    0    0    0 -0.00000000000E+00 -0.00000000000E+00 -0.45593999997E+02  0.45594000000E+02  0.51100000000E-03 0. -1.
    9900012    2    1    2    0    0  0.98057143742E+01 -0.15899091057E+00 -0.15953103419E+02  0.72461579594E+02  0.70000012115E+02 0.  0.
        -12    1    1    2    0    0 -0.98057143742E+01  0.15899091057E+00  0.15953103419E+02  0.18726420406E+02  0.00000000000E+00 0.  1.
         11    1    3    3    0    0 -0.48802539916E+01  0.83173273478E+01 -0.17162462969E+02  0.19686161349E+02  0.51100000000E-03 0. -1.
        -11    1    3    3    0    0 -0.17719685954E+02 -0.75530579177E+01 -0.46880427179E+01  0.19824573111E+02  0.51100000000E-03 0.  1.
         12    1    3    3    0    0  0.32405654320E+02 -0.92326034074E+00  0.58974022679E+01  0.32950845135E+02  0.00000000000E+00 0. -1.
</event>
<event>
 7    1  0.2577508E-013  0.7246156E+02  0.7816164E-02  0.1226708E+00
        -11   -1    0    0    0    0  0.00000000000E+00  0.00000000000E+00  0.45593999997E+02  0.45594000000E+02  0.51100000000E-03 0.  1.
         11   -1    0    0    0    0 -0.00000000000E+00 -0.00000000000E+00 -0.45593999997E+02  0.45594000000E+02  0.51100000000E-03 0. -1.
    9900012    2    1    2    0    0 -0.29657511447E+01  0.12636018757E+02 -0.13498705354E+02  0.72461556234E+02  0.69999981684E+02 0.  0.
        -12    1    1    2    0    0  0.29657511447E+01 -0.12636018757E+02  0.13498705354E+02  0.18726443766E+02  0.00000000000E+00 0.  1.
         11    1    3    3    0    0  0.11722537286E+02  0.13662922861E+02  0.15361205559E+02  0.23665586365E+02  0.51100000000E-03 0. -1.
        -11    1    3    3    0    0 -0.12953273011E+01 -0.15844372580E+02 -0.30945522826E+01  0.16195625006E+02  0.51100000000E-03 0.  1.
        -12    1    3    3    0    0 -0.13392961130E+02  0.14817468476E+02 -0.25765358630E+02  0.32600344863E+02  0.00000000000E+00 0.  1.
</event>
<event>
 7    1  0.2577508E-013  0.7246155E+02  0.7816164E-02  0.1226708E+00
        -11   -1    0    0    0    0  0.00000000000E+00  0.00000000000E+00  0.45593999997E+02  0.45594000000E+02  0.51100000000E-03 0. -1.
         11   -1    0    0    0    0 -0.00000000000E+00 -0.00000000000E+00 -0.45593999997E+02  0.45594000000E+02  0.51100000000E-03 0.  1.
    9900012    2    1    2    0    0  0.13612316495E+01  0.15375302145E+02  0.10603168697E+02  0.72461546677E+02  0.69999969234E+02 0.  0.
        -12    1    1    2    0    0 -0.13612316495E+01 -0.15375302145E+02 -0.10603168697E+02  0.18726453323E+02  0.00000000000E+00 0.  1.
         11    1    3    3    0    0  0.77414598015E+01 -0.85786538512E+01  0.48946421869E+01  0.12549144360E+02  0.51100000000E-03 0. -1.
        -11    1    3    3    0    0  0.20084522885E+02  0.71899252053E+01 -0.11431484778E+02  0.24202519052E+02  0.51100000000E-03 0.  1.
         12    1    3    3    0    0 -0.26464751037E+02  0.16764030791E+02  0.17140011288E+02  0.35709883265E+02  0.00000000000E+00 0. -1.
</event>
<event>
 7    1  0.2577508E-013  0.7246174E+02  0.7816164E-02  0.1226708E+00
        -11   -1    0    0    0    0  0.00000000000E+00  0.00000000000E+00  0.45593999997E+02  0.45594000000E+02  0.51100000000E-03 0.  1.
         11   -1    0    0    0    0 -0.00000000000E+00 -0.00000000000E+00 -0.45593999997E+02  0.45594000000E+02  0.51100000000E-03 0. -1.
    9900012    2    1    2    0    0  0.17274406531E+02 -0.64539069570E-01 -0.72293518614E+01  0.72461739972E+02  0.70000221037E+02 0.  0.
        -12    1    1    2    0    0 -0.17274406531E+02  0.64539069570E-01  0.72293518614E+01  0.18726260028E+02  0.00000000000E+00 0.  1.
         11    1    3    3    0    0  0.75320263288E+01  0.28199501165E+01 -0.82332509887E+01  0.11509559565E+02  0.51100000000E-03 0. -1.
        -11    1    3    3    0    0  0.97180988349E+01  0.23495260268E+02 -0.15554470414E+02  0.29806211604E+02  0.51100000000E-03 0.  1.
         12    1    3    3    0    0  0.24281367106E-01 -0.26379749454E+02  0.16558369541E+02  0.31145968804E+02  0.00000000000E+00 0. -1.
</event>
<event>
 7    1  0.2577508E-013  0.7246099E+02  0.7816164E-02  0.1226710E+00
        -11   -1    0    0    0    0  0.00000000000E+00  0.00000000000E+00  0.45593999997E+02  0.45594000000E+02  0.51100000000E-03 0.  1.
         11   -1    0    0    0    0 -0.00000000000E+00 -0.00000000000E+00 -0.45593999997E+02  0.45594000000E+02  0.51100000000E-03 0. -1.
    9900012    2    1    2    0    0 -0.15075234493E+01  0.40616814808E+01 -0.18218970618E+02  0.72460993464E+02  0.69999248568E+02 0.  0.
        -12    1    1    2    0    0  0.15075234493E+01 -0.40616814808E+01  0.18218970618E+02  0.18727006536E+02  0.00000000000E+00 0.  1.
         11    1    3    3    0    0 -0.31045053178E+01 -0.10915432985E+00 -0.29861310896E+01  0.43089264419E+01  0.51100000000E-03 0. -1.
        -11    1    3    3    0    0 -0.17431278668E+02  0.60774169192E+01  0.20522696993E+02  0.27603723745E+02  0.51100000000E-03 0.  1.
         12    1    3    3    0    0  0.19028260537E+02 -0.19065811086E+01 -0.35755536522E+02  0.40548343278E+02  0.00000000000E+00 0. -1.
</event>
<event>
 7    1  0.2577508E-013  0.7246162E+02  0.7816164E-02  0.1226708E+00
        -11   -1    0    0    0    0  0.00000000000E+00  0.00000000000E+00  0.45593999997E+02  0.45594000000E+02  0.51100000000E-03 0. -1.
         11   -1    0    0    0    0 -0.00000000000E+00 -0.00000000000E+00 -0.45593999997E+02  0.45594000000E+02  0.51100000000E-03 0.  1.
    9900012    2    1    2    0    0  0.10656535313E+02  0.13810045566E+02 -0.68116280122E+01  0.72461618086E+02  0.70000062257E+02 0.  0.
        -12    1    1    2    0    0 -0.10656535313E+02 -0.13810045566E+02  0.68116280122E+01  0.18726381914E+02  0.00000000000E+00 0.  1.
         11    1    3    3    0    0  0.14738066350E+02 -0.26560076369E+01  0.10362709596E+02  0.18211280206E+02  0.51100000000E-03 0. -1.
        -11    1    3    3    0    0 -0.14625134741E+01  0.33806661935E+02 -0.98287148520E+01  0.35236812750E+02  0.51100000000E-03 0.  1.
        -12    1    3    3    0    0 -0.26190175620E+01 -0.17340608732E+02 -0.73456227564E+01  0.19013525130E+02  0.00000000000E+00 0.  1.
</event>
<event>
 7    1  0.2577508E-013  0.7246164E+02  0.7816164E-02  0.1226708E+00
        -11   -1    0    0    0    0  0.00000000000E+00  0.00000000000E+00  0.45593999997E+02  0.45594000000E+02  0.51100000000E-03 0.  1.
         11   -1    0    0    0    0 -0.00000000000E+00 -0.00000000000E+00 -0.45593999997E+02  0.45594000000E+02  0.51100000000E-03 0. -1.
    9900012    2    1    2    0    0 -0.17402232565E+02  0.43381462756E+01 -0.53869463200E+01  0.72461644187E+02  0.70000096259E+02 0.  0.
        -12    1    1    2    0    0  0.17402232565E+02 -0.43381462756E+01  0.53869463200E+01  0.18726355813E+02  0.00000000000E+00 0.  1.
         11    1    3    3    0    0 -0.14585450548E+02 -0.68491732146E+01 -0.22041256040E+00  0.16115058901E+02  0.51100000000E-03 0. -1.
        -11    1    3    3    0    0 -0.17344165682E+02  0.12253906123E+02  0.18759343496E+02  0.28335336017E+02  0.51100000000E-03 0.  1.
         12    1    3    3    0    0  0.14527383665E+02 -0.10665866327E+01 -0.23925877256E+02  0.28011249270E+02  0.00000000000E+00 0. -1.
</event>
<event>
 7    1  0.2577508E-013  0.7246143E+02  0.7816164E-02  0.1226708E+00
        -11   -1    0    0    0    0  0.00000000000E+00  0.00000000000E+00  0.45593999997E+02  0.45594000000E+02  0.51100000000E-03 0.  1.
         11   -1    0    0    0    0 -0.00000000000E+00 -0.00000000000E+00 -0.45593999997E+02  0.45594000000E+02  0.51100000000E-03 0. -1.
    9900012    2    1    2    0    0  0.91907547937E+01 -0.48713150247E+01 -0.15571926337E+02  0.72461426005E+02  0.69999812036E+02 0.  0.
        -12    1    1    2    0    0 -0.91907547937E+01  0.48713150247E+01  0.15571926337E+02  0.18726573995E+02  0.00000000000E+00 0.  1.
         11    1    3    3    0    0  0.16814658349E+02  0.35508979102E+01 -0.31867690452E+02  0.36206232976E+02  0.51100000000E-03 0. -1.
        -11    1    3    3    0    0 -0.39783074099E+01 -0.15611845563E+02 -0.20268102157E+01  0.16237752666E+02  0.51100000000E-03 0.  1.
        -12    1    3    3    0    0 -0.36455961456E+01  0.71896326280E+01  0.18322574330E+02  0.20017440362E+02  0.00000000000E+00 0.  1.
</event>
<event>
 7    1  0.2577508E-013  0.7246158E+02  0.7816164E-02  0.1226708E+00
        -11   -1    0    0    0    0  0.00000000000E+00  0.00000000000E+00  0.45593999997E+02  0.45594000000E+02  0.51100000000E-03 0.  1.
         11   -1    0    0    0    0 -0.00000000000E+00 -0.00000000000E+00 -0.45593999997E+02  0.45594000000E+02  0.51100000000E-03 0. -1.
    9900012    2    1    2    0    0 -0.11865910409E+02 -0.74294685517E+01 -0.12437127135E+02  0.72461575777E+02  0.70000007143E+02 0.  0.
        -12    1    1    2    0    0  0.11865910409E+02  0.74294685517E+01  0.12437127135E+02  0.18726424223E+02  0.00000000000E+00 0.  1.
         11    1    3    3    0    0 -0.33246595387E+02  0.83916066340E+01 -0.18436093598E+02  0.38931281949E+02  0.51100000000E-03 0. -1.
        -11    1    3    3    0    0 -0.33628020973E+01  0.18400738551E-02 -0.63012697181E+00  0.34213303835E+01  0.51100000000E-03 0.  1.
        -12    1    3    3    0    0  0.24743487076E+02 -0.15822915260E+02  0.66290934348E+01  0.30108963445E+02  0.00000000000E+00 0.  1.
</event>
<event>
 7    1  0.2577508E-013  0.7246143E+02  0.7816164E-02  0.1226708E+00
        -11   -1    0    0    0    0  0.00000000000E+00  0.00000000000E+00  0.45593999997E+02  0.45594000000E+02  0.51100000000E-03 0. -1.
         11   -1    0    0    0    0 -0.00000000000E+00 -0.00000000000E+00 -0.45593999997E+02  0.45594000000E+02  0.51100000000E-03 0.  1.
    9900012    2    1    2    0    0  0.29119498238E+01  0.18488030983E+02 -0.63071325922E+00  0.72461426886E+02  0.69999813183E+02 0.  0.
        -12    1    1    2    0    0 -0.29119498238E+01 -0.18488030983E+02  0.63071325922E+00  0.18726573114E+02  0.00000000000E+00 0.  1.
         11    1    3    3    0    0  0.48703710456E+01  0.48391498887E+01 -0.97583047832E+01  0.11931571492E+02  0.51100000000E-03 0.  1.
        -11    1    3    3    0    0 -0.27109962156E+02  0.19901844988E+02  0.80989169781E+01  0.34592281487E+02  0.51100000000E-03 0. -1.
         12    1    3    3    0    0  0.25151540934E+02 -0.62529638936E+01  0.10286745458E+01  0.25937573906E+02  0.00000000000E+00 0. -1.
</event>
<event>
 7    1  0.2577508E-013  0.7246140E+02  0.7816164E-02  0.1226708E+00
        -11   -1    0    0    0    0  0.00000000000E+00  0.00000000000E+00  0.45593999997E+02  0.45594000000E+02  0.51100000000E-03 0.  1.
         11   -1    0    0    0    0 -0.00000000000E+00 -0.00000000000E+00 -0.45593999997E+02  0.45594000000E+02  0.51100000000E-03 0. -1.
    9900012    2    1    2    0    0 -0.75950708437E+01  0.93338409441E+01 -0.14348519407E+02  0.72461396008E+02  0.69999772960E+02 0.  0.
        -12    1    1    2    0    0  0.75950708437E+01 -0.93338409441E+01  0.14348519407E+02  0.18726603992E+02  0.00000000000E+00 0.  1.
         11    1    3    3    0    0  0.16306718260E+02  0.16217138101E+02 -0.10129841822E+02  0.25130028337E+02  0.51100000000E-03 0. -1.
        -11    1    3    3    0    0 -0.46450458999E+01  0.12164975066E+02 -0.13444840926E+02  0.18717019462E+02  0.51100000000E-03 0.  1.
        -12    1    3    3    0    0 -0.19256743204E+02 -0.19048272223E+02  0.92261633405E+01  0.28614348210E+02  0.00000000000E+00 0.  1.
</event>
<event>
 7    1  0.2577508E-013  0.7246156E+02  0.7816164E-02  0.1226708E+00
        -11   -1    0    0    0    0  0.00000000000E+00  0.00000000000E+00  0.45593999997E+02  0.45594000000E+02  0.51100000000E-03 0. -1.
         11   -1    0    0    0    0 -0.00000000000E+00 -0.00000000000E+00 -0.45593999997E+02  0.45594000000E+02  0.51100000000E-03 0.  1.
    9900012    2    1    2    0    0  0.16819485863E+02  0.50009124282E+01 -0.65402989253E+01  0.72461555066E+02  0.69999980163E+02 0.  0.
        -12    1    1    2    0    0 -0.16819485863E+02 -0.50009124282E+01  0.65402989253E+01  0.18726444934E+02  0.00000000000E+00 0.  1.
         11    1    3    3    0    0  0.17574754908E+02 -0.15841167917E+02  0.13157475316E+02  0.27072749547E+02  0.51100000000E-03 0. -1.
        -11    1    3    3    0    0 -0.52638400852E+01 -0.35430713699E+01  0.66602392767E+01  0.91989213856E+01  0.51100000000E-03 0.  1.
        -12    1    3    3    0    0  0.45085710400E+01  0.24385151715E+02 -0.26358013518E+02  0.36189884134E+02  0.00000000000E+00 0.  1.
</event>
<event>
 7    1  0.2577508E-013  0.7246156E+02  0.7816164E-02  0.1226708E+00
        -11   -1    0    0    0    0  0.00000000000E+00  0.00000000000E+00  0.45593999997E+02  0.45594000000E+02  0.51100000000E-03 0. -1.
         11   -1    0    0    0    0 -0.00000000000E+00 -0.00000000000E+00 -0.45593999997E+02  0.45594000000E+02  0.51100000000E-03 0.  1.
    9900012    2    1    2    0    0  0.18622951449E+02 -0.44502048281E+00 -0.19149476635E+01  0.72461564448E+02  0.69999992384E+02 0.  0.
        -12    1    1    2    0    0 -0.18622951449E+02  0.44502048281E+00  0.19149476635E+01  0.18726435552E+02  0.00000000000E+00 0.  1.
         11    1    3    3    0    0  0.54994955650E+01 -0.14188370525E+02  0.24208874794E+01  0.15408277194E+02  0.51100000000E-03 0. -1.
        -11    1    3    3    0    0 -0.83261051098E+01 -0.17227170559E+02 -0.29059283148E+01  0.19353135441E+02  0.51100000000E-03 0.  1.
         12    1    3    3    0    0  0.21449560994E+02  0.30970520602E+02 -0.14299068281E+01  0.37700151813E+02  0.00000000000E+00 0. -1.
</event>
<event>
 7    1  0.2577508E-013  0.7246154E+02  0.7816164E-02  0.1226708E+00
        -11   -1    0    0    0    0  0.00000000000E+00  0.00000000000E+00  0.45593999997E+02  0.45594000000E+02  0.51100000000E-03 0. -1.
         11   -1    0    0    0    0 -0.00000000000E+00 -0.00000000000E+00 -0.45593999997E+02  0.45594000000E+02  0.51100000000E-03 0.  1.
    9900012    2    1    2    0    0 -0.18480543782E+02  0.62965222875E+00  0.29585996288E+01  0.72461540854E+02  0.69999961648E+02 0.  0.
        -12    1    1    2    0    0  0.18480543782E+02 -0.62965222875E+00 -0.29585996288E+01  0.18726459146E+02  0.00000000000E+00 0.  1.
         11    1    3    3    0    0  0.45016500289E+01 -0.79696545955E+01 -0.45176548055E+01  0.10207323477E+02  0.51100000000E-03 0. -1.
        -11    1    3    3    0    0 -0.26174222145E+02 -0.13374333773E+02 -0.12916767765E+02  0.32106161380E+02  0.51100000000E-03 0.  1.
        -12    1    3    3    0    0  0.31920283345E+01  0.21973640597E+02  0.20393022200E+02  0.30148055997E+02  0.00000000000E+00 0.  1.
</event>
<event>
 7    1  0.2577508E-013  0.7246159E+02  0.7816164E-02  0.1226708E+00
        -11   -1    0    0    0    0  0.00000000000E+00  0.00000000000E+00  0.45593999997E+02  0.45594000000E+02  0.51100000000E-03 0.  1.
         11   -1    0    0    0    0 -0.00000000000E+00 -0.00000000000E+00 -0.45593999997E+02  0.45594000000E+02  0.51100000000E-03 0. -1.
    9900012    2    1    2    0    0 -0.40775384403E+01  0.24824888250E+01 -0.18107720221E+02  0.72461585445E+02  0.70000019736E+02 0.  0.
        -12    1    1    2    0    0  0.40775384403E+01 -0.24824888250E+01  0.18107720221E+02  0.18726414555E+02  0.00000000000E+00 0.  1.
         11    1    3    3    0    0 -0.10078551097E+02  0.33717122616E+01  0.13237983834E+02  0.16976155396E+02  0.51100000000E-03 0. -1.
        -11    1    3    3    0    0  0.10321082476E+02  0.15580093984E+02  0.12293459376E+01  0.18728997937E+02  0.51100000000E-03 0.  1.
         12    1    3    3    0    0 -0.43200698201E+01 -0.16469317420E+02 -0.32575049993E+02  0.36756432112E+02  0.00000000000E+00 0. -1.
</event>
<event>
 7    1  0.2577508E-013  0.7246156E+02  0.7816164E-02  0.1226708E+00
        -11   -1    0    0    0    0  0.00000000000E+00  0.00000000000E+00  0.45593999997E+02  0.45594000000E+02  0.51100000000E-03 0.  1.
         11   -1    0    0    0    0 -0.00000000000E+00 -0.00000000000E+00 -0.45593999997E+02  0.45594000000E+02  0.51100000000E-03 0. -1.
    9900012    2    1    2    0    0 -0.12296854833E+02 -0.26687025145E+01 -0.13868843574E+02  0.72461563234E+02  0.69999990802E+02 0.  0.
        -12    1    1    2    0    0  0.12296854833E+02  0.26687025145E+01  0.13868843574E+02  0.18726436766E+02  0.00000000000E+00 0.  1.
         11    1    3    3    0    0 -0.52292747585E+01  0.23566373073E+01 -0.69989458482E+01  0.90489942616E+01  0.51100000000E-03 0. -1.
        -11    1    3    3    0    0 -0.28932293190E+02 -0.19142364421E+02  0.45548055670E+01  0.34989340646E+02  0.51100000000E-03 0.  1.
        -12    1    3    3    0    0  0.21864713116E+02  0.14117024599E+02 -0.11424703292E+02  0.28423228326E+02  0.00000000000E+00 0.  1.
</event>
<event>
 7    1  0.2577508E-013  0.7246162E+02  0.7816164E-02  0.1226708E+00
        -11   -1    0    0    0    0  0.00000000000E+00  0.00000000000E+00  0.45593999997E+02  0.45594000000E+02  0.51100000000E-03 0.  1.
         11   -1    0    0    0    0 -0.00000000000E+00 -0.00000000000E+00 -0.45593999997E+02  0.45594000000E+02  0.51100000000E-03 0. -1.
    9900012    2    1    2    0    0 -0.31013770702E+01 -0.12245373846E+02 -0.13824242562E+02  0.72461617467E+02  0.70000061451E+02 0.  0.
        -12    1    1    2    0    0  0.31013770702E+01  0.12245373846E+02  0.13824242562E+02  0.18726382533E+02  0.00000000000E+00 0.  1.
         11    1    3    3    0    0  0.26809359063E+01 -0.19742989737E+01  0.48606943779E+01  0.58916571410E+01  0.51100000000E-03 0. -1.
        -11    1    3    3    0    0  0.20837143891E+02 -0.45077305764E+01  0.12857161957E+02  0.24896040134E+02  0.51100000000E-03 0.  1.
         12    1    3    3    0    0 -0.26619456868E+02 -0.57633442960E+01 -0.31542098897E+02  0.41673920192E+02  0.00000000000E+00 0. -1.
</event>
<event>
 7    1  0.2577508E-013  0.7246158E+02  0.7816164E-02  0.1226708E+00
        -11   -1    0    0    0    0  0.00000000000E+00  0.00000000000E+00  0.45593999997E+02  0.45594000000E+02  0.51100000000E-03 0. -1.
         11   -1    0    0    0    0 -0.00000000000E+00 -0.00000000000E+00 -0.45593999997E+02  0.45594000000E+02  0.51100000000E-03 0.  1.
    9900012    2    1    2    0    0  0.18104775446E+02 -0.53722261107E+00 -0.47547308951E+01  0.72461575676E+02  0.70000007011E+02 0.  0.
        -12    1    1    2    0    0 -0.18104775446E+02  0.53722261107E+00  0.47547308951E+01  0.18726424324E+02  0.00000000000E+00 0.  1.
         11    1    3    3    0    0  0.67311453028E+01  0.11924660828E+02  0.13110735518E+01  0.13755899355E+02  0.51100000000E-03 0. -1.
        -11    1    3    3    0    0 -0.89447878015E+01  0.38157461915E+01 -0.24795215058E+02  0.26634035328E+02  0.51100000000E-03 0.  1.
        -12    1    3    3    0    0  0.20318417945E+02 -0.16277629630E+02  0.18729410611E+02  0.32071640993E+02  0.00000000000E+00 0.  1.
</event>
<event>
 7    1  0.2577508E-013  0.7246155E+02  0.7816164E-02  0.1226708E+00
        -11   -1    0    0    0    0  0.00000000000E+00  0.00000000000E+00  0.45593999997E+02  0.45594000000E+02  0.51100000000E-03 0. -1.
         11   -1    0    0    0    0 -0.00000000000E+00 -0.00000000000E+00 -0.45593999997E+02  0.45594000000E+02  0.51100000000E-03 0.  1.
    9900012    2    1    2    0    0  0.18229475456E+02  0.37344337051E+01  0.21023905928E+01  0.72461553015E+02  0.69999977490E+02 0.  0.
        -12    1    1    2    0    0 -0.18229475456E+02 -0.37344337051E+01 -0.21023905928E+01  0.18726446985E+02  0.00000000000E+00 0.  1.
         11    1    3    3    0    0  0.74524416898E+01  0.11502324555E+02  0.27902274066E+02  0.31086641112E+02  0.51100000000E-03 0. -1.
        -11    1    3    3    0    0  0.14998178105E+02 -0.70438266550E+01 -0.14299000100E+01  0.16631459789E+02  0.51100000000E-03 0.  1.
        -12    1    3    3    0    0 -0.42211443388E+01 -0.72406419533E+00 -0.24369983463E+02  0.24743452113E+02  0.00000000000E+00 0.  1.
</event>
<event>
 7    1  0.2577508E-013  0.7246176E+02  0.7816164E-02  0.1226708E+00
        -11   -1    0    0    0    0  0.00000000000E+00  0.00000000000E+00  0.45593999997E+02  0.45594000000E+02  0.51100000000E-03 0. -1.
         11   -1    0    0    0    0 -0.00000000000E+00 -0.00000000000E+00 -0.45593999997E+02  0.45594000000E+02  0.51100000000E-03 0.  1.
    9900012    2    1    2    0    0  0.96733740969E+01  0.76267476709E+01  0.14104276779E+02  0.72461759856E+02  0.70000246939E+02 0.  0.
        -12    1    1    2    0    0 -0.96733740969E+01 -0.76267476709E+01 -0.14104276779E+02  0.18726240144E+02  0.00000000000E+00 0.  1.
         11    1    3    3    0    0 -0.18922452824E+01  0.92910170078E+01 -0.11223124342E+02  0.14692246578E+02  0.51100000000E-03 0. -1.
        -11    1    3    3    0    0  0.18444030028E+02 -0.12960654666E+02 -0.63686488102E+01  0.23424783904E+02  0.51100000000E-03 0.  1.
         12    1    3    3    0    0 -0.68784106482E+01  0.11296385329E+02  0.31696049931E+02  0.34344729374E+02  0.00000000000E+00 0. -1.
</event>
<event>
 7    1  0.2577508E-013  0.7246157E+02  0.7816164E-02  0.1226708E+00
        -11   -1    0    0    0    0  0.00000000000E+00  0.00000000000E+00  0.45593999997E+02  0.45594000000E+02  0.51100000000E-03 0.  1.
         11   -1    0    0    0    0 -0.00000000000E+00 -0.00000000000E+00 -0.45593999997E+02  0.45594000000E+02  0.51100000000E-03 0. -1.
    9900012    2    1    2    0    0 -0.15466756732E+02  0.20337524595E+01 -0.10359659084E+02  0.72461568167E+02  0.69999997229E+02 0.  0.
        -12    1    1    2    0    0  0.15466756732E+02 -0.20337524595E+01  0.10359659084E+02  0.18726431833E+02  0.00000000000E+00 0.  1.
         11    1    3    3    0    0  0.63093044219E+00 -0.61472929415E+01  0.70803803723E+01  0.93978226313E+01  0.51100000000E-03 0. -1.
        -11    1    3    3    0    0 -0.10705707359E+01 -0.17751188385E+01  0.20739425774E+02  0.20842767337E+02  0.51100000000E-03 0.  1.
         12    1    3    3    0    0 -0.15027116438E+02  0.99561642395E+01 -0.38179465230E+02  0.42220978199E+02  0.00000000000E+00 0. -1.
</event>
<event>
 7    1  0.2577508E-013  0.7246158E+02  0.7816164E-02  0.1226708E+00
        -11   -1    0    0    0    0  0.00000000000E+00  0.00000000000E+00  0.45593999997E+02  0.45594000000E+02  0.51100000000E-03 0.  1.
         11   -1    0    0    0    0 -0.00000000000E+00 -0.00000000000E+00 -0.45593999997E+02  0.45594000000E+02  0.51100000000E-03 0. -1.
    9900012    2    1    2    0    0  0.14663061254E+02  0.44282948092E+01 -0.10773282097E+02  0.72461581031E+02  0.70000013987E+02 0.  0.
        -12    1    1    2    0    0 -0.14663061254E+02 -0.44282948092E+01  0.10773282097E+02  0.18726418969E+02  0.00000000000E+00 0.  1.
         11    1    3    3    0    0 -0.23806181383E+02 -0.66753260278E+01 -0.12910284083E+02  0.27892107934E+02  0.51100000000E-03 0.  1.
        -11    1    3    3    0    0  0.17687437568E+02  0.44499877319E+01 -0.86980574919E+01  0.20206534659E+02  0.51100000000E-03 0. -1.
        -12    1    3    3    0    0  0.20781805070E+02  0.66536331051E+01  0.10835059478E+02  0.24362938438E+02  0.00000000000E+00 0.  1.
</event>
<event>
 7    1  0.2577508E-013  0.7246158E+02  0.7816164E-02  0.1226708E+00
        -11   -1    0    0    0    0  0.00000000000E+00  0.00000000000E+00  0.45593999997E+02  0.45594000000E+02  0.51100000000E-03 0.  1.
         11   -1    0    0    0    0 -0.00000000000E+00 -0.00000000000E+00 -0.45593999997E+02  0.45594000000E+02  0.51100000000E-03 0. -1.
    9900012    2    1    2    0    0  0.10425229395E+02 -0.11429273866E+02 -0.10552966966E+02  0.72461579604E+02  0.70000012128E+02 0.  0.
        -12    1    1    2    0    0 -0.10425229395E+02  0.11429273866E+02  0.10552966966E+02  0.18726420396E+02  0.00000000000E+00 0.  1.
         11    1    3    3    0    0  0.27653841093E+01 -0.17746695410E+02 -0.11160638940E+02  0.21145978556E+02  0.51100000000E-03 0. -1.
        -11    1    3    3    0    0 -0.63298496384E+01  0.19176507277E+02 -0.16244915478E+02  0.25917227995E+02  0.51100000000E-03 0.  1.
        -12    1    3    3    0    0  0.13989694924E+02 -0.12859085733E+02  0.16852587451E+02  0.25398373054E+02  0.00000000000E+00 0.  1.
</event>
<event>
 7    1  0.2577508E-013  0.7246160E+02  0.7816164E-02  0.1226708E+00
        -11   -1    0    0    0    0  0.00000000000E+00  0.00000000000E+00  0.45593999997E+02  0.45594000000E+02  0.51100000000E-03 0.  1.
         11   -1    0    0    0    0 -0.00000000000E+00 -0.00000000000E+00 -0.45593999997E+02  0.45594000000E+02  0.51100000000E-03 0. -1.
    9900012    2    1    2    0    0 -0.58424180156E+01 -0.13021759792E+02 -0.12123443929E+02  0.72461602347E+02  0.70000041755E+02 0.  0.
        -12    1    1    2    0    0  0.58424180156E+01  0.13021759792E+02  0.12123443929E+02  0.18726397653E+02  0.00000000000E+00 0.  1.
         11    1    3    3    0    0 -0.70561366534E+01  0.14075196878E+02 -0.26615228861E+02  0.30923625907E+02  0.51100000000E-03 0. -1.
        -11    1    3    3    0    0 -0.11755186418E+02 -0.61450956090E+01  0.66115404656E+00  0.13280953757E+02  0.51100000000E-03 0.  1.
        -12    1    3    3    0    0  0.12968905056E+02 -0.20951861060E+02  0.13830630885E+02  0.28257022683E+02  0.00000000000E+00 0.  1.
</event>
<event>
 7    1  0.2577508E-013  0.7246156E+02  0.7816164E-02  0.1226708E+00
        -11   -1    0    0    0    0  0.00000000000E+00  0.00000000000E+00  0.45593999997E+02  0.45594000000E+02  0.51100000000E-03 0. -1.
         11   -1    0    0    0    0 -0.00000000000E+00 -0.00000000000E+00 -0.45593999997E+02  0.45594000000E+02  0.51100000000E-03 0.  1.
    9900012    2    1    2    0    0 -0.76708329779E+01 -0.68751909105E+01  0.15638722309E+02  0.72461559759E+02  0.69999986276E+02 0.  0.
        -12    1    1    2    0    0  0.76708329779E+01  0.68751909105E+01 -0.15638722309E+02  0.18726440241E+02  0.00000000000E+00 0.  1.
         11    1    3    3    0    0 -0.65822392089E+00 -0.43192018716E+01  0.10936483704E+01  0.45038683991E+01  0.51100000000E-03 0. -1.
        -11    1    3    3    0    0  0.13246847872E+02 -0.56314049829E+01 -0.21864815513E+02  0.26177506724E+02  0.51100000000E-03 0.  1.
         12    1    3    3    0    0 -0.20259456929E+02  0.30754159440E+01  0.36409889452E+02  0.41780184636E+02  0.00000000000E+00 0. -1.
</event>
<event>
 7    1  0.2577508E-013  0.7246160E+02  0.7816164E-02  0.1226708E+00
        -11   -1    0    0    0    0  0.00000000000E+00  0.00000000000E+00  0.45593999997E+02  0.45594000000E+02  0.51100000000E-03 0. -1.
         11   -1    0    0    0    0 -0.00000000000E+00 -0.00000000000E+00 -0.45593999997E+02  0.45594000000E+02  0.51100000000E-03 0.  1.
    9900012    2    1    2    0    0  0.38664142384E+01 -0.17986996650E+02  0.34923830516E+01  0.72461602938E+02  0.70000042524E+02 0.  0.
        -12    1    1    2    0    0 -0.38664142384E+01  0.17986996650E+02 -0.34923830516E+01  0.18726397062E+02  0.00000000000E+00 0.  1.
         11    1    3    3    0    0 -0.24588897894E+01 -0.15240544831E+02  0.31079915047E+02  0.34702758757E+02  0.51100000000E-03 0. -1.
        -11    1    3    3    0    0  0.10776310363E+02 -0.76007964889E+01 -0.47917896628E+01  0.14030759806E+02  0.51100000000E-03 0.  1.
        -12    1    3    3    0    0 -0.44510063354E+01  0.48543446695E+01 -0.22795742333E+02  0.23728084374E+02  0.00000000000E+00 0.  1.
</event>
<event>
 7    1  0.2577508E-013  0.7246158E+02  0.7816164E-02  0.1226708E+00
        -11   -1    0    0    0    0  0.00000000000E+00  0.00000000000E+00  0.45593999997E+02  0.45594000000E+02  0.51100000000E-03 0.  1.
         11   -1    0    0    0    0 -0.00000000000E+00 -0.00000000000E+00 -0.45593999997E+02  0.45594000000E+02  0.51100000000E-03 0. -1.
    9900012    2    1    2    0    0  0.18099851081E+02 -0.37337135915E+00 -0.47890188899E+01  0.72461582370E+02  0.70000015730E+02 0.  0.
        -12    1    1    2    0    0 -0.18099851081E+02  0.37337135915E+00  0.47890188899E+01  0.18726417630E+02  0.00000000000E+00 0.  1.
         11    1    3    3    0    0 -0.12330175591E+02 -0.14460468413E+02 -0.16342186896E+02  0.25064027004E+02  0.51100000000E-03 0. -1.
        -11    1    3    3    0    0  0.15259199132E+01 -0.86971287983E+01  0.45478196952E+01  0.99323282848E+01  0.51100000000E-03 0.  1.
        -12    1    3    3    0    0  0.28904106760E+02  0.22784225852E+02  0.70053483112E+01  0.37465227081E+02  0.00000000000E+00 0.  1.
</event>
<event>
 7    1  0.2577508E-013  0.7246158E+02  0.7816164E-02  0.1226708E+00
        -11   -1    0    0    0    0  0.00000000000E+00  0.00000000000E+00  0.45593999997E+02  0.45594000000E+02  0.51100000000E-03 0.  1.
         11   -1    0    0    0    0 -0.00000000000E+00 -0.00000000000E+00 -0.45593999997E+02  0.45594000000E+02  0.51100000000E-03 0. -1.
    9900012    2    1    2    0    0  0.38455304798E+01 -0.15143696627E+02 -0.10322755805E+02  0.72461576433E+02  0.70000007997E+02 0.  0.
        -12    1    1    2    0    0 -0.38455304798E+01  0.15143696627E+02  0.10322755805E+02  0.18726423567E+02  0.00000000000E+00 0.  1.
         11    1    3    3    0    0  0.53935921453E+01 -0.16190711823E+02 -0.33906959193E+02  0.37959344930E+02  0.51100000000E-03 0. -1.
        -11    1    3    3    0    0  0.30961512716E+01  0.53717099737E+01 -0.31995141801E+01  0.69769844480E+01  0.51100000000E-03 0.  1.
        -12    1    3    3    0    0 -0.46442129372E+01 -0.43246947778E+01  0.26783717567E+02  0.27525247055E+02  0.00000000000E+00 0.  1.
</event>
<event>
 7    1  0.2577508E-013  0.7246146E+02  0.7816164E-02  0.1226708E+00
        -11   -1    0    0    0    0  0.00000000000E+00  0.00000000000E+00  0.45593999997E+02  0.45594000000E+02  0.51100000000E-03 0. -1.
         11   -1    0    0    0    0 -0.00000000000E+00 -0.00000000000E+00 -0.45593999997E+02  0.45594000000E+02  0.51100000000E-03 0.  1.
    9900012    2    1    2    0    0 -0.15412924409E+02  0.10063771798E+02  0.34417174877E+01  0.72461463724E+02  0.69999861172E+02 0.  0.
        -12    1    1    2    0    0  0.15412924409E+02 -0.10063771798E+02 -0.34417174877E+01  0.18726536276E+02  0.00000000000E+00 0.  1.
         11    1    3    3    0    0  0.77616600933E+01 -0.51409806950E+01  0.11910609658E+02  0.15117396357E+02  0.51100000000E-03 0. -1.
        -11    1    3    3    0    0  0.11373779710E+02  0.17991873209E+02 -0.78227856716E+01  0.22677441266E+02  0.51100000000E-03 0.  1.
         12    1    3    3    0    0 -0.34548364212E+02 -0.27871207160E+01 -0.64610649923E+00  0.34666626101E+02  0.00000000000E+00 0. -1.
</event>
<event>
 7    1  0.2577508E-013  0.7246150E+02  0.7816164E-02  0.1226708E+00
        -11   -1    0    0    0    0  0.00000000000E+00  0.00000000000E+00  0.45593999997E+02  0.45594000000E+02  0.51100000000E-03 0.  1.
         11   -1    0    0    0    0 -0.00000000000E+00 -0.00000000000E+00 -0.45593999997E+02  0.45594000000E+02  0.51100000000E-03 0. -1.
    9900012    2    1    2    0    0  0.10031720235E+02  0.12073037581E+02  0.10212165780E+02  0.72461495328E+02  0.69999902342E+02 0.  0.
        -12    1    1    2    0    0 -0.10031720235E+02 -0.12073037581E+02 -0.10212165780E+02  0.18726504672E+02  0.00000000000E+00 0.  1.
         11    1    3    3    0    0  0.63036501851E+01  0.47513139101E+01  0.14440479803E+02  0.16457170070E+02  0.51100000000E-03 0. -1.
        -11    1    3    3    0    0  0.22407133535E+02 -0.14098635742E+02  0.30986115530E+01  0.26654315914E+02  0.51100000000E-03 0.  1.
         12    1    3    3    0    0 -0.18679063485E+02  0.21420359413E+02 -0.73269255760E+01  0.29350009343E+02  0.00000000000E+00 0. -1.
</event>
<event>
 7    1  0.2577508E-013  0.7246155E+02  0.7816164E-02  0.1226708E+00
        -11   -1    0    0    0    0  0.00000000000E+00  0.00000000000E+00  0.45593999997E+02  0.45594000000E+02  0.51100000000E-03 0.  1.
         11   -1    0    0    0    0 -0.00000000000E+00 -0.00000000000E+00 -0.45593999997E+02  0.45594000000E+02  0.51100000000E-03 0. -1.
    9900012    2    1    2    0    0 -0.82652092875E+01  0.57283497265E+01 -0.15797217191E+02  0.72461554899E+02  0.69999979944E+02 0.  0.
        -12    1    1    2    0    0  0.82652092875E+01 -0.57283497265E+01  0.15797217191E+02  0.18726445101E+02  0.00000000000E+00 0.  1.
         11    1    3    3    0    0 -0.12618542443E+02 -0.79704854964E+01 -0.15408521194E+02  0.21451777970E+02  0.51100000000E-03 0. -1.
        -11    1    3    3    0    0 -0.19375007606E+01 -0.15185816000E+02  0.11499822088E+02  0.19147031757E+02  0.51100000000E-03 0.  1.
        -12    1    3    3    0    0  0.62908339160E+01  0.28884651223E+02 -0.11888518085E+02  0.31862745172E+02  0.00000000000E+00 0.  1.
</event>
<event>
 7    1  0.2577508E-013  0.7246167E+02  0.7816164E-02  0.1226708E+00
        -11   -1    0    0    0    0  0.00000000000E+00  0.00000000000E+00  0.45593999997E+02  0.45594000000E+02  0.51100000000E-03 0.  1.
         11   -1    0    0    0    0 -0.00000000000E+00 -0.00000000000E+00 -0.45593999997E+02  0.45594000000E+02  0.51100000000E-03 0. -1.
    9900012    2    1    2    0    0 -0.12106952407E+02 -0.35986552739E+01 -0.13825588398E+02  0.72461667980E+02  0.70000127254E+02 0.  0.
        -12    1    1    2    0    0  0.12106952407E+02  0.35986552739E+01  0.13825588398E+02  0.18726332020E+02  0.00000000000E+00 0.  1.
         11    1    3    3    0    0  0.45107651016E+01  0.80516501449E+01 -0.42601135565E+01  0.10164872829E+02  0.51100000000E-03 0. -1.
        -11    1    3    3    0    0 -0.32702463901E+02  0.89196264612E+01 -0.12259975774E+02  0.36046052317E+02  0.51100000000E-03 0.  1.
         12    1    3    3    0    0  0.16084746392E+02 -0.20569931880E+02  0.26945009325E+01  0.26250742834E+02  0.00000000000E+00 0. -1.
</event>
<event>
 7    1  0.2577508E-013  0.7246160E+02  0.7816164E-02  0.1226708E+00
        -11   -1    0    0    0    0  0.00000000000E+00  0.00000000000E+00  0.45593999997E+02  0.45594000000E+02  0.51100000000E-03 0.  1.
         11   -1    0    0    0    0 -0.00000000000E+00 -0.00000000000E+00 -0.45593999997E+02  0.45594000000E+02  0.51100000000E-03 0. -1.
    9900012    2    1    2    0    0 -0.17028264073E+01 -0.14653281181E+01 -0.18591159655E+02  0.72461600944E+02  0.70000039928E+02 0.  0.
        -12    1    1    2    0    0  0.17028264073E+01  0.14653281181E+01  0.18591159655E+02  0.18726399056E+02  0.00000000000E+00 0.  1.
         11    1    3    3    0    0 -0.13049637559E+02  0.51196051886E+01 -0.14355061140E+02  0.20064176492E+02  0.51100000000E-03 0. -1.
        -11    1    3    3    0    0  0.49680434694E+00  0.11744666978E+02 -0.21814692093E+02  0.24780331078E+02  0.51100000000E-03 0.  1.
         12    1    3    3    0    0  0.10850006805E+02 -0.18329600285E+02  0.17578593578E+02  0.27617093374E+02  0.00000000000E+00 0. -1.
</event>
<event>
 7    1  0.2577508E-013  0.7246124E+02  0.7816164E-02  0.1226709E+00
        -11   -1    0    0    0    0  0.00000000000E+00  0.00000000000E+00  0.45593999997E+02  0.45594000000E+02  0.51100000000E-03 0. -1.
         11   -1    0    0    0    0 -0.00000000000E+00 -0.00000000000E+00 -0.45593999997E+02  0.45594000000E+02  0.51100000000E-03 0.  1.
    9900012    2    1    2    0    0 -0.29229335261E+01 -0.17369457066E+02  0.63600309661E+01  0.72461239120E+02  0.69999568582E+02 0.  0.
        -12    1    1    2    0    0  0.29229335261E+01  0.17369457066E+02 -0.63600309661E+01  0.18726760880E+02  0.00000000000E+00 0.  1.
         11    1    3    3    0    0 -0.10410121126E+02 -0.31519598848E+01  0.26075142945E+02  0.28252761862E+02  0.51100000000E-03 0. -1.
        -11    1    3    3    0    0 -0.29550329083E+00  0.11533138047E+02 -0.13039606249E+01  0.11610379364E+02  0.51100000000E-03 0.  1.
        -12    1    3    3    0    0  0.77826908904E+01 -0.25750635228E+02 -0.18411151354E+02  0.32598097894E+02  0.00000000000E+00 0.  1.
</event>
<event>
 7    1  0.2577508E-013  0.7246162E+02  0.7816164E-02  0.1226708E+00
        -11   -1    0    0    0    0  0.00000000000E+00  0.00000000000E+00  0.45593999997E+02  0.45594000000E+02  0.51100000000E-03 0. -1.
         11   -1    0    0    0    0 -0.00000000000E+00 -0.00000000000E+00 -0.45593999997E+02  0.45594000000E+02  0.51100000000E-03 0.  1.
    9900012    2    1    2    0    0  0.12613872018E+01 -0.83753701556E+01  0.16701483716E+02  0.72461615373E+02  0.70000058723E+02 0.  0.
        -12    1    1    2    0    0 -0.12613872018E+01  0.83753701556E+01 -0.16701483716E+02  0.18726384627E+02  0.00000000000E+00 0.  1.
         11    1    3    3    0    0  0.16223315591E+01 -0.14676675024E+02  0.20330703894E+02  0.25127162007E+02  0.51100000000E-03 0. -1.
        -11    1    3    3    0    0 -0.18332789444E+02 -0.42858894694E+01  0.11048293194E+02  0.21829448002E+02  0.51100000000E-03 0.  1.
         12    1    3    3    0    0  0.17971845087E+02  0.10587194338E+02 -0.14677513372E+02  0.25505005363E+02  0.00000000000E+00 0. -1.
</event>
<event>
 7    1  0.2577508E-013  0.7246157E+02  0.7816164E-02  0.1226708E+00
        -11   -1    0    0    0    0  0.00000000000E+00  0.00000000000E+00  0.45593999997E+02  0.45594000000E+02  0.51100000000E-03 0. -1.
         11   -1    0    0    0    0 -0.00000000000E+00 -0.00000000000E+00 -0.45593999997E+02  0.45594000000E+02  0.51100000000E-03 0.  1.
    9900012    2    1    2    0    0 -0.95242534863E+01  0.16123418823E+02  0.57242570227E-01  0.72461566391E+02  0.69999994915E+02 0.  0.
        -12    1    1    2    0    0  0.95242534863E+01 -0.16123418823E+02 -0.57242570227E-01  0.18726433609E+02  0.00000000000E+00 0.  1.
         11    1    3    3    0    0  0.43640290405E+01 -0.11800114891E+02 -0.36545255082E+01  0.13101260163E+02  0.51100000000E-03 0. -1.
        -11    1    3    3    0    0 -0.37510815164E+01 -0.95781763345E+01 -0.13414976468E+02  0.16904841565E+02  0.51100000000E-03 0.  1.
         12    1    3    3    0    0 -0.10137201010E+02  0.37501710049E+02  0.17126744547E+02  0.42455464662E+02  0.00000000000E+00 0. -1.
</event>
<event>
 7    1  0.2705770E-013  0.7246151E+02  0.7816164E-02  0.1226708E+00
        -11   -1    0    0    0    0  0.00000000000E+00  0.00000000000E+00  0.45593999997E+02  0.45594000000E+02  0.51100000000E-03 0. -1.
         11   -1    0    0    0    0 -0.00000000000E+00 -0.00000000000E+00 -0.45593999997E+02  0.45594000000E+02  0.51100000000E-03 0.  1.
    9900012    2    1    2    0    0  0.11233576863E+02 -0.14022902429E+02  0.52769752811E+01  0.72461507809E+02  0.69999918601E+02 0.  0.
        -12    1    1    2    0    0 -0.11233576863E+02  0.14022902429E+02 -0.52769752811E+01  0.18726492191E+02  0.00000000000E+00 0.  1.
         11    1    3    3    0    0 -0.10818589207E+02  0.84756640087E+01  0.21184406731E+01  0.13905629938E+02  0.51100000000E-03 0. -1.
        -11    1    3    3    0    0  0.17415891968E+02  0.13298632003E+02 -0.23632987426E+01  0.22039784196E+02  0.51100000000E-03 0.  1.
         12    1    3    3    0    0  0.46362741014E+01 -0.35797198441E+02  0.55218333506E+01  0.36516093675E+02  0.00000000000E+00 0. -1.
</event>
<event>
 7    1  0.2577508E-013  0.7246156E+02  0.7816164E-02  0.1226708E+00
        -11   -1    0    0    0    0  0.00000000000E+00  0.00000000000E+00  0.45593999997E+02  0.45594000000E+02  0.51100000000E-03 0. -1.
         11   -1    0    0    0    0 -0.00000000000E+00 -0.00000000000E+00 -0.45593999997E+02  0.45594000000E+02  0.51100000000E-03 0.  1.
    9900012    2    1    2    0    0  0.73882035070E+01  0.74297373457E+01  0.15520730551E+02  0.72461558135E+02  0.69999984160E+02 0.  0.
        -12    1    1    2    0    0 -0.73882035070E+01 -0.74297373457E+01 -0.15520730551E+02  0.18726441865E+02  0.00000000000E+00 0.  1.
         11    1    3    3    0    0  0.80230566054E+01  0.37276509861E+00  0.32217477861E+02  0.33203527992E+02  0.51100000000E-03 0. -1.
        -11    1    3    3    0    0  0.77652393613E+01  0.13673276813E+02  0.37667169409E+01  0.16169279449E+02  0.51100000000E-03 0.  1.
         12    1    3    3    0    0 -0.84000924597E+01 -0.66163045658E+01 -0.20463464251E+02  0.23088750694E+02  0.00000000000E+00 0. -1.
</event>
<event>
 7    1  0.2577508E-013  0.7246156E+02  0.7816164E-02  0.1226708E+00
        -11   -1    0    0    0    0  0.00000000000E+00  0.00000000000E+00  0.45593999997E+02  0.45594000000E+02  0.51100000000E-03 0.  1.
         11   -1    0    0    0    0 -0.00000000000E+00 -0.00000000000E+00 -0.45593999997E+02  0.45594000000E+02  0.51100000000E-03 0. -1.
    9900012    2    1    2    0    0 -0.95646104401E+01 -0.60514083602E+01 -0.14919056890E+02  0.72461559481E+02  0.69999985914E+02 0.  0.
        -12    1    1    2    0    0  0.95646104401E+01  0.60514083602E+01  0.14919056890E+02  0.18726440519E+02  0.00000000000E+00 0.  1.
         11    1    3    3    0    0 -0.52681382395E+01  0.11164274468E+02  0.72909006189E+01  0.14337068634E+02  0.51100000000E-03 0. -1.
        -11    1    3    3    0    0  0.12954618567E+02 -0.17020643001E+02  0.84059982147E+01  0.22982280928E+02  0.51100000000E-03 0.  1.
         12    1    3    3    0    0 -0.17251090768E+02 -0.19503982749E+00 -0.30615955723E+02  0.35142209920E+02  0.00000000000E+00 0. -1.
</event>
<event>
 7    1  0.2577508E-013  0.7246147E+02  0.7816164E-02  0.1226708E+00
        -11   -1    0    0    0    0  0.00000000000E+00  0.00000000000E+00  0.45593999997E+02  0.45594000000E+02  0.51100000000E-03 0. -1.
         11   -1    0    0    0    0 -0.00000000000E+00 -0.00000000000E+00 -0.45593999997E+02  0.45594000000E+02  0.51100000000E-03 0.  1.
    9900012    2    1    2    0    0  0.14121470841E+02  0.21448102700E+01  0.12110598703E+02  0.72461474675E+02  0.69999875438E+02 0.  0.
        -12    1    1    2    0    0 -0.14121470841E+02 -0.21448102700E+01 -0.12110598703E+02  0.18726525325E+02  0.00000000000E+00 0.  1.
         11    1    3    3    0    0 -0.88443145667E+01  0.15122090552E+02  0.49028423018E+01  0.18191684521E+02  0.51100000000E-03 0. -1.
        -11    1    3    3    0    0  0.86797610094E+01 -0.91934325611E+01 -0.19794473781E+02  0.23487840385E+02  0.51100000000E-03 0.  1.
         12    1    3    3    0    0  0.14286024398E+02 -0.37838477211E+01  0.27002230183E+02  0.30781949768E+02  0.00000000000E+00 0. -1.
</event>
<event>
 7    1  0.2577508E-013  0.7246158E+02  0.7816164E-02  0.1226708E+00
        -11   -1    0    0    0    0  0.00000000000E+00  0.00000000000E+00  0.45593999997E+02  0.45594000000E+02  0.51100000000E-03 0.  1.
         11   -1    0    0    0    0 -0.00000000000E+00 -0.00000000000E+00 -0.45593999997E+02  0.45594000000E+02  0.51100000000E-03 0. -1.
    9900012    2    1    2    0    0  0.52255764289E+01 -0.17935933913E+02  0.12940519923E+01  0.72461576292E+02  0.70000007813E+02 0.  0.
        -12    1    1    2    0    0 -0.52255764289E+01  0.17935933913E+02 -0.12940519923E+01  0.18726423708E+02  0.00000000000E+00 0.  1.
         11    1    3    3    0    0  0.12957854069E+02 -0.94538730208E+01  0.11660911196E+02  0.19830747524E+02  0.51100000000E-03 0. -1.
        -11    1    3    3    0    0 -0.89497749904E+01  0.70910422224E+00  0.19441260499E+02  0.21414105427E+02  0.51100000000E-03 0.  1.
        -12    1    3    3    0    0  0.12174973500E+01 -0.91911651143E+01 -0.29808119703E+02  0.31216723341E+02  0.00000000000E+00 0.  1.
</event>
<event>
 7    1  0.2577508E-013  0.7246156E+02  0.7816164E-02  0.1226708E+00
        -11   -1    0    0    0    0  0.00000000000E+00  0.00000000000E+00  0.45593999997E+02  0.45594000000E+02  0.51100000000E-03 0. -1.
         11   -1    0    0    0    0 -0.00000000000E+00 -0.00000000000E+00 -0.45593999997E+02  0.45594000000E+02  0.51100000000E-03 0.  1.
    9900012    2    1    2    0    0  0.26163572956E+01 -0.62395366277E+01  0.17461459269E+02  0.72461556060E+02  0.69999981457E+02 0.  0.
        -12    1    1    2    0    0 -0.26163572956E+01  0.62395366277E+01 -0.17461459269E+02  0.18726443940E+02  0.00000000000E+00 0.  1.
         11    1    3    3    0    0 -0.24342907715E+02 -0.11175295291E+02  0.15278844671E+02  0.30836787699E+02  0.51100000000E-03 0. -1.
        -11    1    3    3    0    0 -0.19957092722E+01  0.10119697098E+02 -0.48232597480E+01  0.11386613180E+02  0.51100000000E-03 0.  1.
         12    1    3    3    0    0  0.28954974283E+02 -0.51839384342E+01  0.70058743462E+01  0.30238155181E+02  0.00000000000E+00 0. -1.
</event>
<event>
 7    1  0.2577508E-013  0.7246146E+02  0.7816164E-02  0.1226708E+00
        -11   -1    0    0    0    0  0.00000000000E+00  0.00000000000E+00  0.45593999997E+02  0.45594000000E+02  0.51100000000E-03 0.  1.
         11   -1    0    0    0    0 -0.00000000000E+00 -0.00000000000E+00 -0.45593999997E+02  0.45594000000E+02  0.51100000000E-03 0. -1.
    9900012    2    1    2    0    0  0.73105018425E+01  0.16377629274E+02  0.53863749978E+01  0.72461462321E+02  0.69999859344E+02 0.  0.
        -12    1    1    2    0    0 -0.73105018425E+01 -0.16377629274E+02 -0.53863749978E+01  0.18726537679E+02  0.00000000000E+00 0.  1.
         11    1    3    3    0    0 -0.29390019833E+02  0.11424529781E+02  0.70894184779E+01  0.32319545188E+02  0.51100000000E-03 0. -1.
        -11    1    3    3    0    0  0.35621232460E+01  0.59607784869E+01 -0.59905401048E+00  0.69698255472E+01  0.51100000000E-03 0.  1.
        -12    1    3    3    0    0  0.33138398430E+02 -0.10076789938E+01 -0.11039894697E+01  0.33172091586E+02  0.00000000000E+00 0.  1.
</event>
<event>
 7    1  0.2577508E-013  0.7246088E+02  0.7816164E-02  0.1226710E+00
        -11   -1    0    0    0    0  0.00000000000E+00  0.00000000000E+00  0.45593999997E+02  0.45594000000E+02  0.51100000000E-03 0.  1.
         11   -1    0    0    0    0 -0.00000000000E+00 -0.00000000000E+00 -0.45593999997E+02  0.45594000000E+02  0.51100000000E-03 0. -1.
    9900012    2    1    2    0    0 -0.18210282544E+01  0.11154114950E+02 -0.14932336753E+02  0.72460877821E+02  0.69999097919E+02 0.  0.
        -12    1    1    2    0    0  0.18210282544E+01 -0.11154114950E+02  0.14932336753E+02  0.18727122179E+02  0.00000000000E+00 0.  1.
         11    1    3    3    0    0 -0.70211528311E+01 -0.85740934455E+01 -0.28120194334E+01  0.11433246216E+02  0.51100000000E-03 0. -1.
        -11    1    3    3    0    0  0.24704674323E+02  0.25036230559E+02 -0.18616091472E+02  0.39795635891E+02  0.51100000000E-03 0.  1.
         12    1    3    3    0    0 -0.19504549747E+02 -0.53080221634E+01  0.64957741531E+01  0.21231995713E+02  0.00000000000E+00 0. -1.
</event>
<event>
 7    1  0.2577508E-013  0.7246157E+02  0.7816164E-02  0.1226708E+00
        -11   -1    0    0    0    0  0.00000000000E+00  0.00000000000E+00  0.45593999997E+02  0.45594000000E+02  0.51100000000E-03 0.  1.
         11   -1    0    0    0    0 -0.00000000000E+00 -0.00000000000E+00 -0.45593999997E+02  0.45594000000E+02  0.51100000000E-03 0. -1.
    9900012    2    1    2    0    0 -0.12564918629E+02 -0.66733979656E+01  0.12176530248E+02  0.72461566558E+02  0.69999995133E+02 0.  0.
        -12    1    1    2    0    0  0.12564918629E+02  0.66733979656E+01 -0.12176530248E+02  0.18726433442E+02  0.00000000000E+00 0.  1.
         11    1    3    3    0    0 -0.11290804528E+02  0.76987749817E+01 -0.88809754872E+01  0.16298009969E+02  0.51100000000E-03 0. -1.
        -11    1    3    3    0    0  0.23334858983E+02 -0.72824758000E+01  0.25734477650E+01  0.24579925370E+02  0.51100000000E-03 0.  1.
         12    1    3    3    0    0 -0.24608973085E+02 -0.70896971473E+01  0.18484057970E+02  0.31583631219E+02  0.00000000000E+00 0. -1.
</event>
<event>
 7    1  0.2577508E-013  0.7246155E+02  0.7816164E-02  0.1226708E+00
        -11   -1    0    0    0    0  0.00000000000E+00  0.00000000000E+00  0.45593999997E+02  0.45594000000E+02  0.51100000000E-03 0.  1.
         11   -1    0    0    0    0 -0.00000000000E+00 -0.00000000000E+00 -0.45593999997E+02  0.45594000000E+02  0.51100000000E-03 0. -1.
    9900012    2    1    2    0    0  0.17612966629E+02  0.44148595555E+01 -0.45795750685E+01  0.72461545820E+02  0.69999968117E+02 0.  0.
        -12    1    1    2    0    0 -0.17612966629E+02 -0.44148595555E+01  0.45795750685E+01  0.18726454180E+02  0.00000000000E+00 0.  1.
         11    1    3    3    0    0 -0.12209535313E+02  0.58026020446E+01 -0.28828347125E+02  0.31840485883E+02  0.51100000000E-03 0. -1.
        -11    1    3    3    0    0  0.30214262482E+01 -0.14311854922E+01  0.94100785599E+01  0.99863350260E+01  0.51100000000E-03 0.  1.
        -12    1    3    3    0    0  0.26801075694E+02  0.43443003035E-01  0.14838693497E+02  0.30634724910E+02  0.00000000000E+00 0.  1.
</event>
<event>
 7    1  0.2577508E-013  0.7246160E+02  0.7816164E-02  0.1226708E+00
        -11   -1    0    0    0    0  0.00000000000E+00  0.00000000000E+00  0.45593999997E+02  0.45594000000E+02  0.51100000000E-03 0. -1.
         11   -1    0    0    0    0 -0.00000000000E+00 -0.00000000000E+00 -0.45593999997E+02  0.45594000000E+02  0.51100000000E-03 0.  1.
    9900012    2    1    2    0    0  0.46036888280E+01 -0.25762456302E+01  0.17967946161E+02  0.72461599342E+02  0.70000037840E+02 0.  0.
        -12    1    1    2    0    0 -0.46036888280E+01  0.25762456302E+01 -0.17967946161E+02  0.18726400658E+02  0.00000000000E+00 0.  1.
         11    1    3    3    0    0 -0.48758638593E+01 -0.13283757609E+01 -0.97378645751E+00  0.51465416410E+01  0.51100000000E-03 0. -1.
        -11    1    3    3    0    0  0.14831231080E+02  0.25985220685E+02  0.24903631667E+02  0.38927984534E+02  0.51100000000E-03 0.  1.
         12    1    3    3    0    0 -0.53516783927E+01 -0.27233090554E+02 -0.59618990489E+01  0.28387073167E+02  0.00000000000E+00 0. -1.
</event>
<event>
 7    1  0.2577508E-013  0.7246157E+02  0.7816164E-02  0.1226708E+00
        -11   -1    0    0    0    0  0.00000000000E+00  0.00000000000E+00  0.45593999997E+02  0.45594000000E+02  0.51100000000E-03 0. -1.
         11   -1    0    0    0    0 -0.00000000000E+00 -0.00000000000E+00 -0.45593999997E+02  0.45594000000E+02  0.51100000000E-03 0.  1.
    9900012    2    1    2    0    0 -0.70041952621E+01  0.11467009822E+01  0.17329319943E+02  0.72461574711E+02  0.70000005753E+02 0.  0.
        -12    1    1    2    0    0  0.70041952621E+01 -0.11467009822E+01 -0.17329319943E+02  0.18726425289E+02  0.00000000000E+00 0.  1.
         11    1    3    3    0    0  0.53357333415E+01 -0.48176586412E+01 -0.15954163002E+01  0.73637788198E+01  0.51100000000E-03 0. -1.
        -11    1    3    3    0    0  0.21595035094E+02  0.10784226363E+02  0.19165439442E+02  0.30821407304E+02  0.51100000000E-03 0.  1.
         12    1    3    3    0    0 -0.33934963697E+02 -0.48198667395E+01 -0.24070319905E+00  0.34276388587E+02  0.00000000000E+00 0. -1.
</event>
<event>
 7    1  0.2577508E-013  0.7246157E+02  0.7816164E-02  0.1226708E+00
        -11   -1    0    0    0    0  0.00000000000E+00  0.00000000000E+00  0.45593999997E+02  0.45594000000E+02  0.51100000000E-03 0. -1.
         11   -1    0    0    0    0 -0.00000000000E+00 -0.00000000000E+00 -0.45593999997E+02  0.45594000000E+02  0.51100000000E-03 0.  1.
    9900012    2    1    2    0    0  0.14150453332E+02  0.71282861512E+01  0.99815593672E+01  0.72461566267E+02  0.69999994754E+02 0.  0.
        -12    1    1    2    0    0 -0.14150453332E+02 -0.71282861512E+01 -0.99815593672E+01  0.18726433733E+02  0.00000000000E+00 0.  1.
         11    1    3    3    0    0  0.88133152268E+01  0.61094909016E+01 -0.26434323554E+01  0.11044824093E+02  0.51100000000E-03 0. -1.
        -11    1    3    3    0    0 -0.23213904392E+02 -0.13792498901E+02  0.39272984483E+00  0.27005048047E+02  0.51100000000E-03 0.  1.
         12    1    3    3    0    0  0.28551042497E+02  0.14811294150E+02  0.12232261878E+02  0.34411694127E+02  0.00000000000E+00 0. -1.
</event>
<event>
 7    1  0.2577508E-013  0.7246163E+02  0.7816164E-02  0.1226708E+00
        -11   -1    0    0    0    0  0.00000000000E+00  0.00000000000E+00  0.45593999997E+02  0.45594000000E+02  0.51100000000E-03 0.  1.
         11   -1    0    0    0    0 -0.00000000000E+00 -0.00000000000E+00 -0.45593999997E+02  0.45594000000E+02  0.51100000000E-03 0. -1.
    9900012    2    1    2    0    0  0.17900209589E+02 -0.54542117813E+01  0.71479858201E+00  0.72461631785E+02  0.70000080104E+02 0.  0.
        -12    1    1    2    0    0 -0.17900209589E+02  0.54542117813E+01 -0.71479858201E+00  0.18726368215E+02  0.00000000000E+00 0.  1.
         11    1    3    3    0    0  0.14010307120E+02 -0.11768680219E+01 -0.10785596133E+02  0.17720124383E+02  0.51100000000E-03 0. -1.
        -11    1    3    3    0    0  0.16348492932E+01 -0.26651439091E+02  0.16918894270E+02  0.31610455888E+02  0.51100000000E-03 0.  1.
         12    1    3    3    0    0  0.22550531765E+01  0.22374095332E+02 -0.54184995552E+01  0.23131051515E+02  0.00000000000E+00 0. -1.
</event>
<event>
 7    1  0.2577508E-013  0.7246153E+02  0.7816164E-02  0.1226708E+00
        -11   -1    0    0    0    0  0.00000000000E+00  0.00000000000E+00  0.45593999997E+02  0.45594000000E+02  0.51100000000E-03 0. -1.
         11   -1    0    0    0    0 -0.00000000000E+00 -0.00000000000E+00 -0.45593999997E+02  0.45594000000E+02  0.51100000000E-03 0.  1.
    9900012    2    1    2    0    0  0.19416010278E+01  0.45450325979E+01  0.18062489035E+02  0.72461530872E+02  0.69999948645E+02 0.  0.
        -12    1    1    2    0    0 -0.19416010278E+01 -0.45450325979E+01 -0.18062489035E+02  0.18726469128E+02  0.00000000000E+00 0.  1.
         11    1    3    3    0    0 -0.28294201142E+02 -0.46925725522E+01 -0.25812772435E+01  0.28796615216E+02  0.51100000000E-03 0. -1.
        -11    1    3    3    0    0 -0.30080801686E+01 -0.16853291805E+01  0.24109359329E+01  0.42073142361E+01  0.51100000000E-03 0.  1.
        -12    1    3    3    0    0  0.33243882339E+02  0.10922934331E+02  0.18232830346E+02  0.39457601419E+02  0.00000000000E+00 0.  1.
</event>
<event>
 7    1  0.2577508E-013  0.7246156E+02  0.7816164E-02  0.1226708E+00
        -11   -1    0    0    0    0  0.00000000000E+00  0.00000000000E+00  0.45593999997E+02  0.45594000000E+02  0.51100000000E-03 0.  1.
         11   -1    0    0    0    0 -0.00000000000E+00 -0.00000000000E+00 -0.45593999997E+02  0.45594000000E+02  0.51100000000E-03 0. -1.
    9900012    2    1    2    0    0 -0.29861238338E+01  0.14469764818E+02 -0.11506021110E+02  0.72461560102E+02  0.69999986723E+02 0.  0.
        -12    1    1    2    0    0  0.29861238338E+01 -0.14469764818E+02  0.11506021110E+02  0.18726439898E+02  0.00000000000E+00 0.  1.
         11    1    3    3    0    0  0.55968695524E+01  0.26815064304E+02 -0.17257797257E+02  0.32375981666E+02  0.51100000000E-03 0.  1.
        -11    1    3    3    0    0 -0.73983257235E+01  0.11218129746E+02  0.91379132383E+01  0.16250634361E+02  0.51100000000E-03 0. -1.
         12    1    3    3    0    0 -0.11846676627E+01 -0.23563429233E+02 -0.33861370917E+01  0.23834944075E+02  0.00000000000E+00 0. -1.
</event>
<event>
 7    1  0.2577508E-013  0.7246155E+02  0.7816164E-02  0.1226708E+00
        -11   -1    0    0    0    0  0.00000000000E+00  0.00000000000E+00  0.45593999997E+02  0.45594000000E+02  0.51100000000E-03 0.  1.
         11   -1    0    0    0    0 -0.00000000000E+00 -0.00000000000E+00 -0.45593999997E+02  0.45594000000E+02  0.51100000000E-03 0. -1.
    9900012    2    1    2    0    0 -0.61722752146E+01  0.69941641743E+01 -0.16237750853E+02  0.72461551683E+02  0.69999975755E+02 0.  0.
        -12    1    1    2    0    0  0.61722752146E+01 -0.69941641743E+01  0.16237750853E+02  0.18726448317E+02  0.00000000000E+00 0.  1.
         11    1    3    3    0    0  0.28768872745E+01  0.32492674597E+01 -0.67152322954E+01  0.79955340321E+01  0.51100000000E-03 0. -1.
        -11    1    3    3    0    0  0.14110672385E+02  0.18398639905E+02  0.15061558332E+02  0.27649078921E+02  0.51100000000E-03 0.  1.
         12    1    3    3    0    0 -0.23159834874E+02 -0.14653743191E+02 -0.24584076890E+02  0.36816938730E+02  0.00000000000E+00 0. -1.
</event>
<event>
 7    1  0.2577508E-013  0.7246150E+02  0.7816164E-02  0.1226708E+00
        -11   -1    0    0    0    0  0.00000000000E+00  0.00000000000E+00  0.45593999997E+02  0.45594000000E+02  0.51100000000E-03 0.  1.
         11   -1    0    0    0    0 -0.00000000000E+00 -0.00000000000E+00 -0.45593999997E+02  0.45594000000E+02  0.51100000000E-03 0. -1.
    9900012    2    1    2    0    0  0.69538902955E+01 -0.10112952103E+02 -0.14144020358E+02  0.72461502667E+02  0.69999911902E+02 0.  0.
        -12    1    1    2    0    0 -0.69538902955E+01  0.10112952103E+02  0.14144020358E+02  0.18726497333E+02  0.00000000000E+00 0.  1.
         11    1    3    3    0    0  0.66078391598E+01 -0.38521882696E+01  0.61575168818E+01  0.98192620515E+01  0.51100000000E-03 0. -1.
        -11    1    3    3    0    0  0.65718112092E+01 -0.22070558854E+02  0.12131199120E+02  0.26028143673E+02  0.51100000000E-03 0.  1.
         12    1    3    3    0    0 -0.62257600735E+01  0.15809795021E+02 -0.32432736360E+02  0.36614096942E+02  0.00000000000E+00 0. -1.
</event>
<event>
 7    1  0.2577508E-013  0.7246154E+02  0.7816164E-02  0.1226708E+00
        -11   -1    0    0    0    0  0.00000000000E+00  0.00000000000E+00  0.45593999997E+02  0.45594000000E+02  0.51100000000E-03 0.  1.
         11   -1    0    0    0    0 -0.00000000000E+00 -0.00000000000E+00 -0.45593999997E+02  0.45594000000E+02  0.51100000000E-03 0. -1.
    9900012    2    1    2    0    0  0.17117121652E+02  0.75565380855E+01  0.76357702395E+00  0.72461543545E+02  0.69999965154E+02 0.  0.
        -12    1    1    2    0    0 -0.17117121652E+02 -0.75565380855E+01 -0.76357702395E+00  0.18726456455E+02  0.00000000000E+00 0.  1.
         11    1    3    3    0    0 -0.15942836362E+01  0.27422595425E+02 -0.20666461469E+02  0.34375036147E+02  0.51100000000E-03 0. -1.
        -11    1    3    3    0    0 -0.20457905427E+01 -0.43817204657E+01  0.64130436225E+00  0.48781148746E+01  0.51100000000E-03 0.  1.
        -12    1    3    3    0    0  0.20757195831E+02 -0.15484336874E+02  0.20788734131E+02  0.33208392523E+02  0.00000000000E+00 0.  1.
</event>
<event>
 7    1  0.2577508E-013  0.7246155E+02  0.7816164E-02  0.1226708E+00
        -11   -1    0    0    0    0  0.00000000000E+00  0.00000000000E+00  0.45593999997E+02  0.45594000000E+02  0.51100000000E-03 0.  1.
         11   -1    0    0    0    0 -0.00000000000E+00 -0.00000000000E+00 -0.45593999997E+02  0.45594000000E+02  0.51100000000E-03 0. -1.
    9900012    2    1    2    0    0 -0.10384124634E+01 -0.53174460771E+01 -0.17925575447E+02  0.72461553772E+02  0.69999978477E+02 0.  0.
        -12    1    1    2    0    0  0.10384124634E+01  0.53174460771E+01  0.17925575447E+02  0.18726446228E+02  0.00000000000E+00 0.  1.
         11    1    3    3    0    0 -0.15665082180E+02 -0.12937630269E+02 -0.25112236251E+02  0.32301725751E+02  0.51100000000E-03 0. -1.
        -11    1    3    3    0    0 -0.45662802954E+00 -0.74258489230E+01  0.15576997270E+02  0.17262519677E+02  0.51100000000E-03 0.  1.
        -12    1    3    3    0    0  0.15083297746E+02  0.15046033115E+02 -0.83903364657E+01  0.22897308345E+02  0.00000000000E+00 0.  1.
</event>
<event>
 7    1  0.2577508E-013  0.7246152E+02  0.7816164E-02  0.1226708E+00
        -11   -1    0    0    0    0  0.00000000000E+00  0.00000000000E+00  0.45593999997E+02  0.45594000000E+02  0.51100000000E-03 0. -1.
         11   -1    0    0    0    0 -0.00000000000E+00 -0.00000000000E+00 -0.45593999997E+02  0.45594000000E+02  0.51100000000E-03 0.  1.
    9900012    2    1    2    0    0  0.16125230901E+02  0.84780837012E+01  0.43335916165E+01  0.72461521656E+02  0.69999936640E+02 0.  0.
        -12    1    1    2    0    0 -0.16125230901E+02 -0.84780837012E+01 -0.43335916165E+01  0.18726478344E+02  0.00000000000E+00 0.  1.
         11    1    3    3    0    0 -0.10790179828E+02  0.20142278009E+02  0.59771340853E+01  0.23619176028E+02  0.51100000000E-03 0. -1.
        -11    1    3    3    0    0 -0.13101924868E+01  0.11210209320E+02  0.42039512437E+01  0.12044027718E+02  0.51100000000E-03 0.  1.
        -12    1    3    3    0    0  0.28225603216E+02 -0.22874403629E+02 -0.58474937126E+01  0.36798317910E+02  0.00000000000E+00 0.  1.
</event>
<event>
 7    1  0.2577508E-013  0.7246156E+02  0.7816164E-02  0.1226708E+00
        -11   -1    0    0    0    0  0.00000000000E+00  0.00000000000E+00  0.45593999997E+02  0.45594000000E+02  0.51100000000E-03 0.  1.
         11   -1    0    0    0    0 -0.00000000000E+00 -0.00000000000E+00 -0.45593999997E+02  0.45594000000E+02  0.51100000000E-03 0. -1.
    9900012    2    1    2    0    0 -0.30854088903E+01  0.12788891005E+02 -0.13326815415E+02  0.72461561730E+02  0.69999988844E+02 0.  0.
        -12    1    1    2    0    0  0.30854088903E+01 -0.12788891005E+02  0.13326815415E+02  0.18726438270E+02  0.00000000000E+00 0.  1.
         11    1    3    3    0    0 -0.21032752443E+02  0.10990861831E+02  0.65794931795E+00  0.23740442639E+02  0.51100000000E-03 0. -1.
        -11    1    3    3    0    0  0.93429974001E+01  0.14830726715E+02  0.99399430360E+01  0.20150546473E+02  0.51100000000E-03 0.  1.
         12    1    3    3    0    0  0.86043461530E+01 -0.13032697541E+02 -0.23924707769E+02  0.28570572619E+02  0.00000000000E+00 0. -1.
</event>
<event>
 7    1  0.2577508E-013  0.7246152E+02  0.7816164E-02  0.1226708E+00
        -11   -1    0    0    0    0  0.00000000000E+00  0.00000000000E+00  0.45593999997E+02  0.45594000000E+02  0.51100000000E-03 0.  1.
         11   -1    0    0    0    0 -0.00000000000E+00 -0.00000000000E+00 -0.45593999997E+02  0.45594000000E+02  0.51100000000E-03 0. -1.
    9900012    2    1    2    0    0  0.15535598683E+02 -0.67968493705E+01 -0.79453772947E+01  0.72461521202E+02  0.69999936048E+02 0.  0.
        -12    1    1    2    0    0 -0.15535598683E+02  0.67968493705E+01  0.79453772947E+01  0.18726478798E+02  0.00000000000E+00 0.  1.
         11    1    3    3    0    0  0.23697827032E+02 -0.37773055081E+01 -0.19915837416E+02  0.31184862084E+02  0.51100000000E-03 0. -1.
        -11    1    3    3    0    0  0.11443056521E+02 -0.11927781833E+02  0.10730315528E+02  0.19706729652E+02  0.51100000000E-03 0.  1.
        -12    1    3    3    0    0 -0.19605284869E+02  0.89082379706E+01  0.12401445933E+01  0.21569929466E+02  0.00000000000E+00 0.  1.
</event>
<event>
 7    1  0.2577508E-013  0.7246157E+02  0.7816164E-02  0.1226708E+00
        -11   -1    0    0    0    0  0.00000000000E+00  0.00000000000E+00  0.45593999997E+02  0.45594000000E+02  0.51100000000E-03 0. -1.
         11   -1    0    0    0    0 -0.00000000000E+00 -0.00000000000E+00 -0.45593999997E+02  0.45594000000E+02  0.51100000000E-03 0.  1.
    9900012    2    1    2    0    0 -0.14318709246E+02 -0.11512935727E+02 -0.36202075138E+01  0.72461574127E+02  0.70000004993E+02 0.  0.
        -12    1    1    2    0    0  0.14318709246E+02  0.11512935727E+02  0.36202075138E+01  0.18726425873E+02  0.00000000000E+00 0.  1.
         11    1    3    3    0    0 -0.31518158598E+02  0.41378851918E+01 -0.79520168085E+01  0.32768139814E+02  0.51100000000E-03 0. -1.
        -11    1    3    3    0    0 -0.18966156491E+01 -0.78371892651E+01 -0.11247653571E+02  0.13839378513E+02  0.51100000000E-03 0.  1.
        -12    1    3    3    0    0  0.19096065002E+02 -0.78136316537E+01  0.15579462866E+02  0.25854055801E+02  0.00000000000E+00 0.  1.
</event>
<event>
 7    1  0.2577508E-013  0.7246120E+02  0.7816164E-02  0.1226709E+00
        -11   -1    0    0    0    0  0.00000000000E+00  0.00000000000E+00  0.45593999997E+02  0.45594000000E+02  0.51100000000E-03 0.  1.
         11   -1    0    0    0    0 -0.00000000000E+00 -0.00000000000E+00 -0.45593999997E+02  0.45594000000E+02  0.51100000000E-03 0. -1.
    9900012    2    1    2    0    0  0.15954726908E+02  0.90535374599E+01  0.37647285326E+01  0.72461200162E+02  0.69999517833E+02 0.  0.
        -12    1    1    2    0    0 -0.15954726908E+02 -0.90535374599E+01 -0.37647285326E+01  0.18726799838E+02  0.00000000000E+00 0.  1.
         11    1    3    3    0    0 -0.80706766305E+01  0.16185524723E+02  0.21316981682E+01  0.18211292353E+02  0.51100000000E-03 0. -1.
        -11    1    3    3    0    0 -0.11340499056E+02  0.86341823164E+01  0.56261832588E+01  0.15323510088E+02  0.51100000000E-03 0.  1.
         12    1    3    3    0    0  0.35365902594E+02 -0.15766169579E+02 -0.39931528945E+01  0.38926397721E+02  0.00000000000E+00 0. -1.
</event>
<event>
 7    1  0.2577508E-013  0.7246143E+02  0.7816164E-02  0.1226708E+00
        -11   -1    0    0    0    0  0.00000000000E+00  0.00000000000E+00  0.45593999997E+02  0.45594000000E+02  0.51100000000E-03 0. -1.
         11   -1    0    0    0    0 -0.00000000000E+00 -0.00000000000E+00 -0.45593999997E+02  0.45594000000E+02  0.51100000000E-03 0.  1.
    9900012    2    1    2    0    0 -0.63885428744E+01 -0.12030204773E+02 -0.12850880009E+02  0.72461430001E+02  0.69999817241E+02 0.  0.
        -12    1    1    2    0    0  0.63885428744E+01  0.12030204773E+02  0.12850880009E+02  0.18726569999E+02  0.00000000000E+00 0.  1.
         11    1    3    3    0    0 -0.17027280170E+02 -0.16432316036E+01  0.13317201867E+02  0.21678937841E+02  0.51100000000E-03 0. -1.
        -11    1    3    3    0    0 -0.14613060938E+02 -0.25354093502E+00 -0.27251298718E+01  0.14867150570E+02  0.51100000000E-03 0.  1.
         12    1    3    3    0    0  0.25251798233E+02 -0.10133432234E+02 -0.23442952004E+02  0.35915341590E+02  0.00000000000E+00 0. -1.
</event>
<event>
 7    1  0.2577508E-013  0.7246183E+02  0.7816164E-02  0.1226707E+00
        -11   -1    0    0    0    0  0.00000000000E+00  0.00000000000E+00  0.45593999997E+02  0.45594000000E+02  0.51100000000E-03 0. -1.
         11   -1    0    0    0    0 -0.00000000000E+00 -0.00000000000E+00 -0.45593999997E+02  0.45594000000E+02  0.51100000000E-03 0.  1.
    9900012    2    1    2    0    0  0.72664313245E+01 -0.13699225591E+01  0.17204411630E+02  0.72461828700E+02  0.70000336621E+02 0.  0.
        -12    1    1    2    0    0 -0.72664313245E+01  0.13699225591E+01 -0.17204411630E+02  0.18726171300E+02  0.00000000000E+00 0.  1.
         11    1    3    3    0    0 -0.25273774478E+01 -0.13297234055E+02  0.63272977042E+01  0.14941176887E+02  0.51100000000E-03 0. -1.
        -11    1    3    3    0    0 -0.14678207267E+02  0.23146505607E+02 -0.23817874999E+01  0.27511513996E+02  0.51100000000E-03 0.  1.
         12    1    3    3    0    0  0.24472016039E+02 -0.11219194111E+02  0.13258901426E+02  0.30009137817E+02  0.00000000000E+00 0. -1.
</event>
<event>
 7    1  0.2577508E-013  0.7246159E+02  0.7816164E-02  0.1226708E+00
        -11   -1    0    0    0    0  0.00000000000E+00  0.00000000000E+00  0.45593999997E+02  0.45594000000E+02  0.51100000000E-03 0. -1.
         11   -1    0    0    0    0 -0.00000000000E+00 -0.00000000000E+00 -0.45593999997E+02  0.45594000000E+02  0.51100000000E-03 0.  1.
    9900012    2    1    2    0    0 -0.16469380820E+02 -0.12081179177E+01  0.88305302996E+01  0.72461593007E+02  0.70000029587E+02 0.  0.
        -12    1    1    2    0    0  0.16469380820E+02  0.12081179177E+01 -0.88305302996E+01  0.18726406993E+02  0.00000000000E+00 0.  1.
         11    1    3    3    0    0 -0.21735969296E+02  0.13254867461E+02  0.10732162350E+02  0.27628303994E+02  0.51100000000E-03 0. -1.
        -11    1    3    3    0    0 -0.82188482233E+01  0.89619131859E+01  0.95662202986E+01  0.15471842978E+02  0.51100000000E-03 0.  1.
         12    1    3    3    0    0  0.13485436699E+02 -0.23424898564E+02 -0.11467852349E+02  0.29361446034E+02  0.00000000000E+00 0. -1.
</event>
<event>
 7    1  0.2577508E-013  0.7246155E+02  0.7816164E-02  0.1226708E+00
        -11   -1    0    0    0    0  0.00000000000E+00  0.00000000000E+00  0.45593999997E+02  0.45594000000E+02  0.51100000000E-03 0.  1.
         11   -1    0    0    0    0 -0.00000000000E+00 -0.00000000000E+00 -0.45593999997E+02  0.45594000000E+02  0.51100000000E-03 0. -1.
    9900012    2    1    2    0    0  0.15272607651E+02 -0.55382541587E+01 -0.93142456522E+01  0.72461548771E+02  0.69999971961E+02 0.  0.
        -12    1    1    2    0    0 -0.15272607651E+02  0.55382541587E+01  0.93142456522E+01  0.18726451229E+02  0.00000000000E+00 0.  1.
         11    1    3    3    0    0  0.26296605762E+02 -0.11822271262E+02 -0.38476438639E+01  0.29087487618E+02  0.51100000000E-03 0. -1.
        -11    1    3    3    0    0  0.13037545258E+02 -0.49116172506E+01  0.50620904885E+01  0.14823168715E+02  0.51100000000E-03 0.  1.
        -12    1    3    3    0    0 -0.24061543369E+02  0.11195634354E+02 -0.10528692277E+02  0.28550892437E+02  0.00000000000E+00 0.  1.
</event>
<event>
 7    1  0.2577508E-013  0.7246155E+02  0.7816164E-02  0.1226708E+00
        -11   -1    0    0    0    0  0.00000000000E+00  0.00000000000E+00  0.45593999997E+02  0.45594000000E+02  0.51100000000E-03 0. -1.
         11   -1    0    0    0    0 -0.00000000000E+00 -0.00000000000E+00 -0.45593999997E+02  0.45594000000E+02  0.51100000000E-03 0.  1.
    9900012    2    1    2    0    0  0.64987023456E+01  0.30631492597E+01  0.17293465928E+02  0.72461548671E+02  0.69999971832E+02 0.  0.
        -12    1    1    2    0    0 -0.64987023456E+01 -0.30631492597E+01 -0.17293465928E+02  0.18726451329E+02  0.00000000000E+00 0.  1.
         11    1    3    3    0    0  0.26151892099E+02  0.19033053024E+02  0.62960589885E+01  0.32951766672E+02  0.51100000000E-03 0. -1.
        -11    1    3    3    0    0  0.71661646969E+01 -0.25303944460E+01  0.12140087507E+00  0.76007598929E+01  0.51100000000E-03 0.  1.
        -12    1    3    3    0    0 -0.26819354450E+02 -0.13439509319E+02  0.10876006064E+02  0.31909022106E+02  0.00000000000E+00 0.  1.
</event>
<event>
 7    1  0.2577508E-013  0.7246150E+02  0.7816164E-02  0.1226708E+00
        -11   -1    0    0    0    0  0.00000000000E+00  0.00000000000E+00  0.45593999997E+02  0.45594000000E+02  0.51100000000E-03 0.  1.
         11   -1    0    0    0    0 -0.00000000000E+00 -0.00000000000E+00 -0.45593999997E+02  0.45594000000E+02  0.51100000000E-03 0. -1.
    9900012    2    1    2    0    0 -0.17570670023E+02  0.32893736740E+01  0.55797164054E+01  0.72461503814E+02  0.69999913397E+02 0.  0.
        -12    1    1    2    0    0  0.17570670023E+02 -0.32893736740E+01 -0.55797164054E+01  0.18726496186E+02  0.00000000000E+00 0.  1.
         11    1    3    3    0    0 -0.24187334747E+02  0.20164318181E+02 -0.10814035829E+02  0.33295198768E+02  0.51100000000E-03 0. -1.
        -11    1    3    3    0    0  0.94107502607E+01 -0.93043554007E+01 -0.66067101359E+01  0.14791276786E+02  0.51100000000E-03 0.  1.
        -12    1    3    3    0    0 -0.27940855376E+01 -0.75705891060E+01  0.23000462370E+02  0.24375028260E+02  0.00000000000E+00 0.  1.
</event>
<event>
 7    1  0.2577508E-013  0.7246160E+02  0.7816164E-02  0.1226708E+00
        -11   -1    0    0    0    0  0.00000000000E+00  0.00000000000E+00  0.45593999997E+02  0.45594000000E+02  0.51100000000E-03 0. -1.
         11   -1    0    0    0    0 -0.00000000000E+00 -0.00000000000E+00 -0.45593999997E+02  0.45594000000E+02  0.51100000000E-03 0.  1.
    9900012    2    1    2    0    0 -0.12531036928E+02  0.12894565110E+02 -0.52327375378E+01  0.72461595166E+02  0.70000032400E+02 0.  0.
        -12    1    1    2    0    0  0.12531036928E+02 -0.12894565110E+02  0.52327375378E+01  0.18726404834E+02  0.00000000000E+00 0.  1.
         11    1    3    3    0    0  0.60800426109E+01 -0.24559184593E+01 -0.20103534246E+02  0.21145934434E+02  0.51100000000E-03 0. -1.
        -11    1    3    3    0    0 -0.20686122771E+02  0.23072731423E+02 -0.35920176468E+01  0.31195659981E+02  0.51100000000E-03 0.  1.
         12    1    3    3    0    0  0.20750432323E+01 -0.77222478530E+01  0.18462814355E+02  0.20120000751E+02  0.00000000000E+00 0. -1.
</event>
<event>
 7    1  0.2577508E-013  0.7246163E+02  0.7816164E-02  0.1226708E+00
        -11   -1    0    0    0    0  0.00000000000E+00  0.00000000000E+00  0.45593999997E+02  0.45594000000E+02  0.51100000000E-03 0.  1.
         11   -1    0    0    0    0 -0.00000000000E+00 -0.00000000000E+00 -0.45593999997E+02  0.45594000000E+02  0.51100000000E-03 0. -1.
    9900012    2    1    2    0    0 -0.11859705312E+02 -0.13818116968E+02 -0.43685233126E+01  0.72461629221E+02  0.70000076763E+02 0.  0.
        -12    1    1    2    0    0  0.11859705312E+02  0.13818116968E+02  0.43685233126E+01  0.18726370779E+02  0.00000000000E+00 0.  1.
         11    1    3    3    0    0 -0.90191272263E+01  0.59707118821E+01 -0.32558847813E+01  0.11295788696E+02  0.51100000000E-03 0. -1.
        -11    1    3    3    0    0 -0.72339953831E+01  0.19845734181E+02 -0.24595712927E+01  0.21265778744E+02  0.51100000000E-03 0.  1.
         12    1    3    3    0    0  0.43934172970E+01 -0.39634563031E+02  0.13469327614E+01  0.39900061780E+02  0.00000000000E+00 0. -1.
</event>
<event>
 7    1  0.2577508E-013  0.7246159E+02  0.7816164E-02  0.1226708E+00
        -11   -1    0    0    0    0  0.00000000000E+00  0.00000000000E+00  0.45593999997E+02  0.45594000000E+02  0.51100000000E-03 0. -1.
         11   -1    0    0    0    0 -0.00000000000E+00 -0.00000000000E+00 -0.45593999997E+02  0.45594000000E+02  0.51100000000E-03 0.  1.
    9900012    2    1    2    0    0  0.12743563160E+02 -0.88155169922E+01  0.10515068746E+02  0.72461590505E+02  0.70000026328E+02 0.  0.
        -12    1    1    2    0    0 -0.12743563160E+02  0.88155169922E+01 -0.10515068746E+02  0.18726409495E+02  0.00000000000E+00 0.  1.
         11    1    3    3    0    0  0.10936184808E+02  0.42512653554E+00  0.40513911419E+01  0.11670245977E+02  0.51100000000E-03 0. -1.
        -11    1    3    3    0    0 -0.10109832173E+02  0.15816963939E+02  0.22056287359E+02  0.28963163970E+02  0.51100000000E-03 0.  1.
         12    1    3    3    0    0  0.11917210525E+02 -0.25057607467E+02 -0.15592609755E+02  0.31828180558E+02  0.00000000000E+00 0. -1.
</event>
<event>
 7    1  0.2577508E-013  0.7246148E+02  0.7816164E-02  0.1226708E+00
        -11   -1    0    0    0    0  0.00000000000E+00  0.00000000000E+00  0.45593999997E+02  0.45594000000E+02  0.51100000000E-03 0.  1.
         11   -1    0    0    0    0 -0.00000000000E+00 -0.00000000000E+00 -0.45593999997E+02  0.45594000000E+02  0.51100000000E-03 0. -1.
    9900012    2    1    2    0    0  0.16067626317E+02  0.67716461378E+01  0.68307173559E+01  0.72461481197E+02  0.69999883935E+02 0.  0.
        -12    1    1    2    0    0 -0.16067626317E+02 -0.67716461378E+01 -0.68307173559E+01  0.18726518803E+02  0.00000000000E+00 0.  1.
         11    1    3    3    0    0  0.11749563699E+02 -0.68567957483E+00 -0.34990455760E+01  0.12278669464E+02  0.51100000000E-03 0. -1.
        -11    1    3    3    0    0  0.45154673878E+01  0.30438120103E+02 -0.68072370497E+01  0.31515188047E+02  0.51100000000E-03 0.  1.
         12    1    3    3    0    0 -0.19740477016E+00 -0.22980794390E+02  0.17136999982E+02  0.28667623686E+02  0.00000000000E+00 0. -1.
</event>
<event>
 7    1  0.2577508E-013  0.7246181E+02  0.7816164E-02  0.1226707E+00
        -11   -1    0    0    0    0  0.00000000000E+00  0.00000000000E+00  0.45593999997E+02  0.45594000000E+02  0.51100000000E-03 0.  1.
         11   -1    0    0    0    0 -0.00000000000E+00 -0.00000000000E+00 -0.45593999997E+02  0.45594000000E+02  0.51100000000E-03 0. -1.
    9900012    2    1    2    0    0 -0.40896851657E+01  0.37982276700E+01 -0.17875065626E+02  0.72461814341E+02  0.70000317915E+02 0.  0.
        -12    1    1    2    0    0  0.40896851657E+01 -0.37982276700E+01  0.17875065626E+02  0.18726185659E+02  0.00000000000E+00 0.  1.
         11    1    3    3    0    0  0.13450188569E+02  0.76686005676E+01  0.12389728095E+02  0.19829784914E+02  0.51100000000E-03 0. -1.
        -11    1    3    3    0    0 -0.36358407286E+01  0.13666038005E+02  0.10069752830E+01  0.14177232876E+02  0.51100000000E-03 0.  1.
         12    1    3    3    0    0 -0.13904033006E+02 -0.17536410902E+02 -0.31271769004E+02  0.38454796551E+02  0.00000000000E+00 0. -1.
</event>
<event>
 7    1  0.2577508E-013  0.7246157E+02  0.7816164E-02  0.1226708E+00
        -11   -1    0    0    0    0  0.00000000000E+00  0.00000000000E+00  0.45593999997E+02  0.45594000000E+02  0.51100000000E-03 0.  1.
         11   -1    0    0    0    0 -0.00000000000E+00 -0.00000000000E+00 -0.45593999997E+02  0.45594000000E+02  0.51100000000E-03 0. -1.
    9900012    2    1    2    0    0  0.15783446812E+02 -0.78387509326E+01 -0.63337160368E+01  0.72461570327E+02  0.70000000043E+02 0.  0.
        -12    1    1    2    0    0 -0.15783446812E+02  0.78387509326E+01  0.63337160368E+01  0.18726429673E+02  0.00000000000E+00 0.  1.
         11    1    3    3    0    0 -0.60319489910E+01 -0.92201952986E+01  0.16624541830E+02  0.19944217239E+02  0.51100000000E-03 0. -1.
        -11    1    3    3    0    0  0.10636348753E+02  0.70204952970E+01  0.10677901630E+02  0.16626390242E+02  0.51100000000E-03 0.  1.
         12    1    3    3    0    0  0.11179047051E+02 -0.56390509311E+01 -0.33636159496E+02  0.35890962846E+02  0.00000000000E+00 0. -1.
</event>
<event>
 7    1  0.2577508E-013  0.7246157E+02  0.7816164E-02  0.1226708E+00
        -11   -1    0    0    0    0  0.00000000000E+00  0.00000000000E+00  0.45593999997E+02  0.45594000000E+02  0.51100000000E-03 0.  1.
         11   -1    0    0    0    0 -0.00000000000E+00 -0.00000000000E+00 -0.45593999997E+02  0.45594000000E+02  0.51100000000E-03 0. -1.
    9900012    2    1    2    0    0 -0.13640604294E+02  0.84636348694E+00  0.12802221498E+02  0.72461567026E+02  0.69999995742E+02 0.  0.
        -12    1    1    2    0    0  0.13640604294E+02 -0.84636348694E+00 -0.12802221498E+02  0.18726432974E+02  0.00000000000E+00 0.  1.
         11    1    3    3    0    0  0.42555738398E+01  0.22922453737E+01 -0.65619886523E+01  0.81500915880E+01  0.51100000000E-03 0. -1.
        -11    1    3    3    0    0 -0.13071448408E+02  0.24628047491E+02 -0.49700084699E+01  0.28321448959E+02  0.51100000000E-03 0.  1.
        -12    1    3    3    0    0 -0.48247297254E+01 -0.26073929377E+02  0.24334218620E+02  0.35990026479E+02  0.00000000000E+00 0.  1.
</event>
<event>
 7    1  0.2577508E-013  0.7246156E+02  0.7816164E-02  0.1226708E+00
        -11   -1    0    0    0    0  0.00000000000E+00  0.00000000000E+00  0.45593999997E+02  0.45594000000E+02  0.51100000000E-03 0.  1.
         11   -1    0    0    0    0 -0.00000000000E+00 -0.00000000000E+00 -0.45593999997E+02  0.45594000000E+02  0.51100000000E-03 0. -1.
    9900012    2    1    2    0    0 -0.25501829326E+01  0.25588259133E+00 -0.18550220195E+02  0.72461559383E+02  0.69999985786E+02 0.  0.
        -12    1    1    2    0    0  0.25501829326E+01 -0.25588259133E+00  0.18550220195E+02  0.18726440617E+02  0.00000000000E+00 0.  1.
         11    1    3    3    0    0  0.17372648975E+02 -0.84037087050E+01 -0.30977419346E+02  0.36497010316E+02  0.51100000000E-03 0. -1.
        -11    1    3    3    0    0  0.33478154001E+01  0.98480393216E+01  0.29674218485E+01  0.10816530826E+02  0.51100000000E-03 0.  1.
        -12    1    3    3    0    0 -0.23270647308E+02 -0.11884480252E+01  0.94597773019E+01  0.25148018241E+02  0.00000000000E+00 0.  1.
</event>
<event>
 7    1  0.2577508E-013  0.7246156E+02  0.7816164E-02  0.1226708E+00
        -11   -1    0    0    0    0  0.00000000000E+00  0.00000000000E+00  0.45593999997E+02  0.45594000000E+02  0.51100000000E-03 0.  1.
         11   -1    0    0    0    0 -0.00000000000E+00 -0.00000000000E+00 -0.45593999997E+02  0.45594000000E+02  0.51100000000E-03 0. -1.
    9900012    2    1    2    0    0 -0.14823830890E+02  0.37239357152E+00 -0.11436558480E+02  0.72461561227E+02  0.69999988189E+02 0.  0.
        -12    1    1    2    0    0  0.14823830890E+02 -0.37239357152E+00  0.11436558480E+02  0.18726438773E+02  0.00000000000E+00 0.  1.
         11    1    3    3    0    0 -0.29697401618E+02 -0.16063794536E+02  0.44574079090E+01  0.34056565348E+02  0.51100000000E-03 0. -1.
        -11    1    3    3    0    0  0.64718642199E+01 -0.21765861965E+01  0.55454917259E+01  0.87963079013E+01  0.51100000000E-03 0.  1.
        -12    1    3    3    0    0  0.84017065079E+01  0.18612774304E+02 -0.21439458115E+02  0.29608687978E+02  0.00000000000E+00 0.  1.
</event>
<event>
 7    1  0.2577508E-013  0.7246151E+02  0.7816164E-02  0.1226708E+00
        -11   -1    0    0    0    0  0.00000000000E+00  0.00000000000E+00  0.45593999997E+02  0.45594000000E+02  0.51100000000E-03 0.  1.
         11   -1    0    0    0    0 -0.00000000000E+00 -0.00000000000E+00 -0.45593999997E+02  0.45594000000E+02  0.51100000000E-03 0. -1.
    9900012    2    1    2    0    0  0.81285953910E+01  0.32565483355E+01 -0.16553017723E+02  0.72461506313E+02  0.69999916652E+02 0.  0.
        -12    1    1    2    0    0 -0.81285953910E+01 -0.32565483355E+01  0.16553017723E+02  0.18726493687E+02  0.00000000000E+00 0.  1.
         11    1    3    3    0    0  0.86206928348E+00 -0.54005580180E+01  0.11055042881E+01  0.55795457116E+01  0.51100000000E-03 0. -1.
        -11    1    3    3    0    0 -0.13089946042E+02 -0.20523465449E+02  0.47945362688E+01  0.24810217647E+02  0.51100000000E-03 0.  1.
         12    1    3    3    0    0  0.20356472149E+02  0.29180571802E+02 -0.22453058280E+02  0.42071742954E+02  0.00000000000E+00 0. -1.
</event>
<event>
 7    1  0.2577508E-013  0.7246157E+02  0.7816164E-02  0.1226708E+00
        -11   -1    0    0    0    0  0.00000000000E+00  0.00000000000E+00  0.45593999997E+02  0.45594000000E+02  0.51100000000E-03 0.  1.
         11   -1    0    0    0    0 -0.00000000000E+00 -0.00000000000E+00 -0.45593999997E+02  0.45594000000E+02  0.51100000000E-03 0. -1.
    9900012    2    1    2    0    0  0.14694353126E+02 -0.50704048149E+01 -0.10442520757E+02  0.72461567918E+02  0.69999996904E+02 0.  0.
        -12    1    1    2    0    0 -0.14694353126E+02  0.50704048149E+01  0.10442520757E+02  0.18726432082E+02  0.00000000000E+00 0.  1.
         11    1    3    3    0    0 -0.20546094492E+02 -0.80773582234E+01 -0.15105935678E+02  0.26750233788E+02  0.51100000000E-03 0. -1.
        -11    1    3    3    0    0  0.13463750007E+02 -0.12661182057E+02  0.17863453853E-02  0.18481831586E+02  0.51100000000E-03 0.  1.
        -12    1    3    3    0    0  0.21776697611E+02  0.15668135465E+02  0.46616285754E+01  0.27229502543E+02  0.00000000000E+00 0.  1.
</event>
<event>
 7    1  0.2577508E-013  0.7246157E+02  0.7816164E-02  0.1226708E+00
        -11   -1    0    0    0    0  0.00000000000E+00  0.00000000000E+00  0.45593999997E+02  0.45594000000E+02  0.51100000000E-03 0. -1.
         11   -1    0    0    0    0 -0.00000000000E+00 -0.00000000000E+00 -0.45593999997E+02  0.45594000000E+02  0.51100000000E-03 0.  1.
    9900012    2    1    2    0    0  0.74654189010E+01 -0.17018977488E+02 -0.23023761180E+01  0.72461574557E+02  0.70000005553E+02 0.  0.
        -12    1    1    2    0    0 -0.74654189010E+01  0.17018977488E+02  0.23023761180E+01  0.18726425443E+02  0.00000000000E+00 0.  1.
         11    1    3    3    0    0  0.99962045620E+01  0.40751952268E+01  0.24391465759E+01  0.11067102514E+02  0.51100000000E-03 0. -1.
        -11    1    3    3    0    0  0.16957212958E+02 -0.33152355246E+02  0.26061678076E+01  0.37328512434E+02  0.51100000000E-03 0.  1.
         12    1    3    3    0    0 -0.19487998619E+02  0.12058182532E+02 -0.73476905015E+01  0.24065959608E+02  0.00000000000E+00 0. -1.
</event>
<event>
 7    1  0.2577508E-013  0.7246156E+02  0.7816164E-02  0.1226708E+00
        -11   -1    0    0    0    0  0.00000000000E+00  0.00000000000E+00  0.45593999997E+02  0.45594000000E+02  0.51100000000E-03 0.  1.
         11   -1    0    0    0    0 -0.00000000000E+00 -0.00000000000E+00 -0.45593999997E+02  0.45594000000E+02  0.51100000000E-03 0. -1.
    9900012    2    1    2    0    0  0.14446462285E+01  0.99660298308E+01 -0.15788309553E+02  0.72461562222E+02  0.69999989484E+02 0.  0.
        -12    1    1    2    0    0 -0.14446462285E+01 -0.99660298308E+01  0.15788309553E+02  0.18726437778E+02  0.00000000000E+00 0.  1.
         11    1    3    3    0    0  0.94663116340E+01  0.58205481786E+01 -0.11884934007E+02  0.16270878700E+02  0.51100000000E-03 0. -1.
        -11    1    3    3    0    0  0.12234072610E+02 -0.31370402005E+01  0.20232384694E+02  0.23850847879E+02  0.51100000000E-03 0.  1.
        -12    1    3    3    0    0 -0.20255738015E+02  0.72825218528E+01 -0.24135760240E+02  0.32339835644E+02  0.00000000000E+00 0.  1.
</event>
<event>
 7    1  0.2577508E-013  0.7246156E+02  0.7816164E-02  0.1226708E+00
        -11   -1    0    0    0    0  0.00000000000E+00  0.00000000000E+00  0.45593999997E+02  0.45594000000E+02  0.51100000000E-03 0.  1.
         11   -1    0    0    0    0 -0.00000000000E+00 -0.00000000000E+00 -0.45593999997E+02  0.45594000000E+02  0.51100000000E-03 0. -1.
    9900012    2    1    2    0    0 -0.16769353718E+02 -0.82859526404E+01 -0.90067168600E+00  0.72461562945E+02  0.69999990426E+02 0.  0.
        -12    1    1    2    0    0  0.16769353718E+02  0.82859526404E+01  0.90067168600E+00  0.18726437055E+02  0.00000000000E+00 0.  1.
         11    1    3    3    0    0  0.14379857970E+02 -0.58108414837E+01 -0.55573914833E+01  0.16475156884E+02  0.51100000000E-03 0. -1.
        -11    1    3    3    0    0 -0.13387367490E+01 -0.14577760867E+01  0.21594478767E+02  0.21684991138E+02  0.51100000000E-03 0.  1.
         12    1    3    3    0    0 -0.29810474940E+02 -0.10173350700E+01 -0.16937758969E+02  0.34301414923E+02  0.00000000000E+00 0. -1.
</event>
<event>
 7    1  0.2577508E-013  0.7246203E+02  0.7816164E-02  0.1226707E+00
        -11   -1    0    0    0    0  0.00000000000E+00  0.00000000000E+00  0.45593999997E+02  0.45594000000E+02  0.51100000000E-03 0.  1.
         11   -1    0    0    0    0 -0.00000000000E+00 -0.00000000000E+00 -0.45593999997E+02  0.45594000000E+02  0.51100000000E-03 0. -1.
    9900012    2    1    2    0    0 -0.16724115473E+02  0.69974166372E+01 -0.46906529378E+01  0.72462025982E+02  0.70000593615E+02 0.  0.
        -12    1    1    2    0    0  0.16724115473E+02 -0.69974166372E+01  0.46906529378E+01  0.18725974018E+02  0.00000000000E+00 0.  1.
         11    1    3    3    0    0  0.95793331682E+01  0.13456967011E+02  0.69197121092E+01  0.17909103859E+02  0.51100000000E-03 0. -1.
        -11    1    3    3    0    0  0.34989998645E+01  0.12322529672E+02 -0.14330251095E+02  0.19220921785E+02  0.51100000000E-03 0.  1.
        -12    1    3    3    0    0 -0.29802448505E+02 -0.18782080046E+02  0.27198860479E+01  0.35332000338E+02  0.00000000000E+00 0.  1.
</event>
<event>
 7    1  0.2577508E-013  0.7246170E+02  0.7816164E-02  0.1226708E+00
        -11   -1    0    0    0    0  0.00000000000E+00  0.00000000000E+00  0.45593999997E+02  0.45594000000E+02  0.51100000000E-03 0.  1.
         11   -1    0    0    0    0 -0.00000000000E+00 -0.00000000000E+00 -0.45593999997E+02  0.45594000000E+02  0.51100000000E-03 0. -1.
    9900012    2    1    2    0    0 -0.17948668038E+02 -0.26250151831E+01 -0.46506813628E+01  0.72461702283E+02  0.70000171940E+02 0.  0.
        -12    1    1    2    0    0  0.17948668038E+02  0.26250151831E+01  0.46506813628E+01  0.18726297717E+02  0.00000000000E+00 0.  1.
         11    1    3    3    0    0 -0.13278365178E+02  0.10727974707E+01  0.51806795152E+01  0.14293541083E+02  0.51100000000E-03 0.  1.
        -11    1    3    3    0    0 -0.18274461902E+02 -0.24444047456E+02 -0.12970008131E+02  0.33161551908E+02  0.51100000000E-03 0. -1.
        -12    1    3    3    0    0  0.13604159041E+02  0.20746234802E+02  0.31386472530E+01  0.25006609291E+02  0.00000000000E+00 0.  1.
</event>
<event>
 7    1  0.2577508E-013  0.7246157E+02  0.7816164E-02  0.1226708E+00
        -11   -1    0    0    0    0  0.00000000000E+00  0.00000000000E+00  0.45593999997E+02  0.45594000000E+02  0.51100000000E-03 0.  1.
         11   -1    0    0    0    0 -0.00000000000E+00 -0.00000000000E+00 -0.45593999997E+02  0.45594000000E+02  0.51100000000E-03 0. -1.
    9900012    2    1    2    0    0  0.15504901430E+01 -0.69990567155E+01 -0.17299947505E+02  0.72461574867E+02  0.70000005957E+02 0.  0.
        -12    1    1    2    0    0 -0.15504901430E+01  0.69990567155E+01  0.17299947505E+02  0.18726425133E+02  0.00000000000E+00 0.  1.
         11    1    3    3    0    0 -0.11635277210E+02 -0.12077017337E+02 -0.26140291657E+02  0.31057187118E+02  0.51100000000E-03 0. -1.
        -11    1    3    3    0    0  0.17981438306E+02  0.34935530863E+01 -0.10705454988E+02  0.21216592645E+02  0.51100000000E-03 0.  1.
        -12    1    3    3    0    0 -0.47956709533E+01  0.15844075354E+01  0.19545799140E+02  0.20187795104E+02  0.00000000000E+00 0.  1.
</event>
<event>
 7    1  0.2577508E-013  0.7246154E+02  0.7816164E-02  0.1226708E+00
        -11   -1    0    0    0    0  0.00000000000E+00  0.00000000000E+00  0.45593999997E+02  0.45594000000E+02  0.51100000000E-03 0.  1.
         11   -1    0    0    0    0 -0.00000000000E+00 -0.00000000000E+00 -0.45593999997E+02  0.45594000000E+02  0.51100000000E-03 0. -1.
    9900012    2    1    2    0    0 -0.43081765950E+01 -0.48666548934E+01 -0.17562336974E+02  0.72461537562E+02  0.69999957360E+02 0.  0.
        -12    1    1    2    0    0  0.43081765950E+01  0.48666548934E+01  0.17562336974E+02  0.18726462438E+02  0.00000000000E+00 0.  1.
         11    1    3    3    0    0  0.18939041603E+01  0.81649146645E+01 -0.15101414381E+02  0.17271520518E+02  0.51100000000E-03 0. -1.
        -11    1    3    3    0    0  0.15244219783E+02 -0.18495858495E+02 -0.16393274050E+02  0.29038292866E+02  0.51100000000E-03 0.  1.
        -12    1    3    3    0    0 -0.21446300538E+02  0.54642889375E+01  0.13932351456E+02  0.26151724178E+02  0.00000000000E+00 0.  1.
</event>
<event>
 7    1  0.2577508E-013  0.7246151E+02  0.7816164E-02  0.1226708E+00
        -11   -1    0    0    0    0  0.00000000000E+00  0.00000000000E+00  0.45593999997E+02  0.45594000000E+02  0.51100000000E-03 0. -1.
         11   -1    0    0    0    0 -0.00000000000E+00 -0.00000000000E+00 -0.45593999997E+02  0.45594000000E+02  0.51100000000E-03 0.  1.
    9900012    2    1    2    0    0 -0.12055958906E+02  0.84790758953E+01  0.11551654639E+02  0.72461505451E+02  0.69999915529E+02 0.  0.
        -12    1    1    2    0    0  0.12055958906E+02 -0.84790758953E+01 -0.11551654639E+02  0.18726494549E+02  0.00000000000E+00 0.  1.
         11    1    3    3    0    0  0.11139894877E+02 -0.13113002592E+02 -0.42769775662E+01  0.17729654035E+02  0.51100000000E-03 0. -1.
        -11    1    3    3    0    0  0.10486412850E+02  0.12540989986E+02  0.10553256296E+02  0.19457967597E+02  0.51100000000E-03 0.  1.
         12    1    3    3    0    0 -0.33682266634E+02  0.90510885009E+01  0.52753759099E+01  0.35273883819E+02  0.00000000000E+00 0. -1.
</event>
<event>
 7    1  0.2577508E-013  0.7246151E+02  0.7816164E-02  0.1226708E+00
        -11   -1    0    0    0    0  0.00000000000E+00  0.00000000000E+00  0.45593999997E+02  0.45594000000E+02  0.51100000000E-03 0. -1.
         11   -1    0    0    0    0 -0.00000000000E+00 -0.00000000000E+00 -0.45593999997E+02  0.45594000000E+02  0.51100000000E-03 0.  1.
    9900012    2    1    2    0    0 -0.10417238732E+02 -0.11320737507E+02  0.10677248424E+02  0.72461505549E+02  0.69999915658E+02 0.  0.
        -12    1    1    2    0    0  0.10417238732E+02  0.11320737507E+02 -0.10677248424E+02  0.18726494451E+02  0.00000000000E+00 0.  1.
         11    1    3    3    0    0  0.12953366415E+02  0.99825379935E+01 -0.78837474439E+01  0.18154730521E+02  0.51100000000E-03 0. -1.
        -11    1    3    3    0    0 -0.36877044749E+00  0.19754057055E+01 -0.10408547779E+02  0.10600758769E+02  0.51100000000E-03 0.  1.
        -12    1    3    3    0    0 -0.23001834699E+02 -0.23278681206E+02  0.28969543647E+02  0.43706016260E+02  0.00000000000E+00 0.  1.
</event>
<event>
 7    1  0.2577508E-013  0.7246159E+02  0.7816164E-02  0.1226708E+00
        -11   -1    0    0    0    0  0.00000000000E+00  0.00000000000E+00  0.45593999997E+02  0.45594000000E+02  0.51100000000E-03 0. -1.
         11   -1    0    0    0    0 -0.00000000000E+00 -0.00000000000E+00 -0.45593999997E+02  0.45594000000E+02  0.51100000000E-03 0.  1.
    9900012    2    1    2    0    0  0.15924946255E+02  0.30322507331E+01  0.93744379651E+01  0.72461586972E+02  0.70000021725E+02 0.  0.
        -12    1    1    2    0    0 -0.15924946255E+02 -0.30322507331E+01 -0.93744379651E+01  0.18726413028E+02  0.00000000000E+00 0.  1.
         11    1    3    3    0    0  0.11974987905E+02  0.12881352117E+02  0.12461427130E+02  0.21554970055E+02  0.51100000000E-03 0. -1.
        -11    1    3    3    0    0  0.21811491038E+02  0.95437606396E+01  0.25544782283E+01  0.23944725259E+02  0.51100000000E-03 0.  1.
         12    1    3    3    0    0 -0.17861532688E+02 -0.19392862024E+02 -0.56414673930E+01  0.26961891658E+02  0.00000000000E+00 0. -1.
</event>
<event>
 7    1  0.2577508E-013  0.7246132E+02  0.7816164E-02  0.1226709E+00
        -11   -1    0    0    0    0  0.00000000000E+00  0.00000000000E+00  0.45593999997E+02  0.45594000000E+02  0.51100000000E-03 0. -1.
         11   -1    0    0    0    0 -0.00000000000E+00 -0.00000000000E+00 -0.45593999997E+02  0.45594000000E+02  0.51100000000E-03 0.  1.
    9900012    2    1    2    0    0  0.20042604581E+01 -0.14106634741E+01  0.18565601719E+02  0.72461318537E+02  0.69999672039E+02 0.  0.
        -12    1    1    2    0    0 -0.20042604581E+01  0.14106634741E+01 -0.18565601719E+02  0.18726681463E+02  0.00000000000E+00 0.  1.
         11    1    3    3    0    0 -0.32329941375E+01  0.16254588462E+02  0.13389384128E+02  0.21305856114E+02  0.51100000000E-03 0. -1.
        -11    1    3    3    0    0  0.22112552831E+02  0.47614257971E+01  0.21015454852E-01  0.22619385717E+02  0.51100000000E-03 0.  1.
        -12    1    3    3    0    0 -0.16875298235E+02 -0.22426677734E+02  0.51552021363E+01  0.28536076706E+02  0.00000000000E+00 0.  1.
</event>
<event>
 7    1  0.2577508E-013  0.7246153E+02  0.7816164E-02  0.1226708E+00
        -11   -1    0    0    0    0  0.00000000000E+00  0.00000000000E+00  0.45593999997E+02  0.45594000000E+02  0.51100000000E-03 0.  1.
         11   -1    0    0    0    0 -0.00000000000E+00 -0.00000000000E+00 -0.45593999997E+02  0.45594000000E+02  0.51100000000E-03 0. -1.
    9900012    2    1    2    0    0  0.35002790889E+01  0.87292327925E+01 -0.16193487811E+02  0.72461534601E+02  0.69999953503E+02 0.  0.
        -12    1    1    2    0    0 -0.35002790889E+01 -0.87292327925E+01  0.16193487811E+02  0.18726465399E+02  0.00000000000E+00 0.  1.
         11    1    3    3    0    0 -0.10080095784E+02  0.76111180842E+00 -0.21615149487E+02  0.23862152246E+02  0.51100000000E-03 0. -1.
        -11    1    3    3    0    0 -0.14998902649E+02 -0.50521224359E+01  0.66563387610E+01  0.17169678732E+02  0.51100000000E-03 0.  1.
        -12    1    3    3    0    0  0.28579277522E+02  0.13020243420E+02 -0.12346770850E+01  0.31429703624E+02  0.00000000000E+00 0.  1.
</event>
<event>
 7    1  0.2577508E-013  0.7246152E+02  0.7816164E-02  0.1226708E+00
        -11   -1    0    0    0    0  0.00000000000E+00  0.00000000000E+00  0.45593999997E+02  0.45594000000E+02  0.51100000000E-03 0. -1.
         11   -1    0    0    0    0 -0.00000000000E+00 -0.00000000000E+00 -0.45593999997E+02  0.45594000000E+02  0.51100000000E-03 0.  1.
    9900012    2    1    2    0    0  0.32785561912E+01 -0.48938492749E+01  0.17775887566E+02  0.72461524886E+02  0.69999940847E+02 0.  0.
        -12    1    1    2    0    0 -0.32785561912E+01  0.48938492749E+01 -0.17775887566E+02  0.18726475114E+02  0.00000000000E+00 0.  1.
         11    1    3    3    0    0  0.26151660999E+02  0.82567493160E+01 -0.10321906506E+02  0.29302304286E+02  0.51100000000E-03 0. -1.
        -11    1    3    3    0    0 -0.31554839819E+01  0.10210842345E+01 -0.24593784699E+01  0.41289508223E+01  0.51100000000E-03 0.  1.
        -12    1    3    3    0    0 -0.19717620826E+02 -0.14171682825E+02  0.30557172542E+02  0.39030269778E+02  0.00000000000E+00 0.  1.
</event>
<event>
 7    1  0.2577508E-013  0.7246163E+02  0.7816164E-02  0.1226708E+00
        -11   -1    0    0    0    0  0.00000000000E+00  0.00000000000E+00  0.45593999997E+02  0.45594000000E+02  0.51100000000E-03 0.  1.
         11   -1    0    0    0    0 -0.00000000000E+00 -0.00000000000E+00 -0.45593999997E+02  0.45594000000E+02  0.51100000000E-03 0. -1.
    9900012    2    1    2    0    0 -0.94049209313E+01 -0.13112352545E+02 -0.95021369751E+01  0.72461629981E+02  0.70000077753E+02 0.  0.
        -12    1    1    2    0    0  0.94049209313E+01  0.13112352545E+02  0.95021369751E+01  0.18726370019E+02  0.00000000000E+00 0.  1.
         11    1    3    3    0    0 -0.12639631088E+02 -0.21577473246E+02 -0.19851871753E+02  0.31928740001E+02  0.51100000000E-03 0. -1.
        -11    1    3    3    0    0 -0.11179190234E+02  0.67205167055E+01 -0.93586801519E+01  0.16053801217E+02  0.51100000000E-03 0.  1.
        -12    1    3    3    0    0  0.14413900391E+02  0.17446039950E+01  0.19708414930E+02  0.24479088762E+02  0.00000000000E+00 0.  1.
</event>
<event>
 7    1  0.2577508E-013  0.7246119E+02  0.7816164E-02  0.1226709E+00
        -11   -1    0    0    0    0  0.00000000000E+00  0.00000000000E+00  0.45593999997E+02  0.45594000000E+02  0.51100000000E-03 0. -1.
         11   -1    0    0    0    0 -0.00000000000E+00 -0.00000000000E+00 -0.45593999997E+02  0.45594000000E+02  0.51100000000E-03 0.  1.
    9900012    2    1    2    0    0  0.12018657080E+02 -0.13146985361E+02  0.57794402599E+01  0.72461193764E+02  0.69999509497E+02 0.  0.
        -12    1    1    2    0    0 -0.12018657080E+02  0.13146985361E+02 -0.57794402599E+01  0.18726806236E+02  0.00000000000E+00 0.  1.
         11    1    3    3    0    0 -0.13255873938E+01 -0.10628311404E+02 -0.14792280343E+01  0.10812321724E+02  0.51100000000E-03 0. -1.
        -11    1    3    3    0    0  0.24839280239E+02  0.70842887504E+01 -0.18555529379E+02  0.31803846633E+02  0.51100000000E-03 0.  1.
         12    1    3    3    0    0 -0.11495035765E+02 -0.96029627080E+01  0.25814197673E+02  0.29845025406E+02  0.00000000000E+00 0. -1.
</event>
<event>
 7    1  0.2577508E-013  0.7246149E+02  0.7816164E-02  0.1226708E+00
        -11   -1    0    0    0    0  0.00000000000E+00  0.00000000000E+00  0.45593999997E+02  0.45594000000E+02  0.51100000000E-03 0.  1.
         11   -1    0    0    0    0 -0.00000000000E+00 -0.00000000000E+00 -0.45593999997E+02  0.45594000000E+02  0.51100000000E-03 0. -1.
    9900012    2    1    2    0    0  0.10853349949E+02 -0.11083829275E+02 -0.10489790819E+02  0.72461489702E+02  0.69999895014E+02 0.  0.
        -12    1    1    2    0    0 -0.10853349949E+02  0.11083829275E+02  0.10489790819E+02  0.18726510298E+02  0.00000000000E+00 0.  1.
         11    1    3    3    0    0 -0.10225223396E+01 -0.52552172307E+01  0.84034342967E+01  0.99639634843E+01  0.51100000000E-03 0. -1.
        -11    1    3    3    0    0 -0.76316585634E+01 -0.12023133971E+02  0.16386983427E+02  0.21710163265E+02  0.51100000000E-03 0.  1.
         12    1    3    3    0    0  0.19507530852E+02  0.61945219274E+01 -0.35280208542E+02  0.40787362953E+02  0.00000000000E+00 0. -1.
</event>
<event>
 7    1  0.2577508E-013  0.7246179E+02  0.7816164E-02  0.1226707E+00
        -11   -1    0    0    0    0  0.00000000000E+00  0.00000000000E+00  0.45593999997E+02  0.45594000000E+02  0.51100000000E-03 0. -1.
         11   -1    0    0    0    0 -0.00000000000E+00 -0.00000000000E+00 -0.45593999997E+02  0.45594000000E+02  0.51100000000E-03 0.  1.
    9900012    2    1    2    0    0 -0.12987563712E+02  0.14606249020E+01  0.13411210954E+02  0.72461793349E+02  0.70000290569E+02 0.  0.
        -12    1    1    2    0    0  0.12987563712E+02 -0.14606249020E+01 -0.13411210954E+02  0.18726206651E+02  0.00000000000E+00 0.  1.
         11    1    3    3    0    0  0.13941805730E+02 -0.10956284921E+02 -0.10090130839E+01  0.17760411987E+02  0.51100000000E-03 0. -1.
        -11    1    3    3    0    0 -0.16048972522E+02 -0.15262637547E+02  0.12739729975E+01  0.22184242862E+02  0.51100000000E-03 0.  1.
         12    1    3    3    0    0 -0.10880396920E+02  0.27679547371E+02  0.13146251041E+02  0.32517138499E+02  0.00000000000E+00 0. -1.
</event>
<event>
 7    1  0.2577508E-013  0.7246158E+02  0.7816164E-02  0.1226708E+00
        -11   -1    0    0    0    0  0.00000000000E+00  0.00000000000E+00  0.45593999997E+02  0.45594000000E+02  0.51100000000E-03 0.  1.
         11   -1    0    0    0    0 -0.00000000000E+00 -0.00000000000E+00 -0.45593999997E+02  0.45594000000E+02  0.51100000000E-03 0. -1.
    9900012    2    1    2    0    0 -0.94229067995E+01 -0.16174131762E+02 -0.53388805540E+00  0.72461581569E+02  0.70000014687E+02 0.  0.
        -12    1    1    2    0    0  0.94229067995E+01  0.16174131762E+02  0.53388805540E+00  0.18726418431E+02  0.00000000000E+00 0.  1.
         11    1    3    3    0    0  0.35872371516E+01 -0.22586852955E+01  0.42724072502E+01  0.60185873440E+01  0.51100000000E-03 0. -1.
        -11    1    3    3    0    0  0.16483648771E+02  0.11894756513E+02 -0.15791185012E+02  0.25740191018E+02  0.51100000000E-03 0.  1.
         12    1    3    3    0    0 -0.29493792722E+02 -0.25810202980E+02  0.10984889707E+02  0.40702803206E+02  0.00000000000E+00 0. -1.
</event>
<event>
 7    1  0.2577508E-013  0.7246161E+02  0.7816164E-02  0.1226708E+00
        -11   -1    0    0    0    0  0.00000000000E+00  0.00000000000E+00  0.45593999997E+02  0.45594000000E+02  0.51100000000E-03 0.  1.
         11   -1    0    0    0    0 -0.00000000000E+00 -0.00000000000E+00 -0.45593999997E+02  0.45594000000E+02  0.51100000000E-03 0. -1.
    9900012    2    1    2    0    0 -0.16899853597E+02  0.64364182120E+01 -0.48626425724E+01  0.72461606226E+02  0.70000046807E+02 0.  0.
        -12    1    1    2    0    0  0.16899853597E+02 -0.64364182120E+01  0.48626425724E+01  0.18726393774E+02  0.00000000000E+00 0.  1.
         11    1    3    3    0    0  0.26322552886E+01 -0.61444308964E+00  0.42133425226E+01  0.50058529432E+01  0.51100000000E-03 0. -1.
        -11    1    3    3    0    0 -0.22942028686E+02  0.18555564945E+02  0.20238482168E+02  0.35780467177E+02  0.51100000000E-03 0.  1.
         12    1    3    3    0    0  0.34099198006E+01 -0.11504703643E+02 -0.29314467263E+02  0.31675286106E+02  0.00000000000E+00 0. -1.
</event>
<event>
 7    1  0.2577508E-013  0.7246154E+02  0.7816164E-02  0.1226708E+00
        -11   -1    0    0    0    0  0.00000000000E+00  0.00000000000E+00  0.45593999997E+02  0.45594000000E+02  0.51100000000E-03 0. -1.
         11   -1    0    0    0    0 -0.00000000000E+00 -0.00000000000E+00 -0.45593999997E+02  0.45594000000E+02  0.51100000000E-03 0.  1.
    9900012    2    1    2    0    0 -0.48710594617E+01  0.14355636568E+02  0.10994039842E+02  0.72461536544E+02  0.69999956033E+02 0.  0.
        -12    1    1    2    0    0  0.48710594617E+01 -0.14355636568E+02 -0.10994039842E+02  0.18726463456E+02  0.00000000000E+00 0.  1.
         11    1    3    3    0    0 -0.17357658365E+02  0.12269419977E+02  0.12090609832E+02  0.24454239241E+02  0.51100000000E-03 0. -1.
        -11    1    3    3    0    0 -0.14539180718E+02  0.86074767008E+01  0.80825072796E+01  0.18729745201E+02  0.51100000000E-03 0.  1.
        -12    1    3    3    0    0  0.27025779621E+02 -0.65212601099E+01 -0.91790772697E+01  0.29277552102E+02  0.00000000000E+00 0.  1.
</event>
<event>
 7    1  0.2577508E-013  0.7246162E+02  0.7816164E-02  0.1226708E+00
        -11   -1    0    0    0    0  0.00000000000E+00  0.00000000000E+00  0.45593999997E+02  0.45594000000E+02  0.51100000000E-03 0.  1.
         11   -1    0    0    0    0 -0.00000000000E+00 -0.00000000000E+00 -0.45593999997E+02  0.45594000000E+02  0.51100000000E-03 0. -1.
    9900012    2    1    2    0    0  0.17898021684E+02 -0.43185711765E+01  0.34188010350E+01  0.72461616534E+02  0.70000060235E+02 0.  0.
        -12    1    1    2    0    0 -0.17898021684E+02  0.43185711765E+01 -0.34188010350E+01  0.18726383466E+02  0.00000000000E+00 0.  1.
         11    1    3    3    0    0  0.65922477215E+01 -0.17882689492E+01 -0.12016291072E+02  0.13821971178E+02  0.51100000000E-03 0. -1.
        -11    1    3    3    0    0  0.10887808022E+02  0.22344350638E+02  0.21688086499E+02  0.32987686569E+02  0.51100000000E-03 0.  1.
         12    1    3    3    0    0  0.41796594034E+00 -0.24874652865E+02 -0.62529943917E+01  0.25651958786E+02  0.00000000000E+00 0. -1.
</event>
<event>
 7    1  0.2577508E-013  0.7246143E+02  0.7816164E-02  0.1226708E+00
        -11   -1    0    0    0    0  0.00000000000E+00  0.00000000000E+00  0.45593999997E+02  0.45594000000E+02  0.51100000000E-03 0.  1.
         11   -1    0    0    0    0 -0.00000000000E+00 -0.00000000000E+00 -0.45593999997E+02  0.45594000000E+02  0.51100000000E-03 0. -1.
    9900012    2    1    2    0    0 -0.62918519215E+01  0.15645895993E+02 -0.81426552695E+01  0.72461433393E+02  0.69999821661E+02 0.  0.
        -12    1    1    2    0    0  0.62918519215E+01 -0.15645895993E+02  0.81426552695E+01  0.18726566607E+02  0.00000000000E+00 0.  1.
         11    1    3    3    0    0 -0.30902941745E+00 -0.12999434150E+02 -0.14195321206E+02  0.19250660555E+02  0.51100000000E-03 0. -1.
        -11    1    3    3    0    0 -0.23680293711E+02  0.24922604583E+02  0.83674947731E+00  0.34388845275E+02  0.51100000000E-03 0.  1.
         12    1    3    3    0    0  0.17697471206E+02  0.37227255605E+01  0.52159164592E+01  0.18821927564E+02  0.00000000000E+00 0. -1.
</event>
<event>
 7    1  0.2577508E-013  0.7246153E+02  0.7816164E-02  0.1226708E+00
        -11   -1    0    0    0    0  0.00000000000E+00  0.00000000000E+00  0.45593999997E+02  0.45594000000E+02  0.51100000000E-03 0.  1.
         11   -1    0    0    0    0 -0.00000000000E+00 -0.00000000000E+00 -0.45593999997E+02  0.45594000000E+02  0.51100000000E-03 0. -1.
    9900012    2    1    2    0    0 -0.12674225073E+01  0.17259881845E+02 -0.71533695255E+01  0.72461532723E+02  0.69999951056E+02 0.  0.
        -12    1    1    2    0    0  0.12674225073E+01 -0.17259881845E+02  0.71533695255E+01  0.18726467277E+02  0.00000000000E+00 0.  1.
         11    1    3    3    0    0 -0.12440712350E+02 -0.13257035352E+02 -0.32793837092E+01  0.18473620865E+02  0.51100000000E-03 0. -1.
        -11    1    3    3    0    0 -0.39628549389E+01 -0.30574787303E+00 -0.16825082406E+02  0.17288178020E+02  0.51100000000E-03 0.  1.
        -12    1    3    3    0    0  0.15136144782E+02  0.30822665070E+02  0.12951096589E+02  0.36699733837E+02  0.00000000000E+00 0.  1.
</event>
<event>
 7    1  0.2577508E-013  0.7246159E+02  0.7816164E-02  0.1226708E+00
        -11   -1    0    0    0    0  0.00000000000E+00  0.00000000000E+00  0.45593999997E+02  0.45594000000E+02  0.51100000000E-03 0.  1.
         11   -1    0    0    0    0 -0.00000000000E+00 -0.00000000000E+00 -0.45593999997E+02  0.45594000000E+02  0.51100000000E-03 0. -1.
    9900012    2    1    2    0    0  0.14399727308E+02  0.11887527664E+02  0.14188439460E+01  0.72461586071E+02  0.70000020551E+02 0.  0.
        -12    1    1    2    0    0 -0.14399727308E+02 -0.11887527664E+02 -0.14188439460E+01  0.18726413929E+02  0.00000000000E+00 0.  1.
         11    1    3    3    0    0 -0.54398682930E+01  0.48491791847E+01  0.10683396021E+01  0.73653279341E+01  0.51100000000E-03 0. -1.
        -11    1    3    3    0    0 -0.18644503134E+02  0.90180182833E+01 -0.12837730651E+02  0.24366975179E+02  0.51100000000E-03 0.  1.
        -12    1    3    3    0    0  0.38484098735E+02 -0.19796698036E+01  0.13188234995E+02  0.40729282957E+02  0.00000000000E+00 0.  1.
</event>
<event>
 7    1  0.2577508E-013  0.7246157E+02  0.7816164E-02  0.1226708E+00
        -11   -1    0    0    0    0  0.00000000000E+00  0.00000000000E+00  0.45593999997E+02  0.45594000000E+02  0.51100000000E-03 0.  1.
         11   -1    0    0    0    0 -0.00000000000E+00 -0.00000000000E+00 -0.45593999997E+02  0.45594000000E+02  0.51100000000E-03 0. -1.
    9900012    2    1    2    0    0 -0.34925704709E+01 -0.14645019251E+02 -0.11135727855E+02  0.72461572892E+02  0.70000003385E+02 0.  0.
        -12    1    1    2    0    0  0.34925704709E+01  0.14645019251E+02  0.11135727855E+02  0.18726427108E+02  0.00000000000E+00 0.  1.
         11    1    3    3    0    0  0.21376004419E+02 -0.77886072785E+01 -0.44513747132E+01  0.23182120381E+02  0.51100000000E-03 0.  1.
        -11    1    3    3    0    0 -0.25796156713E+02 -0.12907557319E+02  0.10764132171E+02  0.30788200317E+02  0.51100000000E-03 0. -1.
         12    1    3    3    0    0  0.92758182360E+00  0.60511453463E+01 -0.17448485313E+02  0.18491252195E+02  0.00000000000E+00 0. -1.
</event>
<event>
 7    1  0.2577508E-013  0.7246153E+02  0.7816164E-02  0.1226708E+00
        -11   -1    0    0    0    0  0.00000000000E+00  0.00000000000E+00  0.45593999997E+02  0.45594000000E+02  0.51100000000E-03 0. -1.
         11   -1    0    0    0    0 -0.00000000000E+00 -0.00000000000E+00 -0.45593999997E+02  0.45594000000E+02  0.51100000000E-03 0.  1.
    9900012    2    1    2    0    0 -0.65383863408E+01 -0.46212068021E+01  0.16928516942E+02  0.72461528520E+02  0.69999945581E+02 0.  0.
        -12    1    1    2    0    0  0.65383863408E+01  0.46212068021E+01 -0.16928516942E+02  0.18726471480E+02  0.00000000000E+00 0.  1.
         11    1    3    3    0    0 -0.11092190575E+02 -0.73773710070E+01 -0.28430404562E+01  0.13621496762E+02  0.51100000000E-03 0. -1.
        -11    1    3    3    0    0 -0.23156223052E+02 -0.47868366361E+01 -0.56122094386E+00  0.23652472180E+02  0.51100000000E-03 0.  1.
         12    1    3    3    0    0  0.27710027287E+02  0.75430008409E+01  0.20332778342E+02  0.35187559578E+02  0.00000000000E+00 0. -1.
</event>
<event>
 7    1  0.2577508E-013  0.7246156E+02  0.7816164E-02  0.1226708E+00
        -11   -1    0    0    0    0  0.00000000000E+00  0.00000000000E+00  0.45593999997E+02  0.45594000000E+02  0.51100000000E-03 0. -1.
         11   -1    0    0    0    0 -0.00000000000E+00 -0.00000000000E+00 -0.45593999997E+02  0.45594000000E+02  0.51100000000E-03 0.  1.
    9900012    2    1    2    0    0  0.51775694698E+01 -0.56311323098E+01  0.17092761535E+02  0.72461564845E+02  0.69999992902E+02 0.  0.
        -12    1    1    2    0    0 -0.51775694698E+01  0.56311323098E+01 -0.17092761535E+02  0.18726435155E+02  0.00000000000E+00 0.  1.
         11    1    3    3    0    0  0.24333027678E+02  0.15791478123E+02  0.51246226669E+01  0.29457236378E+02  0.51100000000E-03 0. -1.
        -11    1    3    3    0    0  0.63704786563E+01  0.18671897375E+01  0.31212286809E+01  0.73356298002E+01  0.51100000000E-03 0.  1.
        -12    1    3    3    0    0 -0.25525936864E+02 -0.23289800170E+02  0.88469101872E+01  0.35668698667E+02  0.00000000000E+00 0.  1.
</event>
<event>
 7    1  0.2577508E-013  0.7246160E+02  0.7816164E-02  0.1226708E+00
        -11   -1    0    0    0    0  0.00000000000E+00  0.00000000000E+00  0.45593999997E+02  0.45594000000E+02  0.51100000000E-03 0.  1.
         11   -1    0    0    0    0 -0.00000000000E+00 -0.00000000000E+00 -0.45593999997E+02  0.45594000000E+02  0.51100000000E-03 0. -1.
    9900012    2    1    2    0    0 -0.15537218373E+02  0.41014419664E+01 -0.96151573836E+01  0.72461595313E+02  0.70000032591E+02 0.  0.
        -12    1    1    2    0    0  0.15537218373E+02 -0.41014419664E+01  0.96151573836E+01  0.18726404687E+02  0.00000000000E+00 0.  1.
         11    1    3    3    0    0 -0.41198650408E+00 -0.57363113295E+00 -0.12144477247E+02  0.12164995414E+02  0.51100000000E-03 0. -1.
        -11    1    3    3    0    0  0.11178666051E+02 -0.20531392922E+02  0.45214155263E+01  0.23810583122E+02  0.51100000000E-03 0.  1.
        -12    1    3    3    0    0 -0.26303897921E+02  0.25206466021E+02 -0.19920956631E+01  0.36486016777E+02  0.00000000000E+00 0.  1.
</event>
<event>
 7    1  0.2577508E-013  0.7246156E+02  0.7816164E-02  0.1226708E+00
        -11   -1    0    0    0    0  0.00000000000E+00  0.00000000000E+00  0.45593999997E+02  0.45594000000E+02  0.51100000000E-03 0.  1.
         11   -1    0    0    0    0 -0.00000000000E+00 -0.00000000000E+00 -0.45593999997E+02  0.45594000000E+02  0.51100000000E-03 0. -1.
    9900012    2    1    2    0    0  0.46790571831E+01  0.14389620481E+02 -0.11032904756E+02  0.72461555035E+02  0.69999980121E+02 0.  0.
        -12    1    1    2    0    0 -0.46790571831E+01 -0.14389620481E+02  0.11032904756E+02  0.18726444965E+02  0.00000000000E+00 0.  1.
         11    1    3    3    0    0  0.10698115980E+02 -0.25103904955E+01 -0.75701897180E+01  0.13343894431E+02  0.51100000000E-03 0. -1.
        -11    1    3    3    0    0  0.20194233550E+02  0.18359768750E+02  0.10666803210E+02  0.29303052199E+02  0.51100000000E-03 0.  1.
         12    1    3    3    0    0 -0.26213292346E+02 -0.14597577739E+01 -0.14129518248E+02  0.29814608404E+02  0.00000000000E+00 0. -1.
</event>
<event>
 7    1  0.2577508E-013  0.7246159E+02  0.7816164E-02  0.1226708E+00
        -11   -1    0    0    0    0  0.00000000000E+00  0.00000000000E+00  0.45593999997E+02  0.45594000000E+02  0.51100000000E-03 0. -1.
         11   -1    0    0    0    0 -0.00000000000E+00 -0.00000000000E+00 -0.45593999997E+02  0.45594000000E+02  0.51100000000E-03 0.  1.
    9900012    2    1    2    0    0 -0.12557271183E+02 -0.66985585803E+01  0.12170573592E+02  0.72461585282E+02  0.70000019525E+02 0.  0.
        -12    1    1    2    0    0  0.12557271183E+02  0.66985585803E+01 -0.12170573592E+02  0.18726414718E+02  0.00000000000E+00 0.  1.
         11    1    3    3    0    0  0.46010208574E+01 -0.21245604386E+02  0.13741722431E+02  0.25717310013E+02  0.51100000000E-03 0. -1.
        -11    1    3    3    0    0 -0.15312198685E+02 -0.86090730901E+01 -0.12007343976E+02  0.21278060947E+02  0.51100000000E-03 0.  1.
         12    1    3    3    0    0 -0.18460933555E+01  0.23156118896E+02  0.10436195138E+02  0.25466214323E+02  0.00000000000E+00 0. -1.
</event>
<event>
 7    1  0.2577508E-013  0.7246166E+02  0.7816164E-02  0.1226708E+00
        -11   -1    0    0    0    0  0.00000000000E+00  0.00000000000E+00  0.45593999997E+02  0.45594000000E+02  0.51100000000E-03 0.  1.
         11   -1    0    0    0    0 -0.00000000000E+00 -0.00000000000E+00 -0.45593999997E+02  0.45594000000E+02  0.51100000000E-03 0. -1.
    9900012    2    1    2    0    0  0.11212771006E+02  0.51336683680E+01 -0.14092380947E+02  0.72461655314E+02  0.70000110754E+02 0.  0.
        -12    1    1    2    0    0 -0.11212771006E+02 -0.51336683680E+01  0.14092380947E+02  0.18726344686E+02  0.00000000000E+00 0.  1.
         11    1    3    3    0    0  0.11162183471E+02 -0.14565619280E+01 -0.22049258910E+00  0.11258975519E+02  0.51100000000E-03 0. -1.
        -11    1    3    3    0    0 -0.19400113023E+02 -0.55355716814E+01  0.14414957396E+02  0.24795119200E+02  0.51100000000E-03 0.  1.
         12    1    3    3    0    0  0.19450700559E+02  0.12125801977E+02 -0.28286845754E+02  0.36407560595E+02  0.00000000000E+00 0. -1.
</event>
<event>
 7    1  0.2577508E-013  0.7246156E+02  0.7816164E-02  0.1226708E+00
        -11   -1    0    0    0    0  0.00000000000E+00  0.00000000000E+00  0.45593999997E+02  0.45594000000E+02  0.51100000000E-03 0. -1.
         11   -1    0    0    0    0 -0.00000000000E+00 -0.00000000000E+00 -0.45593999997E+02  0.45594000000E+02  0.51100000000E-03 0.  1.
    9900012    2    1    2    0    0  0.14919157337E+02 -0.59324735012E+01  0.96386774643E+01  0.72461558781E+02  0.69999985001E+02 0.  0.
        -12    1    1    2    0    0 -0.14919157337E+02  0.59324735012E+01 -0.96386774643E+01  0.18726441219E+02  0.00000000000E+00 0.  1.
         11    1    3    3    0    0  0.19951991929E+02 -0.24160435689E+02  0.34645546230E+01  0.31524780310E+02  0.51100000000E-03 0. -1.
        -11    1    3    3    0    0 -0.13744726585E+02 -0.37977192324E+01 -0.45052881550E+01  0.14954524462E+02  0.51100000000E-03 0.  1.
        -12    1    3    3    0    0  0.87118919926E+01  0.22025681421E+02  0.10679410996E+02  0.25982254008E+02  0.00000000000E+00 0.  1.
</event>
<event>
 7    1  0.2577508E-013  0.7246150E+02  0.7816164E-02  0.1226708E+00
        -11   -1    0    0    0    0  0.00000000000E+00  0.00000000000E+00  0.45593999997E+02  0.45594000000E+02  0.51100000000E-03 0.  1.
         11   -1    0    0    0    0 -0.00000000000E+00 -0.00000000000E+00 -0.45593999997E+02  0.45594000000E+02  0.51100000000E-03 0. -1.
    9900012    2    1    2    0    0 -0.17936963379E+02  0.40927893328E+01  0.34923007639E+01  0.72461501545E+02  0.69999910441E+02 0.  0.
        -12    1    1    2    0    0  0.17936963379E+02 -0.40927893328E+01 -0.34923007639E+01  0.18726498455E+02  0.00000000000E+00 0.  1.
         11    1    3    3    0    0 -0.27957675808E+02 -0.10435567771E+02  0.73842804846E+01  0.30741833222E+02  0.51100000000E-03 0. -1.
        -11    1    3    3    0    0 -0.17937660630E+01  0.25296028371E+02 -0.43400737646E+01  0.25728250787E+02  0.51100000000E-03 0.  1.
        -12    1    3    3    0    0  0.11814478492E+02 -0.10767671267E+02  0.44809404387E+00  0.15991417536E+02  0.00000000000E+00 0.  1.
</event>
<event>
 7    1  0.2577508E-013  0.7246156E+02  0.7816164E-02  0.1226708E+00
        -11   -1    0    0    0    0  0.00000000000E+00  0.00000000000E+00  0.45593999997E+02  0.45594000000E+02  0.51100000000E-03 0. -1.
         11   -1    0    0    0    0 -0.00000000000E+00 -0.00000000000E+00 -0.45593999997E+02  0.45594000000E+02  0.51100000000E-03 0.  1.
    9900012    2    1    2    0    0 -0.45659145162E+01 -0.17883774763E+02 -0.31626624591E+01  0.72461563901E+02  0.69999991672E+02 0.  0.
        -12    1    1    2    0    0  0.45659145162E+01  0.17883774763E+02  0.31626624591E+01  0.18726436099E+02  0.00000000000E+00 0.  1.
         11    1    3    3    0    0 -0.99963871841E+01 -0.27396815027E+02 -0.40109625288E+01  0.29438088440E+02  0.51100000000E-03 0. -1.
        -11    1    3    3    0    0  0.72664462805E+01 -0.12125431746E+02  0.12062128476E+02  0.18582849087E+02  0.51100000000E-03 0.  1.
        -12    1    3    3    0    0 -0.18359736125E+01  0.21638472010E+02 -0.11213828406E+02  0.24440626374E+02  0.00000000000E+00 0.  1.
</event>
<event>
 7    1  0.2577508E-013  0.7246160E+02  0.7816164E-02  0.1226708E+00
        -11   -1    0    0    0    0  0.00000000000E+00  0.00000000000E+00  0.45593999997E+02  0.45594000000E+02  0.51100000000E-03 0.  1.
         11   -1    0    0    0    0 -0.00000000000E+00 -0.00000000000E+00 -0.45593999997E+02  0.45594000000E+02  0.51100000000E-03 0. -1.
    9900012    2    1    2    0    0 -0.12133771943E+02 -0.39895286627E+01  0.13694285371E+02  0.72461595851E+02  0.70000033292E+02 0.  0.
        -12    1    1    2    0    0  0.12133771943E+02  0.39895286627E+01 -0.13694285371E+02  0.18726404149E+02  0.00000000000E+00 0.  1.
         11    1    3    3    0    0 -0.83680303404E+01 -0.76188223716E+01  0.11384886078E+02  0.16052601577E+02  0.51100000000E-03 0. -1.
        -11    1    3    3    0    0 -0.13702319918E+02 -0.15197712626E+02  0.20086760359E+02  0.28674064626E+02  0.51100000000E-03 0.  1.
         12    1    3    3    0    0  0.99365783149E+01  0.18827006335E+02 -0.17777361066E+02  0.27734929649E+02  0.00000000000E+00 0. -1.
</event>
<event>
 7    1  0.2577508E-013  0.7246157E+02  0.7816164E-02  0.1226708E+00
        -11   -1    0    0    0    0  0.00000000000E+00  0.00000000000E+00  0.45593999997E+02  0.45594000000E+02  0.51100000000E-03 0. -1.
         11   -1    0    0    0    0 -0.00000000000E+00 -0.00000000000E+00 -0.45593999997E+02  0.45594000000E+02  0.51100000000E-03 0.  1.
    9900012    2    1    2    0    0  0.94514604678E+01 -0.13927187632E+00  0.16165697113E+02  0.72461567751E+02  0.69999996687E+02 0.  0.
        -12    1    1    2    0    0 -0.94514604678E+01  0.13927187632E+00 -0.16165697113E+02  0.18726432249E+02  0.00000000000E+00 0.  1.
         11    1    3    3    0    0  0.10150236612E+02 -0.66583652462E+01 -0.58847675681E+01  0.13490426999E+02  0.51100000000E-03 0. -1.
        -11    1    3    3    0    0 -0.26771077692E+01 -0.23532822398E+02  0.44834269022E+01  0.24105222527E+02  0.51100000000E-03 0.  1.
         12    1    3    3    0    0  0.19783316253E+01  0.30051915768E+02  0.17567037779E+02  0.34865918225E+02  0.00000000000E+00 0. -1.
</event>
<event>
 7    1  0.2577508E-013  0.7246158E+02  0.7816164E-02  0.1226708E+00
        -11   -1    0    0    0    0  0.00000000000E+00  0.00000000000E+00  0.45593999997E+02  0.45594000000E+02  0.51100000000E-03 0.  1.
         11   -1    0    0    0    0 -0.00000000000E+00 -0.00000000000E+00 -0.45593999997E+02  0.45594000000E+02  0.51100000000E-03 0. -1.
    9900012    2    1    2    0    0 -0.16370710332E+02 -0.68698078964E+01  0.59568673520E+01  0.72461583206E+02  0.70000016819E+02 0.  0.
        -12    1    1    2    0    0  0.16370710332E+02  0.68698078964E+01 -0.59568673520E+01  0.18726416794E+02  0.00000000000E+00 0.  1.
         11    1    3    3    0    0  0.37413655672E+00  0.56807306802E+01  0.76103473430E+01  0.95041078575E+01  0.51100000000E-03 0. -1.
        -11    1    3    3    0    0 -0.19432394146E+02 -0.43664136765E+01  0.26708007090E+02  0.33316679811E+02  0.51100000000E-03 0.  1.
         12    1    3    3    0    0  0.26875472572E+01 -0.81841249001E+01 -0.28361487081E+02  0.29640795537E+02  0.00000000000E+00 0. -1.
</event>
<event>
 7    1  0.2577508E-013  0.7246159E+02  0.7816164E-02  0.1226708E+00
        -11   -1    0    0    0    0  0.00000000000E+00  0.00000000000E+00  0.45593999997E+02  0.45594000000E+02  0.51100000000E-03 0.  1.
         11   -1    0    0    0    0 -0.00000000000E+00 -0.00000000000E+00 -0.45593999997E+02  0.45594000000E+02  0.51100000000E-03 0. -1.
    9900012    2    1    2    0    0 -0.62801803782E+01 -0.44322505130E+00 -0.17636361563E+02  0.72461591823E+02  0.70000028045E+02 0.  0.
        -12    1    1    2    0    0  0.62801803782E+01  0.44322505130E+00  0.17636361563E+02  0.18726408177E+02  0.00000000000E+00 0.  1.
         11    1    3    3    0    0 -0.82031158966E+00 -0.22203662692E+02 -0.25442990656E+02  0.33779007117E+02  0.51100000000E-03 0. -1.
        -11    1    3    3    0    0  0.10673604917E+01  0.19407557841E+02 -0.83077848958E+01  0.21137924447E+02  0.51100000000E-03 0.  1.
        -12    1    3    3    0    0 -0.65272292803E+01  0.23528797990E+01  0.16114413988E+02  0.17544660259E+02  0.00000000000E+00 0.  1.
</event>
<event>
 7    1  0.2577508E-013  0.7246161E+02  0.7816164E-02  0.1226708E+00
        -11   -1    0    0    0    0  0.00000000000E+00  0.00000000000E+00  0.45593999997E+02  0.45594000000E+02  0.51100000000E-03 0.  1.
         11   -1    0    0    0    0 -0.00000000000E+00 -0.00000000000E+00 -0.45593999997E+02  0.45594000000E+02  0.51100000000E-03 0. -1.
    9900012    2    1    2    0    0  0.76355293256E+01  0.27183570071E+01 -0.16881550689E+02  0.72461614161E+02  0.70000057145E+02 0.  0.
        -12    1    1    2    0    0 -0.76355293256E+01 -0.27183570071E+01  0.16881550689E+02  0.18726385839E+02  0.00000000000E+00 0.  1.
         11    1    3    3    0    0  0.89334034311E+01  0.18148502028E+02 -0.25351169804E+02  0.32432323897E+02  0.51100000000E-03 0. -1.
        -11    1    3    3    0    0  0.31964982679E+01 -0.33970963653E+01 -0.13664120154E+02  0.14438353256E+02  0.51100000000E-03 0.  1.
        -12    1    3    3    0    0 -0.44943723735E+01 -0.12033048655E+02  0.22133739268E+02  0.25590937008E+02  0.00000000000E+00 0.  1.
</event>
<event>
 7    1  0.2577508E-013  0.7246155E+02  0.7816164E-02  0.1226708E+00
        -11   -1    0    0    0    0  0.00000000000E+00  0.00000000000E+00  0.45593999997E+02  0.45594000000E+02  0.51100000000E-03 0.  1.
         11   -1    0    0    0    0 -0.00000000000E+00 -0.00000000000E+00 -0.45593999997E+02  0.45594000000E+02  0.51100000000E-03 0. -1.
    9900012    2    1    2    0    0 -0.14789292812E+02  0.10750849946E+02 -0.40467147368E+01  0.72461551949E+02  0.69999976102E+02 0.  0.
        -12    1    1    2    0    0  0.14789292812E+02 -0.10750849946E+02  0.40467147368E+01  0.18726448051E+02  0.00000000000E+00 0.  1.
         11    1    3    3    0    0 -0.14652579789E+02  0.10517088319E+02  0.98667363801E+00  0.18063243516E+02  0.51100000000E-03 0. -1.
        -11    1    3    3    0    0  0.11315200660E+02  0.24496291759E+02 -0.56203800848E+01  0.27562488068E+02  0.51100000000E-03 0.  1.
        -12    1    3    3    0    0 -0.11451913683E+02 -0.24262530132E+02  0.58699171000E+00  0.26835820365E+02  0.00000000000E+00 0.  1.
</event>
<event>
 7    1  0.2577508E-013  0.7246156E+02  0.7816164E-02  0.1226708E+00
        -11   -1    0    0    0    0  0.00000000000E+00  0.00000000000E+00  0.45593999997E+02  0.45594000000E+02  0.51100000000E-03 0. -1.
         11   -1    0    0    0    0 -0.00000000000E+00 -0.00000000000E+00 -0.45593999997E+02  0.45594000000E+02  0.51100000000E-03 0.  1.
    9900012    2    1    2    0    0 -0.17476255524E+02  0.56243778142E+01  0.36913884308E+01  0.72461561965E+02  0.69999989149E+02 0.  0.
        -12    1    1    2    0    0  0.17476255524E+02 -0.56243778142E+01 -0.36913884308E+01  0.18726438035E+02  0.00000000000E+00 0.  1.
         11    1    3    3    0    0 -0.38862727645E+01 -0.94950325538E-01  0.13670874716E+02  0.14212844449E+02  0.51100000000E-03 0. -1.
        -11    1    3    3    0    0 -0.85107289314E+01  0.11674738227E+02  0.21448557316E+02  0.25860638639E+02  0.51100000000E-03 0.  1.
        -12    1    3    3    0    0 -0.50792538282E+01 -0.59554100874E+01 -0.31428043601E+02  0.32388078877E+02  0.00000000000E+00 0.  1.
</event>
<event>
 7    1  0.2577508E-013  0.7246158E+02  0.7816164E-02  0.1226708E+00
        -11   -1    0    0    0    0  0.00000000000E+00  0.00000000000E+00  0.45593999997E+02  0.45594000000E+02  0.51100000000E-03 0. -1.
         11   -1    0    0    0    0 -0.00000000000E+00 -0.00000000000E+00 -0.45593999997E+02  0.45594000000E+02  0.51100000000E-03 0.  1.
    9900012    2    1    2    0    0 -0.90122715098E+01  0.10622210249E+02  0.12515054002E+02  0.72461575755E+02  0.70000007113E+02 0.  0.
        -12    1    1    2    0    0  0.90122715098E+01 -0.10622210249E+02 -0.12515054002E+02  0.18726424245E+02  0.00000000000E+00 0.  1.
         11    1    3    3    0    0 -0.29762758501E+02 -0.55488467976E+01  0.18289161664E+02  0.35370961664E+02  0.51100000000E-03 0. -1.
        -11    1    3    3    0    0  0.31878317561E+01 -0.64911960125E+01  0.17670264905E+01  0.74444798245E+01  0.51100000000E-03 0.  1.
        -12    1    3    3    0    0  0.17562655235E+02  0.22662253059E+02 -0.75411341524E+01  0.29646134266E+02  0.00000000000E+00 0.  1.
</event>
<event>
 7    1  0.2577508E-013  0.7246157E+02  0.7816164E-02  0.1226708E+00
        -11   -1    0    0    0    0  0.00000000000E+00  0.00000000000E+00  0.45593999997E+02  0.45594000000E+02  0.51100000000E-03 0.  1.
         11   -1    0    0    0    0 -0.00000000000E+00 -0.00000000000E+00 -0.45593999997E+02  0.45594000000E+02  0.51100000000E-03 0. -1.
    9900012    2    1    2    0    0  0.16115594032E+02 -0.64503639162E+01 -0.70256524157E+01  0.72461565274E+02  0.69999993461E+02 0.  0.
        -12    1    1    2    0    0 -0.16115594032E+02  0.64503639162E+01  0.70256524157E+01  0.18726434726E+02  0.00000000000E+00 0.  1.
         11    1    3    3    0    0  0.15281557626E+02  0.83192159478E+01 -0.13973641811E+02  0.22315869312E+02  0.51100000000E-03 0. -1.
        -11    1    3    3    0    0  0.11698048559E+02  0.14378780020E+02  0.32589317891E+01  0.18820581596E+02  0.51100000000E-03 0.  1.
         12    1    3    3    0    0 -0.10864012152E+02 -0.29148359884E+02  0.36890576059E+01  0.31325114366E+02  0.00000000000E+00 0. -1.
</event>
<event>
 7    1  0.2577508E-013  0.7246158E+02  0.7816164E-02  0.1226708E+00
        -11   -1    0    0    0    0  0.00000000000E+00  0.00000000000E+00  0.45593999997E+02  0.45594000000E+02  0.51100000000E-03 0. -1.
         11   -1    0    0    0    0 -0.00000000000E+00 -0.00000000000E+00 -0.45593999997E+02  0.45594000000E+02  0.51100000000E-03 0.  1.
    9900012    2    1    2    0    0  0.31446900063E+01  0.12355551768E+02  0.13716045587E+02  0.72461584399E+02  0.70000018373E+02 0.  0.
        -12    1    1    2    0    0 -0.31446900063E+01 -0.12355551768E+02 -0.13716045587E+02  0.18726415601E+02  0.00000000000E+00 0.  1.
         11    1    3    3    0    0  0.36239491860E+01  0.14730931974E+02  0.11080028413E+02  0.18785643305E+02  0.51100000000E-03 0. -1.
        -11    1    3    3    0    0  0.72251250131E+01  0.13468460132E+02 -0.19886514902E+02  0.25081374065E+02  0.51100000000E-03 0.  1.
        -12    1    3    3    0    0 -0.77043841928E+01 -0.15843840338E+02  0.22522532076E+02  0.28594567028E+02  0.00000000000E+00 0.  1.
</event>
<event>
 7    1  0.2577508E-013  0.7246152E+02  0.7816164E-02  0.1226708E+00
        -11   -1    0    0    0    0  0.00000000000E+00  0.00000000000E+00  0.45593999997E+02  0.45594000000E+02  0.51100000000E-03 0. -1.
         11   -1    0    0    0    0 -0.00000000000E+00 -0.00000000000E+00 -0.45593999997E+02  0.45594000000E+02  0.51100000000E-03 0.  1.
    9900012    2    1    2    0    0  0.52418546518E+01 -0.70527554017E+01  0.16536711014E+02  0.72461515810E+02  0.69999929024E+02 0.  0.
        -12    1    1    2    0    0 -0.52418546518E+01  0.70527554017E+01 -0.16536711014E+02  0.18726484190E+02  0.00000000000E+00 0.  1.
         11    1    3    3    0    0 -0.66837735025E+01  0.60991189713E+01  0.28764262626E+01  0.94945199333E+01  0.51100000000E-03 0. -1.
        -11    1    3    3    0    0 -0.19519883550E+02  0.92327304426E+01  0.11109921545E+02  0.24283729578E+02  0.51100000000E-03 0.  1.
         12    1    3    3    0    0  0.31445511704E+02 -0.22384604816E+02  0.25503632069E+01  0.38683266299E+02  0.00000000000E+00 0. -1.
</event>
<event>
 7    1  0.2577508E-013  0.7246153E+02  0.7816164E-02  0.1226708E+00
        -11   -1    0    0    0    0  0.00000000000E+00  0.00000000000E+00  0.45593999997E+02  0.45594000000E+02  0.51100000000E-03 0. -1.
         11   -1    0    0    0    0 -0.00000000000E+00 -0.00000000000E+00 -0.45593999997E+02  0.45594000000E+02  0.51100000000E-03 0.  1.
    9900012    2    1    2    0    0 -0.79697351584E+01 -0.18104772548E+01  0.16848917235E+02  0.72461534279E+02  0.69999953084E+02 0.  0.
        -12    1    1    2    0    0  0.79697351584E+01  0.18104772548E+01 -0.16848917235E+02  0.18726465721E+02  0.00000000000E+00 0.  1.
         11    1    3    3    0    0  0.13003467959E+02  0.82546538893E+01  0.66935038600E+01  0.16793822792E+02  0.51100000000E-03 0.  1.
        -11    1    3    3    0    0 -0.33749790557E+02  0.47861678283E+01  0.11641505650E+02  0.36020555509E+02  0.51100000000E-03 0. -1.
         12    1    3    3    0    0  0.12776587440E+02 -0.14851298972E+02 -0.14860922750E+01  0.19647155978E+02  0.00000000000E+00 0. -1.
</event>
<event>
 7    1  0.2577508E-013  0.7246158E+02  0.7816164E-02  0.1226708E+00
        -11   -1    0    0    0    0  0.00000000000E+00  0.00000000000E+00  0.45593999997E+02  0.45594000000E+02  0.51100000000E-03 0.  1.
         11   -1    0    0    0    0 -0.00000000000E+00 -0.00000000000E+00 -0.45593999997E+02  0.45594000000E+02  0.51100000000E-03 0. -1.
    9900012    2    1    2    0    0 -0.15375511271E+02 -0.10180384624E+02 -0.32607358383E+01  0.72461575457E+02  0.70000006726E+02 0.  0.
        -12    1    1    2    0    0  0.15375511271E+02  0.10180384624E+02  0.32607358383E+01  0.18726424543E+02  0.00000000000E+00 0.  1.
         11    1    3    3    0    0  0.22003999433E+00 -0.97475890614E+01 -0.17786015585E+02  0.20283152141E+02  0.51100000000E-03 0. -1.
        -11    1    3    3    0    0 -0.58254400878E+01 -0.13919180565E+02 -0.13059975670E+02  0.19956009235E+02  0.51100000000E-03 0.  1.
        -12    1    3    3    0    0 -0.97701111775E+01  0.13486385002E+02  0.27585255417E+02  0.32222414082E+02  0.00000000000E+00 0.  1.
</event>
<event>
 7    1  0.2577508E-013  0.7246154E+02  0.7816164E-02  0.1226708E+00
        -11   -1    0    0    0    0  0.00000000000E+00  0.00000000000E+00  0.45593999997E+02  0.45594000000E+02  0.51100000000E-03 0.  1.
         11   -1    0    0    0    0 -0.00000000000E+00 -0.00000000000E+00 -0.45593999997E+02  0.45594000000E+02  0.51100000000E-03 0. -1.
    9900012    2    1    2    0    0 -0.33720190900E+01 -0.10540752085E+02 -0.15106368702E+02  0.72461538972E+02  0.69999959197E+02 0.  0.
        -12    1    1    2    0    0  0.33720190900E+01  0.10540752085E+02  0.15106368702E+02  0.18726461028E+02  0.00000000000E+00 0.  1.
         11    1    3    3    0    0 -0.11463537198E+02 -0.11383144286E+02 -0.23767325873E+02  0.28738031219E+02  0.51100000000E-03 0. -1.
        -11    1    3    3    0    0  0.75278961574E+01 -0.20324990590E+02  0.39597282976E+01  0.22033018665E+02  0.51100000000E-03 0.  1.
        -12    1    3    3    0    0  0.56362195061E+00  0.21167382792E+02  0.47012288731E+01  0.21690489088E+02  0.00000000000E+00 0.  1.
</event>
<event>
 7    1  0.2577508E-013  0.7246160E+02  0.7816164E-02  0.1226708E+00
        -11   -1    0    0    0    0  0.00000000000E+00  0.00000000000E+00  0.45593999997E+02  0.45594000000E+02  0.51100000000E-03 0.  1.
         11   -1    0    0    0    0 -0.00000000000E+00 -0.00000000000E+00 -0.45593999997E+02  0.45594000000E+02  0.51100000000E-03 0. -1.
    9900012    2    1    2    0    0 -0.42193567427E+01  0.11640553803E+02 -0.14048935367E+02  0.72461600210E+02  0.70000038970E+02 0.  0.
        -12    1    1    2    0    0  0.42193567427E+01 -0.11640553803E+02  0.14048935367E+02  0.18726399790E+02  0.00000000000E+00 0.  1.
         11    1    3    3    0    0 -0.13792904870E+02  0.79314814647E+01  0.77929174923E+01  0.17716720529E+02  0.51100000000E-03 0. -1.
        -11    1    3    3    0    0  0.48700878902E+01 -0.51281697882E+01  0.14991181901E+02  0.16575627183E+02  0.51100000000E-03 0.  1.
         12    1    3    3    0    0  0.47034602375E+01  0.88372421269E+01 -0.36833034760E+02  0.38169252498E+02  0.00000000000E+00 0. -1.
</event>
<event>
 7    1  0.2577508E-013  0.7246164E+02  0.7816164E-02  0.1226708E+00
        -11   -1    0    0    0    0  0.00000000000E+00  0.00000000000E+00  0.45593999997E+02  0.45594000000E+02  0.51100000000E-03 0.  1.
         11   -1    0    0    0    0 -0.00000000000E+00 -0.00000000000E+00 -0.45593999997E+02  0.45594000000E+02  0.51100000000E-03 0. -1.
    9900012    2    1    2    0    0  0.24082227220E+01  0.17554299452E+02  0.60600137279E+01  0.72461635368E+02  0.70000084771E+02 0.  0.
        -12    1    1    2    0    0 -0.24082227220E+01 -0.17554299452E+02 -0.60600137279E+01  0.18726364632E+02  0.00000000000E+00 0.  1.
         11    1    3    3    0    0  0.33972491284E+01  0.21570090112E+01 -0.24891932295E+02  0.25215120130E+02  0.51100000000E-03 0. -1.
        -11    1    3    3    0    0  0.40146954908E+01  0.13909676980E+02 -0.13363047683E+01  0.14539002863E+02  0.51100000000E-03 0.  1.
         12    1    3    3    0    0 -0.50037218973E+01  0.14876134609E+01  0.32288250791E+02  0.32707512375E+02  0.00000000000E+00 0. -1.
</event>
<event>
 7    1  0.2577508E-013  0.7246153E+02  0.7816164E-02  0.1226708E+00
        -11   -1    0    0    0    0  0.00000000000E+00  0.00000000000E+00  0.45593999997E+02  0.45594000000E+02  0.51100000000E-03 0.  1.
         11   -1    0    0    0    0 -0.00000000000E+00 -0.00000000000E+00 -0.45593999997E+02  0.45594000000E+02  0.51100000000E-03 0. -1.
    9900012    2    1    2    0    0 -0.17658527649E+02 -0.57020733283E+01  0.25186526199E+01  0.72461525425E+02  0.69999941550E+02 0.  0.
        -12    1    1    2    0    0  0.17658527649E+02  0.57020733283E+01 -0.25186526199E+01  0.18726474575E+02  0.00000000000E+00 0.  1.
         11    1    3    3    0    0 -0.10626507179E+02 -0.16613018869E+02 -0.14536685837E+02  0.24499597673E+02  0.51100000000E-03 0. -1.
        -11    1    3    3    0    0 -0.79243201343E+01 -0.12816762488E+02 -0.46725866506E+01  0.15776479853E+02  0.51100000000E-03 0.  1.
        -12    1    3    3    0    0  0.89229966353E+00  0.23727708029E+02  0.21727925107E+02  0.32185447899E+02  0.00000000000E+00 0.  1.
</event>
<event>
 7    1  0.2577508E-013  0.7246156E+02  0.7816164E-02  0.1226708E+00
        -11   -1    0    0    0    0  0.00000000000E+00  0.00000000000E+00  0.45593999997E+02  0.45594000000E+02  0.51100000000E-03 0. -1.
         11   -1    0    0    0    0 -0.00000000000E+00 -0.00000000000E+00 -0.45593999997E+02  0.45594000000E+02  0.51100000000E-03 0.  1.
    9900012    2    1    2    0    0  0.83850591216E+01  0.16138296296E+02  0.44638120198E+01  0.72461563031E+02  0.69999990538E+02 0.  0.
        -12    1    1    2    0    0 -0.83850591216E+01 -0.16138296296E+02 -0.44638120198E+01  0.18726436969E+02  0.00000000000E+00 0.  1.
         11    1    3    3    0    0 -0.76776764457E+01  0.10339828249E+02  0.77136912996E+01  0.15011988461E+02  0.51100000000E-03 0. -1.
        -11    1    3    3    0    0  0.48251261677E+01 -0.22998184829E+02  0.75870486108E+01  0.24693352443E+02  0.51100000000E-03 0.  1.
         12    1    3    3    0    0  0.11237609400E+02  0.28796652877E+02 -0.10836927891E+02  0.32756222127E+02  0.00000000000E+00 0. -1.
</event>
<event>
 7    1  0.2577508E-013  0.7246150E+02  0.7816164E-02  0.1226708E+00
        -11   -1    0    0    0    0  0.00000000000E+00  0.00000000000E+00  0.45593999997E+02  0.45594000000E+02  0.51100000000E-03 0. -1.
         11   -1    0    0    0    0 -0.00000000000E+00 -0.00000000000E+00 -0.45593999997E+02  0.45594000000E+02  0.51100000000E-03 0.  1.
    9900012    2    1    2    0    0  0.14436637480E+02  0.10965428590E+02  0.46930382801E+01  0.72461501817E+02  0.69999910796E+02 0.  0.
        -12    1    1    2    0    0 -0.14436637480E+02 -0.10965428590E+02 -0.46930382801E+01  0.18726498183E+02  0.00000000000E+00 0.  1.
         11    1    3    3    0    0 -0.19113771929E+02  0.66799836681E+00  0.17323941655E+02  0.25805066438E+02  0.51100000000E-03 0. -1.
        -11    1    3    3    0    0 -0.16784090006E+01 -0.41937314429E+01 -0.67357260898E+01  0.81101446600E+01  0.51100000000E-03 0.  1.
        -12    1    3    3    0    0  0.35228818409E+02  0.14491161666E+02 -0.58951772850E+01  0.38546290719E+02  0.00000000000E+00 0.  1.
</event>
<event>
 7    1  0.2577508E-013  0.7246161E+02  0.7816164E-02  0.1226708E+00
        -11   -1    0    0    0    0  0.00000000000E+00  0.00000000000E+00  0.45593999997E+02  0.45594000000E+02  0.51100000000E-03 0. -1.
         11   -1    0    0    0    0 -0.00000000000E+00 -0.00000000000E+00 -0.45593999997E+02  0.45594000000E+02  0.51100000000E-03 0.  1.
    9900012    2    1    2    0    0 -0.17294553873E+02 -0.54665863030E+00  0.71608042678E+01  0.72461613614E+02  0.70000056432E+02 0.  0.
        -12    1    1    2    0    0  0.17294553873E+02  0.54665863030E+00 -0.71608042678E+01  0.18726386386E+02  0.00000000000E+00 0.  1.
         11    1    3    3    0    0 -0.11729779595E+02  0.23707496010E+02  0.24523419314E+02  0.36069809973E+02  0.51100000000E-03 0. -1.
        -11    1    3    3    0    0 -0.13228042372E+01  0.19334272301E+01  0.23672788603E+01  0.33304596330E+01  0.51100000000E-03 0.  1.
        -12    1    3    3    0    0 -0.42419700409E+01 -0.26187581870E+02 -0.19729893906E+02  0.33061344008E+02  0.00000000000E+00 0.  1.
</event>
<event>
 7    1  0.2577508E-013  0.7246152E+02  0.7816164E-02  0.1226708E+00
        -11   -1    0    0    0    0  0.00000000000E+00  0.00000000000E+00  0.45593999997E+02  0.45594000000E+02  0.51100000000E-03 0. -1.
         11   -1    0    0    0    0 -0.00000000000E+00 -0.00000000000E+00 -0.45593999997E+02  0.45594000000E+02  0.51100000000E-03 0.  1.
    9900012    2    1    2    0    0  0.81665375673E+01 -0.21316279544E+01  0.16716606813E+02  0.72461518299E+02  0.69999932266E+02 0.  0.
        -12    1    1    2    0    0 -0.81665375673E+01  0.21316279544E+01 -0.16716606813E+02  0.18726481701E+02  0.00000000000E+00 0.  1.
         11    1    3    3    0    0 -0.17537585118E+01 -0.18498256947E+02  0.45837325319E+01  0.19138228319E+02  0.51100000000E-03 0. -1.
        -11    1    3    3    0    0 -0.17201170291E+02  0.17648531832E+02  0.76457960198E+01  0.25803277548E+02  0.51100000000E-03 0.  1.
         12    1    3    3    0    0  0.27121466370E+02 -0.12819028387E+01  0.44870782610E+01  0.27520012432E+02  0.00000000000E+00 0. -1.
</event>
<event>
 7    1  0.2577508E-013  0.7246151E+02  0.7816164E-02  0.1226708E+00
        -11   -1    0    0    0    0  0.00000000000E+00  0.00000000000E+00  0.45593999997E+02  0.45594000000E+02  0.51100000000E-03 0. -1.
         11   -1    0    0    0    0 -0.00000000000E+00 -0.00000000000E+00 -0.45593999997E+02  0.45594000000E+02  0.51100000000E-03 0.  1.
    9900012    2    1    2    0    0  0.50047885658E+01 -0.74363459356E+01  0.16441842444E+02  0.72461512544E+02  0.69999924770E+02 0.  0.
        -12    1    1    2    0    0 -0.50047885658E+01  0.74363459356E+01 -0.16441842444E+02  0.18726487456E+02  0.00000000000E+00 0.  1.
         11    1    3    3    0    0 -0.17564231008E+01 -0.12716153218E+02 -0.13641597300E+02  0.18731757844E+02  0.51100000000E-03 0. -1.
        -11    1    3    3    0    0  0.76826164091E+01  0.18021755699E+02 -0.15120556172E+01  0.19649238810E+02  0.51100000000E-03 0.  1.
         12    1    3    3    0    0 -0.92140474247E+00 -0.12741948416E+02  0.31595495362E+02  0.34080515890E+02  0.00000000000E+00 0. -1.
</event>
<event>
 7    1  0.2577508E-013  0.7246161E+02  0.7816164E-02  0.1226708E+00
        -11   -1    0    0    0    0  0.00000000000E+00  0.00000000000E+00  0.45593999997E+02  0.45594000000E+02  0.51100000000E-03 0. -1.
         11   -1    0    0    0    0 -0.00000000000E+00 -0.00000000000E+00 -0.45593999997E+02  0.45594000000E+02  0.51100000000E-03 0.  1.
    9900012    2    1    2    0    0  0.18844402191E+01  0.16443563668E+02  0.87598895926E+01  0.72461613090E+02  0.70000055749E+02 0.  0.
        -12    1    1    2    0    0 -0.18844402191E+01 -0.16443563668E+02 -0.87598895926E+01  0.18726386910E+02  0.00000000000E+00 0.  1.
         11    1    3    3    0    0 -0.51233727982E+01 -0.37592841804E+01  0.50063111351E+01  0.80897662401E+01  0.51100000000E-03 0. -1.
        -11    1    3    3    0    0 -0.21466303537E+02  0.10780706302E+02 -0.15631951078E+02  0.28659792579E+02  0.51100000000E-03 0.  1.
         12    1    3    3    0    0  0.28474116555E+02  0.94221415461E+01  0.19385529535E+02  0.35712054271E+02  0.00000000000E+00 0. -1.
</event>
<event>
 7    1  0.2577508E-013  0.7246159E+02  0.7816164E-02  0.1226708E+00
        -11   -1    0    0    0    0  0.00000000000E+00  0.00000000000E+00  0.45593999997E+02  0.45594000000E+02  0.51100000000E-03 0.  1.
         11   -1    0    0    0    0 -0.00000000000E+00 -0.00000000000E+00 -0.45593999997E+02  0.45594000000E+02  0.51100000000E-03 0. -1.
    9900012    2    1    2    0    0 -0.12656183246E+02  0.13749228493E+02  0.12074933298E+01  0.72461593547E+02  0.70000030291E+02 0.  0.
        -12    1    1    2    0    0  0.12656183246E+02 -0.13749228493E+02 -0.12074933298E+01  0.18726406453E+02  0.00000000000E+00 0.  1.
         11    1    3    3    0    0  0.17251202764E+02  0.57697472867E+01  0.66754082278E+01  0.19376662660E+02  0.51100000000E-03 0. -1.
        -11    1    3    3    0    0  0.25346980943E+01  0.15969343994E+02 -0.10524851486E+02  0.19292929821E+02  0.51100000000E-03 0.  1.
         12    1    3    3    0    0 -0.32442084105E+02 -0.79898627878E+01  0.50569365877E+01  0.33792001066E+02  0.00000000000E+00 0. -1.
</event>
<event>
 7    1  0.2577508E-013  0.7246169E+02  0.7816164E-02  0.1226708E+00
        -11   -1    0    0    0    0  0.00000000000E+00  0.00000000000E+00  0.45593999997E+02  0.45594000000E+02  0.51100000000E-03 0.  1.
         11   -1    0    0    0    0 -0.00000000000E+00 -0.00000000000E+00 -0.45593999997E+02  0.45594000000E+02  0.51100000000E-03 0. -1.
    9900012    2    1    2    0    0 -0.10691430510E+02  0.23806424701E+01 -0.15188828607E+02  0.72461690717E+02  0.70000156872E+02 0.  0.
        -12    1    1    2    0    0  0.10691430510E+02 -0.23806424701E+01  0.15188828607E+02  0.18726309283E+02  0.00000000000E+00 0.  1.
         11    1    3    3    0    0 -0.96592427633E+01 -0.52486588211E+01 -0.32127612967E+01  0.11453000724E+02  0.51100000000E-03 0. -1.
        -11    1    3    3    0    0 -0.74173854185E+00 -0.25417870339E+02  0.11362041603E+01  0.25454061931E+02  0.51100000000E-03 0.  1.
         12    1    3    3    0    0 -0.29044920434E+00  0.33047171630E+02 -0.13112271471E+02  0.35554628062E+02  0.00000000000E+00 0. -1.
</event>
<event>
 7    1  0.2577508E-013  0.7246156E+02  0.7816164E-02  0.1226708E+00
        -11   -1    0    0    0    0  0.00000000000E+00  0.00000000000E+00  0.45593999997E+02  0.45594000000E+02  0.51100000000E-03 0. -1.
         11   -1    0    0    0    0 -0.00000000000E+00 -0.00000000000E+00 -0.45593999997E+02  0.45594000000E+02  0.51100000000E-03 0.  1.
    9900012    2    1    2    0    0  0.11971093417E+02  0.24160765317E+01  0.14196298074E+02  0.72461564611E+02  0.69999992596E+02 0.  0.
        -12    1    1    2    0    0 -0.11971093417E+02 -0.24160765317E+01 -0.14196298074E+02  0.18726435389E+02  0.00000000000E+00 0.  1.
         11    1    3    3    0    0  0.26164330666E+02  0.27542986039E+02  0.48089939495E+01  0.38292488848E+02  0.51100000000E-03 0.  1.
        -11    1    3    3    0    0  0.19755106954E+01 -0.10031625761E+02  0.58155830694E+01  0.11762532237E+02  0.51100000000E-03 0. -1.
        -12    1    3    3    0    0 -0.16168747944E+02 -0.15095283746E+02  0.35717210546E+01  0.22406543525E+02  0.00000000000E+00 0.  1.
</event>
<event>
 7    1  0.2577508E-013  0.7246204E+02  0.7816164E-02  0.1226707E+00
        -11   -1    0    0    0    0  0.00000000000E+00  0.00000000000E+00  0.45593999997E+02  0.45594000000E+02  0.51100000000E-03 0. -1.
         11   -1    0    0    0    0 -0.00000000000E+00 -0.00000000000E+00 -0.45593999997E+02  0.45594000000E+02  0.51100000000E-03 0.  1.
    9900012    2    1    2    0    0 -0.17409651819E+00 -0.80682940876E+01  0.16897744686E+02  0.72462043294E+02  0.70000616168E+02 0.  0.
        -12    1    1    2    0    0  0.17409651819E+00  0.80682940876E+01 -0.16897744686E+02  0.18725956706E+02  0.00000000000E+00 0.  1.
         11    1    3    3    0    0 -0.20010136269E+01 -0.14624101184E+02 -0.88770648943E+01  0.17224130526E+02  0.51100000000E-03 0. -1.
        -11    1    3    3    0    0 -0.22059027272E+02  0.99050546843E+00  0.39997289832E+01  0.22440579704E+02  0.51100000000E-03 0.  1.
         12    1    3    3    0    0  0.23885944380E+02  0.55653016278E+01  0.21775080597E+02  0.32797333065E+02  0.00000000000E+00 0. -1.
</event>
<event>
 7    1  0.2577508E-013  0.7246143E+02  0.7816164E-02  0.1226708E+00
        -11   -1    0    0    0    0  0.00000000000E+00  0.00000000000E+00  0.45593999997E+02  0.45594000000E+02  0.51100000000E-03 0. -1.
         11   -1    0    0    0    0 -0.00000000000E+00 -0.00000000000E+00 -0.45593999997E+02  0.45594000000E+02  0.51100000000E-03 0.  1.
    9900012    2    1    2    0    0 -0.59596234264E+01 -0.69484110430E+01  0.16336673122E+02  0.72461430210E+02  0.69999817514E+02 0.  0.
        -12    1    1    2    0    0  0.59596234264E+01  0.69484110430E+01 -0.16336673122E+02  0.18726569790E+02  0.00000000000E+00 0.  1.
         11    1    3    3    0    0  0.27801926080E+01  0.34731288816E+01 -0.10516113058E+02  0.11418438127E+02  0.51100000000E-03 0.  1.
        -11    1    3    3    0    0  0.12755051981E+02 -0.16948168148E+02  0.31623054064E+02  0.38078199842E+02  0.51100000000E-03 0. -1.
         12    1    3    3    0    0 -0.21494868016E+02  0.65266282238E+01 -0.47702678848E+01  0.22964792241E+02  0.00000000000E+00 0. -1.
</event>
<event>
 7    1  0.2577508E-013  0.7246178E+02  0.7816164E-02  0.1226707E+00
        -11   -1    0    0    0    0  0.00000000000E+00  0.00000000000E+00  0.45593999997E+02  0.45594000000E+02  0.51100000000E-03 0. -1.
         11   -1    0    0    0    0 -0.00000000000E+00 -0.00000000000E+00 -0.45593999997E+02  0.45594000000E+02  0.51100000000E-03 0.  1.
    9900012    2    1    2    0    0 -0.98393307604E+00 -0.67430928002E+01  0.17442301136E+02  0.72461780581E+02  0.70000273937E+02 0.  0.
        -12    1    1    2    0    0  0.98393307604E+00  0.67430928002E+01 -0.17442301136E+02  0.18726219419E+02  0.00000000000E+00 0.  1.
         11    1    3    3    0    0  0.67453105931E+01 -0.86538579788E+01  0.12163962546E+02  0.16381405861E+02  0.51100000000E-03 0. -1.
        -11    1    3    3    0    0  0.68745948040E+01  0.22044148950E+02  0.16911886296E+02  0.28621957568E+02  0.51100000000E-03 0.  1.
         12    1    3    3    0    0 -0.14603838473E+02 -0.20133383772E+02 -0.11633547706E+02  0.27458417152E+02  0.00000000000E+00 0. -1.
</event>
<event>
 7    1  0.2577508E-013  0.7246155E+02  0.7816164E-02  0.1226708E+00
        -11   -1    0    0    0    0  0.00000000000E+00  0.00000000000E+00  0.45593999997E+02  0.45594000000E+02  0.51100000000E-03 0. -1.
         11   -1    0    0    0    0 -0.00000000000E+00 -0.00000000000E+00 -0.45593999997E+02  0.45594000000E+02  0.51100000000E-03 0.  1.
    9900012    2    1    2    0    0  0.47907948244E+01  0.15332197702E+02  0.96255955629E+01  0.72461545681E+02  0.69999967937E+02 0.  0.
        -12    1    1    2    0    0 -0.47907948244E+01 -0.15332197702E+02 -0.96255955629E+01  0.18726454319E+02  0.00000000000E+00 0.  1.
         11    1    3    3    0    0 -0.93913524875E+01 -0.84465305335E+01  0.51181736686E+01  0.13628539231E+02  0.51100000000E-03 0. -1.
        -11    1    3    3    0    0 -0.13809535702E+02 -0.27623091221E+01 -0.10370195757E+02  0.17489270662E+02  0.51100000000E-03 0.  1.
         12    1    3    3    0    0  0.27991683014E+02  0.26541037357E+02  0.14877617651E+02  0.41343735788E+02  0.00000000000E+00 0. -1.
</event>
<event>
 7    1  0.2577508E-013  0.7246157E+02  0.7816164E-02  0.1226708E+00
        -11   -1    0    0    0    0  0.00000000000E+00  0.00000000000E+00  0.45593999997E+02  0.45594000000E+02  0.51100000000E-03 0. -1.
         11   -1    0    0    0    0 -0.00000000000E+00 -0.00000000000E+00 -0.45593999997E+02  0.45594000000E+02  0.51100000000E-03 0.  1.
    9900012    2    1    2    0    0 -0.12529452860E+02  0.81121564509E+01  0.11308626295E+02  0.72461566813E+02  0.69999995464E+02 0.  0.
        -12    1    1    2    0    0  0.12529452860E+02 -0.81121564509E+01 -0.11308626295E+02  0.18726433187E+02  0.00000000000E+00 0.  1.
         11    1    3    3    0    0 -0.12536380269E+02  0.10021221472E+02  0.11482296943E+02  0.19733951793E+02  0.51100000000E-03 0. -1.
        -11    1    3    3    0    0  0.25139336319E+02  0.23178888378E+01  0.70985739421E+01  0.26224961229E+02  0.51100000000E-03 0.  1.
         12    1    3    3    0    0 -0.25132408909E+02 -0.42269538584E+01 -0.72722445909E+01  0.26502653790E+02  0.00000000000E+00 0. -1.
</event>
<event>
 7    1  0.2577508E-013  0.7246152E+02  0.7816164E-02  0.1226708E+00
        -11   -1    0    0    0    0  0.00000000000E+00  0.00000000000E+00  0.45593999997E+02  0.45594000000E+02  0.51100000000E-03 0.  1.
         11   -1    0    0    0    0 -0.00000000000E+00 -0.00000000000E+00 -0.45593999997E+02  0.45594000000E+02  0.51100000000E-03 0. -1.
    9900012    2    1    2    0    0 -0.11828365486E+02 -0.24331591653E+01 -0.14312599289E+02  0.72461521634E+02  0.69999936611E+02 0.  0.
        -12    1    1    2    0    0  0.11828365486E+02  0.24331591653E+01  0.14312599289E+02  0.18726478366E+02  0.00000000000E+00 0.  1.
         11    1    3    3    0    0  0.13355044834E+02  0.29651356380E+01 -0.15875704835E+02  0.20956794987E+02  0.51100000000E-03 0. -1.
        -11    1    3    3    0    0  0.44465958823E+01 -0.11337186209E+02 -0.13125379988E+02  0.17904736975E+02  0.51100000000E-03 0.  1.
        -12    1    3    3    0    0 -0.29630006202E+02  0.59388914055E+01  0.14688485533E+02  0.33599989671E+02  0.00000000000E+00 0.  1.
</event>
<event>
 7    1  0.2577508E-013  0.7246152E+02  0.7816164E-02  0.1226708E+00
        -11   -1    0    0    0    0  0.00000000000E+00  0.00000000000E+00  0.45593999997E+02  0.45594000000E+02  0.51100000000E-03 0.  1.
         11   -1    0    0    0    0 -0.00000000000E+00 -0.00000000000E+00 -0.45593999997E+02  0.45594000000E+02  0.51100000000E-03 0. -1.
    9900012    2    1    2    0    0 -0.11361529735E+01 -0.11500359154E+02 -0.14735403299E+02  0.72461515689E+02  0.69999928867E+02 0.  0.
        -12    1    1    2    0    0  0.11361529735E+01  0.11500359154E+02  0.14735403299E+02  0.18726484311E+02  0.00000000000E+00 0.  1.
         11    1    3    3    0    0  0.11825982119E+02  0.20932546250E+02 -0.17279871229E+02  0.29607757353E+02  0.51100000000E-03 0. -1.
        -11    1    3    3    0    0 -0.11902535513E+02 -0.52262301086E+01 -0.59999530387E+01  0.14317236797E+02  0.51100000000E-03 0.  1.
        -12    1    3    3    0    0 -0.10595995795E+01 -0.27206675295E+02  0.85444209680E+01  0.28536521539E+02  0.00000000000E+00 0.  1.
</event>
<event>
 7    1  0.2577508E-013  0.7246160E+02  0.7816164E-02  0.1226708E+00
        -11   -1    0    0    0    0  0.00000000000E+00  0.00000000000E+00  0.45593999997E+02  0.45594000000E+02  0.51100000000E-03 0. -1.
         11   -1    0    0    0    0 -0.00000000000E+00 -0.00000000000E+00 -0.45593999997E+02  0.45594000000E+02  0.51100000000E-03 0.  1.
    9900012    2    1    2    0    0 -0.31216803192E+01 -0.95982046768E+01  0.15773634317E+02  0.72461602573E+02  0.70000042049E+02 0.  0.
        -12    1    1    2    0    0  0.31216803192E+01  0.95982046768E+01 -0.15773634317E+02  0.18726397427E+02  0.00000000000E+00 0.  1.
         11    1    3    3    0    0  0.26251222479E+01 -0.26259761430E+02  0.20069477009E+02  0.33154942993E+02  0.51100000000E-03 0. -1.
        -11    1    3    3    0    0 -0.10377355348E+02  0.83915299126E+01  0.13600935529E+02  0.19054992150E+02  0.51100000000E-03 0.  1.
        -12    1    3    3    0    0  0.46305527813E+01  0.82700268403E+01 -0.17896778221E+02  0.20251667430E+02  0.00000000000E+00 0.  1.
</event>
<event>
 7    1  0.2577508E-013  0.7246150E+02  0.7816164E-02  0.1226708E+00
        -11   -1    0    0    0    0  0.00000000000E+00  0.00000000000E+00  0.45593999997E+02  0.45594000000E+02  0.51100000000E-03 0. -1.
         11   -1    0    0    0    0 -0.00000000000E+00 -0.00000000000E+00 -0.45593999997E+02  0.45594000000E+02  0.51100000000E-03 0.  1.
    9900012    2    1    2    0    0  0.18625109425E+02  0.11414499790E+01 -0.15760786579E+01  0.72461504517E+02  0.69999914312E+02 0.  0.
        -12    1    1    2    0    0 -0.18625109425E+02 -0.11414499790E+01  0.15760786579E+01  0.18726495483E+02  0.00000000000E+00 0.  1.
         11    1    3    3    0    0  0.11430953905E+02 -0.76759546082E+01  0.12206444027E+02  0.18400659291E+02  0.51100000000E-03 0. -1.
        -11    1    3    3    0    0  0.73455550696E+01 -0.16928950376E+02  0.82119278097E+01  0.20198571700E+02  0.51100000000E-03 0.  1.
         12    1    3    3    0    0 -0.15139954920E+00  0.25746354963E+02 -0.21994450494E+02  0.33862273525E+02  0.00000000000E+00 0. -1.
</event>
<event>
 7    1  0.2577508E-013  0.7246165E+02  0.7816164E-02  0.1226708E+00
        -11   -1    0    0    0    0  0.00000000000E+00  0.00000000000E+00  0.45593999997E+02  0.45594000000E+02  0.51100000000E-03 0. -1.
         11   -1    0    0    0    0 -0.00000000000E+00 -0.00000000000E+00 -0.45593999997E+02  0.45594000000E+02  0.51100000000E-03 0.  1.
    9900012    2    1    2    0    0  0.16075266289E+02  0.25397569353E+01 -0.92634660804E+01  0.72461645432E+02  0.70000097881E+02 0.  0.
        -12    1    1    2    0    0 -0.16075266289E+02 -0.25397569353E+01  0.92634660804E+01  0.18726354568E+02  0.00000000000E+00 0.  1.
         11    1    3    3    0    0 -0.41278157330E+00 -0.25633302634E+01 -0.28854571661E+01  0.38816122920E+01  0.51100000000E-03 0. -1.
        -11    1    3    3    0    0  0.15844002175E+01 -0.29316342228E+02  0.40813213706E+01  0.29641447840E+02  0.51100000000E-03 0.  1.
         12    1    3    3    0    0  0.14903647645E+02  0.34419429427E+02 -0.10459330285E+02  0.38938585300E+02  0.00000000000E+00 0. -1.
</event>
<event>
 7    1  0.2577508E-013  0.7246154E+02  0.7816164E-02  0.1226708E+00
        -11   -1    0    0    0    0  0.00000000000E+00  0.00000000000E+00  0.45593999997E+02  0.45594000000E+02  0.51100000000E-03 0.  1.
         11   -1    0    0    0    0 -0.00000000000E+00 -0.00000000000E+00 -0.45593999997E+02  0.45594000000E+02  0.51100000000E-03 0. -1.
    9900012    2    1    2    0    0  0.18532640637E+02  0.25257488421E+01 -0.91759802503E+00  0.72461543786E+02  0.69999965468E+02 0.  0.
        -12    1    1    2    0    0 -0.18532640637E+02 -0.25257488421E+01  0.91759802503E+00  0.18726456214E+02  0.00000000000E+00 0.  1.
         11    1    3    3    0    0  0.18028117980E+02  0.74058896807E+01  0.18363546784E+02  0.26778351155E+02  0.51100000000E-03 0. -1.
        -11    1    3    3    0    0  0.60254963119E+01 -0.10958487071E+02  0.95310379333E+01  0.15723731397E+02  0.51100000000E-03 0.  1.
         12    1    3    3    0    0 -0.55209736541E+01  0.60783462328E+01 -0.28812182742E+02  0.29959461233E+02  0.00000000000E+00 0. -1.
</event>
<event>
 7    1  0.2577508E-013  0.7246153E+02  0.7816164E-02  0.1226708E+00
        -11   -1    0    0    0    0  0.00000000000E+00  0.00000000000E+00  0.45593999997E+02  0.45594000000E+02  0.51100000000E-03 0. -1.
         11   -1    0    0    0    0 -0.00000000000E+00 -0.00000000000E+00 -0.45593999997E+02  0.45594000000E+02  0.51100000000E-03 0.  1.
    9900012    2    1    2    0    0  0.20364172590E+01 -0.20875440020E+01  0.18497997073E+02  0.72461528604E+02  0.69999945691E+02 0.  0.
        -12    1    1    2    0    0 -0.20364172590E+01  0.20875440020E+01 -0.18497997073E+02  0.18726471396E+02  0.00000000000E+00 0.  1.
         11    1    3    3    0    0 -0.21931228930E+02 -0.41828862283E+01  0.19424126338E+02  0.29593445623E+02  0.51100000000E-03 0. -1.
        -11    1    3    3    0    0  0.35656947107E+01 -0.89428173889E+01  0.12722049464E+02  0.15954269160E+02  0.51100000000E-03 0.  1.
        -12    1    3    3    0    0  0.20401951478E+02  0.11038159615E+02 -0.13648178729E+02  0.26913813821E+02  0.00000000000E+00 0.  1.
</event>
<event>
 7    1  0.2577508E-013  0.7246157E+02  0.7816164E-02  0.1226708E+00
        -11   -1    0    0    0    0  0.00000000000E+00  0.00000000000E+00  0.45593999997E+02  0.45594000000E+02  0.51100000000E-03 0. -1.
         11   -1    0    0    0    0 -0.00000000000E+00 -0.00000000000E+00 -0.45593999997E+02  0.45594000000E+02  0.51100000000E-03 0.  1.
    9900012    2    1    2    0    0 -0.48842517435E+01  0.17510949107E+02  0.44933363031E+01  0.72461566147E+02  0.69999994597E+02 0.  0.
        -12    1    1    2    0    0  0.48842517435E+01 -0.17510949107E+02 -0.44933363031E+01  0.18726433853E+02  0.00000000000E+00 0.  1.
         11    1    3    3    0    0  0.11928836250E+02  0.20770360210E+02  0.20684190568E+02  0.31647128420E+02  0.51100000000E-03 0. -1.
        -11    1    3    3    0    0  0.82578527638E+01  0.19969379890E+01 -0.12233923115E+02  0.14894588569E+02  0.51100000000E-03 0.  1.
        -12    1    3    3    0    0 -0.25070940757E+02 -0.52563490920E+01 -0.39569311504E+01  0.25919849157E+02  0.00000000000E+00 0.  1.
</event>
<event>
 7    1  0.2577508E-013  0.7246156E+02  0.7816164E-02  0.1226708E+00
        -11   -1    0    0    0    0  0.00000000000E+00  0.00000000000E+00  0.45593999997E+02  0.45594000000E+02  0.51100000000E-03 0. -1.
         11   -1    0    0    0    0 -0.00000000000E+00 -0.00000000000E+00 -0.45593999997E+02  0.45594000000E+02  0.51100000000E-03 0.  1.
    9900012    2    1    2    0    0 -0.14857496607E+02 -0.10984442879E+02 -0.30457183420E+01  0.72461559041E+02  0.69999985340E+02 0.  0.
        -12    1    1    2    0    0  0.14857496607E+02  0.10984442879E+02  0.30457183420E+01  0.18726440959E+02  0.00000000000E+00 0.  1.
         11    1    3    3    0    0  0.92023272506E+01  0.26006154578E+01  0.68338418630E+01  0.11753613166E+02  0.51100000000E-03 0. -1.
        -11    1    3    3    0    0 -0.92981964461E+01  0.91105879479E+01 -0.26086261686E+02  0.29153941739E+02  0.51100000000E-03 0.  1.
         12    1    3    3    0    0 -0.14761627411E+02 -0.22695646284E+02  0.16206701481E+02  0.31554004136E+02  0.00000000000E+00 0. -1.
</event>
<event>
 7    1  0.2577508E-013  0.7246156E+02  0.7816164E-02  0.1226708E+00
        -11   -1    0    0    0    0  0.00000000000E+00  0.00000000000E+00  0.45593999997E+02  0.45594000000E+02  0.51100000000E-03 0. -1.
         11   -1    0    0    0    0 -0.00000000000E+00 -0.00000000000E+00 -0.45593999997E+02  0.45594000000E+02  0.51100000000E-03 0.  1.
    9900012    2    1    2    0    0 -0.82434498671E+01  0.16265142089E+02  0.42626358371E+01  0.72461564750E+02  0.69999992777E+02 0.  0.
        -12    1    1    2    0    0  0.82434498671E+01 -0.16265142089E+02 -0.42626358371E+01  0.18726435250E+02  0.00000000000E+00 0.  1.
         11    1    3    3    0    0 -0.60726378699E+01 -0.31400010306E+01 -0.17795841054E+01  0.70642378938E+01  0.51100000000E-03 0. -1.
        -11    1    3    3    0    0 -0.10290788338E+02  0.40271942732E+02 -0.19786938443E+01  0.41613037928E+02  0.51100000000E-03 0.  1.
         12    1    3    3    0    0  0.81199763413E+01 -0.20866799612E+02  0.80209137868E+01  0.23784288928E+02  0.00000000000E+00 0. -1.
</event>
<event>
 7    1  0.2577508E-013  0.7246156E+02  0.7816164E-02  0.1226708E+00
        -11   -1    0    0    0    0  0.00000000000E+00  0.00000000000E+00  0.45593999997E+02  0.45594000000E+02  0.51100000000E-03 0. -1.
         11   -1    0    0    0    0 -0.00000000000E+00 -0.00000000000E+00 -0.45593999997E+02  0.45594000000E+02  0.51100000000E-03 0.  1.
    9900012    2    1    2    0    0  0.12282920097E+02  0.13700909267E+02 -0.34777195569E+01  0.72461559490E+02  0.69999985925E+02 0.  0.
        -12    1    1    2    0    0 -0.12282920097E+02 -0.13700909267E+02  0.34777195569E+01  0.18726440510E+02  0.00000000000E+00 0.  1.
         11    1    3    3    0    0 -0.69615875510E+01  0.29223355433E+02  0.14559494158E+02  0.33383335280E+02  0.51100000000E-03 0. -1.
        -11    1    3    3    0    0  0.33287119886E+00  0.13639356345E+00 -0.14226771145E+02  0.14231318417E+02  0.51100000000E-03 0.  1.
        -12    1    3    3    0    0  0.18911636449E+02 -0.15658839730E+02 -0.38104425706E+01  0.24846905792E+02  0.00000000000E+00 0.  1.
</event>
<event>
 7    1  0.2577508E-013  0.7246157E+02  0.7816164E-02  0.1226708E+00
        -11   -1    0    0    0    0  0.00000000000E+00  0.00000000000E+00  0.45593999997E+02  0.45594000000E+02  0.51100000000E-03 0. -1.
         11   -1    0    0    0    0 -0.00000000000E+00 -0.00000000000E+00 -0.45593999997E+02  0.45594000000E+02  0.51100000000E-03 0.  1.
    9900012    2    1    2    0    0 -0.34613064697E+01 -0.14118464799E+02  0.11805396559E+02  0.72461572720E+02  0.70000003160E+02 0.  0.
        -12    1    1    2    0    0  0.34613064697E+01  0.14118464799E+02 -0.11805396559E+02  0.18726427280E+02  0.00000000000E+00 0.  1.
         11    1    3    3    0    0 -0.20298790124E+01 -0.93591741256E+01 -0.79030573692E+00  0.96093252904E+01  0.51100000000E-03 0. -1.
        -11    1    3    3    0    0 -0.29531047471E+01 -0.29670698177E+02 -0.75727799776E+01  0.30763909940E+02  0.51100000000E-03 0.  1.
         12    1    3    3    0    0  0.15216772898E+01  0.24911407504E+02  0.20168482274E+02  0.32088337489E+02  0.00000000000E+00 0. -1.
</event>
<event>
 7    1  0.3063662E-013  0.7246147E+02  0.7816164E-02  0.1226708E+00
        -11   -1    0    0    0    0  0.00000000000E+00  0.00000000000E+00  0.45593999997E+02  0.45594000000E+02  0.51100000000E-03 0. -1.
         11   -1    0    0    0    0 -0.00000000000E+00 -0.00000000000E+00 -0.45593999997E+02  0.45594000000E+02  0.51100000000E-03 0.  1.
    9900012    2    1    2    0    0 -0.16531800279E+02  0.13927006086E+01  0.86857791635E+01  0.72461473490E+02  0.69999873894E+02 0.  0.
        -12    1    1    2    0    0  0.16531800279E+02 -0.13927006086E+01 -0.86857791635E+01  0.18726526510E+02  0.00000000000E+00 0.  1.
         11    1    3    3    0    0 -0.56638056888E+01  0.18833401432E+02  0.25848148149E+02  0.32479262112E+02  0.51100000000E-03 0. -1.
        -11    1    3    3    0    0 -0.25450116327E-01  0.71248439641E+01 -0.98420823173E+01  0.12150334721E+02  0.51100000000E-03 0.  1.
        -12    1    3    3    0    0 -0.10842544474E+02 -0.24565544787E+02 -0.73202866678E+01  0.27831876657E+02  0.00000000000E+00 0.  1.
</event>
<event>
 7    1  0.2577508E-013  0.7246155E+02  0.7816164E-02  0.1226708E+00
        -11   -1    0    0    0    0  0.00000000000E+00  0.00000000000E+00  0.45593999997E+02  0.45594000000E+02  0.51100000000E-03 0. -1.
         11   -1    0    0    0    0 -0.00000000000E+00 -0.00000000000E+00 -0.45593999997E+02  0.45594000000E+02  0.51100000000E-03 0.  1.
    9900012    2    1    2    0    0 -0.56718592101E+01  0.16637108834E+02  0.64588313501E+01  0.72461551333E+02  0.69999975300E+02 0.  0.
        -12    1    1    2    0    0  0.56718592101E+01 -0.16637108834E+02 -0.64588313501E+01  0.18726448667E+02  0.00000000000E+00 0.  1.
         11    1    3    3    0    0 -0.81389835271E+01  0.10453342123E+02 -0.24299073140E+02  0.27675989054E+02  0.51100000000E-03 0. -1.
        -11    1    3    3    0    0 -0.30019600122E+01 -0.84528022829E+01 -0.13562516710E+01  0.90719925708E+01  0.51100000000E-03 0.  1.
         12    1    3    3    0    0  0.54690843292E+01  0.14636568994E+02  0.32114156162E+02  0.35713569708E+02  0.00000000000E+00 0. -1.
</event>
<event>
 7    1  0.2577508E-013  0.7246150E+02  0.7816164E-02  0.1226708E+00
        -11   -1    0    0    0    0  0.00000000000E+00  0.00000000000E+00  0.45593999997E+02  0.45594000000E+02  0.51100000000E-03 0. -1.
         11   -1    0    0    0    0 -0.00000000000E+00 -0.00000000000E+00 -0.45593999997E+02  0.45594000000E+02  0.51100000000E-03 0.  1.
    9900012    2    1    2    0    0 -0.17262639599E+02 -0.15987000374E+01  0.70800546557E+01  0.72461501617E+02  0.69999910535E+02 0.  0.
        -12    1    1    2    0    0  0.17262639599E+02  0.15987000374E+01 -0.70800546557E+01  0.18726498383E+02  0.00000000000E+00 0.  1.
         11    1    3    3    0    0 -0.14158090410E+02 -0.23691456755E+02 -0.32796798863E+01  0.27793757350E+02  0.51100000000E-03 0. -1.
        -11    1    3    3    0    0 -0.19681183371E+01 -0.68890316210E+01  0.13711621767E+02  0.15470643755E+02  0.51100000000E-03 0.  1.
        -12    1    3    3    0    0 -0.11364308526E+01  0.28981788338E+02 -0.33518872246E+01  0.29197100512E+02  0.00000000000E+00 0.  1.
</event>
<event>
 7    1  0.2577508E-013  0.7246145E+02  0.7816164E-02  0.1226708E+00
        -11   -1    0    0    0    0  0.00000000000E+00  0.00000000000E+00  0.45593999997E+02  0.45594000000E+02  0.51100000000E-03 0. -1.
         11   -1    0    0    0    0 -0.00000000000E+00 -0.00000000000E+00 -0.45593999997E+02  0.45594000000E+02  0.51100000000E-03 0.  1.
    9900012    2    1    2    0    0  0.19146429853E+01 -0.84248081829E+01  0.16614461589E+02  0.72461452412E+02  0.69999846436E+02 0.  0.
        -12    1    1    2    0    0 -0.19146429853E+01  0.84248081829E+01 -0.16614461589E+02  0.18726547588E+02  0.00000000000E+00 0.  1.
         11    1    3    3    0    0  0.38442114696E+01  0.25075536127E+01  0.36389804217E+02  0.36678108432E+02  0.51100000000E-03 0. -1.
        -11    1    3    3    0    0 -0.12967494293E+02  0.98323439136E+00 -0.53580593242E+01  0.14065257128E+02  0.51100000000E-03 0.  1.
        -12    1    3    3    0    0  0.11037925808E+02 -0.11915596187E+02 -0.14417283304E+02  0.21718086852E+02  0.00000000000E+00 0.  1.
</event>
<event>
 7    1  0.2577508E-013  0.7246168E+02  0.7816164E-02  0.1226708E+00
        -11   -1    0    0    0    0  0.00000000000E+00  0.00000000000E+00  0.45593999997E+02  0.45594000000E+02  0.51100000000E-03 0.  1.
         11   -1    0    0    0    0 -0.00000000000E+00 -0.00000000000E+00 -0.45593999997E+02  0.45594000000E+02  0.51100000000E-03 0. -1.
    9900012    2    1    2    0    0 -0.80745964272E+01  0.22830762555E+01 -0.16741072362E+02  0.72461680327E+02  0.70000143338E+02 0.  0.
        -12    1    1    2    0    0  0.80745964272E+01 -0.22830762555E+01  0.16741072362E+02  0.18726319673E+02  0.00000000000E+00 0.  1.
         11    1    3    3    0    0 -0.10649849633E+02  0.56614434731E+01 -0.17187674258E+02  0.20997318544E+02  0.51100000000E-03 0. -1.
        -11    1    3    3    0    0 -0.66222141181E+01 -0.97177848768E+01 -0.22810687883E+02  0.25663525570E+02  0.51100000000E-03 0.  1.
        -12    1    3    3    0    0  0.91974673234E+01  0.63394176592E+01  0.23257289779E+02  0.25800836213E+02  0.00000000000E+00 0.  1.
</event>
<event>
 7    1  0.2577508E-013  0.7246158E+02  0.7816164E-02  0.1226708E+00
        -11   -1    0    0    0    0  0.00000000000E+00  0.00000000000E+00  0.45593999997E+02  0.45594000000E+02  0.51100000000E-03 0.  1.
         11   -1    0    0    0    0 -0.00000000000E+00 -0.00000000000E+00 -0.45593999997E+02  0.45594000000E+02  0.51100000000E-03 0. -1.
    9900012    2    1    2    0    0  0.22482213159E+01 -0.98124875643E+01 -0.15790481543E+02  0.72461582332E+02  0.70000015682E+02 0.  0.
        -12    1    1    2    0    0 -0.22482213159E+01  0.98124875643E+01  0.15790481543E+02  0.18726417668E+02  0.00000000000E+00 0.  1.
         11    1    3    3    0    0  0.71123364644E+01 -0.22109907179E+02 -0.88339566071E+01  0.24848986197E+02  0.51100000000E-03 0. -1.
        -11    1    3    3    0    0 -0.24692675796E+02  0.10392140244E+02 -0.70112161432E+01  0.27692633838E+02  0.51100000000E-03 0.  1.
         12    1    3    3    0    0  0.19828560647E+02  0.19052793706E+01  0.54691206916E-01  0.19919962298E+02  0.00000000000E+00 0. -1.
</event>
<event>
 7    1  0.2577508E-013  0.7246155E+02  0.7816164E-02  0.1226708E+00
        -11   -1    0    0    0    0  0.00000000000E+00  0.00000000000E+00  0.45593999997E+02  0.45594000000E+02  0.51100000000E-03 0.  1.
         11   -1    0    0    0    0 -0.00000000000E+00 -0.00000000000E+00 -0.45593999997E+02  0.45594000000E+02  0.51100000000E-03 0. -1.
    9900012    2    1    2    0    0 -0.63234048034E+01  0.99286854417E+01 -0.14564197158E+02  0.72461545938E+02  0.69999968271E+02 0.  0.
        -12    1    1    2    0    0  0.63234048034E+01 -0.99286854417E+01  0.14564197158E+02  0.18726454062E+02  0.00000000000E+00 0.  1.
         11    1    3    3    0    0  0.79083521075E+01 -0.41788164305E+01 -0.34890014461E+00  0.89513279119E+01  0.51100000000E-03 0. -1.
        -11    1    3    3    0    0  0.22454627353E+02  0.11091372228E+02 -0.45796706355E+01  0.25459815609E+02  0.51100000000E-03 0.  1.
        -12    1    3    3    0    0 -0.36686384264E+02  0.30161296445E+01 -0.96356263774E+01  0.38050402417E+02  0.00000000000E+00 0.  1.
</event>
<event>
 7    1  0.2577508E-013  0.7246156E+02  0.7816164E-02  0.1226708E+00
        -11   -1    0    0    0    0  0.00000000000E+00  0.00000000000E+00  0.45593999997E+02  0.45594000000E+02  0.51100000000E-03 0.  1.
         11   -1    0    0    0    0 -0.00000000000E+00 -0.00000000000E+00 -0.45593999997E+02  0.45594000000E+02  0.51100000000E-03 0. -1.
    9900012    2    1    2    0    0  0.54408797943E+01 -0.54879341935E+01 -0.17057518290E+02  0.72461560807E+02  0.69999987641E+02 0.  0.
        -12    1    1    2    0    0 -0.54408797943E+01  0.54879341935E+01  0.17057518290E+02  0.18726439193E+02  0.00000000000E+00 0.  1.
         11    1    3    3    0    0  0.43457280286E+01 -0.22611547102E+02 -0.33783567398E+01  0.23271886665E+02  0.51100000000E-03 0. -1.
        -11    1    3    3    0    0  0.20628572366E+01 -0.95303399656E+00  0.15056681852E+02  0.15227190234E+02  0.51100000000E-03 0.  1.
        -12    1    3    3    0    0 -0.96770547095E+00  0.18076646905E+02 -0.28735843402E+02  0.33962483908E+02  0.00000000000E+00 0.  1.
</event>
<event>
 7    1  0.2577508E-013  0.7246156E+02  0.7816164E-02  0.1226708E+00
        -11   -1    0    0    0    0  0.00000000000E+00  0.00000000000E+00  0.45593999997E+02  0.45594000000E+02  0.51100000000E-03 0.  1.
         11   -1    0    0    0    0 -0.00000000000E+00 -0.00000000000E+00 -0.45593999997E+02  0.45594000000E+02  0.51100000000E-03 0. -1.
    9900012    2    1    2    0    0  0.18334788548E+02 -0.17592224811E+01 -0.33793602956E+01  0.72461563851E+02  0.69999991606E+02 0.  0.
        -12    1    1    2    0    0 -0.18334788548E+02  0.17592224811E+01  0.33793602956E+01  0.18726436149E+02  0.00000000000E+00 0.  1.
         11    1    3    3    0    0 -0.34148448688E+00  0.74274245143E+00  0.50748954424E+00  0.96219743430E+00  0.51100000000E-03 0. -1.
        -11    1    3    3    0    0 -0.12828797714E+02  0.25863394590E+02 -0.36965901481E+01  0.29105978931E+02  0.51100000000E-03 0.  1.
         12    1    3    3    0    0  0.31505070749E+02 -0.28365359523E+02 -0.19025969169E+00  0.42393387486E+02  0.00000000000E+00 0. -1.
</event>
<event>
 7    1  0.2577508E-013  0.7246156E+02  0.7816164E-02  0.1226708E+00
        -11   -1    0    0    0    0  0.00000000000E+00  0.00000000000E+00  0.45593999997E+02  0.45594000000E+02  0.51100000000E-03 0.  1.
         11   -1    0    0    0    0 -0.00000000000E+00 -0.00000000000E+00 -0.45593999997E+02  0.45594000000E+02  0.51100000000E-03 0. -1.
    9900012    2    1    2    0    0  0.57115114143E+01  0.17806930438E+02  0.98554498929E+00  0.72461563254E+02  0.69999990829E+02 0.  0.
        -12    1    1    2    0    0 -0.57115114143E+01 -0.17806930438E+02 -0.98554498929E+00  0.18726436746E+02  0.00000000000E+00 0.  1.
         11    1    3    3    0    0 -0.16681482668E+02  0.67312467927E+01 -0.15529603303E+01  0.18055282701E+02  0.51100000000E-03 0. -1.
        -11    1    3    3    0    0 -0.58158845299E+01 -0.24329286700E+01  0.18319550460E+02  0.19373940851E+02  0.51100000000E-03 0.  1.
         12    1    3    3    0    0  0.28208878612E+02  0.13508612316E+02 -0.15781045141E+02  0.35032339702E+02  0.00000000000E+00 0. -1.
</event>
<event>
 7    1  0.2577508E-013  0.7246192E+02  0.7816164E-02  0.1226707E+00
        -11   -1    0    0    0    0  0.00000000000E+00  0.00000000000E+00  0.45593999997E+02  0.45594000000E+02  0.51100000000E-03 0. -1.
         11   -1    0    0    0    0 -0.00000000000E+00 -0.00000000000E+00 -0.45593999997E+02  0.45594000000E+02  0.51100000000E-03 0.  1.
    9900012    2    1    2    0    0  0.13642456749E+02 -0.12467293035E+02  0.30192568680E+01  0.72461923694E+02  0.70000460367E+02 0.  0.
        -12    1    1    2    0    0 -0.13642456749E+02  0.12467293035E+02 -0.30192568680E+01  0.18726076306E+02  0.00000000000E+00 0.  1.
         11    1    3    3    0    0 -0.48254861945E+01 -0.63010066312E+00 -0.22733939190E+01  0.53712814142E+01  0.51100000000E-03 0. -1.
        -11    1    3    3    0    0  0.29436692095E+02 -0.46534944415E+00 -0.21175905061E+02  0.36265056832E+02  0.51100000000E-03 0.  1.
         12    1    3    3    0    0 -0.10968749151E+02 -0.11371842928E+02  0.26468555848E+02  0.30825585448E+02  0.00000000000E+00 0. -1.
</event>
<event>
 7    1  0.2577508E-013  0.7246163E+02  0.7816164E-02  0.1226708E+00
        -11   -1    0    0    0    0  0.00000000000E+00  0.00000000000E+00  0.45593999997E+02  0.45594000000E+02  0.51100000000E-03 0. -1.
         11   -1    0    0    0    0 -0.00000000000E+00 -0.00000000000E+00 -0.45593999997E+02  0.45594000000E+02  0.51100000000E-03 0.  1.
    9900012    2    1    2    0    0  0.99598330327E+01 -0.12553344926E+02  0.96897932520E+01  0.72461632596E+02  0.70000081160E+02 0.  0.
        -12    1    1    2    0    0 -0.99598330327E+01  0.12553344926E+02 -0.96897932520E+01  0.18726367404E+02  0.00000000000E+00 0.  1.
         11    1    3    3    0    0 -0.15775883793E+02 -0.25813254725E+02  0.13693305156E+02  0.33207066045E+02  0.51100000000E-03 0. -1.
        -11    1    3    3    0    0  0.77455547956E+01  0.41728115978E+00  0.10324097574E+02  0.12913354856E+02  0.51100000000E-03 0.  1.
        -12    1    3    3    0    0  0.17990162030E+02  0.12842628638E+02 -0.14327609478E+02  0.26341211695E+02  0.00000000000E+00 0.  1.
</event>
<event>
 7    1  0.2577508E-013  0.7246170E+02  0.7816164E-02  0.1226708E+00
        -11   -1    0    0    0    0  0.00000000000E+00  0.00000000000E+00  0.45593999997E+02  0.45594000000E+02  0.51100000000E-03 0. -1.
         11   -1    0    0    0    0 -0.00000000000E+00 -0.00000000000E+00 -0.45593999997E+02  0.45594000000E+02  0.51100000000E-03 0.  1.
    9900012    2    1    2    0    0 -0.11609668344E+02  0.10762736430E+02  0.10002667291E+02  0.72461701715E+02  0.70000171199E+02 0.  0.
        -12    1    1    2    0    0  0.11609668344E+02 -0.10762736430E+02 -0.10002667291E+02  0.18726298285E+02  0.00000000000E+00 0.  1.
         11    1    3    3    0    0  0.21474049288E+01  0.27091900455E+02 -0.61315392769E+01  0.27859974737E+02  0.51100000000E-03 0. -1.
        -11    1    3    3    0    0 -0.13691114175E+02  0.45515335250E+01 -0.46315705373E+01  0.15153036352E+02  0.51100000000E-03 0.  1.
        -12    1    3    3    0    0 -0.65959097716E-01 -0.20880697549E+02  0.20765777106E+02  0.29448690625E+02  0.00000000000E+00 0.  1.
</event>
<event>
 7    1  0.2577508E-013  0.7246154E+02  0.7816164E-02  0.1226708E+00
        -11   -1    0    0    0    0  0.00000000000E+00  0.00000000000E+00  0.45593999997E+02  0.45594000000E+02  0.51100000000E-03 0. -1.
         11   -1    0    0    0    0 -0.00000000000E+00 -0.00000000000E+00 -0.45593999997E+02  0.45594000000E+02  0.51100000000E-03 0.  1.
    9900012    2    1    2    0    0 -0.18593908406E+02  0.22241520508E+01 -0.10193337730E-01  0.72461537812E+02  0.69999957686E+02 0.  0.
        -12    1    1    2    0    0  0.18593908406E+02 -0.22241520508E+01  0.10193337730E-01  0.18726462188E+02  0.00000000000E+00 0.  1.
         11    1    3    3    0    0 -0.18077334645E+01  0.11872996460E+02 -0.10843692596E+02  0.16180902775E+02  0.51100000000E-03 0. -1.
        -11    1    3    3    0    0 -0.19551334671E+01 -0.24913845314E+02 -0.96050815145E+01  0.26772744095E+02  0.51100000000E-03 0.  1.
         12    1    3    3    0    0 -0.14831041474E+02  0.15265000905E+02  0.20438580773E+02  0.29507890943E+02  0.00000000000E+00 0. -1.
</event>
<event>
 7    1  0.2577508E-013  0.7246158E+02  0.7816164E-02  0.1226708E+00
        -11   -1    0    0    0    0  0.00000000000E+00  0.00000000000E+00  0.45593999997E+02  0.45594000000E+02  0.51100000000E-03 0.  1.
         11   -1    0    0    0    0 -0.00000000000E+00 -0.00000000000E+00 -0.45593999997E+02  0.45594000000E+02  0.51100000000E-03 0. -1.
    9900012    2    1    2    0    0 -0.12686328769E+02 -0.29277943510E+01 -0.13459708995E+02  0.72461583268E+02  0.70000016900E+02 0.  0.
        -12    1    1    2    0    0  0.12686328769E+02  0.29277943510E+01  0.13459708995E+02  0.18726416732E+02  0.00000000000E+00 0.  1.
         11    1    3    3    0    0 -0.59809185603E+01 -0.12052397299E+02 -0.90066356743E+01  0.16191082543E+02  0.51100000000E-03 0. -1.
        -11    1    3    3    0    0  0.43413680971E+01 -0.17499335600E+02  0.13311422369E+02  0.22411340637E+02  0.51100000000E-03 0.  1.
         12    1    3    3    0    0 -0.11046778306E+02  0.26623938548E+02 -0.17764495689E+02  0.33859160088E+02  0.00000000000E+00 0. -1.
</event>
<event>
 7    1  0.2577508E-013  0.7246157E+02  0.7816164E-02  0.1226708E+00
        -11   -1    0    0    0    0  0.00000000000E+00  0.00000000000E+00  0.45593999997E+02  0.45594000000E+02  0.51100000000E-03 0. -1.
         11   -1    0    0    0    0 -0.00000000000E+00 -0.00000000000E+00 -0.45593999997E+02  0.45594000000E+02  0.51100000000E-03 0.  1.
    9900012    2    1    2    0    0 -0.33733608575E+01  0.88486520532E+00  0.18398821993E+02  0.72461569464E+02  0.69999998918E+02 0.  0.
        -12    1    1    2    0    0  0.33733608575E+01 -0.88486520532E+00 -0.18398821993E+02  0.18726430536E+02  0.00000000000E+00 0.  1.
         11    1    3    3    0    0 -0.12414340287E+02 -0.24819070559E+02  0.56843376950E+01  0.28326909529E+02  0.51100000000E-03 0. -1.
        -11    1    3    3    0    0 -0.35424539939E+00  0.66025534624E+01 -0.10644695149E+02  0.12531110769E+02  0.51100000000E-03 0.  1.
         12    1    3    3    0    0  0.93952248284E+01  0.19101382302E+02  0.23359179447E+02  0.31603549166E+02  0.00000000000E+00 0. -1.
</event>
<event>
 7    1  0.2577508E-013  0.7246159E+02  0.7816164E-02  0.1226708E+00
        -11   -1    0    0    0    0  0.00000000000E+00  0.00000000000E+00  0.45593999997E+02  0.45594000000E+02  0.51100000000E-03 0.  1.
         11   -1    0    0    0    0 -0.00000000000E+00 -0.00000000000E+00 -0.45593999997E+02  0.45594000000E+02  0.51100000000E-03 0. -1.
    9900012    2    1    2    0    0 -0.79106689599E+01  0.15887631830E+02 -0.59735219620E+01  0.72461588352E+02  0.70000023524E+02 0.  0.
        -12    1    1    2    0    0  0.79106689599E+01 -0.15887631830E+02  0.59735219620E+01  0.18726411648E+02  0.00000000000E+00 0.  1.
         11    1    3    3    0    0 -0.77787355778E+01  0.26908633150E+02 -0.14952082163E+02  0.31751346845E+02  0.51100000000E-03 0. -1.
        -11    1    3    3    0    0  0.12212415619E+02  0.96668856234E+01  0.26183986128E+01  0.15793916058E+02  0.51100000000E-03 0.  1.
        -12    1    3    3    0    0 -0.12344349001E+02 -0.20687886943E+02  0.63601615881E+01  0.24916325449E+02  0.00000000000E+00 0.  1.
</event>
<event>
 7    1  0.2577508E-013  0.7246155E+02  0.7816164E-02  0.1226708E+00
        -11   -1    0    0    0    0  0.00000000000E+00  0.00000000000E+00  0.45593999997E+02  0.45594000000E+02  0.51100000000E-03 0. -1.
         11   -1    0    0    0    0 -0.00000000000E+00 -0.00000000000E+00 -0.45593999997E+02  0.45594000000E+02  0.51100000000E-03 0.  1.
    9900012    2    1    2    0    0 -0.88333187186E+01  0.13213538795E+02  0.99022630573E+01  0.72461549703E+02  0.69999973176E+02 0.  0.
        -12    1    1    2    0    0  0.88333187186E+01 -0.13213538795E+02 -0.99022630573E+01  0.18726450297E+02  0.00000000000E+00 0.  1.
         11    1    3    3    0    0  0.11849883802E+02 -0.11436621448E+02 -0.40916732141E+01  0.16969320736E+02  0.51100000000E-03 0. -1.
        -11    1    3    3    0    0 -0.22541689320E+02  0.12854244344E+02 -0.10695224685E+02  0.28066834278E+02  0.51100000000E-03 0.  1.
        -12    1    3    3    0    0  0.18584867994E+01  0.11795915900E+02  0.24689160957E+02  0.27425394689E+02  0.00000000000E+00 0.  1.
</event>
<event>
 7    1  0.2577508E-013  0.7246153E+02  0.7816164E-02  0.1226708E+00
        -11   -1    0    0    0    0  0.00000000000E+00  0.00000000000E+00  0.45593999997E+02  0.45594000000E+02  0.51100000000E-03 0. -1.
         11   -1    0    0    0    0 -0.00000000000E+00 -0.00000000000E+00 -0.45593999997E+02  0.45594000000E+02  0.51100000000E-03 0.  1.
    9900012    2    1    2    0    0 -0.17928337921E+02 -0.15957512705E+01  0.51680726431E+01  0.72461529495E+02  0.69999946852E+02 0.  0.
        -12    1    1    2    0    0  0.17928337921E+02  0.15957512705E+01 -0.51680726431E+01  0.18726470505E+02  0.00000000000E+00 0.  1.
         11    1    3    3    0    0 -0.29752502554E+02 -0.27035994220E+02  0.10015541861E+02  0.41430272395E+02  0.51100000000E-03 0. -1.
        -11    1    3    3    0    0 -0.70285566912E+00 -0.69676354108E+00  0.10612943840E+01  0.14511483572E+01  0.51100000000E-03 0.  1.
        -12    1    3    3    0    0  0.12527020302E+02  0.26137006491E+02 -0.59087636017E+01  0.29580108743E+02  0.00000000000E+00 0.  1.
</event>
<event>
 7    1  0.2577508E-013  0.7246156E+02  0.7816164E-02  0.1226708E+00
        -11   -1    0    0    0    0  0.00000000000E+00  0.00000000000E+00  0.45593999997E+02  0.45594000000E+02  0.51100000000E-03 0. -1.
         11   -1    0    0    0    0 -0.00000000000E+00 -0.00000000000E+00 -0.45593999997E+02  0.45594000000E+02  0.51100000000E-03 0.  1.
    9900012    2    1    2    0    0 -0.20410506312E+01  0.18277758611E+02  0.35266356428E+01  0.72461561297E+02  0.69999988280E+02 0.  0.
        -12    1    1    2    0    0  0.20410506312E+01 -0.18277758611E+02 -0.35266356428E+01  0.18726438703E+02  0.00000000000E+00 0.  1.
         11    1    3    3    0    0  0.26963112912E+01  0.96471644815E+01  0.15534702538E+02  0.18484178649E+02  0.51100000000E-03 0. -1.
        -11    1    3    3    0    0 -0.92085824101E+01  0.28755787363E+02 -0.13967906734E+02  0.33268539428E+02  0.51100000000E-03 0.  1.
        -12    1    3    3    0    0  0.44712204876E+01 -0.20125193233E+02  0.19598398390E+01  0.20708843220E+02  0.00000000000E+00 0.  1.
</event>
<event>
 7    1  0.2577508E-013  0.7246157E+02  0.7816164E-02  0.1226708E+00
        -11   -1    0    0    0    0  0.00000000000E+00  0.00000000000E+00  0.45593999997E+02  0.45594000000E+02  0.51100000000E-03 0.  1.
         11   -1    0    0    0    0 -0.00000000000E+00 -0.00000000000E+00 -0.45593999997E+02  0.45594000000E+02  0.51100000000E-03 0. -1.
    9900012    2    1    2    0    0 -0.96637096890E+01  0.61845422740E+00  0.16028395544E+02  0.72461568565E+02  0.69999997747E+02 0.  0.
        -12    1    1    2    0    0  0.96637096890E+01 -0.61845422740E+00 -0.16028395544E+02  0.18726431435E+02  0.00000000000E+00 0.  1.
         11    1    3    3    0    0 -0.20013718606E+02  0.11376300165E+02  0.93802233932E+00  0.23040161111E+02  0.51100000000E-03 0. -1.
        -11    1    3    3    0    0 -0.14832688465E+02 -0.90910818934E+01 -0.39098725032E+01  0.17830970819E+02  0.51100000000E-03 0.  1.
        -12    1    3    3    0    0  0.25182697382E+02 -0.16667640442E+01  0.19000245708E+02  0.31590436634E+02  0.00000000000E+00 0.  1.
</event>
<event>
 7    1  0.2577508E-013  0.7246158E+02  0.7816164E-02  0.1226708E+00
        -11   -1    0    0    0    0  0.00000000000E+00  0.00000000000E+00  0.45593999997E+02  0.45594000000E+02  0.51100000000E-03 0.  1.
         11   -1    0    0    0    0 -0.00000000000E+00 -0.00000000000E+00 -0.45593999997E+02  0.45594000000E+02  0.51100000000E-03 0. -1.
    9900012    2    1    2    0    0  0.11715554025E+02  0.61658406223E+01 -0.13244125621E+02  0.72461583894E+02  0.70000017716E+02 0.  0.
        -12    1    1    2    0    0 -0.11715554025E+02 -0.61658406223E+01  0.13244125621E+02  0.18726416106E+02  0.00000000000E+00 0.  1.
         11    1    3    3    0    0 -0.12409566055E+02  0.17074566160E+02  0.11273711140E+02  0.23929786927E+02  0.51100000000E-03 0.  1.
        -11    1    3    3    0    0 -0.33219510682E+01 -0.10453523187E+02  0.10493404745E+01  0.11018739566E+02  0.51100000000E-03 0. -1.
        -12    1    3    3    0    0  0.27447071148E+02 -0.45520235028E+00 -0.25567177236E+02  0.37513057402E+02  0.00000000000E+00 0.  1.
</event>
<event>
 7    1  0.2577508E-013  0.7246158E+02  0.7816164E-02  0.1226708E+00
        -11   -1    0    0    0    0  0.00000000000E+00  0.00000000000E+00  0.45593999997E+02  0.45594000000E+02  0.51100000000E-03 0.  1.
         11   -1    0    0    0    0 -0.00000000000E+00 -0.00000000000E+00 -0.45593999997E+02  0.45594000000E+02  0.51100000000E-03 0. -1.
    9900012    2    1    2    0    0  0.11412912691E+02  0.14360032340E+02 -0.37700852849E+01  0.72461584221E+02  0.70000018142E+02 0.  0.
        -12    1    1    2    0    0 -0.11412912691E+02 -0.14360032340E+02  0.37700852849E+01  0.18726415779E+02  0.00000000000E+00 0.  1.
         11    1    3    3    0    0  0.75998139620E+01 -0.11474174238E+02 -0.16298902053E+02  0.21332324184E+02  0.51100000000E-03 0. -1.
        -11    1    3    3    0    0 -0.54145662888E+01  0.16717888675E+02 -0.13425212603E+02  0.22114286413E+02  0.51100000000E-03 0.  1.
        -12    1    3    3    0    0  0.92276650176E+01  0.91163179028E+01  0.25954029371E+02  0.29014973624E+02  0.00000000000E+00 0.  1.
</event>
<event>
 7    1  0.2577508E-013  0.7246161E+02  0.7816164E-02  0.1226708E+00
        -11   -1    0    0    0    0  0.00000000000E+00  0.00000000000E+00  0.45593999997E+02  0.45594000000E+02  0.51100000000E-03 0. -1.
         11   -1    0    0    0    0 -0.00000000000E+00 -0.00000000000E+00 -0.45593999997E+02  0.45594000000E+02  0.51100000000E-03 0.  1.
    9900012    2    1    2    0    0 -0.11985365548E+01  0.13684563404E+02  0.12726903677E+02  0.72461605723E+02  0.70000046152E+02 0.  0.
        -12    1    1    2    0    0  0.11985365548E+01 -0.13684563404E+02 -0.12726903677E+02  0.18726394277E+02  0.00000000000E+00 0.  1.
         11    1    3    3    0    0  0.28893677267E+01  0.69451082090E+01  0.46627506561E+01  0.88500970524E+01  0.51100000000E-03 0. -1.
        -11    1    3    3    0    0  0.44839869066E+01 -0.25661301239E+02  0.14001049720E+02  0.29574277901E+02  0.51100000000E-03 0.  1.
         12    1    3    3    0    0 -0.85718911882E+01  0.32400756434E+02 -0.59368966994E+01  0.34037230769E+02  0.00000000000E+00 0. -1.
</event>
<event>
 7    1  0.3173341E-013  0.7246168E+02  0.7816164E-02  0.1226708E+00
        -11   -1    0    0    0    0  0.00000000000E+00  0.00000000000E+00  0.45593999997E+02  0.45594000000E+02  0.51100000000E-03 0. -1.
         11   -1    0    0    0    0 -0.00000000000E+00 -0.00000000000E+00 -0.45593999997E+02  0.45594000000E+02  0.51100000000E-03 0.  1.
    9900012    2    1    2    0    0 -0.13139056735E+02 -0.61695442093E+01  0.11831184820E+02  0.72461681037E+02  0.70000144263E+02 0.  0.
        -12    1    1    2    0    0  0.13139056735E+02  0.61695442093E+01 -0.11831184820E+02  0.18726318963E+02  0.00000000000E+00 0.  1.
         11    1    3    3    0    0 -0.13966969153E+02  0.13879629802E+02  0.11164804237E+02  0.22635662232E+02  0.51100000000E-03 0. -1.
        -11    1    3    3    0    0  0.19718054729E+02  0.29482245262E+01 -0.14496426299E+01  0.19989876792E+02  0.51100000000E-03 0.  1.
         12    1    3    3    0    0 -0.18890142311E+02 -0.22997398538E+02  0.21160232133E+01  0.29836142014E+02  0.00000000000E+00 0. -1.
</event>
<event>
 7    1  0.2577508E-013  0.7246175E+02  0.7816164E-02  0.1226708E+00
        -11   -1    0    0    0    0  0.00000000000E+00  0.00000000000E+00  0.45593999997E+02  0.45594000000E+02  0.51100000000E-03 0.  1.
         11   -1    0    0    0    0 -0.00000000000E+00 -0.00000000000E+00 -0.45593999997E+02  0.45594000000E+02  0.51100000000E-03 0. -1.
    9900012    2    1    2    0    0  0.14584326896E+01 -0.29524584426E+01 -0.18434436983E+02  0.72461748276E+02  0.70000231853E+02 0.  0.
        -12    1    1    2    0    0 -0.14584326896E+01  0.29524584426E+01  0.18434436983E+02  0.18726251724E+02  0.00000000000E+00 0.  1.
         11    1    3    3    0    0 -0.51438074316E+01 -0.50004343166E+01 -0.21300347023E+02  0.22475940065E+02  0.51100000000E-03 0. -1.
        -11    1    3    3    0    0 -0.35356590360E+01 -0.18232242142E+02 -0.12686517579E+02  0.22491404289E+02  0.51100000000E-03 0.  1.
        -12    1    3    3    0    0  0.10137899157E+02  0.20280218016E+02  0.15552427619E+02  0.27494403921E+02  0.00000000000E+00 0.  1.
</event>
<event>
 7    1  0.2577508E-013  0.7246157E+02  0.7816164E-02  0.1226708E+00
        -11   -1    0    0    0    0  0.00000000000E+00  0.00000000000E+00  0.45593999997E+02  0.45594000000E+02  0.51100000000E-03 0.  1.
         11   -1    0    0    0    0 -0.00000000000E+00 -0.00000000000E+00 -0.45593999997E+02  0.45594000000E+02  0.51100000000E-03 0. -1.
    9900012    2    1    2    0    0  0.55040853266E+01 -0.80047457826E+01 -0.16009632815E+02  0.72461568060E+02  0.69999997089E+02 0.  0.
        -12    1    1    2    0    0 -0.55040853266E+01  0.80047457826E+01  0.16009632815E+02  0.18726431940E+02  0.00000000000E+00 0.  1.
         11    1    3    3    0    0 -0.14549251711E+02  0.65983183090E+01 -0.14176750162E+02  0.21358810249E+02  0.51100000000E-03 0. -1.
        -11    1    3    3    0    0  0.33485286410E+01  0.15406030503E+02  0.40011427063E+01  0.16265532981E+02  0.51100000000E-03 0.  1.
         12    1    3    3    0    0  0.16704808396E+02 -0.30009094595E+02 -0.58340253597E+01  0.34837224830E+02  0.00000000000E+00 0. -1.
</event>
<event>
 7    1  0.2577508E-013  0.7246150E+02  0.7816164E-02  0.1226708E+00
        -11   -1    0    0    0    0  0.00000000000E+00  0.00000000000E+00  0.45593999997E+02  0.45594000000E+02  0.51100000000E-03 0.  1.
         11   -1    0    0    0    0 -0.00000000000E+00 -0.00000000000E+00 -0.45593999997E+02  0.45594000000E+02  0.51100000000E-03 0. -1.
    9900012    2    1    2    0    0  0.16667508815E+01  0.15664867032E+02 -0.10125006506E+02  0.72461498074E+02  0.69999905920E+02 0.  0.
        -12    1    1    2    0    0 -0.16667508815E+01 -0.15664867032E+02  0.10125006506E+02  0.18726501926E+02  0.00000000000E+00 0.  1.
         11    1    3    3    0    0  0.98008342539E+01  0.57238687268E+01 -0.22819086842E+02  0.25485873535E+02  0.51100000000E-03 0. -1.
        -11    1    3    3    0    0  0.10246914809E+02  0.15365618354E+02  0.19291591595E+02  0.26707058936E+02  0.51100000000E-03 0.  1.
        -12    1    3    3    0    0 -0.18380998181E+02 -0.54246200488E+01 -0.65975112590E+01  0.20268565604E+02  0.00000000000E+00 0.  1.
</event>
<event>
 7    1  0.2577508E-013  0.7246156E+02  0.7816164E-02  0.1226708E+00
        -11   -1    0    0    0    0  0.00000000000E+00  0.00000000000E+00  0.45593999997E+02  0.45594000000E+02  0.51100000000E-03 0. -1.
         11   -1    0    0    0    0 -0.00000000000E+00 -0.00000000000E+00 -0.45593999997E+02  0.45594000000E+02  0.51100000000E-03 0.  1.
    9900012    2    1    2    0    0  0.11551988573E+02 -0.69744323643E+00  0.14722248702E+02  0.72461562167E+02  0.69999989413E+02 0.  0.
        -12    1    1    2    0    0 -0.11551988573E+02  0.69744323643E+00 -0.14722248702E+02  0.18726437833E+02  0.00000000000E+00 0.  1.
         11    1    3    3    0    0  0.95766212149E+01  0.14055337353E+02  0.12158731285E+02  0.20906911028E+02  0.51100000000E-03 0. -1.
        -11    1    3    3    0    0  0.20742176498E+02 -0.15609159145E+02  0.14067457033E+02  0.29525871413E+02  0.51100000000E-03 0.  1.
        -12    1    3    3    0    0 -0.18766809140E+02  0.85637855560E+00 -0.11503939616E+02  0.22028779726E+02  0.00000000000E+00 0.  1.
</event>
<event>
 7    1  0.2577508E-013  0.7246173E+02  0.7816164E-02  0.1226708E+00
        -11   -1    0    0    0    0  0.00000000000E+00  0.00000000000E+00  0.45593999997E+02  0.45594000000E+02  0.51100000000E-03 0.  1.
         11   -1    0    0    0    0 -0.00000000000E+00 -0.00000000000E+00 -0.45593999997E+02  0.45594000000E+02  0.51100000000E-03 0. -1.
    9900012    2    1    2    0    0  0.12323117869E+02 -0.13724754597E+02  0.32319000773E+01  0.72461726989E+02  0.70000204124E+02 0.  0.
        -12    1    1    2    0    0 -0.12323117869E+02  0.13724754597E+02 -0.32319000773E+01  0.18726273011E+02  0.00000000000E+00 0.  1.
         11    1    3    3    0    0 -0.26647123810E+01 -0.34870203710E+01 -0.12361640514E+02  0.13117551586E+02  0.51100000000E-03 0. -1.
        -11    1    3    3    0    0 -0.46391105560E+01  0.14035525348E+02 -0.10928091814E+02  0.18383158311E+02  0.51100000000E-03 0.  1.
         12    1    3    3    0    0  0.19626940806E+02 -0.24273259574E+02  0.26521632405E+02  0.40961017092E+02  0.00000000000E+00 0. -1.
</event>
<event>
 7    1  0.2577508E-013  0.7246155E+02  0.7816164E-02  0.1226708E+00
        -11   -1    0    0    0    0  0.00000000000E+00  0.00000000000E+00  0.45593999997E+02  0.45594000000E+02  0.51100000000E-03 0.  1.
         11   -1    0    0    0    0 -0.00000000000E+00 -0.00000000000E+00 -0.45593999997E+02  0.45594000000E+02  0.51100000000E-03 0. -1.
    9900012    2    1    2    0    0 -0.11707103955E+02  0.50749270201E+01 -0.13706518361E+02  0.72461553117E+02  0.69999977623E+02 0.  0.
        -12    1    1    2    0    0  0.11707103955E+02 -0.50749270201E+01  0.13706518361E+02  0.18726446883E+02  0.00000000000E+00 0.  1.
         11    1    3    3    0    0  0.10296471520E+02  0.29477577340E+02 -0.11185011517E+02  0.33166992243E+02  0.51100000000E-03 0. -1.
        -11    1    3    3    0    0 -0.50721411726E+01 -0.14444281424E+02 -0.99895879921E+01  0.18279927529E+02  0.51100000000E-03 0.  1.
        -12    1    3    3    0    0 -0.16931434302E+02 -0.99583688954E+01  0.74680811478E+01  0.21014633345E+02  0.00000000000E+00 0.  1.
</event>
<event>
 7    1  0.2577508E-013  0.7246149E+02  0.7816164E-02  0.1226708E+00
        -11   -1    0    0    0    0  0.00000000000E+00  0.00000000000E+00  0.45593999997E+02  0.45594000000E+02  0.51100000000E-03 0.  1.
         11   -1    0    0    0    0 -0.00000000000E+00 -0.00000000000E+00 -0.45593999997E+02  0.45594000000E+02  0.51100000000E-03 0. -1.
    9900012    2    1    2    0    0 -0.15543683271E+02  0.54697114622E+01 -0.88971058473E+01  0.72461486027E+02  0.69999890226E+02 0.  0.
        -12    1    1    2    0    0  0.15543683271E+02 -0.54697114622E+01  0.88971058473E+01  0.18726513973E+02  0.00000000000E+00 0.  1.
         11    1    3    3    0    0 -0.12862990257E+02 -0.33098450421E+01  0.11875826703E+02  0.17817038270E+02  0.51100000000E-03 0. -1.
        -11    1    3    3    0    0  0.54749368013E+01 -0.19435274372E+02 -0.32704046478E+01  0.20454837318E+02  0.51100000000E-03 0.  1.
         12    1    3    3    0    0 -0.81556298155E+01  0.28214830876E+02 -0.17502527903E+02  0.34189610440E+02  0.00000000000E+00 0. -1.
</event>
<event>
 7    1  0.2577508E-013  0.7246155E+02  0.7816164E-02  0.1226708E+00
        -11   -1    0    0    0    0  0.00000000000E+00  0.00000000000E+00  0.45593999997E+02  0.45594000000E+02  0.51100000000E-03 0.  1.
         11   -1    0    0    0    0 -0.00000000000E+00 -0.00000000000E+00 -0.45593999997E+02  0.45594000000E+02  0.51100000000E-03 0. -1.
    9900012    2    1    2    0    0  0.69783122124E+01  0.14898138909E+02 -0.89458588880E+01  0.72461554113E+02  0.69999978921E+02 0.  0.
        -12    1    1    2    0    0 -0.69783122124E+01 -0.14898138909E+02  0.89458588880E+01  0.18726445887E+02  0.00000000000E+00 0.  1.
         11    1    3    3    0    0  0.44265609302E+00 -0.59415755543E+00  0.12167493263E+01  0.14245865370E+01  0.51100000000E-03 0. -1.
        -11    1    3    3    0    0 -0.13008285677E+02 -0.18841481704E+02  0.11882785586E+02  0.25795688062E+02  0.51100000000E-03 0.  1.
         12    1    3    3    0    0  0.19543941796E+02  0.34333778169E+02 -0.22045393800E+02  0.45241279514E+02  0.00000000000E+00 0. -1.
</event>
<event>
 7    1  0.2577508E-013  0.7246156E+02  0.7816164E-02  0.1226708E+00
        -11   -1    0    0    0    0  0.00000000000E+00  0.00000000000E+00  0.45593999997E+02  0.45594000000E+02  0.51100000000E-03 0.  1.
         11   -1    0    0    0    0 -0.00000000000E+00 -0.00000000000E+00 -0.45593999997E+02  0.45594000000E+02  0.51100000000E-03 0. -1.
    9900012    2    1    2    0    0 -0.14166298436E+02 -0.90155931777E+01 -0.82894328832E+01  0.72461558020E+02  0.69999984010E+02 0.  0.
        -12    1    1    2    0    0  0.14166298436E+02  0.90155931777E+01  0.82894328832E+01  0.18726441980E+02  0.00000000000E+00 0.  1.
         11    1    3    3    0    0 -0.29066620153E+01 -0.21369936631E+01  0.45776641090E+01  0.58284161608E+01  0.51100000000E-03 0. -1.
        -11    1    3    3    0    0 -0.16705471402E+02  0.97706585137E+01  0.20966927326E+02  0.28533324102E+02  0.51100000000E-03 0.  1.
         12    1    3    3    0    0  0.54458349814E+01 -0.16649258028E+02 -0.33834024318E+02  0.38099817757E+02  0.00000000000E+00 0. -1.
</event>
<event>
 7    1  0.2577508E-013  0.7246156E+02  0.7816164E-02  0.1226708E+00
        -11   -1    0    0    0    0  0.00000000000E+00  0.00000000000E+00  0.45593999997E+02  0.45594000000E+02  0.51100000000E-03 0. -1.
         11   -1    0    0    0    0 -0.00000000000E+00 -0.00000000000E+00 -0.45593999997E+02  0.45594000000E+02  0.51100000000E-03 0.  1.
    9900012    2    1    2    0    0  0.69260765260E+01  0.17392428133E+02  0.46075307873E+00  0.72461564520E+02  0.69999992477E+02 0.  0.
        -12    1    1    2    0    0 -0.69260765260E+01 -0.17392428133E+02 -0.46075307873E+00  0.18726435480E+02  0.00000000000E+00 0.  1.
         11    1    3    3    0    0  0.12720013113E+01 -0.43920261054E+01  0.17922737100E+02  0.18496820972E+02  0.51100000000E-03 0. -1.
        -11    1    3    3    0    0 -0.13262525433E+02 -0.54715424190E+01 -0.14906856177E+02  0.20689289950E+02  0.51100000000E-03 0.  1.
        -12    1    3    3    0    0  0.18916600647E+02  0.27255996657E+02 -0.25551278446E+01  0.33275453598E+02  0.00000000000E+00 0.  1.
</event>
<event>
 7    1  0.2577508E-013  0.7246163E+02  0.7816164E-02  0.1226708E+00
        -11   -1    0    0    0    0  0.00000000000E+00  0.00000000000E+00  0.45593999997E+02  0.45594000000E+02  0.51100000000E-03 0. -1.
         11   -1    0    0    0    0 -0.00000000000E+00 -0.00000000000E+00 -0.45593999997E+02  0.45594000000E+02  0.51100000000E-03 0.  1.
    9900012    2    1    2    0    0  0.16105179801E+02  0.81304619254E+01  0.50195355097E+01  0.72461629175E+02  0.70000076702E+02 0.  0.
        -12    1    1    2    0    0 -0.16105179801E+02 -0.81304619254E+01 -0.50195355097E+01  0.18726370825E+02  0.00000000000E+00 0.  1.
         11    1    3    3    0    0 -0.49388092919E+01  0.21470258311E+02  0.73616907181E+01  0.23228394685E+02  0.51100000000E-03 0. -1.
        -11    1    3    3    0    0 -0.12628160608E+02 -0.73744137513E+00 -0.39267206016E+01  0.13245127220E+02  0.51100000000E-03 0.  1.
        -12    1    3    3    0    0  0.33672149702E+02 -0.12602355010E+02  0.15845653932E+01  0.35988107269E+02  0.00000000000E+00 0.  1.
</event>
<event>
 7    1  0.2577508E-013  0.7246155E+02  0.7816164E-02  0.1226708E+00
        -11   -1    0    0    0    0  0.00000000000E+00  0.00000000000E+00  0.45593999997E+02  0.45594000000E+02  0.51100000000E-03 0. -1.
         11   -1    0    0    0    0 -0.00000000000E+00 -0.00000000000E+00 -0.45593999997E+02  0.45594000000E+02  0.51100000000E-03 0.  1.
    9900012    2    1    2    0    0  0.16714383001E+02  0.49481258147E+01  0.68428986874E+01  0.72461553177E+02  0.69999977701E+02 0.  0.
        -12    1    1    2    0    0 -0.16714383001E+02 -0.49481258147E+01 -0.68428986874E+01  0.18726446823E+02  0.00000000000E+00 0.  1.
         11    1    3    3    0    0  0.13774073672E+02 -0.17268602774E+02  0.18983534294E+02  0.29125664316E+02  0.51100000000E-03 0. -1.
        -11    1    3    3    0    0  0.14564704873E+02 -0.11686807777E+01 -0.18150485736E+00  0.14612644767E+02  0.51100000000E-03 0.  1.
        -12    1    3    3    0    0 -0.11624395544E+02  0.23385409366E+02 -0.11959130750E+02  0.28723244094E+02  0.00000000000E+00 0.  1.
</event>
<event>
 7    1  0.2577508E-013  0.7246160E+02  0.7816164E-02  0.1226708E+00
        -11   -1    0    0    0    0  0.00000000000E+00  0.00000000000E+00  0.45593999997E+02  0.45594000000E+02  0.51100000000E-03 0.  1.
         11   -1    0    0    0    0 -0.00000000000E+00 -0.00000000000E+00 -0.45593999997E+02  0.45594000000E+02  0.51100000000E-03 0. -1.
    9900012    2    1    2    0    0 -0.53702471115E+00 -0.68219246298E+01 -0.17431321502E+02  0.72461600973E+02  0.70000039965E+02 0.  0.
        -12    1    1    2    0    0  0.53702471115E+00  0.68219246298E+01  0.17431321502E+02  0.18726399027E+02  0.00000000000E+00 0.  1.
         11    1    3    3    0    0  0.87442340300E+01  0.78011131084E+01 -0.45665766042E+01  0.12576669537E+02  0.51100000000E-03 0. -1.
        -11    1    3    3    0    0  0.22285780997E+02 -0.12140132475E+02  0.81678522724E+00  0.25391061213E+02  0.51100000000E-03 0.  1.
        -12    1    3    3    0    0 -0.31567039738E+02 -0.24829052629E+01 -0.13681530125E+02  0.34493870223E+02  0.00000000000E+00 0.  1.
</event>
<event>
 7    1  0.2577508E-013  0.7246160E+02  0.7816164E-02  0.1226708E+00
        -11   -1    0    0    0    0  0.00000000000E+00  0.00000000000E+00  0.45593999997E+02  0.45594000000E+02  0.51100000000E-03 0. -1.
         11   -1    0    0    0    0 -0.00000000000E+00 -0.00000000000E+00 -0.45593999997E+02  0.45594000000E+02  0.51100000000E-03 0.  1.
    9900012    2    1    2    0    0 -0.39618487753E+01 -0.11173466793E+02  0.14496047496E+02  0.72461601550E+02  0.70000040717E+02 0.  0.
        -12    1    1    2    0    0  0.39618487753E+01  0.11173466793E+02 -0.14496047496E+02  0.18726398450E+02  0.00000000000E+00 0.  1.
         11    1    3    3    0    0 -0.24322627419E+01  0.88061257788E+01  0.22530492361E+02  0.24312277548E+02  0.51100000000E-03 0. -1.
        -11    1    3    3    0    0 -0.33158079196E+01  0.12848272751E+02  0.27462402695E+01  0.13550443931E+02  0.51100000000E-03 0.  1.
         12    1    3    3    0    0  0.17862218862E+01 -0.32827865323E+02 -0.10780685134E+02  0.34598880072E+02  0.00000000000E+00 0. -1.
</event>
<event>
 7    1  0.2815990E-013  0.7246160E+02  0.7816164E-02  0.1226708E+00
        -11   -1    0    0    0    0  0.00000000000E+00  0.00000000000E+00  0.45593999997E+02  0.45594000000E+02  0.51100000000E-03 0. -1.
         11   -1    0    0    0    0 -0.00000000000E+00 -0.00000000000E+00 -0.45593999997E+02  0.45594000000E+02  0.51100000000E-03 0.  1.
    9900012    2    1    2    0    0  0.34701250684E+01 -0.30294444688E-01  0.18402043178E+02  0.72461604755E+02  0.70000044891E+02 0.  0.
        -12    1    1    2    0    0 -0.34701250684E+01  0.30294444688E-01 -0.18402043178E+02  0.18726395245E+02  0.00000000000E+00 0.  1.
         11    1    3    3    0    0 -0.18212910529E+02  0.77786672466E+01  0.19971334990E+02  0.28126002127E+02  0.51100000000E-03 0. -1.
        -11    1    3    3    0    0 -0.88120209824E+01 -0.58358663829E+01 -0.78154362398E+01  0.13144964592E+02  0.51100000000E-03 0.  1.
        -12    1    3    3    0    0  0.30495056580E+02 -0.19730953084E+01  0.62461444280E+01  0.31190638037E+02  0.00000000000E+00 0.  1.
</event>
<event>
 7    1  0.2708435E-013  0.7246141E+02  0.7816164E-02  0.1226708E+00
        -11   -1    0    0    0    0  0.00000000000E+00  0.00000000000E+00  0.45593999997E+02  0.45594000000E+02  0.51100000000E-03 0. -1.
         11   -1    0    0    0    0 -0.00000000000E+00 -0.00000000000E+00 -0.45593999997E+02  0.45594000000E+02  0.51100000000E-03 0.  1.
    9900012    2    1    2    0    0 -0.53903071120E+01  0.13561600074E+02  0.11735104204E+02  0.72461412537E+02  0.69999794492E+02 0.  0.
        -12    1    1    2    0    0  0.53903071120E+01 -0.13561600074E+02 -0.11735104204E+02  0.18726587463E+02  0.00000000000E+00 0.  1.
         11    1    3    3    0    0 -0.11724266363E+02  0.19469748355E+01 -0.52775466336E+01  0.13003908316E+02  0.51100000000E-03 0. -1.
        -11    1    3    3    0    0  0.95612201635E+01 -0.96943871228E+01 -0.15385709820E+02  0.20545513857E+02  0.51100000000E-03 0.  1.
         12    1    3    3    0    0 -0.32272609130E+01  0.21309012361E+02  0.32398360658E+02  0.38911990365E+02  0.00000000000E+00 0. -1.
</event>
<event>
 7    1  0.2577508E-013  0.7246155E+02  0.7816164E-02  0.1226708E+00
        -11   -1    0    0    0    0  0.00000000000E+00  0.00000000000E+00  0.45593999997E+02  0.45594000000E+02  0.51100000000E-03 0.  1.
         11   -1    0    0    0    0 -0.00000000000E+00 -0.00000000000E+00 -0.45593999997E+02  0.45594000000E+02  0.51100000000E-03 0. -1.
    9900012    2    1    2    0    0  0.90526879082E+01  0.67105435962E+01 -0.14956513965E+02  0.72461551760E+02  0.69999975855E+02 0.  0.
        -12    1    1    2    0    0 -0.90526879082E+01 -0.67105435962E+01  0.14956513965E+02  0.18726448240E+02  0.00000000000E+00 0.  1.
         11    1    3    3    0    0  0.94467956863E+01 -0.36444482065E+01 -0.64443244529E+01  0.12002219352E+02  0.51100000000E-03 0. -1.
        -11    1    3    3    0    0  0.12816013777E+02 -0.14091720000E+02  0.14852583811E+02  0.24154213459E+02  0.51100000000E-03 0.  1.
        -12    1    3    3    0    0 -0.13210121555E+02  0.24446711803E+02 -0.23364773323E+02  0.36305118949E+02  0.00000000000E+00 0.  1.
</event>
<event>
 7    1  0.2577508E-013  0.7246153E+02  0.7816164E-02  0.1226708E+00
        -11   -1    0    0    0    0  0.00000000000E+00  0.00000000000E+00  0.45593999997E+02  0.45594000000E+02  0.51100000000E-03 0.  1.
         11   -1    0    0    0    0 -0.00000000000E+00 -0.00000000000E+00 -0.45593999997E+02  0.45594000000E+02  0.51100000000E-03 0. -1.
    9900012    2    1    2    0    0  0.62954631750E+01  0.11387900596E+02 -0.13467131035E+02  0.72461527965E+02  0.69999944858E+02 0.  0.
        -12    1    1    2    0    0 -0.62954631750E+01 -0.11387900596E+02  0.13467131035E+02  0.18726472035E+02  0.00000000000E+00 0.  1.
         11    1    3    3    0    0  0.17120540682E+01 -0.11530515426E+01  0.86066012812E+00  0.22363794645E+01  0.51100000000E-03 0. -1.
        -11    1    3    3    0    0  0.22149227141E+02 -0.19682520606E+02 -0.15632448815E+02  0.33501691548E+02  0.51100000000E-03 0.  1.
         12    1    3    3    0    0 -0.17565818034E+02  0.32223472745E+02  0.13046576525E+01  0.36723456952E+02  0.00000000000E+00 0. -1.
</event>
<event>
 7    1  0.2577508E-013  0.7246158E+02  0.7816164E-02  0.1226708E+00
        -11   -1    0    0    0    0  0.00000000000E+00  0.00000000000E+00  0.45593999997E+02  0.45594000000E+02  0.51100000000E-03 0. -1.
         11   -1    0    0    0    0 -0.00000000000E+00 -0.00000000000E+00 -0.45593999997E+02  0.45594000000E+02  0.51100000000E-03 0.  1.
    9900012    2    1    2    0    0  0.18091009048E+02 -0.46617400395E+01 -0.12892624700E+01  0.72461584798E+02  0.70000018894E+02 0.  0.
        -12    1    1    2    0    0 -0.18091009048E+02  0.46617400395E+01  0.12892624700E+01  0.18726415202E+02  0.00000000000E+00 0.  1.
         11    1    3    3    0    0  0.14342164327E+01 -0.93001114582E+01  0.77520730575E+01  0.12191951725E+02  0.51100000000E-03 0. -1.
        -11    1    3    3    0    0  0.31835917547E+02 -0.40984486334E+01  0.10741358729E+02  0.33848186286E+02  0.51100000000E-03 0.  1.
         12    1    3    3    0    0 -0.15179124931E+02  0.87368200521E+01 -0.19782694256E+02  0.26421446787E+02  0.00000000000E+00 0. -1.
</event>
<event>
 7    1  0.2577508E-013  0.7246135E+02  0.7816164E-02  0.1226709E+00
        -11   -1    0    0    0    0  0.00000000000E+00  0.00000000000E+00  0.45593999997E+02  0.45594000000E+02  0.51100000000E-03 0.  1.
         11   -1    0    0    0    0 -0.00000000000E+00 -0.00000000000E+00 -0.45593999997E+02  0.45594000000E+02  0.51100000000E-03 0. -1.
    9900012    2    1    2    0    0 -0.25601582907E+01  0.14083831008E+02 -0.12073880070E+02  0.72461353576E+02  0.69999717684E+02 0.  0.
        -12    1    1    2    0    0  0.25601582907E+01 -0.14083831008E+02  0.12073880070E+02  0.18726646424E+02  0.00000000000E+00 0.  1.
         11    1    3    3    0    0  0.23436942797E+02 -0.12036972761E+02  0.45180611985E+01  0.26731851379E+02  0.51100000000E-03 0. -1.
        -11    1    3    3    0    0 -0.73363683762E+01  0.12923952748E+02 -0.17371123102E+02  0.22860594342E+02  0.51100000000E-03 0.  1.
        -12    1    3    3    0    0 -0.18660732711E+02  0.13196851021E+02  0.77918183333E+00  0.22868907856E+02  0.00000000000E+00 0.  1.
</event>
<event>
 7    1  0.2577508E-013  0.7246158E+02  0.7816164E-02  0.1226708E+00
        -11   -1    0    0    0    0  0.00000000000E+00  0.00000000000E+00  0.45593999997E+02  0.45594000000E+02  0.51100000000E-03 0.  1.
         11   -1    0    0    0    0 -0.00000000000E+00 -0.00000000000E+00 -0.45593999997E+02  0.45594000000E+02  0.51100000000E-03 0. -1.
    9900012    2    1    2    0    0 -0.13846334778E+01 -0.18599206654E+02  0.16825788333E+01  0.72461580973E+02  0.70000013911E+02 0.  0.
        -12    1    1    2    0    0  0.13846334778E+01  0.18599206654E+02 -0.16825788333E+01  0.18726419027E+02  0.00000000000E+00 0.  1.
         11    1    3    3    0    0 -0.95892010627E+01  0.18481125832E+02 -0.12730326391E+02  0.24404220932E+02  0.51100000000E-03 0. -1.
        -11    1    3    3    0    0  0.94584276908E+00 -0.72252579196E+01 -0.73933227326E+01  0.10380760658E+02  0.51100000000E-03 0.  1.
        -12    1    3    3    0    0  0.72587248158E+01 -0.29855074567E+02  0.21806227957E+02  0.37676599383E+02  0.00000000000E+00 0.  1.
</event>
<event>
 7    1  0.2577508E-013  0.7246126E+02  0.7816164E-02  0.1226709E+00
        -11   -1    0    0    0    0  0.00000000000E+00  0.00000000000E+00  0.45593999997E+02  0.45594000000E+02  0.51100000000E-03 0.  1.
         11   -1    0    0    0    0 -0.00000000000E+00 -0.00000000000E+00 -0.45593999997E+02  0.45594000000E+02  0.51100000000E-03 0. -1.
    9900012    2    1    2    0    0 -0.89421697341E+01 -0.24806712620E+00 -0.16451956849E+02  0.72461259200E+02  0.69999594740E+02 0.  0.
        -12    1    1    2    0    0  0.89421697341E+01  0.24806712620E+00  0.16451956849E+02  0.18726740800E+02  0.00000000000E+00 0.  1.
         11    1    3    3    0    0 -0.23534589461E+02 -0.16591405482E+02 -0.21121232392E+02  0.35710756013E+02  0.51100000000E-03 0. -1.
        -11    1    3    3    0    0  0.76538699231E+01 -0.79032390823E+01 -0.47153643527E+00  0.11012050657E+02  0.51100000000E-03 0.  1.
        -12    1    3    3    0    0  0.69385498037E+01  0.24246577439E+02  0.51408119783E+01  0.25738452530E+02  0.00000000000E+00 0.  1.
</event>
<event>
 7    1  0.2577508E-013  0.7246157E+02  0.7816164E-02  0.1226708E+00
        -11   -1    0    0    0    0  0.00000000000E+00  0.00000000000E+00  0.45593999997E+02  0.45594000000E+02  0.51100000000E-03 0. -1.
         11   -1    0    0    0    0 -0.00000000000E+00 -0.00000000000E+00 -0.45593999997E+02  0.45594000000E+02  0.51100000000E-03 0.  1.
    9900012    2    1    2    0    0 -0.23761734707E+01 -0.14502104612E+02  0.11606974624E+02  0.72461572192E+02  0.70000002472E+02 0.  0.
        -12    1    1    2    0    0  0.23761734707E+01  0.14502104612E+02 -0.11606974624E+02  0.18726427808E+02  0.00000000000E+00 0.  1.
         11    1    3    3    0    0 -0.22376367292E+02  0.14149875415E+02  0.88955965864E+01  0.27929418654E+02  0.51100000000E-03 0. -1.
        -11    1    3    3    0    0  0.11791203329E+02 -0.57096002052E+01 -0.10522608913E+02  0.16803490978E+02  0.51100000000E-03 0.  1.
        -12    1    3    3    0    0  0.82089904919E+01 -0.22942379822E+02  0.13233986950E+02  0.27728662560E+02  0.00000000000E+00 0.  1.
</event>
<event>
 7    1  0.2577508E-013  0.7246154E+02  0.7816164E-02  0.1226708E+00
        -11   -1    0    0    0    0  0.00000000000E+00  0.00000000000E+00  0.45593999997E+02  0.45594000000E+02  0.51100000000E-03 0.  1.
         11   -1    0    0    0    0 -0.00000000000E+00 -0.00000000000E+00 -0.45593999997E+02  0.45594000000E+02  0.51100000000E-03 0. -1.
    9900012    2    1    2    0    0  0.11727953360E+02 -0.11367102919E+02  0.91610221841E+01  0.72461541545E+02  0.69999962549E+02 0.  0.
        -12    1    1    2    0    0 -0.11727953360E+02  0.11367102919E+02 -0.91610221841E+01  0.18726458455E+02  0.00000000000E+00 0.  1.
         11    1    3    3    0    0 -0.30882741403E+01 -0.71667994255E+01  0.10964160831E+02  0.13457833189E+02  0.51100000000E-03 0. -1.
        -11    1    3    3    0    0 -0.33295627463E+01 -0.57141356086E+00  0.25663508990E+02  0.25884902849E+02  0.51100000000E-03 0.  1.
         12    1    3    3    0    0  0.18145790247E+02 -0.36288899329E+01 -0.27466647637E+02  0.33118805507E+02  0.00000000000E+00 0. -1.
</event>
<event>
 7    1  0.2577508E-013  0.7246157E+02  0.7816164E-02  0.1226708E+00
        -11   -1    0    0    0    0  0.00000000000E+00  0.00000000000E+00  0.45593999997E+02  0.45594000000E+02  0.51100000000E-03 0.  1.
         11   -1    0    0    0    0 -0.00000000000E+00 -0.00000000000E+00 -0.45593999997E+02  0.45594000000E+02  0.51100000000E-03 0. -1.
    9900012    2    1    2    0    0  0.12091811642E+01  0.17498368557E+02 -0.65592691650E+01  0.72461573934E+02  0.70000004741E+02 0.  0.
        -12    1    1    2    0    0 -0.12091811642E+01 -0.17498368557E+02  0.65592691650E+01  0.18726426066E+02  0.00000000000E+00 0.  1.
         11    1    3    3    0    0 -0.22976963331E+01 -0.93761477618E+01 -0.74942036157E+01  0.12221073741E+02  0.51100000000E-03 0. -1.
        -11    1    3    3    0    0  0.69361676854E+01 -0.13997051925E+02 -0.90145428222E+01  0.18035794058E+02  0.51100000000E-03 0.  1.
         12    1    3    3    0    0 -0.34292901881E+01  0.40871568244E+02  0.99494772728E+01  0.42204706134E+02  0.00000000000E+00 0. -1.
</event>
<event>
 7    1  0.2577508E-013  0.7246156E+02  0.7816164E-02  0.1226708E+00
        -11   -1    0    0    0    0  0.00000000000E+00  0.00000000000E+00  0.45593999997E+02  0.45594000000E+02  0.51100000000E-03 0.  1.
         11   -1    0    0    0    0 -0.00000000000E+00 -0.00000000000E+00 -0.45593999997E+02  0.45594000000E+02  0.51100000000E-03 0. -1.
    9900012    2    1    2    0    0 -0.82744089623E+01  0.15914454309E+02 -0.53799363747E+01  0.72461563739E+02  0.69999991461E+02 0.  0.
        -12    1    1    2    0    0  0.82744089623E+01 -0.15914454309E+02  0.53799363747E+01  0.18726436261E+02  0.00000000000E+00 0.  1.
         11    1    3    3    0    0 -0.14079151322E+02  0.15695409642E+01 -0.90686861848E+01  0.16820434899E+02  0.51100000000E-03 0. -1.
        -11    1    3    3    0    0  0.68825974255E+01 -0.16250281847E+02  0.14841365929E+02  0.23058793341E+02  0.51100000000E-03 0.  1.
         12    1    3    3    0    0 -0.10778550654E+01  0.30595195192E+02 -0.11152616119E+02  0.32582335500E+02  0.00000000000E+00 0. -1.
</event>
<event>
 7    1  0.2577508E-013  0.7246155E+02  0.7816164E-02  0.1226708E+00
        -11   -1    0    0    0    0  0.00000000000E+00  0.00000000000E+00  0.45593999997E+02  0.45594000000E+02  0.51100000000E-03 0.  1.
         11   -1    0    0    0    0 -0.00000000000E+00 -0.00000000000E+00 -0.45593999997E+02  0.45594000000E+02  0.51100000000E-03 0. -1.
    9900012    2    1    2    0    0 -0.22052654075E+01 -0.13406405014E+02  0.12887397169E+02  0.72461550879E+02  0.69999974707E+02 0.  0.
        -12    1    1    2    0    0  0.22052654075E+01  0.13406405014E+02 -0.12887397169E+02  0.18726449121E+02  0.00000000000E+00 0.  1.
         11    1    3    3    0    0 -0.73605158704E+01 -0.66822478396E+01 -0.19709758362E+02  0.22074967838E+02  0.51100000000E-03 0. -1.
        -11    1    3    3    0    0  0.98160386515E+01 -0.19700955305E+02  0.10612556365E+02  0.24435805851E+02  0.51100000000E-03 0.  1.
        -12    1    3    3    0    0 -0.46607881887E+01  0.12976798131E+02  0.21984599166E+02  0.25950777190E+02  0.00000000000E+00 0.  1.
</event>
<event>
 7    1  0.2577508E-013  0.7246153E+02  0.7816164E-02  0.1226708E+00
        -11   -1    0    0    0    0  0.00000000000E+00  0.00000000000E+00  0.45593999997E+02  0.45594000000E+02  0.51100000000E-03 0.  1.
         11   -1    0    0    0    0 -0.00000000000E+00 -0.00000000000E+00 -0.45593999997E+02  0.45594000000E+02  0.51100000000E-03 0. -1.
    9900012    2    1    2    0    0 -0.66340251169E+01 -0.44695938852E+01 -0.16932015491E+02  0.72461529234E+02  0.69999946511E+02 0.  0.
        -12    1    1    2    0    0  0.66340251169E+01  0.44695938852E+01  0.16932015491E+02  0.18726470766E+02  0.00000000000E+00 0.  1.
         11    1    3    3    0    0 -0.11596198832E+02  0.40530686240E+01 -0.11308949415E+01  0.12336049459E+02  0.51100000000E-03 0. -1.
        -11    1    3    3    0    0 -0.23910284204E+02 -0.15242589944E+02 -0.83445184988E+01  0.29557896207E+02  0.51100000000E-03 0.  1.
         12    1    3    3    0    0  0.28872457920E+02  0.67199274353E+01 -0.74566020509E+01  0.30567583568E+02  0.00000000000E+00 0. -1.
</event>
<event>
 7    1  0.2577508E-013  0.7246158E+02  0.7816164E-02  0.1226708E+00
        -11   -1    0    0    0    0  0.00000000000E+00  0.00000000000E+00  0.45593999997E+02  0.45594000000E+02  0.51100000000E-03 0. -1.
         11   -1    0    0    0    0 -0.00000000000E+00 -0.00000000000E+00 -0.45593999997E+02  0.45594000000E+02  0.51100000000E-03 0.  1.
    9900012    2    1    2    0    0  0.14708982887E+02  0.99583895684E+01  0.59291851173E+01  0.72461576515E+02  0.70000008104E+02 0.  0.
        -12    1    1    2    0    0 -0.14708982887E+02 -0.99583895684E+01 -0.59291851173E+01  0.18726423485E+02  0.00000000000E+00 0.  1.
         11    1    3    3    0    0  0.28220897527E+02 -0.73150042922E+01  0.12409841448E+02  0.31684894036E+02  0.51100000000E-03 0. -1.
        -11    1    3    3    0    0 -0.13633476019E+02 -0.28016550025E+01  0.79722611161E+01  0.16039884248E+02  0.51100000000E-03 0.  1.
        -12    1    3    3    0    0  0.12156137949E+00  0.20075048863E+02 -0.14452917447E+02  0.24736798232E+02  0.00000000000E+00 0.  1.
</event>
<event>
 7    1  0.2577508E-013  0.7246158E+02  0.7816164E-02  0.1226708E+00
        -11   -1    0    0    0    0  0.00000000000E+00  0.00000000000E+00  0.45593999997E+02  0.45594000000E+02  0.51100000000E-03 0. -1.
         11   -1    0    0    0    0 -0.00000000000E+00 -0.00000000000E+00 -0.45593999997E+02  0.45594000000E+02  0.51100000000E-03 0.  1.
    9900012    2    1    2    0    0 -0.14447588441E+02 -0.42717961950E+01  0.11121942966E+02  0.72461583636E+02  0.70000017380E+02 0.  0.
        -12    1    1    2    0    0  0.14447588441E+02  0.42717961950E+01 -0.11121942966E+02  0.18726416364E+02  0.00000000000E+00 0.  1.
         11    1    3    3    0    0  0.24148491249E+01 -0.14131750713E+00  0.35359793729E+00  0.24446878525E+01  0.51100000000E-03 0. -1.
        -11    1    3    3    0    0  0.19883497862E+02  0.12803080717E+02 -0.85946746482E+01  0.25162289157E+02  0.51100000000E-03 0.  1.
         12    1    3    3    0    0 -0.36745935428E+02 -0.16933559405E+02  0.19363019677E+02  0.44854606626E+02  0.00000000000E+00 0. -1.
</event>
<event>
 7    1  0.2577508E-013  0.7246162E+02  0.7816164E-02  0.1226708E+00
        -11   -1    0    0    0    0  0.00000000000E+00  0.00000000000E+00  0.45593999997E+02  0.45594000000E+02  0.51100000000E-03 0. -1.
         11   -1    0    0    0    0 -0.00000000000E+00 -0.00000000000E+00 -0.45593999997E+02  0.45594000000E+02  0.51100000000E-03 0.  1.
    9900012    2    1    2    0    0 -0.31333211079E+01 -0.70282231634E+01  0.17072303907E+02  0.72461623343E+02  0.70000069106E+02 0.  0.
        -12    1    1    2    0    0  0.31333211079E+01  0.70282231634E+01 -0.17072303907E+02  0.18726376657E+02  0.00000000000E+00 0.  1.
         11    1    3    3    0    0  0.19837372675E+02 -0.46520194157E+01 -0.12499132117E+02  0.23903785123E+02  0.51100000000E-03 0. -1.
        -11    1    3    3    0    0  0.50395742943E+01 -0.80932391949E+01  0.10552476478E+02  0.14221553706E+02  0.51100000000E-03 0.  1.
        -12    1    3    3    0    0 -0.28010268077E+02  0.57170354471E+01  0.19018959546E+02  0.34336284514E+02  0.00000000000E+00 0.  1.
</event>
<event>
 7    1  0.2577508E-013  0.7246155E+02  0.7816164E-02  0.1226708E+00
        -11   -1    0    0    0    0  0.00000000000E+00  0.00000000000E+00  0.45593999997E+02  0.45594000000E+02  0.51100000000E-03 0.  1.
         11   -1    0    0    0    0 -0.00000000000E+00 -0.00000000000E+00 -0.45593999997E+02  0.45594000000E+02  0.51100000000E-03 0. -1.
    9900012    2    1    2    0    0 -0.72893430198E+01  0.32843260370E+01 -0.16933951586E+02  0.72461547173E+02  0.69999969880E+02 0.  0.
        -12    1    1    2    0    0  0.72893430198E+01 -0.32843260370E+01  0.16933951586E+02  0.18726452827E+02  0.00000000000E+00 0.  1.
         11    1    3    3    0    0  0.16640670823E+02 -0.16215205694E+02  0.23056492124E+01  0.23348679614E+02  0.51100000000E-03 0. -1.
        -11    1    3    3    0    0  0.61687721188E+01  0.27218782267E+01  0.37246285330E+01  0.77029363561E+01  0.51100000000E-03 0.  1.
         12    1    3    3    0    0 -0.30098785962E+02  0.16777653504E+02 -0.22964229331E+02  0.41409931203E+02  0.00000000000E+00 0. -1.
</event>
<event>
 7    1  0.2577508E-013  0.7246152E+02  0.7816164E-02  0.1226708E+00
        -11   -1    0    0    0    0  0.00000000000E+00  0.00000000000E+00  0.45593999997E+02  0.45594000000E+02  0.51100000000E-03 0.  1.
         11   -1    0    0    0    0 -0.00000000000E+00 -0.00000000000E+00 -0.45593999997E+02  0.45594000000E+02  0.51100000000E-03 0. -1.
    9900012    2    1    2    0    0  0.73223118728E+00  0.70542949794E+00 -0.18698858153E+02  0.72461519030E+02  0.69999933219E+02 0.  0.
        -12    1    1    2    0    0 -0.73223118728E+00 -0.70542949794E+00  0.18698858153E+02  0.18726480970E+02  0.00000000000E+00 0.  1.
         11    1    3    3    0    0  0.61867493864E+01  0.62732099672E+01 -0.40868524157E+02  0.41807478976E+02  0.51100000000E-03 0. -1.
        -11    1    3    3    0    0 -0.87239025685E+00  0.90794326762E+00 -0.35352867825E+01  0.37528227553E+01  0.51100000000E-03 0.  1.
        -12    1    3    3    0    0 -0.45821279423E+01 -0.64757237369E+01  0.25704952787E+02  0.26901217299E+02  0.00000000000E+00 0.  1.
</event>
<event>
 7    1  0.2577508E-013  0.7246153E+02  0.7816164E-02  0.1226708E+00
        -11   -1    0    0    0    0  0.00000000000E+00  0.00000000000E+00  0.45593999997E+02  0.45594000000E+02  0.51100000000E-03 0. -1.
         11   -1    0    0    0    0 -0.00000000000E+00 -0.00000000000E+00 -0.45593999997E+02  0.45594000000E+02  0.51100000000E-03 0.  1.
    9900012    2    1    2    0    0  0.11950362488E+02  0.13356760278E+02  0.54282992720E+01  0.72461530987E+02  0.69999948795E+02 0.  0.
        -12    1    1    2    0    0 -0.11950362488E+02 -0.13356760278E+02 -0.54282992720E+01  0.18726469013E+02  0.00000000000E+00 0.  1.
         11    1    3    3    0    0 -0.53172258285E+01 -0.16160857043E+02 -0.11623942439E+02  0.20604907885E+02  0.51100000000E-03 0. -1.
        -11    1    3    3    0    0 -0.42801012189E+01 -0.52065513869E+01 -0.16114791666E+01  0.69299573703E+01  0.51100000000E-03 0.  1.
        -12    1    3    3    0    0  0.21547689535E+02  0.34724168708E+02  0.18663720877E+02  0.44926665731E+02  0.00000000000E+00 0.  1.
</event>
<event>
 7    1  0.2577508E-013  0.7246155E+02  0.7816164E-02  0.1226708E+00
        -11   -1    0    0    0    0  0.00000000000E+00  0.00000000000E+00  0.45593999997E+02  0.45594000000E+02  0.51100000000E-03 0. -1.
         11   -1    0    0    0    0 -0.00000000000E+00 -0.00000000000E+00 -0.45593999997E+02  0.45594000000E+02  0.51100000000E-03 0.  1.
    9900012    2    1    2    0    0  0.14037875509E+01  0.18402607475E+02  0.31706818175E+01  0.72461553339E+02  0.69999977912E+02 0.  0.
        -12    1    1    2    0    0 -0.14037875509E+01 -0.18402607475E+02 -0.31706818175E+01  0.18726446661E+02  0.00000000000E+00 0.  1.
         11    1    3    3    0    0 -0.11763326206E+02 -0.14762083988E+02  0.12889806025E+02  0.22856991638E+02  0.51100000000E-03 0. -1.
        -11    1    3    3    0    0  0.19670220574E+02  0.60824644755E+01 -0.19050612089E+01  0.20677118029E+02  0.51100000000E-03 0.  1.
         12    1    3    3    0    0 -0.65031068165E+01  0.27082226987E+02 -0.78140629988E+01  0.28927443672E+02  0.00000000000E+00 0. -1.
</event>
<event>
 7    1  0.2577508E-013  0.7246157E+02  0.7816164E-02  0.1226708E+00
        -11   -1    0    0    0    0  0.00000000000E+00  0.00000000000E+00  0.45593999997E+02  0.45594000000E+02  0.51100000000E-03 0.  1.
         11   -1    0    0    0    0 -0.00000000000E+00 -0.00000000000E+00 -0.45593999997E+02  0.45594000000E+02  0.51100000000E-03 0. -1.
    9900012    2    1    2    0    0  0.25892559990E+01  0.14823549939E+02  0.11146178374E+02  0.72461570234E+02  0.69999999922E+02 0.  0.
        -12    1    1    2    0    0 -0.25892559990E+01 -0.14823549939E+02 -0.11146178374E+02  0.18726429766E+02  0.00000000000E+00 0.  1.
         11    1    3    3    0    0  0.30814059898E+01 -0.28598343819E+01 -0.63149904439E+01  0.75863575011E+01  0.51100000000E-03 0. -1.
        -11    1    3    3    0    0 -0.79524874358E+01 -0.21297281522E+02  0.77255321041E+01  0.24010416556E+02  0.51100000000E-03 0.  1.
         12    1    3    3    0    0  0.74603374450E+01  0.38980665843E+02  0.97356367135E+01  0.40864796177E+02  0.00000000000E+00 0. -1.
</event>
<event>
 7    1  0.2577508E-013  0.7246155E+02  0.7816164E-02  0.1226708E+00
        -11   -1    0    0    0    0  0.00000000000E+00  0.00000000000E+00  0.45593999997E+02  0.45594000000E+02  0.51100000000E-03 0.  1.
         11   -1    0    0    0    0 -0.00000000000E+00 -0.00000000000E+00 -0.45593999997E+02  0.45594000000E+02  0.51100000000E-03 0. -1.
    9900012    2    1    2    0    0  0.17886860643E+01 -0.12883921649E+02 -0.13471644154E+02  0.72461547290E+02  0.69999970032E+02 0.  0.
        -12    1    1    2    0    0 -0.17886860643E+01  0.12883921649E+02  0.13471644154E+02  0.18726452710E+02  0.00000000000E+00 0.  1.
         11    1    3    3    0    0  0.36280314552E+01 -0.10087421492E+02 -0.18479377390E+02  0.21363662457E+02  0.51100000000E-03 0. -1.
        -11    1    3    3    0    0 -0.18052888858E+02 -0.83610928346E+01 -0.14878537671E+02  0.24843219457E+02  0.51100000000E-03 0.  1.
         12    1    3    3    0    0  0.16213543467E+02  0.55645926782E+01  0.19886270906E+02  0.26254665376E+02  0.00000000000E+00 0. -1.
</event>
<event>
 7    1  0.2577508E-013  0.7246156E+02  0.7816164E-02  0.1226708E+00
        -11   -1    0    0    0    0  0.00000000000E+00  0.00000000000E+00  0.45593999997E+02  0.45594000000E+02  0.51100000000E-03 0. -1.
         11   -1    0    0    0    0 -0.00000000000E+00 -0.00000000000E+00 -0.45593999997E+02  0.45594000000E+02  0.51100000000E-03 0.  1.
    9900012    2    1    2    0    0 -0.64679367688E+01  0.71147025878E+01  0.16069422034E+02  0.72461560844E+02  0.69999987689E+02 0.  0.
        -12    1    1    2    0    0  0.64679367688E+01 -0.71147025878E+01 -0.16069422034E+02  0.18726439156E+02  0.00000000000E+00 0.  1.
         11    1    3    3    0    0  0.76488780492E+01 -0.25110213954E+01 -0.13170288362E+02  0.15435901648E+02  0.51100000000E-03 0. -1.
        -11    1    3    3    0    0 -0.40599039300E+01 -0.11367505588E+02 -0.70002452431E+01  0.13953724841E+02  0.51100000000E-03 0.  1.
         12    1    3    3    0    0 -0.10056910888E+02  0.20993229571E+02  0.36239955639E+02  0.43071934356E+02  0.00000000000E+00 0. -1.
</event>
<event>
 7    1  0.2577508E-013  0.7246166E+02  0.7816164E-02  0.1226708E+00
        -11   -1    0    0    0    0  0.00000000000E+00  0.00000000000E+00  0.45593999997E+02  0.45594000000E+02  0.51100000000E-03 0.  1.
         11   -1    0    0    0    0 -0.00000000000E+00 -0.00000000000E+00 -0.45593999997E+02  0.45594000000E+02  0.51100000000E-03 0. -1.
    9900012    2    1    2    0    0  0.86752488636E+01  0.54907397274E+01 -0.15661023699E+02  0.72461659490E+02  0.70000116194E+02 0.  0.
        -12    1    1    2    0    0 -0.86752488636E+01 -0.54907397274E+01  0.15661023699E+02  0.18726340510E+02  0.00000000000E+00 0.  1.
         11    1    3    3    0    0 -0.63871018014E+01 -0.21432430495E+02 -0.16372462502E+02  0.27716451342E+02  0.51100000000E-03 0. -1.
        -11    1    3    3    0    0 -0.91996203135E+01  0.12956954612E+02 -0.39273514733E+01  0.16368866075E+02  0.51100000000E-03 0.  1.
        -12    1    3    3    0    0  0.24261970978E+02  0.13966215610E+02  0.46387902763E+01  0.28376342073E+02  0.00000000000E+00 0.  1.
</event>
<event>
 7    1  0.2577508E-013  0.7246155E+02  0.7816164E-02  0.1226708E+00
        -11   -1    0    0    0    0  0.00000000000E+00  0.00000000000E+00  0.45593999997E+02  0.45594000000E+02  0.51100000000E-03 0. -1.
         11   -1    0    0    0    0 -0.00000000000E+00 -0.00000000000E+00 -0.45593999997E+02  0.45594000000E+02  0.51100000000E-03 0.  1.
    9900012    2    1    2    0    0  0.11069841791E+02  0.13556516412E+02 -0.66602843196E+01  0.72461550210E+02  0.69999973836E+02 0.  0.
        -12    1    1    2    0    0 -0.11069841791E+02 -0.13556516412E+02  0.66602843196E+01  0.18726449790E+02  0.00000000000E+00 0.  1.
         11    1    3    3    0    0 -0.14224804538E+01 -0.14190032461E+02 -0.14401293746E+02  0.20267652398E+02  0.51100000000E-03 0. -1.
        -11    1    3    3    0    0  0.38397418798E+01 -0.10123861394E+02 -0.41080068598E+01  0.11580669576E+02  0.51100000000E-03 0.  1.
         12    1    3    3    0    0  0.86525803652E+01  0.37870410267E+02  0.11849016286E+02  0.40613228236E+02  0.00000000000E+00 0. -1.
</event>
<event>
 7    1  0.2577508E-013  0.7246154E+02  0.7816164E-02  0.1226708E+00
        -11   -1    0    0    0    0  0.00000000000E+00  0.00000000000E+00  0.45593999997E+02  0.45594000000E+02  0.51100000000E-03 0. -1.
         11   -1    0    0    0    0 -0.00000000000E+00 -0.00000000000E+00 -0.45593999997E+02  0.45594000000E+02  0.51100000000E-03 0.  1.
    9900012    2    1    2    0    0  0.42198993309E+01  0.10635554204E+02  0.14824224500E+02  0.72461542898E+02  0.69999964311E+02 0.  0.
        -12    1    1    2    0    0 -0.42198993309E+01 -0.10635554204E+02 -0.14824224500E+02  0.18726457102E+02  0.00000000000E+00 0.  1.
         11    1    3    3    0    0  0.47019297905E+01 -0.10990953947E+02  0.16507312891E+02  0.20381378549E+02  0.51100000000E-03 0. -1.
        -11    1    3    3    0    0 -0.12666400854E+02 -0.65010263007E+01  0.11896831135E+02  0.18553588464E+02  0.51100000000E-03 0.  1.
        -12    1    3    3    0    0  0.12184370394E+02  0.28127534452E+02 -0.13579919526E+02  0.33526575885E+02  0.00000000000E+00 0.  1.
</event>
<event>
 7    1  0.2577508E-013  0.7246159E+02  0.7816164E-02  0.1226708E+00
        -11   -1    0    0    0    0  0.00000000000E+00  0.00000000000E+00  0.45593999997E+02  0.45594000000E+02  0.51100000000E-03 0.  1.
         11   -1    0    0    0    0 -0.00000000000E+00 -0.00000000000E+00 -0.45593999997E+02  0.45594000000E+02  0.51100000000E-03 0. -1.
    9900012    2    1    2    0    0 -0.13712828636E+02  0.26566617738E+01  0.12473134184E+02  0.72461585572E+02  0.70000019902E+02 0.  0.
        -12    1    1    2    0    0  0.13712828636E+02 -0.26566617738E+01 -0.12473134184E+02  0.18726414428E+02  0.00000000000E+00 0.  1.
         11    1    3    3    0    0 -0.11093112950E+01  0.62227064156E+01 -0.44500694866E+01  0.77301853393E+01  0.51100000000E-03 0. -1.
        -11    1    3    3    0    0 -0.18343779505E+02  0.18751648760E+02 -0.11070992273E+02  0.28472538487E+02  0.51100000000E-03 0.  1.
        -12    1    3    3    0    0  0.57402621638E+01 -0.22317693402E+02  0.27994195944E+02  0.36258861745E+02  0.00000000000E+00 0.  1.
</event>
<event>
 7    1  0.2577508E-013  0.7246163E+02  0.7816164E-02  0.1226708E+00
        -11   -1    0    0    0    0  0.00000000000E+00  0.00000000000E+00  0.45593999997E+02  0.45594000000E+02  0.51100000000E-03 0. -1.
         11   -1    0    0    0    0 -0.00000000000E+00 -0.00000000000E+00 -0.45593999997E+02  0.45594000000E+02  0.51100000000E-03 0.  1.
    9900012    2    1    2    0    0 -0.16568010482E+02 -0.77673910930E+01  0.39806540304E+01  0.72461629764E+02  0.70000077470E+02 0.  0.
        -12    1    1    2    0    0  0.16568010482E+02  0.77673910930E+01 -0.39806540304E+01  0.18726370236E+02  0.00000000000E+00 0.  1.
         11    1    3    3    0    0  0.16446198932E+01 -0.28212808442E+02 -0.19846447682E+01  0.28330304444E+02  0.51100000000E-03 0. -1.
        -11    1    3    3    0    0 -0.18806060607E+02  0.78781853762E+01 -0.10876480446E+02  0.23109122604E+02  0.51100000000E-03 0.  1.
        -12    1    3    3    0    0  0.59343023222E+00  0.12567231973E+02  0.16841779244E+02  0.21022202716E+02  0.00000000000E+00 0.  1.
</event>
<event>
 7    1  0.2577508E-013  0.7246158E+02  0.7816164E-02  0.1226708E+00
        -11   -1    0    0    0    0  0.00000000000E+00  0.00000000000E+00  0.45593999997E+02  0.45594000000E+02  0.51100000000E-03 0. -1.
         11   -1    0    0    0    0 -0.00000000000E+00 -0.00000000000E+00 -0.45593999997E+02  0.45594000000E+02  0.51100000000E-03 0.  1.
    9900012    2    1    2    0    0 -0.14549195579E+02  0.28659252615E+01  0.11436178627E+02  0.72461580129E+02  0.70000012811E+02 0.  0.
        -12    1    1    2    0    0  0.14549195579E+02 -0.28659252615E+01 -0.11436178627E+02  0.18726419871E+02  0.00000000000E+00 0.  1.
         11    1    3    3    0    0 -0.15936803590E+02 -0.13630467013E+02  0.71728428441E+00  0.20982989221E+02  0.51100000000E-03 0. -1.
        -11    1    3    3    0    0 -0.12962342025E+02 -0.12138339988E+02  0.17750449455E+00  0.17759310700E+02  0.51100000000E-03 0.  1.
        -12    1    3    3    0    0  0.14349950035E+02  0.28634732263E+02  0.10541389848E+02  0.33719280207E+02  0.00000000000E+00 0.  1.
</event>
<event>
 7    1  0.2577508E-013  0.7246161E+02  0.7816164E-02  0.1226708E+00
        -11   -1    0    0    0    0  0.00000000000E+00  0.00000000000E+00  0.45593999997E+02  0.45594000000E+02  0.51100000000E-03 0. -1.
         11   -1    0    0    0    0 -0.00000000000E+00 -0.00000000000E+00 -0.45593999997E+02  0.45594000000E+02  0.51100000000E-03 0.  1.
    9900012    2    1    2    0    0  0.10703808019E+01 -0.15364279435E+01  0.18632531055E+02  0.72461613819E+02  0.70000056699E+02 0.  0.
        -12    1    1    2    0    0 -0.10703808019E+01  0.15364279435E+01 -0.18632531055E+02  0.18726386181E+02  0.00000000000E+00 0.  1.
         11    1    3    3    0    0  0.19465945099E+02  0.46601597268E+00  0.39140741832E+01  0.19861021285E+02  0.51100000000E-03 0. -1.
        -11    1    3    3    0    0  0.15105226967E+02  0.44480773516E+01  0.83797764790E+00  0.15768813546E+02  0.51100000000E-03 0.  1.
         12    1    3    3    0    0 -0.33500791264E+02 -0.64505212679E+01  0.13880479224E+02  0.36831778988E+02  0.00000000000E+00 0. -1.
</event>
<event>
 7    1  0.2577508E-013  0.7246159E+02  0.7816164E-02  0.1226708E+00
        -11   -1    0    0    0    0  0.00000000000E+00  0.00000000000E+00  0.45593999997E+02  0.45594000000E+02  0.51100000000E-03 0. -1.
         11   -1    0    0    0    0 -0.00000000000E+00 -0.00000000000E+00 -0.45593999997E+02  0.45594000000E+02  0.51100000000E-03 0.  1.
    9900012    2    1    2    0    0 -0.80095939822E+00 -0.14665888484E+02  0.11616737929E+02  0.72461590278E+02  0.70000026032E+02 0.  0.
        -12    1    1    2    0    0  0.80095939822E+00  0.14665888484E+02 -0.11616737929E+02  0.18726409722E+02  0.00000000000E+00 0.  1.
         11    1    3    3    0    0 -0.17927510698E+02 -0.92214458346E+01 -0.84627733550E+01  0.21864337087E+02  0.51100000000E-03 0. -1.
        -11    1    3    3    0    0  0.66095309694E+01  0.18431260606E+02  0.41065360477E+01  0.20006521580E+02  0.51100000000E-03 0.  1.
        -12    1    3    3    0    0  0.10517020331E+02 -0.23875703256E+02  0.15972975236E+02  0.30590731611E+02  0.00000000000E+00 0.  1.
</event>
<event>
 7    1  0.2577508E-013  0.7246158E+02  0.7816164E-02  0.1226708E+00
        -11   -1    0    0    0    0  0.00000000000E+00  0.00000000000E+00  0.45593999997E+02  0.45594000000E+02  0.51100000000E-03 0. -1.
         11   -1    0    0    0    0 -0.00000000000E+00 -0.00000000000E+00 -0.45593999997E+02  0.45594000000E+02  0.51100000000E-03 0.  1.
    9900012    2    1    2    0    0  0.10871352368E+02 -0.87287384441E+01  0.12502058841E+02  0.72461584102E+02  0.70000017987E+02 0.  0.
        -12    1    1    2    0    0 -0.10871352368E+02  0.87287384441E+01 -0.12502058841E+02  0.18726415898E+02  0.00000000000E+00 0.  1.
         11    1    3    3    0    0  0.80761965796E+01 -0.26002792706E+02  0.12848301157E+02  0.30107291850E+02  0.51100000000E-03 0. -1.
        -11    1    3    3    0    0  0.20435217661E+01 -0.12449016365E+02 -0.39110037496E+00  0.12621685681E+02  0.51100000000E-03 0.  1.
        -12    1    3    3    0    0  0.75163402204E+00  0.29723070627E+02  0.44858059538E-01  0.29732606570E+02  0.00000000000E+00 0.  1.
</event>
<event>
 7    1  0.2577508E-013  0.7246157E+02  0.7816164E-02  0.1226708E+00
        -11   -1    0    0    0    0  0.00000000000E+00  0.00000000000E+00  0.45593999997E+02  0.45594000000E+02  0.51100000000E-03 0. -1.
         11   -1    0    0    0    0 -0.00000000000E+00 -0.00000000000E+00 -0.45593999997E+02  0.45594000000E+02  0.51100000000E-03 0.  1.
    9900012    2    1    2    0    0 -0.11646247132E+02 -0.13517654146E+02  0.56848033373E+01  0.72461573890E+02  0.70000004684E+02 0.  0.
        -12    1    1    2    0    0  0.11646247132E+02  0.13517654146E+02 -0.56848033373E+01  0.18726426110E+02  0.00000000000E+00 0.  1.
         11    1    3    3    0    0 -0.71936173462E+01 -0.38967375522E+01  0.12228089708E+02  0.14712541325E+02  0.51100000000E-03 0. -1.
        -11    1    3    3    0    0 -0.85466679335E+01 -0.31715514835E+02  0.36982910825E+01  0.33054451610E+02  0.51100000000E-03 0.  1.
         12    1    3    3    0    0  0.40940381475E+01  0.22094598241E+02 -0.10241577453E+02  0.24694580955E+02  0.00000000000E+00 0. -1.
</event>
<event>
 7    1  0.2577508E-013  0.7246147E+02  0.7816164E-02  0.1226708E+00
        -11   -1    0    0    0    0  0.00000000000E+00  0.00000000000E+00  0.45593999997E+02  0.45594000000E+02  0.51100000000E-03 0.  1.
         11   -1    0    0    0    0 -0.00000000000E+00 -0.00000000000E+00 -0.45593999997E+02  0.45594000000E+02  0.51100000000E-03 0. -1.
    9900012    2    1    2    0    0  0.13005109416E+02 -0.12942837194E+02  0.37460436057E+01  0.72461474741E+02  0.69999875524E+02 0.  0.
        -12    1    1    2    0    0 -0.13005109416E+02  0.12942837194E+02 -0.37460436057E+01  0.18726525259E+02  0.00000000000E+00 0.  1.
         11    1    3    3    0    0  0.21187138735E+02 -0.20998351093E+02  0.91402984633E+01  0.31198888644E+02  0.51100000000E-03 0. -1.
        -11    1    3    3    0    0 -0.15440772408E+02 -0.11444582675E+02  0.16619500018E+01  0.19291397130E+02  0.51100000000E-03 0.  1.
         12    1    3    3    0    0  0.72587430898E+01  0.19500096573E+02 -0.70562048595E+01  0.21971188967E+02  0.00000000000E+00 0. -1.
</event>
<event>
 7    1  0.2577508E-013  0.7246155E+02  0.7816164E-02  0.1226708E+00
        -11   -1    0    0    0    0  0.00000000000E+00  0.00000000000E+00  0.45593999997E+02  0.45594000000E+02  0.51100000000E-03 0.  1.
         11   -1    0    0    0    0 -0.00000000000E+00 -0.00000000000E+00 -0.45593999997E+02  0.45594000000E+02  0.51100000000E-03 0. -1.
    9900012    2    1    2    0    0 -0.10522919354E+02 -0.90627342690E+01 -0.12562442591E+02  0.72461549508E+02  0.69999972923E+02 0.  0.
        -12    1    1    2    0    0  0.10522919354E+02  0.90627342690E+01  0.12562442591E+02  0.18726450492E+02  0.00000000000E+00 0.  1.
         11    1    3    3    0    0  0.85732863905E+01 -0.13080628346E+02 -0.10433862593E+02  0.18800786322E+02  0.51100000000E-03 0. -1.
        -11    1    3    3    0    0  0.11275105218E+02 -0.11886661124E+02  0.75465171678E+01  0.18038032930E+02  0.51100000000E-03 0.  1.
        -12    1    3    3    0    0 -0.30371310963E+02  0.15904555201E+02 -0.96750971651E+01  0.35622730256E+02  0.00000000000E+00 0.  1.
</event>
<event>
 7    1  0.2577508E-013  0.7246160E+02  0.7816164E-02  0.1226708E+00
        -11   -1    0    0    0    0  0.00000000000E+00  0.00000000000E+00  0.45593999997E+02  0.45594000000E+02  0.51100000000E-03 0. -1.
         11   -1    0    0    0    0 -0.00000000000E+00 -0.00000000000E+00 -0.45593999997E+02  0.45594000000E+02  0.51100000000E-03 0.  1.
    9900012    2    1    2    0    0  0.10190964693E+01 -0.10261736543E+02  0.15631256438E+02  0.72461602259E+02  0.70000041640E+02 0.  0.
        -12    1    1    2    0    0 -0.10190964693E+01  0.10261736543E+02 -0.15631256438E+02  0.18726397741E+02  0.00000000000E+00 0.  1.
         11    1    3    3    0    0  0.11925170855E+02 -0.11781881951E+02  0.32239793240E+02  0.36337676187E+02  0.51100000000E-03 0. -1.
        -11    1    3    3    0    0 -0.16731341058E+02 -0.62435095653E+01 -0.11812697595E+01  0.17897334545E+02  0.51100000000E-03 0.  1.
        -12    1    3    3    0    0  0.58252666722E+01  0.77636549734E+01 -0.15427267042E+02  0.18226591528E+02  0.00000000000E+00 0.  1.
</event>
<event>
 7    1  0.2577508E-013  0.7246149E+02  0.7816164E-02  0.1226708E+00
        -11   -1    0    0    0    0  0.00000000000E+00  0.00000000000E+00  0.45593999997E+02  0.45594000000E+02  0.51100000000E-03 0.  1.
         11   -1    0    0    0    0 -0.00000000000E+00 -0.00000000000E+00 -0.45593999997E+02  0.45594000000E+02  0.51100000000E-03 0. -1.
    9900012    2    1    2    0    0  0.75088729421E+01  0.17128149587E+02 -0.96197257195E+00  0.72461492788E+02  0.69999899034E+02 0.  0.
        -12    1    1    2    0    0 -0.75088729421E+01 -0.17128149587E+02  0.96197257195E+00  0.18726507212E+02  0.00000000000E+00 0.  1.
         11    1    3    3    0    0  0.63620119250E+01  0.24871281381E+02 -0.12207645499E+02  0.28426790923E+02  0.51100000000E-03 0. -1.
        -11    1    3    3    0    0  0.11400823663E+02  0.14265825831E+02  0.56779370150E+01  0.19124108759E+02  0.51100000000E-03 0.  1.
        -12    1    3    3    0    0 -0.10253962646E+02 -0.22008957625E+02  0.55677359122E+01  0.24910593106E+02  0.00000000000E+00 0.  1.
</event>
<event>
 7    1  0.2577508E-013  0.7246159E+02  0.7816164E-02  0.1226708E+00
        -11   -1    0    0    0    0  0.00000000000E+00  0.00000000000E+00  0.45593999997E+02  0.45594000000E+02  0.51100000000E-03 0.  1.
         11   -1    0    0    0    0 -0.00000000000E+00 -0.00000000000E+00 -0.45593999997E+02  0.45594000000E+02  0.51100000000E-03 0. -1.
    9900012    2    1    2    0    0 -0.91407258520E+01  0.11863963886E+02 -0.11241519190E+02  0.72461594528E+02  0.70000031569E+02 0.  0.
        -12    1    1    2    0    0  0.91407258520E+01 -0.11863963886E+02  0.11241519190E+02  0.18726405472E+02  0.00000000000E+00 0.  1.
         11    1    3    3    0    0  0.32108274696E+01  0.16644709856E+02  0.34648449515E+01  0.17302049879E+02  0.51100000000E-03 0. -1.
        -11    1    3    3    0    0 -0.14315411035E+02  0.19171643645E+02  0.45602744900E+01  0.24357319574E+02  0.51100000000E-03 0.  1.
         12    1    3    3    0    0  0.19638577136E+01 -0.23952389615E+02 -0.19266638631E+02  0.30802225075E+02  0.00000000000E+00 0. -1.
</event>
<event>
 7    1  0.2577508E-013  0.7246171E+02  0.7816164E-02  0.1226708E+00
        -11   -1    0    0    0    0  0.00000000000E+00  0.00000000000E+00  0.45593999997E+02  0.45594000000E+02  0.51100000000E-03 0.  1.
         11   -1    0    0    0    0 -0.00000000000E+00 -0.00000000000E+00 -0.45593999997E+02  0.45594000000E+02  0.51100000000E-03 0. -1.
    9900012    2    1    2    0    0 -0.79063993777E+01  0.40247044738E+01 -0.16491345106E+02  0.72461712044E+02  0.70000184655E+02 0.  0.
        -12    1    1    2    0    0  0.79063993777E+01 -0.40247044738E+01  0.16491345106E+02  0.18726287956E+02  0.00000000000E+00 0.  1.
         11    1    3    3    0    0 -0.58053286040E+01  0.19777073745E+02 -0.89107405277E+01  0.22455195014E+02  0.51100000000E-03 0. -1.
        -11    1    3    3    0    0 -0.58808394415E+00  0.10611903958E+02  0.12808406494E+02  0.16643726311E+02  0.51100000000E-03 0.  1.
         12    1    3    3    0    0 -0.15129868296E+01 -0.26364273229E+02 -0.20389011072E+02  0.33362790719E+02  0.00000000000E+00 0. -1.
</event>
<event>
 7    1  0.2577508E-013  0.7246155E+02  0.7816164E-02  0.1226708E+00
        -11   -1    0    0    0    0  0.00000000000E+00  0.00000000000E+00  0.45593999997E+02  0.45594000000E+02  0.51100000000E-03 0.  1.
         11   -1    0    0    0    0 -0.00000000000E+00 -0.00000000000E+00 -0.45593999997E+02  0.45594000000E+02  0.51100000000E-03 0. -1.
    9900012    2    1    2    0    0 -0.10361060504E+02 -0.55204206942E+00 -0.15589212058E+02  0.72461551917E+02  0.69999976060E+02 0.  0.
        -12    1    1    2    0    0  0.10361060504E+02  0.55204206942E+00  0.15589212058E+02  0.18726448083E+02  0.00000000000E+00 0.  1.
         11    1    3    3    0    0 -0.56223523641E+01  0.55074958544E+01  0.88087614018E+01  0.11812604894E+02  0.51100000000E-03 0. -1.
        -11    1    3    3    0    0  0.12782615173E+01  0.90528112503E+01  0.15257498806E+02  0.17787035001E+02  0.51100000000E-03 0.  1.
         12    1    3    3    0    0 -0.60169696573E+01 -0.15112349174E+02 -0.39655472267E+02  0.42861912021E+02  0.00000000000E+00 0. -1.
</event>
<event>
 7    1  0.2577508E-013  0.7246149E+02  0.7816164E-02  0.1226708E+00
        -11   -1    0    0    0    0  0.00000000000E+00  0.00000000000E+00  0.45593999997E+02  0.45594000000E+02  0.51100000000E-03 0. -1.
         11   -1    0    0    0    0 -0.00000000000E+00 -0.00000000000E+00 -0.45593999997E+02  0.45594000000E+02  0.51100000000E-03 0.  1.
    9900012    2    1    2    0    0  0.60561916444E+01  0.34456834977E+01  0.17381943177E+02  0.72461490966E+02  0.69999896659E+02 0.  0.
        -12    1    1    2    0    0 -0.60561916444E+01 -0.34456834977E+01 -0.17381943177E+02  0.18726509034E+02  0.00000000000E+00 0.  1.
         11    1    3    3    0    0  0.25996094659E+01  0.14093805519E+01 -0.64964833296E+01  0.71378301205E+01  0.51100000000E-03 0. -1.
        -11    1    3    3    0    0 -0.19692159186E+02 -0.14881898516E+01  0.34390065724E+02  0.39656934617E+02  0.51100000000E-03 0.  1.
         12    1    3    3    0    0  0.23148741365E+02  0.35244927973E+01 -0.10511639217E+02  0.25666726228E+02  0.00000000000E+00 0. -1.
</event>
<event>
 7    1  0.2577508E-013  0.7246154E+02  0.7816164E-02  0.1226708E+00
        -11   -1    0    0    0    0  0.00000000000E+00  0.00000000000E+00  0.45593999997E+02  0.45594000000E+02  0.51100000000E-03 0. -1.
         11   -1    0    0    0    0 -0.00000000000E+00 -0.00000000000E+00 -0.45593999997E+02  0.45594000000E+02  0.51100000000E-03 0.  1.
    9900012    2    1    2    0    0  0.17975286616E+02 -0.11284154881E+01  0.51279565550E+01  0.72461543077E+02  0.69999964545E+02 0.  0.
        -12    1    1    2    0    0 -0.17975286616E+02  0.11284154881E+01 -0.51279565550E+01  0.18726456923E+02  0.00000000000E+00 0.  1.
         11    1    3    3    0    0 -0.16694534268E+02 -0.60503600041E+00  0.17643887728E+02  0.24297743052E+02  0.51100000000E-03 0. -1.
        -11    1    3    3    0    0  0.20037373958E+02 -0.10692221570E+02  0.49144218674E+01  0.23237286842E+02  0.51100000000E-03 0.  1.
        -12    1    3    3    0    0  0.14632446926E+02  0.10168842082E+02 -0.17430353041E+02  0.24926513183E+02  0.00000000000E+00 0.  1.
</event>
<event>
 7    1  0.2577508E-013  0.7246171E+02  0.7816164E-02  0.1226708E+00
        -11   -1    0    0    0    0  0.00000000000E+00  0.00000000000E+00  0.45593999997E+02  0.45594000000E+02  0.51100000000E-03 0.  1.
         11   -1    0    0    0    0 -0.00000000000E+00 -0.00000000000E+00 -0.45593999997E+02  0.45594000000E+02  0.51100000000E-03 0. -1.
    9900012    2    1    2    0    0 -0.16359056552E+02  0.66897243786E+01  0.61889257784E+01  0.72461709769E+02  0.70000181691E+02 0.  0.
        -12    1    1    2    0    0  0.16359056552E+02 -0.66897243786E+01 -0.61889257784E+01  0.18726290231E+02  0.00000000000E+00 0.  1.
         11    1    3    3    0    0 -0.17847892682E+02 -0.66602009095E+01 -0.13159512421E+02  0.23153365128E+02  0.51100000000E-03 0. -1.
        -11    1    3    3    0    0 -0.18747366357E+02  0.57217323181E+01  0.19546055676E+02  0.27681225745E+02  0.51100000000E-03 0.  1.
         12    1    3    3    0    0  0.20236202486E+02  0.76281929700E+01 -0.19761747567E+00  0.21627118895E+02  0.00000000000E+00 0. -1.
</event>
<event>
 7    1  0.2577508E-013  0.7246161E+02  0.7816164E-02  0.1226708E+00
        -11   -1    0    0    0    0  0.00000000000E+00  0.00000000000E+00  0.45593999997E+02  0.45594000000E+02  0.51100000000E-03 0.  1.
         11   -1    0    0    0    0 -0.00000000000E+00 -0.00000000000E+00 -0.45593999997E+02  0.45594000000E+02  0.51100000000E-03 0. -1.
    9900012    2    1    2    0    0  0.30238425268E+01 -0.47828768271E+01 -0.17850999007E+02  0.72461609533E+02  0.70000051115E+02 0.  0.
        -12    1    1    2    0    0 -0.30238425268E+01  0.47828768271E+01  0.17850999007E+02  0.18726390467E+02  0.00000000000E+00 0.  1.
         11    1    3    3    0    0  0.16582172353E+02 -0.10465366460E+02 -0.56997874599E+01  0.20420086005E+02  0.51100000000E-03 0. -1.
        -11    1    3    3    0    0  0.12251499931E+02 -0.13591934575E+02 -0.29015917057E+01  0.18527254808E+02  0.51100000000E-03 0.  1.
         12    1    3    3    0    0 -0.25809829757E+02  0.19274424208E+02 -0.92496198417E+01  0.33514268720E+02  0.00000000000E+00 0. -1.
</event>
<event>
 7    1  0.2577508E-013  0.7246157E+02  0.7816164E-02  0.1226708E+00
        -11   -1    0    0    0    0  0.00000000000E+00  0.00000000000E+00  0.45593999997E+02  0.45594000000E+02  0.51100000000E-03 0.  1.
         11   -1    0    0    0    0 -0.00000000000E+00 -0.00000000000E+00 -0.45593999997E+02  0.45594000000E+02  0.51100000000E-03 0. -1.
    9900012    2    1    2    0    0  0.10445477061E+02  0.30496524621E+01 -0.15240436102E+02  0.72461567779E+02  0.69999996723E+02 0.  0.
        -12    1    1    2    0    0 -0.10445477061E+02 -0.30496524621E+01  0.15240436102E+02  0.18726432221E+02  0.00000000000E+00 0.  1.
         11    1    3    3    0    0 -0.45921176499E+01 -0.49859761081E+00  0.20837964256E+01  0.50673811671E+01  0.51100000000E-03 0. -1.
        -11    1    3    3    0    0  0.26739104644E+02  0.26178398623E+02 -0.18795067122E+02  0.41875324715E+02  0.51100000000E-03 0.  1.
         12    1    3    3    0    0 -0.11701509932E+02 -0.22630148550E+02  0.14708345947E+01  0.25518861897E+02  0.00000000000E+00 0. -1.
</event>
<event>
 7    1  0.2577508E-013  0.7246156E+02  0.7816164E-02  0.1226708E+00
        -11   -1    0    0    0    0  0.00000000000E+00  0.00000000000E+00  0.45593999997E+02  0.45594000000E+02  0.51100000000E-03 0. -1.
         11   -1    0    0    0    0 -0.00000000000E+00 -0.00000000000E+00 -0.45593999997E+02  0.45594000000E+02  0.51100000000E-03 0.  1.
    9900012    2    1    2    0    0  0.15970225394E+02  0.97342407440E+01  0.93596794389E+00  0.72461559388E+02  0.69999985793E+02 0.  0.
        -12    1    1    2    0    0 -0.15970225394E+02 -0.97342407440E+01 -0.93596794389E+00  0.18726440612E+02  0.00000000000E+00 0.  1.
         11    1    3    3    0    0  0.20579450995E+02 -0.13377089245E+02  0.13013317791E+02  0.27781410334E+02  0.51100000000E-03 0. -1.
        -11    1    3    3    0    0 -0.82360360212E+01 -0.66247215456E+01  0.32127599397E+01  0.11047219179E+02  0.51100000000E-03 0.  1.
        -12    1    3    3    0    0  0.36268104197E+01  0.29736051535E+02 -0.15290109787E+02  0.33632929875E+02  0.00000000000E+00 0.  1.
</event>
<event>
 7    1  0.2577508E-013  0.7246159E+02  0.7816164E-02  0.1226708E+00
        -11   -1    0    0    0    0  0.00000000000E+00  0.00000000000E+00  0.45593999997E+02  0.45594000000E+02  0.51100000000E-03 0.  1.
         11   -1    0    0    0    0 -0.00000000000E+00 -0.00000000000E+00 -0.45593999997E+02  0.45594000000E+02  0.51100000000E-03 0. -1.
    9900012    2    1    2    0    0 -0.94213457760E+01 -0.14242245952E+02 -0.76860415520E+01  0.72461586549E+02  0.70000021175E+02 0.  0.
        -12    1    1    2    0    0  0.94213457760E+01  0.14242245952E+02  0.76860415520E+01  0.18726413451E+02  0.00000000000E+00 0.  1.
         11    1    3    3    0    0 -0.25391232500E+02 -0.54156930499E+00  0.13171587044E+01  0.25431140212E+02  0.51100000000E-03 0. -1.
        -11    1    3    3    0    0 -0.11966113073E+02  0.42955142718E+01 -0.45462626071E+01  0.13502140900E+02  0.51100000000E-03 0.  1.
        -12    1    3    3    0    0  0.27935999797E+02 -0.17996190919E+02 -0.44569376493E+01  0.33528305437E+02  0.00000000000E+00 0.  1.
</event>
<event>
 7    1  0.2577508E-013  0.7246215E+02  0.7816164E-02  0.1226706E+00
        -11   -1    0    0    0    0  0.00000000000E+00  0.00000000000E+00  0.45593999997E+02  0.45594000000E+02  0.51100000000E-03 0.  1.
         11   -1    0    0    0    0 -0.00000000000E+00 -0.00000000000E+00 -0.45593999997E+02  0.45594000000E+02  0.51100000000E-03 0. -1.
    9900012    2    1    2    0    0 -0.43682461525E+01  0.52768491901E+01 -0.17427872644E+02  0.72462150040E+02  0.70000755223E+02 0.  0.
        -12    1    1    2    0    0  0.43682461525E+01 -0.52768491901E+01  0.17427872644E+02  0.18725849960E+02  0.00000000000E+00 0.  1.
         11    1    3    3    0    0 -0.57370585690E+01 -0.45600574584E+01 -0.11441220210E+02  0.13587107316E+02  0.51100000000E-03 0. -1.
        -11    1    3    3    0    0  0.10320889586E+02 -0.22209044747E+02 -0.73653617346E+01  0.25573638462E+02  0.51100000000E-03 0.  1.
         12    1    3    3    0    0 -0.89520771700E+01  0.32045951396E+02  0.13787093012E+01  0.33301404263E+02  0.00000000000E+00 0. -1.
</event>
<event>
 7    1  0.2577508E-013  0.7246162E+02  0.7816164E-02  0.1226708E+00
        -11   -1    0    0    0    0  0.00000000000E+00  0.00000000000E+00  0.45593999997E+02  0.45594000000E+02  0.51100000000E-03 0. -1.
         11   -1    0    0    0    0 -0.00000000000E+00 -0.00000000000E+00 -0.45593999997E+02  0.45594000000E+02  0.51100000000E-03 0.  1.
    9900012    2    1    2    0    0  0.66643545132E+01 -0.13717019495E+02  0.10867708521E+02  0.72461619319E+02  0.70000063864E+02 0.  0.
        -12    1    1    2    0    0 -0.66643545132E+01  0.13717019495E+02 -0.10867708521E+02  0.18726380681E+02  0.00000000000E+00 0.  1.
         11    1    3    3    0    0 -0.10709882534E+02 -0.17434973133E+02  0.18867889709E+02  0.27833022372E+02  0.51100000000E-03 0. -1.
        -11    1    3    3    0    0  0.15140204676E+02 -0.15594132712E+02  0.35390075296E+01  0.22021065987E+02  0.51100000000E-03 0.  1.
        -12    1    3    3    0    0  0.22340323711E+01  0.19312086350E+02 -0.11539188718E+02  0.22607530959E+02  0.00000000000E+00 0.  1.
</event>
<event>
 7    1  0.2577508E-013  0.7246156E+02  0.7816164E-02  0.1226708E+00
        -11   -1    0    0    0    0  0.00000000000E+00  0.00000000000E+00  0.45593999997E+02  0.45594000000E+02  0.51100000000E-03 0.  1.
         11   -1    0    0    0    0 -0.00000000000E+00 -0.00000000000E+00 -0.45593999997E+02  0.45594000000E+02  0.51100000000E-03 0. -1.
    9900012    2    1    2    0    0  0.11091869483E+02 -0.13146295015E+02 -0.74043765310E+01  0.72461563258E+02  0.69999990834E+02 0.  0.
        -12    1    1    2    0    0 -0.11091869483E+02  0.13146295015E+02  0.74043765310E+01  0.18726436742E+02  0.00000000000E+00 0.  1.
         11    1    3    3    0    0  0.13008412050E+02  0.66715048856E+01 -0.13321054549E+02  0.19778226818E+02  0.51100000000E-03 0. -1.
        -11    1    3    3    0    0 -0.11821551970E+02 -0.16021916985E+02 -0.17796892012E+02  0.26705435409E+02  0.51100000000E-03 0.  1.
         12    1    3    3    0    0  0.99050094034E+01 -0.37958829156E+01  0.23713570030E+02  0.25977901031E+02  0.00000000000E+00 0. -1.
</event>
<event>
 7    1  0.2577508E-013  0.7246159E+02  0.7816164E-02  0.1226708E+00
        -11   -1    0    0    0    0  0.00000000000E+00  0.00000000000E+00  0.45593999997E+02  0.45594000000E+02  0.51100000000E-03 0.  1.
         11   -1    0    0    0    0 -0.00000000000E+00 -0.00000000000E+00 -0.45593999997E+02  0.45594000000E+02  0.51100000000E-03 0. -1.
    9900012    2    1    2    0    0  0.14191224723E+02 -0.65313331570E+01 -0.10326145658E+02  0.72461589343E+02  0.70000024814E+02 0.  0.
        -12    1    1    2    0    0 -0.14191224723E+02  0.65313331570E+01  0.10326145658E+02  0.18726410657E+02  0.00000000000E+00 0.  1.
         11    1    3    3    0    0  0.15941287872E+02  0.19126646392E+02  0.57751985966E+01  0.25559854857E+02  0.51100000000E-03 0. -1.
        -11    1    3    3    0    0  0.15745540575E+02 -0.55370772868E+01 -0.22096865534E+01  0.16836388800E+02  0.51100000000E-03 0.  1.
        -12    1    3    3    0    0 -0.17495603724E+02 -0.20120902262E+02 -0.13891657701E+02  0.30065345686E+02  0.00000000000E+00 0.  1.
</event>
<event>
 7    1  0.2577508E-013  0.7246159E+02  0.7816164E-02  0.1226708E+00
        -11   -1    0    0    0    0  0.00000000000E+00  0.00000000000E+00  0.45593999997E+02  0.45594000000E+02  0.51100000000E-03 0.  1.
         11   -1    0    0    0    0 -0.00000000000E+00 -0.00000000000E+00 -0.45593999997E+02  0.45594000000E+02  0.51100000000E-03 0. -1.
    9900012    2    1    2    0    0  0.92603086039E+00 -0.85177995985E+01 -0.16651371364E+02  0.72461585195E+02  0.70000019411E+02 0.  0.
        -12    1    1    2    0    0 -0.92603086039E+00  0.85177995985E+01  0.16651371364E+02  0.18726414805E+02  0.00000000000E+00 0.  1.
         11    1    3    3    0    0 -0.10715280818E+02 -0.23315408121E+01 -0.13325303369E+01  0.11046672029E+02  0.51100000000E-03 0. -1.
        -11    1    3    3    0    0 -0.23379233737E+02  0.21195607945E+01 -0.56004482728E+01  0.24133920718E+02  0.51100000000E-03 0.  1.
         12    1    3    3    0    0  0.35020545416E+02 -0.83058195809E+01 -0.97183927544E+01  0.37280992447E+02  0.00000000000E+00 0. -1.
</event>
<event>
 7    1  0.2577508E-013  0.7246185E+02  0.7816164E-02  0.1226707E+00
        -11   -1    0    0    0    0  0.00000000000E+00  0.00000000000E+00  0.45593999997E+02  0.45594000000E+02  0.51100000000E-03 0.  1.
         11   -1    0    0    0    0 -0.00000000000E+00 -0.00000000000E+00 -0.45593999997E+02  0.45594000000E+02  0.51100000000E-03 0. -1.
    9900012    2    1    2    0    0 -0.18874701495E+01 -0.92128202278E+01 -0.16193517845E+02  0.72461851963E+02  0.70000366925E+02 0.  0.
        -12    1    1    2    0    0  0.18874701495E+01  0.92128202278E+01  0.16193517845E+02  0.18726148037E+02  0.00000000000E+00 0.  1.
         11    1    3    3    0    0  0.33645531282E+01 -0.20552148275E+02 -0.29910139160E+02  0.36446226709E+02  0.51100000000E-03 0. -1.
        -11    1    3    3    0    0 -0.13710264155E+02 -0.52364223194E+01  0.54934984693E+01  0.15670672851E+02  0.51100000000E-03 0.  1.
        -12    1    3    3    0    0  0.84582408774E+01  0.16575750367E+02  0.82231228459E+01  0.20344952403E+02  0.00000000000E+00 0.  1.
</event>
<event>
 7    1  0.2577508E-013  0.7246151E+02  0.7816164E-02  0.1226708E+00
        -11   -1    0    0    0    0  0.00000000000E+00  0.00000000000E+00  0.45593999997E+02  0.45594000000E+02  0.51100000000E-03 0.  1.
         11   -1    0    0    0    0 -0.00000000000E+00 -0.00000000000E+00 -0.45593999997E+02  0.45594000000E+02  0.51100000000E-03 0. -1.
    9900012    2    1    2    0    0 -0.66980795792E+01  0.14651370033E+02  0.95474897560E+01  0.72461508750E+02  0.69999919827E+02 0.  0.
        -12    1    1    2    0    0  0.66980795792E+01 -0.14651370033E+02 -0.95474897560E+01  0.18726491250E+02  0.00000000000E+00 0.  1.
         11    1    3    3    0    0 -0.89009972965E+01  0.20341933453E+02  0.18642015883E+01  0.22282218410E+02  0.51100000000E-03 0. -1.
        -11    1    3    3    0    0  0.18156254295E+02  0.10616800372E+02  0.15431416719E+02  0.26086292231E+02  0.51100000000E-03 0.  1.
         12    1    3    3    0    0 -0.15953336578E+02 -0.16307363791E+02 -0.77481285514E+01  0.24092998108E+02  0.00000000000E+00 0. -1.
</event>
<event>
 7    1  0.2577508E-013  0.7246159E+02  0.7816164E-02  0.1226708E+00
        -11   -1    0    0    0    0  0.00000000000E+00  0.00000000000E+00  0.45593999997E+02  0.45594000000E+02  0.51100000000E-03 0. -1.
         11   -1    0    0    0    0 -0.00000000000E+00 -0.00000000000E+00 -0.45593999997E+02  0.45594000000E+02  0.51100000000E-03 0.  1.
    9900012    2    1    2    0    0  0.99008230763E+01  0.15609775908E+02 -0.29978261811E+01  0.72461591820E+02  0.70000028042E+02 0.  0.
        -12    1    1    2    0    0 -0.99008230763E+01 -0.15609775908E+02  0.29978261811E+01  0.18726408180E+02  0.00000000000E+00 0.  1.
         11    1    3    3    0    0  0.64460990825E+01 -0.23224925039E+01 -0.36655868895E+01  0.77706301107E+01  0.51100000000E-03 0. -1.
        -11    1    3    3    0    0 -0.15685395758E+02  0.38125018364E+01 -0.24961207997E+02  0.29725893010E+02  0.51100000000E-03 0.  1.
         12    1    3    3    0    0  0.19140119752E+02  0.14119766576E+02  0.25628968705E+02  0.34965068699E+02  0.00000000000E+00 0. -1.
</event>
<event>
 7    1  0.2577508E-013  0.7246159E+02  0.7816164E-02  0.1226708E+00
        -11   -1    0    0    0    0  0.00000000000E+00  0.00000000000E+00  0.45593999997E+02  0.45594000000E+02  0.51100000000E-03 0.  1.
         11   -1    0    0    0    0 -0.00000000000E+00 -0.00000000000E+00 -0.45593999997E+02  0.45594000000E+02  0.51100000000E-03 0. -1.
    9900012    2    1    2    0    0 -0.33068500421E+01 -0.16306428589E+02 -0.85932272050E+01  0.72461590191E+02  0.70000025919E+02 0.  0.
        -12    1    1    2    0    0  0.33068500421E+01  0.16306428589E+02  0.85932272050E+01  0.18726409809E+02  0.00000000000E+00 0.  1.
         11    1    3    3    0    0 -0.18409458594E+01 -0.31112355003E+02 -0.24728064999E+01  0.31264716339E+02  0.51100000000E-03 0. -1.
        -11    1    3    3    0    0  0.50312653668E+01 -0.36782351951E+01 -0.17474008272E+02  0.18552196924E+02  0.51100000000E-03 0.  1.
        -12    1    3    3    0    0 -0.64971695495E+01  0.18484161610E+02  0.11353587567E+02  0.22644676929E+02  0.00000000000E+00 0.  1.
</event>
<event>
 7    1  0.2577508E-013  0.7246149E+02  0.7816164E-02  0.1226708E+00
        -11   -1    0    0    0    0  0.00000000000E+00  0.00000000000E+00  0.45593999997E+02  0.45594000000E+02  0.51100000000E-03 0. -1.
         11   -1    0    0    0    0 -0.00000000000E+00 -0.00000000000E+00 -0.45593999997E+02  0.45594000000E+02  0.51100000000E-03 0.  1.
    9900012    2    1    2    0    0  0.15719336306E+02  0.85060821945E+01  0.55884919223E+01  0.72461489108E+02  0.69999894240E+02 0.  0.
        -12    1    1    2    0    0 -0.15719336306E+02 -0.85060821945E+01 -0.55884919223E+01  0.18726510892E+02  0.00000000000E+00 0.  1.
         11    1    3    3    0    0  0.28687374942E+01  0.20052487238E+02  0.74635520482E+01  0.21587878745E+02  0.51100000000E-03 0. -1.
        -11    1    3    3    0    0 -0.60748136144E+01  0.15367849942E+02  0.49920369271E+01  0.17262520246E+02  0.51100000000E-03 0.  1.
         12    1    3    3    0    0  0.18925412427E+02 -0.26914254986E+02 -0.68670970530E+01  0.33611090118E+02  0.00000000000E+00 0. -1.
</event>
<event>
 7    1  0.2577508E-013  0.7246206E+02  0.7816164E-02  0.1226707E+00
        -11   -1    0    0    0    0  0.00000000000E+00  0.00000000000E+00  0.45593999997E+02  0.45594000000E+02  0.51100000000E-03 0.  1.
         11   -1    0    0    0    0 -0.00000000000E+00 -0.00000000000E+00 -0.45593999997E+02  0.45594000000E+02  0.51100000000E-03 0. -1.
    9900012    2    1    2    0    0 -0.13695112340E+02  0.11779098972E+02 -0.49353525197E+01  0.72462055990E+02  0.70000632706E+02 0.  0.
        -12    1    1    2    0    0  0.13695112340E+02 -0.11779098972E+02  0.49353525197E+01  0.18725944010E+02  0.00000000000E+00 0.  1.
         11    1    3    3    0    0 -0.27986618732E+02 -0.89818637346E+01 -0.68894577049E+00  0.29400669222E+02  0.51100000000E-03 0. -1.
        -11    1    3    3    0    0 -0.82170370152E+01 -0.30637055073E+01 -0.53398241430E+01  0.10267410135E+02  0.51100000000E-03 0.  1.
        -12    1    3    3    0    0  0.22508543407E+02  0.23824668213E+02  0.10934173938E+01  0.32793976633E+02  0.00000000000E+00 0.  1.
</event>
<event>
 7    1  0.2789410E-013  0.7246145E+02  0.7816164E-02  0.1226708E+00
        -11   -1    0    0    0    0  0.00000000000E+00  0.00000000000E+00  0.45593999997E+02  0.45594000000E+02  0.51100000000E-03 0. -1.
         11   -1    0    0    0    0 -0.00000000000E+00 -0.00000000000E+00 -0.45593999997E+02  0.45594000000E+02  0.51100000000E-03 0.  1.
    9900012    2    1    2    0    0  0.61153498557E+01 -0.22013186705E+01  0.17562465352E+02  0.72461454750E+02  0.69999849482E+02 0.  0.
        -12    1    1    2    0    0 -0.61153498557E+01  0.22013186705E+01 -0.17562465352E+02  0.18726545250E+02  0.00000000000E+00 0.  1.
         11    1    3    3    0    0 -0.35360364855E+01 -0.87536703163E+01 -0.74713443763E+01  0.12039571632E+02  0.51100000000E-03 0. -1.
        -11    1    3    3    0    0  0.24977501288E+02  0.72483604311E+01 -0.51958815879E+01  0.26521905763E+02  0.51100000000E-03 0.  1.
         12    1    3    3    0    0 -0.15326114947E+02 -0.69600878541E+00  0.30229691316E+02  0.33899977355E+02  0.00000000000E+00 0. -1.
</event>
<event>
 7    1  0.2577508E-013  0.7246157E+02  0.7816164E-02  0.1226708E+00
        -11   -1    0    0    0    0  0.00000000000E+00  0.00000000000E+00  0.45593999997E+02  0.45594000000E+02  0.51100000000E-03 0.  1.
         11   -1    0    0    0    0 -0.00000000000E+00 -0.00000000000E+00 -0.45593999997E+02  0.45594000000E+02  0.51100000000E-03 0. -1.
    9900012    2    1    2    0    0 -0.38826754489E+01  0.15947926932E+01 -0.18249952719E+02  0.72461566634E+02  0.69999995232E+02 0.  0.
        -12    1    1    2    0    0  0.38826754489E+01 -0.15947926932E+01  0.18249952719E+02  0.18726433366E+02  0.00000000000E+00 0.  1.
         11    1    3    3    0    0 -0.90432877153E+01  0.32725003288E+01 -0.44984878528E+01  0.10617283284E+02  0.51100000000E-03 0. -1.
        -11    1    3    3    0    0 -0.21792591074E+02 -0.10634823447E+01  0.11709231632E+02  0.24761949158E+02  0.51100000000E-03 0.  1.
         12    1    3    3    0    0  0.26953203341E+02 -0.61422529097E+00 -0.25460696497E+02  0.37082334193E+02  0.00000000000E+00 0. -1.
</event>
<event>
 7    1  0.2577508E-013  0.7246159E+02  0.7816164E-02  0.1226708E+00
        -11   -1    0    0    0    0  0.00000000000E+00  0.00000000000E+00  0.45593999997E+02  0.45594000000E+02  0.51100000000E-03 0.  1.
         11   -1    0    0    0    0 -0.00000000000E+00 -0.00000000000E+00 -0.45593999997E+02  0.45594000000E+02  0.51100000000E-03 0. -1.
    9900012    2    1    2    0    0 -0.65607991703E+01 -0.17498664647E+02 -0.11962372623E+01  0.72461592609E+02  0.70000029069E+02 0.  0.
        -12    1    1    2    0    0  0.65607991703E+01  0.17498664647E+02  0.11962372623E+01  0.18726407391E+02  0.00000000000E+00 0.  1.
         11    1    3    3    0    0 -0.24111274744E+02 -0.12953745382E+02  0.59868926368E+01  0.28017779585E+02  0.51100000000E-03 0. -1.
        -11    1    3    3    0    0  0.90555264240E+01  0.13225103747E+02  0.94996439687E+01  0.18631939344E+02  0.51100000000E-03 0.  1.
        -12    1    3    3    0    0  0.84949491493E+01 -0.17770023013E+02 -0.16682773868E+02  0.25811873679E+02  0.00000000000E+00 0.  1.
</event>
<event>
 7    1  0.2577508E-013  0.7246160E+02  0.7816164E-02  0.1226708E+00
        -11   -1    0    0    0    0  0.00000000000E+00  0.00000000000E+00  0.45593999997E+02  0.45594000000E+02  0.51100000000E-03 0. -1.
         11   -1    0    0    0    0 -0.00000000000E+00 -0.00000000000E+00 -0.45593999997E+02  0.45594000000E+02  0.51100000000E-03 0.  1.
    9900012    2    1    2    0    0  0.10787522263E+02 -0.64958415075E+01  0.13860426235E+02  0.72461601284E+02  0.70000040369E+02 0.  0.
        -12    1    1    2    0    0 -0.10787522263E+02  0.64958415075E+01 -0.13860426235E+02  0.18726398716E+02  0.00000000000E+00 0.  1.
         11    1    3    3    0    0  0.11005505700E+02 -0.13349412449E+02 -0.53358865384E+01  0.18105238299E+02  0.51100000000E-03 0. -1.
        -11    1    3    3    0    0  0.21322024625E+01 -0.21307703953E+02  0.14105401493E+02  0.25642287079E+02  0.51100000000E-03 0.  1.
         12    1    3    3    0    0 -0.23501859001E+01  0.28161274895E+02  0.50909112812E+01  0.28714075906E+02  0.00000000000E+00 0. -1.
</event>
<event>
 7    1  0.2577508E-013  0.7246157E+02  0.7816164E-02  0.1226708E+00
        -11   -1    0    0    0    0  0.00000000000E+00  0.00000000000E+00  0.45593999997E+02  0.45594000000E+02  0.51100000000E-03 0. -1.
         11   -1    0    0    0    0 -0.00000000000E+00 -0.00000000000E+00 -0.45593999997E+02  0.45594000000E+02  0.51100000000E-03 0.  1.
    9900012    2    1    2    0    0  0.16603401468E+02 -0.30768573543E-01 -0.86605524662E+01  0.72461573324E+02  0.70000003947E+02 0.  0.
        -12    1    1    2    0    0 -0.16603401468E+02  0.30768573543E-01  0.86605524662E+01  0.18726426676E+02  0.00000000000E+00 0.  1.
         11    1    3    3    0    0  0.10054749300E+02 -0.59137896902E+00 -0.24363270776E+01  0.10362596319E+02  0.51100000000E-03 0. -1.
        -11    1    3    3    0    0 -0.63219189557E+01  0.21871283924E+02 -0.22775753898E+02  0.32203333455E+02  0.51100000000E-03 0.  1.
         12    1    3    3    0    0  0.12870571124E+02 -0.21310673529E+02  0.16551528509E+02  0.29895643550E+02  0.00000000000E+00 0. -1.
</event>
<event>
 7    1  0.2577508E-013  0.7246157E+02  0.7816164E-02  0.1226708E+00
        -11   -1    0    0    0    0  0.00000000000E+00  0.00000000000E+00  0.45593999997E+02  0.45594000000E+02  0.51100000000E-03 0.  1.
         11   -1    0    0    0    0 -0.00000000000E+00 -0.00000000000E+00 -0.45593999997E+02  0.45594000000E+02  0.51100000000E-03 0. -1.
    9900012    2    1    2    0    0 -0.10069823121E+02 -0.13681756676E+02  0.78795448321E+01  0.72461574014E+02  0.70000004846E+02 0.  0.
        -12    1    1    2    0    0  0.10069823121E+02  0.13681756676E+02 -0.78795448321E+01  0.18726425986E+02  0.00000000000E+00 0.  1.
         11    1    3    3    0    0  0.15285731776E+02  0.95764877219E+01  0.13074953146E+02  0.22278175712E+02  0.51100000000E-03 0. -1.
        -11    1    3    3    0    0 -0.22398784496E+01 -0.52722023309E+01  0.14025995256E+02  0.15150634180E+02  0.51100000000E-03 0.  1.
         12    1    3    3    0    0 -0.23115676447E+02 -0.17986042067E+02 -0.19221403570E+02  0.35032764122E+02  0.00000000000E+00 0. -1.
</event>
<event>
 7    1  0.2577508E-013  0.7246159E+02  0.7816164E-02  0.1226708E+00
        -11   -1    0    0    0    0  0.00000000000E+00  0.00000000000E+00  0.45593999997E+02  0.45594000000E+02  0.51100000000E-03 0.  1.
         11   -1    0    0    0    0 -0.00000000000E+00 -0.00000000000E+00 -0.45593999997E+02  0.45594000000E+02  0.51100000000E-03 0. -1.
    9900012    2    1    2    0    0 -0.22007493548E+01  0.90901754984E+00 -0.18574412498E+02  0.72461590567E+02  0.70000026409E+02 0.  0.
        -12    1    1    2    0    0  0.22007493548E+01 -0.90901754984E+00  0.18574412498E+02  0.18726409433E+02  0.00000000000E+00 0.  1.
         11    1    3    3    0    0 -0.11697838669E+02 -0.66151385288E+01 -0.42732628136E+00  0.13445523243E+02  0.51100000000E-03 0. -1.
        -11    1    3    3    0    0 -0.20801798570E+01 -0.77683229404E+01  0.17095221508E+02  0.18892342052E+02  0.51100000000E-03 0.  1.
         12    1    3    3    0    0  0.11577269171E+02  0.15292479019E+02 -0.35242307724E+02  0.40123725272E+02  0.00000000000E+00 0. -1.
</event>
<event>
 7    1  0.2577508E-013  0.7246156E+02  0.7816164E-02  0.1226708E+00
        -11   -1    0    0    0    0  0.00000000000E+00  0.00000000000E+00  0.45593999997E+02  0.45594000000E+02  0.51100000000E-03 0. -1.
         11   -1    0    0    0    0 -0.00000000000E+00 -0.00000000000E+00 -0.45593999997E+02  0.45594000000E+02  0.51100000000E-03 0.  1.
    9900012    2    1    2    0    0  0.26688853240E+01  0.61746615044E+01  0.17476559797E+02  0.72461560512E+02  0.69999987257E+02 0.  0.
        -12    1    1    2    0    0 -0.26688853240E+01 -0.61746615044E+01 -0.17476559797E+02  0.18726439488E+02  0.00000000000E+00 0.  1.
         11    1    3    3    0    0 -0.12047496638E+02  0.17650252723E+02  0.51322000645E+01  0.21977558422E+02  0.51100000000E-03 0. -1.
        -11    1    3    3    0    0  0.51102272817E+01 -0.13710165335E+02 -0.15277700626E+02  0.21153987640E+02  0.51100000000E-03 0.  1.
         12    1    3    3    0    0  0.96061546803E+01  0.22345741166E+01  0.27622060358E+02  0.29330014450E+02  0.00000000000E+00 0. -1.
</event>
<event>
 7    1  0.3088950E-013  0.7246160E+02  0.7816164E-02  0.1226708E+00
        -11   -1    0    0    0    0  0.00000000000E+00  0.00000000000E+00  0.45593999997E+02  0.45594000000E+02  0.51100000000E-03 0. -1.
         11   -1    0    0    0    0 -0.00000000000E+00 -0.00000000000E+00 -0.45593999997E+02  0.45594000000E+02  0.51100000000E-03 0.  1.
    9900012    2    1    2    0    0 -0.84958925160E+01 -0.98645883466E+01  0.13460606476E+02  0.72461595657E+02  0.70000033040E+02 0.  0.
        -12    1    1    2    0    0  0.84958925160E+01  0.98645883466E+01 -0.13460606476E+02  0.18726404343E+02  0.00000000000E+00 0.  1.
         11    1    3    3    0    0  0.15132330383E+02 -0.87726469268E+01  0.19741836652E+02  0.26375876698E+02  0.51100000000E-03 0. -1.
        -11    1    3    3    0    0  0.79887854025E+01 -0.49652278432E+00 -0.11524423032E+02  0.14031377465E+02  0.51100000000E-03 0.  1.
        -12    1    3    3    0    0 -0.31617008302E+02 -0.59541863554E+00  0.52431928564E+01  0.32054341494E+02  0.00000000000E+00 0.  1.
</event>
<event>
 7    1  0.2577508E-013  0.7246156E+02  0.7816164E-02  0.1226708E+00
        -11   -1    0    0    0    0  0.00000000000E+00  0.00000000000E+00  0.45593999997E+02  0.45594000000E+02  0.51100000000E-03 0. -1.
         11   -1    0    0    0    0 -0.00000000000E+00 -0.00000000000E+00 -0.45593999997E+02  0.45594000000E+02  0.51100000000E-03 0.  1.
    9900012    2    1    2    0    0 -0.10760849443E+01 -0.12765766513E+01  0.18651857589E+02  0.72461564187E+02  0.69999992044E+02 0.  0.
        -12    1    1    2    0    0  0.10760849443E+01  0.12765766513E+01 -0.18651857589E+02  0.18726435813E+02  0.00000000000E+00 0.  1.
         11    1    3    3    0    0  0.58979013867E+01 -0.98416151688E+01  0.33006341753E+02  0.34943686498E+02  0.51100000000E-03 0. -1.
        -11    1    3    3    0    0 -0.94572001491E+01 -0.66140826154E+01  0.51842688885E+01  0.12651536178E+02  0.51100000000E-03 0.  1.
        -12    1    3    3    0    0  0.24832138182E+01  0.15179121133E+02 -0.19538753053E+02  0.24866341510E+02  0.00000000000E+00 0.  1.
</event>
<event>
 7    1  0.2577508E-013  0.7246189E+02  0.7816164E-02  0.1226707E+00
        -11   -1    0    0    0    0  0.00000000000E+00  0.00000000000E+00  0.45593999997E+02  0.45594000000E+02  0.51100000000E-03 0.  1.
         11   -1    0    0    0    0 -0.00000000000E+00 -0.00000000000E+00 -0.45593999997E+02  0.45594000000E+02  0.51100000000E-03 0. -1.
    9900012    2    1    2    0    0  0.15235120501E+02  0.58769693661E+01 -0.91662261107E+01  0.72461885435E+02  0.70000410528E+02 0.  0.
        -12    1    1    2    0    0 -0.15235120501E+02 -0.58769693661E+01  0.91662261107E+01  0.18726114565E+02  0.00000000000E+00 0.  1.
         11    1    3    3    0    0  0.55983231609E+01  0.22394569070E+01 -0.14332251693E+02  0.15548949428E+02  0.51100000000E-03 0. -1.
        -11    1    3    3    0    0 -0.74912078338E+01  0.23919246761E+02 -0.92347278295E+01  0.26711959096E+02  0.51100000000E-03 0.  1.
         12    1    3    3    0    0  0.17128005174E+02 -0.20281734302E+02  0.14400753412E+02  0.30200976911E+02  0.00000000000E+00 0. -1.
</event>
<event>
 7    1  0.2577508E-013  0.7246157E+02  0.7816164E-02  0.1226708E+00
        -11   -1    0    0    0    0  0.00000000000E+00  0.00000000000E+00  0.45593999997E+02  0.45594000000E+02  0.51100000000E-03 0.  1.
         11   -1    0    0    0    0 -0.00000000000E+00 -0.00000000000E+00 -0.45593999997E+02  0.45594000000E+02  0.51100000000E-03 0. -1.
    9900012    2    1    2    0    0 -0.10366754669E+02 -0.15575428585E+02 -0.78460205359E+00  0.72461570059E+02  0.69999999693E+02 0.  0.
        -12    1    1    2    0    0  0.10366754669E+02  0.15575428585E+02  0.78460205359E+00  0.18726429941E+02  0.00000000000E+00 0.  1.
         11    1    3    3    0    0 -0.70357277826E+01 -0.17189946787E+02 -0.20206417409E+02  0.27446220883E+02  0.51100000000E-03 0. -1.
        -11    1    3    3    0    0 -0.27805199202E+01 -0.17950687673E+02  0.17707319974E+02  0.25367452767E+02  0.51100000000E-03 0.  1.
        -12    1    3    3    0    0 -0.55050696623E+00  0.19565205876E+02  0.17144953817E+01  0.19647896409E+02  0.00000000000E+00 0.  1.
</event>
<event>
 7    1  0.2577508E-013  0.7246160E+02  0.7816164E-02  0.1226708E+00
        -11   -1    0    0    0    0  0.00000000000E+00  0.00000000000E+00  0.45593999997E+02  0.45594000000E+02  0.51100000000E-03 0.  1.
         11   -1    0    0    0    0 -0.00000000000E+00 -0.00000000000E+00 -0.45593999997E+02  0.45594000000E+02  0.51100000000E-03 0. -1.
    9900012    2    1    2    0    0  0.79142121865E+01 -0.13352786241E+02 -0.10475996597E+02  0.72461597259E+02  0.70000035126E+02 0.  0.
        -12    1    1    2    0    0 -0.79142121865E+01  0.13352786241E+02  0.10475996597E+02  0.18726402741E+02  0.00000000000E+00 0.  1.
         11    1    3    3    0    0  0.17862177565E+01 -0.35633315940E+01 -0.14105729574E+02  0.14658086949E+02  0.51100000000E-03 0. -1.
        -11    1    3    3    0    0  0.96617883831E+01  0.16710796654E+02 -0.15643424095E+02  0.24845876866E+02  0.51100000000E-03 0.  1.
        -12    1    3    3    0    0 -0.35337939531E+01 -0.26500251301E+02  0.19273157072E+02  0.32957633444E+02  0.00000000000E+00 0.  1.
</event>
<event>
 7    1  0.2577508E-013  0.7246157E+02  0.7816164E-02  0.1226708E+00
        -11   -1    0    0    0    0  0.00000000000E+00  0.00000000000E+00  0.45593999997E+02  0.45594000000E+02  0.51100000000E-03 0.  1.
         11   -1    0    0    0    0 -0.00000000000E+00 -0.00000000000E+00 -0.45593999997E+02  0.45594000000E+02  0.51100000000E-03 0. -1.
    9900012    2    1    2    0    0  0.64352285582E+01 -0.15150297398E+02 -0.89294766817E+01  0.72461568635E+02  0.69999997839E+02 0.  0.
        -12    1    1    2    0    0 -0.64352285582E+01  0.15150297398E+02  0.89294766817E+01  0.18726431365E+02  0.00000000000E+00 0.  1.
         11    1    3    3    0    0  0.11746968566E+02 -0.57008858336E+01  0.12199431826E+02  0.17869457376E+02  0.51100000000E-03 0. -1.
        -11    1    3    3    0    0  0.53171732263E+01  0.19107115148E+02 -0.73542242314E+01  0.21152749105E+02  0.51100000000E-03 0.  1.
         12    1    3    3    0    0 -0.10628913234E+02 -0.28556526712E+02 -0.13774684276E+02  0.33439362155E+02  0.00000000000E+00 0. -1.
</event>
<event>
 7    1  0.2577508E-013  0.7246163E+02  0.7816164E-02  0.1226708E+00
        -11   -1    0    0    0    0  0.00000000000E+00  0.00000000000E+00  0.45593999997E+02  0.45594000000E+02  0.51100000000E-03 0. -1.
         11   -1    0    0    0    0 -0.00000000000E+00 -0.00000000000E+00 -0.45593999997E+02  0.45594000000E+02  0.51100000000E-03 0.  1.
    9900012    2    1    2    0    0 -0.11016301576E+02 -0.13899371629E+02 -0.60104594151E+01  0.72461626766E+02  0.70000073565E+02 0.  0.
        -12    1    1    2    0    0  0.11016301576E+02  0.13899371629E+02  0.60104594151E+01  0.18726373234E+02  0.00000000000E+00 0.  1.
         11    1    3    3    0    0 -0.12572822834E+02 -0.18095992300E+02 -0.44608146700E+01  0.22481985657E+02  0.51100000000E-03 0. -1.
        -11    1    3    3    0    0  0.34015884510E+01 -0.17700275545E+02 -0.15649957225E+02  0.23870310424E+02  0.51100000000E-03 0.  1.
         12    1    3    3    0    0 -0.18450671938E+01  0.21896896215E+02  0.14100312480E+02  0.26109330685E+02  0.00000000000E+00 0. -1.
</event>
<event>
 7    1  0.2577508E-013  0.7246149E+02  0.7816164E-02  0.1226708E+00
        -11   -1    0    0    0    0  0.00000000000E+00  0.00000000000E+00  0.45593999997E+02  0.45594000000E+02  0.51100000000E-03 0.  1.
         11   -1    0    0    0    0 -0.00000000000E+00 -0.00000000000E+00 -0.45593999997E+02  0.45594000000E+02  0.51100000000E-03 0. -1.
    9900012    2    1    2    0    0 -0.12861234777E+02 -0.66435799614E+01 -0.11879971954E+02  0.72461488090E+02  0.69999892913E+02 0.  0.
        -12    1    1    2    0    0  0.12861234777E+02  0.66435799614E+01  0.11879971954E+02  0.18726511910E+02  0.00000000000E+00 0.  1.
         11    1    3    3    0    0 -0.49305497746E+01 -0.21253957962E+02  0.14073544668E+02  0.25963545788E+02  0.51100000000E-03 0. -1.
        -11    1    3    3    0    0  0.99055280850E+01 -0.36799363845E+01 -0.72271382919E+00  0.10591682302E+02  0.51100000000E-03 0.  1.
        -12    1    3    3    0    0 -0.17836213087E+02  0.18290314385E+02 -0.25230802793E+02  0.35906260000E+02  0.00000000000E+00 0.  1.
</event>
<event>
 7    1  0.2577508E-013  0.7246156E+02  0.7816164E-02  0.1226708E+00
        -11   -1    0    0    0    0  0.00000000000E+00  0.00000000000E+00  0.45593999997E+02  0.45594000000E+02  0.51100000000E-03 0. -1.
         11   -1    0    0    0    0 -0.00000000000E+00 -0.00000000000E+00 -0.45593999997E+02  0.45594000000E+02  0.51100000000E-03 0.  1.
    9900012    2    1    2    0    0 -0.62130452110E+01  0.14217202551E+01  0.17608413524E+02  0.72461562909E+02  0.69999990379E+02 0.  0.
        -12    1    1    2    0    0  0.62130452110E+01 -0.14217202551E+01 -0.17608413524E+02  0.18726437091E+02  0.00000000000E+00 0.  1.
         11    1    3    3    0    0  0.15274956266E+02 -0.97624732782E+01  0.16045242856E+02  0.24209089037E+02  0.51100000000E-03 0. -1.
        -11    1    3    3    0    0  0.38748001028E+01  0.64842138309E+01  0.16711016693E+02  0.18338952642E+02  0.51100000000E-03 0.  1.
        -12    1    3    3    0    0 -0.25362801579E+02  0.46999797024E+01 -0.15147846025E+02  0.29913521230E+02  0.00000000000E+00 0.  1.
</event>
<event>
 7    1  0.2577508E-013  0.7246155E+02  0.7816164E-02  0.1226708E+00
        -11   -1    0    0    0    0  0.00000000000E+00  0.00000000000E+00  0.45593999997E+02  0.45594000000E+02  0.51100000000E-03 0.  1.
         11   -1    0    0    0    0 -0.00000000000E+00 -0.00000000000E+00 -0.45593999997E+02  0.45594000000E+02  0.51100000000E-03 0. -1.
    9900012    2    1    2    0    0  0.34027755735E+01 -0.18188999309E+02  0.28742655083E+01  0.72461548663E+02  0.69999971821E+02 0.  0.
        -12    1    1    2    0    0 -0.34027755735E+01  0.18188999309E+02 -0.28742655083E+01  0.18726451337E+02  0.00000000000E+00 0.  1.
         11    1    3    3    0    0  0.61708559989E+01  0.11976720392E+02  0.13810733998E+02  0.19293980122E+02  0.51100000000E-03 0. -1.
        -11    1    3    3    0    0 -0.11551713910E+02  0.22412971826E+01 -0.15307847673E+02  0.19307918271E+02  0.51100000000E-03 0.  1.
         12    1    3    3    0    0  0.87836334846E+01 -0.32407016884E+02  0.43713791831E+01  0.33859650271E+02  0.00000000000E+00 0. -1.
</event>
<event>
 7    1  0.2577508E-013  0.7246161E+02  0.7816164E-02  0.1226708E+00
        -11   -1    0    0    0    0  0.00000000000E+00  0.00000000000E+00  0.45593999997E+02  0.45594000000E+02  0.51100000000E-03 0. -1.
         11   -1    0    0    0    0 -0.00000000000E+00 -0.00000000000E+00 -0.45593999997E+02  0.45594000000E+02  0.51100000000E-03 0.  1.
    9900012    2    1    2    0    0  0.13148043884E+02 -0.12744255671E+02  0.39230837770E+01  0.72461609614E+02  0.70000051221E+02 0.  0.
        -12    1    1    2    0    0 -0.13148043884E+02  0.12744255671E+02 -0.39230837770E+01  0.18726390386E+02  0.00000000000E+00 0.  1.
         11    1    3    3    0    0  0.10199415021E+02 -0.76173739390E+00  0.10668636861E+02  0.14779314035E+02  0.51100000000E-03 0. -1.
        -11    1    3    3    0    0 -0.78017724573E+01 -0.14666920471E+02  0.21599002096E+02  0.27248910095E+02  0.51100000000E-03 0.  1.
        -12    1    3    3    0    0  0.10750401320E+02  0.26844021938E+01 -0.28344555180E+02  0.30433385484E+02  0.00000000000E+00 0.  1.
</event>
<event>
 7    1  0.2577508E-013  0.7246159E+02  0.7816164E-02  0.1226708E+00
        -11   -1    0    0    0    0  0.00000000000E+00  0.00000000000E+00  0.45593999997E+02  0.45594000000E+02  0.51100000000E-03 0.  1.
         11   -1    0    0    0    0 -0.00000000000E+00 -0.00000000000E+00 -0.45593999997E+02  0.45594000000E+02  0.51100000000E-03 0. -1.
    9900012    2    1    2    0    0  0.92688650078E+01  0.11549364623E+02 -0.11462057296E+02  0.72461589794E+02  0.70000025402E+02 0.  0.
        -12    1    1    2    0    0 -0.92688650078E+01 -0.11549364623E+02  0.11462057296E+02  0.18726410206E+02  0.00000000000E+00 0.  1.
         11    1    3    3    0    0 -0.17597566148E+02  0.17691979471E+02 -0.19245258941E+02  0.31512861881E+02  0.51100000000E-03 0. -1.
        -11    1    3    3    0    0 -0.25647379785E+01  0.54594445057E+01 -0.39470829490E+01  0.72085282324E+01  0.51100000000E-03 0.  1.
        -12    1    3    3    0    0  0.29431169135E+02 -0.11602059354E+02  0.11730284593E+02  0.33740199681E+02  0.00000000000E+00 0.  1.
</event>
<event>
 7    1  0.2577508E-013  0.7246163E+02  0.7816164E-02  0.1226708E+00
        -11   -1    0    0    0    0  0.00000000000E+00  0.00000000000E+00  0.45593999997E+02  0.45594000000E+02  0.51100000000E-03 0.  1.
         11   -1    0    0    0    0 -0.00000000000E+00 -0.00000000000E+00 -0.45593999997E+02  0.45594000000E+02  0.51100000000E-03 0. -1.
    9900012    2    1    2    0    0 -0.50702501449E+01  0.66810027466E+01 -0.16743164198E+02  0.72461634052E+02  0.70000083057E+02 0.  0.
        -12    1    1    2    0    0  0.50702501449E+01 -0.66810027466E+01  0.16743164198E+02  0.18726365948E+02  0.00000000000E+00 0.  1.
         11    1    3    3    0    0 -0.18233305982E+02  0.13639812991E+01 -0.19954314657E+02  0.27064525965E+02  0.51100000000E-03 0. -1.
        -11    1    3    3    0    0 -0.15771131666E+02  0.42293304099E+01  0.10666998810E+01  0.16363180579E+02  0.51100000000E-03 0.  1.
        -12    1    3    3    0    0  0.28934187504E+02  0.10876910376E+01  0.21444505776E+01  0.29033927509E+02  0.00000000000E+00 0.  1.
</event>
<event>
 7    1  0.2577508E-013  0.7246153E+02  0.7816164E-02  0.1226708E+00
        -11   -1    0    0    0    0  0.00000000000E+00  0.00000000000E+00  0.45593999997E+02  0.45594000000E+02  0.51100000000E-03 0. -1.
         11   -1    0    0    0    0 -0.00000000000E+00 -0.00000000000E+00 -0.45593999997E+02  0.45594000000E+02  0.51100000000E-03 0.  1.
    9900012    2    1    2    0    0 -0.13138160245E+02 -0.11451615365E+02 -0.68505288224E+01  0.72461534924E+02  0.69999953923E+02 0.  0.
        -12    1    1    2    0    0  0.13138160245E+02  0.11451615365E+02  0.68505288224E+01  0.18726465076E+02  0.00000000000E+00 0.  1.
         11    1    3    3    0    0  0.93870777597E+01 -0.86590889524E+01  0.80344628364E+01  0.15088062953E+02  0.51100000000E-03 0. -1.
        -11    1    3    3    0    0  0.12599023987E+02  0.96104058202E+01 -0.12253106562E+02  0.20030824400E+02  0.51100000000E-03 0.  1.
         12    1    3    3    0    0 -0.35124261992E+02 -0.12402932233E+02 -0.26318850966E+01  0.37342647571E+02  0.00000000000E+00 0. -1.
</event>
<event>
 7    1  0.2577508E-013  0.7246156E+02  0.7816164E-02  0.1226708E+00
        -11   -1    0    0    0    0  0.00000000000E+00  0.00000000000E+00  0.45593999997E+02  0.45594000000E+02  0.51100000000E-03 0.  1.
         11   -1    0    0    0    0 -0.00000000000E+00 -0.00000000000E+00 -0.45593999997E+02  0.45594000000E+02  0.51100000000E-03 0. -1.
    9900012    2    1    2    0    0 -0.15591207211E+02 -0.10060891650E+02  0.25243216770E+01  0.72461561924E+02  0.69999989096E+02 0.  0.
        -12    1    1    2    0    0  0.15591207211E+02  0.10060891650E+02 -0.25243216770E+01  0.18726438076E+02  0.00000000000E+00 0.  1.
         11    1    3    3    0    0 -0.12019412759E+02 -0.60975674403E+01 -0.96135207175E+01  0.16554950698E+02  0.51100000000E-03 0. -1.
        -11    1    3    3    0    0 -0.10962647294E+02  0.20122530748E+02  0.19030089254E+02  0.29786577123E+02  0.51100000000E-03 0.  1.
         12    1    3    3    0    0  0.73908528413E+01 -0.24085854958E+02 -0.68922468600E+01  0.26120034103E+02  0.00000000000E+00 0. -1.
</event>
<event>
 7    1  0.2577508E-013  0.7246164E+02  0.7816164E-02  0.1226708E+00
        -11   -1    0    0    0    0  0.00000000000E+00  0.00000000000E+00  0.45593999997E+02  0.45594000000E+02  0.51100000000E-03 0. -1.
         11   -1    0    0    0    0 -0.00000000000E+00 -0.00000000000E+00 -0.45593999997E+02  0.45594000000E+02  0.51100000000E-03 0.  1.
    9900012    2    1    2    0    0 -0.29764776073E+01 -0.17880613509E+02  0.47011514824E+01  0.72461639338E+02  0.70000089942E+02 0.  0.
        -12    1    1    2    0    0  0.29764776073E+01  0.17880613509E+02 -0.47011514824E+01  0.18726360662E+02  0.00000000000E+00 0.  1.
         11    1    3    3    0    0 -0.67104456682E+01  0.19010530285E+01  0.18104028235E+01  0.72056673756E+01  0.51100000000E-03 0. -1.
        -11    1    3    3    0    0 -0.50444010901E+01  0.21155299248E+02  0.77927862501E+01  0.23102384865E+02  0.51100000000E-03 0.  1.
         12    1    3    3    0    0  0.87783691510E+01 -0.40936965785E+02 -0.49020375913E+01  0.42153587098E+02  0.00000000000E+00 0. -1.
</event>
<event>
 7    1  0.2577508E-013  0.7246158E+02  0.7816164E-02  0.1226708E+00
        -11   -1    0    0    0    0  0.00000000000E+00  0.00000000000E+00  0.45593999997E+02  0.45594000000E+02  0.51100000000E-03 0. -1.
         11   -1    0    0    0    0 -0.00000000000E+00 -0.00000000000E+00 -0.45593999997E+02  0.45594000000E+02  0.51100000000E-03 0.  1.
    9900012    2    1    2    0    0 -0.79977385048E+01  0.11866255007E+02  0.12079197394E+02  0.72461579126E+02  0.70000011505E+02 0.  0.
        -12    1    1    2    0    0  0.79977385048E+01 -0.11866255007E+02 -0.12079197394E+02  0.18726420874E+02  0.00000000000E+00 0.  1.
         11    1    3    3    0    0  0.22471375872E+00  0.89657959476E+01 -0.65811254787E+01  0.11124172152E+02  0.51100000000E-03 0. -1.
        -11    1    3    3    0    0  0.14186762966E+02 -0.50209243198E+01 -0.14260977895E+02  0.20732810115E+02  0.51100000000E-03 0.  1.
         12    1    3    3    0    0 -0.22409215229E+02  0.79213833788E+01  0.32921300768E+02  0.40604596859E+02  0.00000000000E+00 0. -1.
</event>
<event>
 7    1  0.2577508E-013  0.7246178E+02  0.7816164E-02  0.1226707E+00
        -11   -1    0    0    0    0  0.00000000000E+00  0.00000000000E+00  0.45593999997E+02  0.45594000000E+02  0.51100000000E-03 0. -1.
         11   -1    0    0    0    0 -0.00000000000E+00 -0.00000000000E+00 -0.45593999997E+02  0.45594000000E+02  0.51100000000E-03 0.  1.
    9900012    2    1    2    0    0 -0.19737875355E+01  0.11044885324E+02  0.14992860936E+02  0.72461782867E+02  0.70000276915E+02 0.  0.
        -12    1    1    2    0    0  0.19737875355E+01 -0.11044885324E+02 -0.14992860936E+02  0.18726217133E+02  0.00000000000E+00 0.  1.
         11    1    3    3    0    0 -0.12239890624E+02  0.31785000397E+01  0.30921955408E+01  0.13018427652E+02  0.51100000000E-03 0. -1.
        -11    1    3    3    0    0 -0.71344818884E+01  0.72805051962E+01  0.31570306531E+02  0.33175153993E+02  0.51100000000E-03 0.  1.
         12    1    3    3    0    0  0.17400584977E+02  0.58588008856E+00 -0.19669641136E+02  0.26268201222E+02  0.00000000000E+00 0. -1.
</event>
<event>
 7    1  0.2577508E-013  0.7246155E+02  0.7816164E-02  0.1226708E+00
        -11   -1    0    0    0    0  0.00000000000E+00  0.00000000000E+00  0.45593999997E+02  0.45594000000E+02  0.51100000000E-03 0.  1.
         11   -1    0    0    0    0 -0.00000000000E+00 -0.00000000000E+00 -0.45593999997E+02  0.45594000000E+02  0.51100000000E-03 0. -1.
    9900012    2    1    2    0    0  0.51878081665E+01  0.27298591077E+01 -0.17785227071E+02  0.72461553826E+02  0.69999978548E+02 0.  0.
        -12    1    1    2    0    0 -0.51878081665E+01 -0.27298591077E+01  0.17785227071E+02  0.18726446174E+02  0.00000000000E+00 0.  1.
         11    1    3    3    0    0 -0.58394293974E+00  0.97032481087E+01 -0.10226919298E+02  0.14109709132E+02  0.51100000000E-03 0. -1.
        -11    1    3    3    0    0 -0.21602330617E+01 -0.23420127137E+02 -0.24128161413E+02  0.33694764214E+02  0.51100000000E-03 0.  1.
         12    1    3    3    0    0  0.79319841679E+01  0.16446738136E+02  0.16569853640E+02  0.24657080480E+02  0.00000000000E+00 0. -1.
</event>
<event>
 7    1  0.2577508E-013  0.7246159E+02  0.7816164E-02  0.1226708E+00
        -11   -1    0    0    0    0  0.00000000000E+00  0.00000000000E+00  0.45593999997E+02  0.45594000000E+02  0.51100000000E-03 0.  1.
         11   -1    0    0    0    0 -0.00000000000E+00 -0.00000000000E+00 -0.45593999997E+02  0.45594000000E+02  0.51100000000E-03 0. -1.
    9900012    2    1    2    0    0 -0.44968185511E+01 -0.17172858785E+02 -0.59623909106E+01  0.72461586534E+02  0.70000021155E+02 0.  0.
        -12    1    1    2    0    0  0.44968185511E+01  0.17172858785E+02  0.59623909106E+01  0.18726413466E+02  0.00000000000E+00 0.  1.
         11    1    3    3    0    0 -0.30861038079E+01 -0.34430400259E+02  0.60678818791E+01  0.35096947011E+02  0.51100000000E-03 0. -1.
        -11    1    3    3    0    0  0.80260805034E+01 -0.57979504683E+01 -0.65060122380E+01  0.11847463584E+02  0.51100000000E-03 0.  1.
        -12    1    3    3    0    0 -0.94367952465E+01  0.23055491943E+02 -0.55242605517E+01  0.25517175939E+02  0.00000000000E+00 0.  1.
</event>
<event>
 7    1  0.2577508E-013  0.7246155E+02  0.7816164E-02  0.1226708E+00
        -11   -1    0    0    0    0  0.00000000000E+00  0.00000000000E+00  0.45593999997E+02  0.45594000000E+02  0.51100000000E-03 0. -1.
         11   -1    0    0    0    0 -0.00000000000E+00 -0.00000000000E+00 -0.45593999997E+02  0.45594000000E+02  0.51100000000E-03 0.  1.
    9900012    2    1    2    0    0  0.17888013155E+02 -0.32413929475E+01  0.44935787709E+01  0.72461550976E+02  0.69999974834E+02 0.  0.
        -12    1    1    2    0    0 -0.17888013155E+02  0.32413929475E+01 -0.44935787709E+01  0.18726449024E+02  0.00000000000E+00 0.  1.
         11    1    3    3    0    0  0.35624416476E+02  0.29909365395E+01  0.58675032185E+01  0.36228060187E+02  0.51100000000E-03 0. -1.
        -11    1    3    3    0    0 -0.10396050750E+01  0.12187928975E+01 -0.13950239147E+02  0.14041916085E+02  0.51100000000E-03 0.  1.
        -12    1    3    3    0    0 -0.16696798245E+02 -0.74511223845E+01  0.12576314699E+02  0.22191574704E+02  0.00000000000E+00 0.  1.
</event>
<event>
 7    1  0.2577508E-013  0.7246161E+02  0.7816164E-02  0.1226708E+00
        -11   -1    0    0    0    0  0.00000000000E+00  0.00000000000E+00  0.45593999997E+02  0.45594000000E+02  0.51100000000E-03 0. -1.
         11   -1    0    0    0    0 -0.00000000000E+00 -0.00000000000E+00 -0.45593999997E+02  0.45594000000E+02  0.51100000000E-03 0.  1.
    9900012    2    1    2    0    0 -0.78695192999E+01 -0.17164189458E+01  0.16905691159E+02  0.72461606284E+02  0.70000046884E+02 0.  0.
        -12    1    1    2    0    0  0.78695192999E+01  0.17164189458E+01 -0.16905691159E+02  0.18726393716E+02  0.00000000000E+00 0.  1.
         11    1    3    3    0    0 -0.24576557457E+00 -0.88675464160E+01 -0.21684147476E+01  0.91321302519E+01  0.51100000000E-03 0. -1.
        -11    1    3    3    0    0 -0.32516676963E+02  0.12465983109E+02  0.91233878529E+01  0.35999600300E+02  0.51100000000E-03 0.  1.
         12    1    3    3    0    0  0.24892923238E+02 -0.53148556385E+01  0.99507180541E+01  0.27329875733E+02  0.00000000000E+00 0. -1.
</event>
<event>
 7    1  0.2577508E-013  0.7246155E+02  0.7816164E-02  0.1226708E+00
        -11   -1    0    0    0    0  0.00000000000E+00  0.00000000000E+00  0.45593999997E+02  0.45594000000E+02  0.51100000000E-03 0.  1.
         11   -1    0    0    0    0 -0.00000000000E+00 -0.00000000000E+00 -0.45593999997E+02  0.45594000000E+02  0.51100000000E-03 0. -1.
    9900012    2    1    2    0    0  0.76318170175E+01 -0.16814468393E+02 -0.31158900235E+01  0.72461554823E+02  0.69999979846E+02 0.  0.
        -12    1    1    2    0    0 -0.76318170175E+01  0.16814468393E+02  0.31158900235E+01  0.18726445177E+02  0.00000000000E+00 0.  1.
         11    1    3    3    0    0  0.73858155342E+01 -0.15740944274E+02  0.18276467242E+02  0.25226114502E+02  0.51100000000E-03 0. -1.
        -11    1    3    3    0    0  0.13407836198E+02  0.36370894298E+01  0.70236452361E+01  0.15566954863E+02  0.51100000000E-03 0.  1.
         12    1    3    3    0    0 -0.13161834715E+02 -0.47106135483E+01 -0.28416002502E+02  0.31668485459E+02  0.00000000000E+00 0. -1.
</event>
<event>
 7    1  0.2577508E-013  0.7246160E+02  0.7816164E-02  0.1226708E+00
        -11   -1    0    0    0    0  0.00000000000E+00  0.00000000000E+00  0.45593999997E+02  0.45594000000E+02  0.51100000000E-03 0. -1.
         11   -1    0    0    0    0 -0.00000000000E+00 -0.00000000000E+00 -0.45593999997E+02  0.45594000000E+02  0.51100000000E-03 0.  1.
    9900012    2    1    2    0    0 -0.11898082663E+02 -0.73983515384E+01 -0.12424894505E+02  0.72461602055E+02  0.70000041374E+02 0.  0.
        -12    1    1    2    0    0  0.11898082663E+02  0.73983515384E+01  0.12424894505E+02  0.18726397945E+02  0.00000000000E+00 0.  1.
         11    1    3    3    0    0 -0.11560968074E+02 -0.12808014467E+02  0.17936620150E+02  0.24888221312E+02  0.51100000000E-03 0. -1.
        -11    1    3    3    0    0 -0.84674623225E+00  0.63256701829E+01  0.74144354082E+01  0.97828899170E+01  0.51100000000E-03 0.  1.
        -12    1    3    3    0    0  0.50963164342E+00 -0.91600725402E+00 -0.37775950063E+02  0.37790490826E+02  0.00000000000E+00 0.  1.
</event>
<event>
 7    1  0.2577508E-013  0.7246149E+02  0.7816164E-02  0.1226708E+00
        -11   -1    0    0    0    0  0.00000000000E+00  0.00000000000E+00  0.45593999997E+02  0.45594000000E+02  0.51100000000E-03 0. -1.
         11   -1    0    0    0    0 -0.00000000000E+00 -0.00000000000E+00 -0.45593999997E+02  0.45594000000E+02  0.51100000000E-03 0.  1.
    9900012    2    1    2    0    0 -0.37837894431E+01 -0.88364500459E+00  0.18318962071E+02  0.72461487714E+02  0.69999892423E+02 0.  0.
        -12    1    1    2    0    0  0.37837894431E+01  0.88364500459E+00 -0.18318962071E+02  0.18726512286E+02  0.00000000000E+00 0.  1.
         11    1    3    3    0    0 -0.42021348774E+01  0.23229736811E+02  0.17343872402E+02  0.29293148004E+02  0.51100000000E-03 0. -1.
        -11    1    3    3    0    0  0.17407053321E+02 -0.86649863888E+01  0.44429541374E+01  0.19945609446E+02  0.51100000000E-03 0.  1.
         12    1    3    3    0    0 -0.16988707887E+02 -0.15448395427E+02 -0.34678644679E+01  0.23222730264E+02  0.00000000000E+00 0. -1.
</event>
<event>
 7    1  0.2577508E-013  0.7246155E+02  0.7816164E-02  0.1226708E+00
        -11   -1    0    0    0    0  0.00000000000E+00  0.00000000000E+00  0.45593999997E+02  0.45594000000E+02  0.51100000000E-03 0.  1.
         11   -1    0    0    0    0 -0.00000000000E+00 -0.00000000000E+00 -0.45593999997E+02  0.45594000000E+02  0.51100000000E-03 0. -1.
    9900012    2    1    2    0    0  0.27821130320E+01  0.42513080058E+01 -0.18024043776E+02  0.72461550077E+02  0.69999973663E+02 0.  0.
        -12    1    1    2    0    0 -0.27821130320E+01 -0.42513080058E+01  0.18024043776E+02  0.18726449923E+02  0.00000000000E+00 0.  1.
         11    1    3    3    0    0  0.40631281429E+01 -0.17531909245E+02 -0.15102487725E+02  0.23493871282E+02  0.51100000000E-03 0. -1.
        -11    1    3    3    0    0  0.17883041770E+01 -0.13408910203E+02 -0.15392198213E+01  0.13614922055E+02  0.51100000000E-03 0.  1.
         12    1    3    3    0    0 -0.30693192880E+01  0.35192127453E+02 -0.13823362296E+01  0.35352756739E+02  0.00000000000E+00 0. -1.
</event>
<event>
 7    1  0.2577508E-013  0.7246156E+02  0.7816164E-02  0.1226708E+00
        -11   -1    0    0    0    0  0.00000000000E+00  0.00000000000E+00  0.45593999997E+02  0.45594000000E+02  0.51100000000E-03 0.  1.
         11   -1    0    0    0    0 -0.00000000000E+00 -0.00000000000E+00 -0.45593999997E+02  0.45594000000E+02  0.51100000000E-03 0. -1.
    9900012    2    1    2    0    0  0.11240673435E+02 -0.14575551905E+02 -0.34467489186E+01  0.72461560650E+02  0.69999987437E+02 0.  0.
        -12    1    1    2    0    0 -0.11240673435E+02  0.14575551905E+02  0.34467489186E+01  0.18726439350E+02  0.00000000000E+00 0.  1.
         11    1    3    3    0    0  0.94528208294E+01 -0.20330288580E+02 -0.20751033196E+01  0.22516272103E+02  0.51100000000E-03 0. -1.
        -11    1    3    3    0    0  0.97736144304E+01  0.13671884852E+02  0.19801045518E+02  0.25971626409E+02  0.51100000000E-03 0.  1.
         12    1    3    3    0    0 -0.79857618248E+01 -0.79171481771E+01 -0.21172691117E+02  0.23973662138E+02  0.00000000000E+00 0. -1.
</event>
<event>
 7    1  0.2577508E-013  0.7246152E+02  0.7816164E-02  0.1226708E+00
        -11   -1    0    0    0    0  0.00000000000E+00  0.00000000000E+00  0.45593999997E+02  0.45594000000E+02  0.51100000000E-03 0. -1.
         11   -1    0    0    0    0 -0.00000000000E+00 -0.00000000000E+00 -0.45593999997E+02  0.45594000000E+02  0.51100000000E-03 0.  1.
    9900012    2    1    2    0    0 -0.17001126018E+02  0.32714847989E+01  0.71372264189E+01  0.72461524100E+02  0.69999939823E+02 0.  0.
        -12    1    1    2    0    0  0.17001126018E+02 -0.32714847989E+01 -0.71372264189E+01  0.18726475900E+02  0.00000000000E+00 0.  1.
         11    1    3    3    0    0 -0.10817552005E+02  0.25246615396E+02 -0.12571079725E+02  0.30206672542E+02  0.51100000000E-03 0. -1.
        -11    1    3    3    0    0 -0.66780982167E+01  0.60551116929E+01  0.24792097663E+01  0.93492167978E+01  0.51100000000E-03 0.  1.
        -12    1    3    3    0    0  0.49452420327E+00 -0.28030242290E+02  0.17229096378E+02  0.32905634761E+02  0.00000000000E+00 0.  1.
</event>
<event>
 7    1  0.2577508E-013  0.7246158E+02  0.7816164E-02  0.1226708E+00
        -11   -1    0    0    0    0  0.00000000000E+00  0.00000000000E+00  0.45593999997E+02  0.45594000000E+02  0.51100000000E-03 0.  1.
         11   -1    0    0    0    0 -0.00000000000E+00 -0.00000000000E+00 -0.45593999997E+02  0.45594000000E+02  0.51100000000E-03 0. -1.
    9900012    2    1    2    0    0  0.94411539105E+01 -0.14808962278E+02  0.64990916522E+01  0.72461576336E+02  0.70000007871E+02 0.  0.
        -12    1    1    2    0    0 -0.94411539105E+01  0.14808962278E+02 -0.64990916522E+01  0.18726423664E+02  0.00000000000E+00 0.  1.
         11    1    3    3    0    0  0.14387848298E+02  0.11673076976E+02 -0.39771355167E+01  0.18949630918E+02  0.51100000000E-03 0. -1.
        -11    1    3    3    0    0 -0.16314009888E+02 -0.32610270015E+01  0.19950190022E+02  0.25976745330E+02  0.51100000000E-03 0.  1.
         12    1    3    3    0    0  0.11367315501E+02 -0.23221012253E+02 -0.94739628535E+01  0.27535200089E+02  0.00000000000E+00 0. -1.
</event>
<event>
 7    1  0.2577508E-013  0.7246160E+02  0.7816164E-02  0.1226708E+00
        -11   -1    0    0    0    0  0.00000000000E+00  0.00000000000E+00  0.45593999997E+02  0.45594000000E+02  0.51100000000E-03 0.  1.
         11   -1    0    0    0    0 -0.00000000000E+00 -0.00000000000E+00 -0.45593999997E+02  0.45594000000E+02  0.51100000000E-03 0. -1.
    9900012    2    1    2    0    0  0.50136335420E+01 -0.17201935051E+02 -0.54438161099E+01  0.72461595523E+02  0.70000032865E+02 0.  0.
        -12    1    1    2    0    0 -0.50136335420E+01  0.17201935051E+02  0.54438161099E+01  0.18726404477E+02  0.00000000000E+00 0.  1.
         11    1    3    3    0    0 -0.10764738297E+02  0.13647468518E+02 -0.20186883951E+01  0.17498802549E+02  0.51100000000E-03 0. -1.
        -11    1    3    3    0    0 -0.73222170668E+00  0.52450148784E+01  0.11418327316E+02  0.12586680605E+02  0.51100000000E-03 0.  1.
        -12    1    3    3    0    0  0.16510593545E+02 -0.36094418447E+02 -0.14843455031E+02  0.42376112369E+02  0.00000000000E+00 0.  1.
</event>
<event>
 7    1  0.2577508E-013  0.7246154E+02  0.7816164E-02  0.1226708E+00
        -11   -1    0    0    0    0  0.00000000000E+00  0.00000000000E+00  0.45593999997E+02  0.45594000000E+02  0.51100000000E-03 0.  1.
         11   -1    0    0    0    0 -0.00000000000E+00 -0.00000000000E+00 -0.45593999997E+02  0.45594000000E+02  0.51100000000E-03 0. -1.
    9900012    2    1    2    0    0 -0.54839320293E+01  0.17315754026E+02 -0.45575814647E+01  0.72461537526E+02  0.69999957313E+02 0.  0.
        -12    1    1    2    0    0  0.54839320293E+01 -0.17315754026E+02  0.45575814647E+01  0.18726462474E+02  0.00000000000E+00 0.  1.
         11    1    3    3    0    0 -0.14105539299E+02 -0.78822075789E+01  0.59396922963E+01  0.17215556339E+02  0.51100000000E-03 0. -1.
        -11    1    3    3    0    0  0.54689070337E+00 -0.45472761315E+01 -0.21906632599E+02  0.22380289582E+02  0.51100000000E-03 0.  1.
         12    1    3    3    0    0  0.80747165663E+01  0.29745237736E+02  0.11409358838E+02  0.32865691605E+02  0.00000000000E+00 0. -1.
</event>
<event>
 7    1  0.2577508E-013  0.7246158E+02  0.7816164E-02  0.1226708E+00
        -11   -1    0    0    0    0  0.00000000000E+00  0.00000000000E+00  0.45593999997E+02  0.45594000000E+02  0.51100000000E-03 0.  1.
         11   -1    0    0    0    0 -0.00000000000E+00 -0.00000000000E+00 -0.45593999997E+02  0.45594000000E+02  0.51100000000E-03 0. -1.
    9900012    2    1    2    0    0  0.13107590001E+02 -0.95795548266E+01  0.93328506219E+01  0.72461577837E+02  0.70000009825E+02 0.  0.
        -12    1    1    2    0    0 -0.13107590001E+02  0.95795548266E+01 -0.93328506219E+01  0.18726422163E+02  0.00000000000E+00 0.  1.
         11    1    3    3    0    0  0.16614665078E+02 -0.25698785060E+02 -0.31563978345E+01  0.30764224300E+02  0.51100000000E-03 0. -1.
        -11    1    3    3    0    0  0.15093113851E+02  0.73471172466E+01 -0.14570573258E+01  0.16849487644E+02  0.51100000000E-03 0.  1.
         12    1    3    3    0    0 -0.18600188929E+02  0.87721129870E+01  0.13946305782E+02  0.24847865892E+02  0.00000000000E+00 0. -1.
</event>
<event>
 7    1  0.2577508E-013  0.7246162E+02  0.7816164E-02  0.1226708E+00
        -11   -1    0    0    0    0  0.00000000000E+00  0.00000000000E+00  0.45593999997E+02  0.45594000000E+02  0.51100000000E-03 0. -1.
         11   -1    0    0    0    0 -0.00000000000E+00 -0.00000000000E+00 -0.45593999997E+02  0.45594000000E+02  0.51100000000E-03 0.  1.
    9900012    2    1    2    0    0  0.13762985189E+02  0.12482471991E+02  0.23335445912E+01  0.72461620246E+02  0.70000065072E+02 0.  0.
        -12    1    1    2    0    0 -0.13762985189E+02 -0.12482471991E+02 -0.23335445912E+01  0.18726379754E+02  0.00000000000E+00 0.  1.
         11    1    3    3    0    0  0.64664447734E+01  0.33022174171E+02 -0.11284788396E+02  0.35491200943E+02  0.51100000000E-03 0. -1.
        -11    1    3    3    0    0  0.12814749122E+02 -0.19194920420E+01 -0.48858802064E+00  0.12966918033E+02  0.51100000000E-03 0.  1.
         12    1    3    3    0    0 -0.55182087069E+01 -0.18620210138E+02  0.14106921008E+02  0.24003501270E+02  0.00000000000E+00 0. -1.
</event>
<event>
 7    1  0.2577508E-013  0.7246192E+02  0.7816164E-02  0.1226707E+00
        -11   -1    0    0    0    0  0.00000000000E+00  0.00000000000E+00  0.45593999997E+02  0.45594000000E+02  0.51100000000E-03 0. -1.
         11   -1    0    0    0    0 -0.00000000000E+00 -0.00000000000E+00 -0.45593999997E+02  0.45594000000E+02  0.51100000000E-03 0.  1.
    9900012    2    1    2    0    0  0.13172114579E+02  0.13195555561E+02  0.17432397607E+01  0.72461917283E+02  0.70000452016E+02 0.  0.
        -12    1    1    2    0    0 -0.13172114579E+02 -0.13195555561E+02 -0.17432397607E+01  0.18726082717E+02  0.00000000000E+00 0.  1.
         11    1    3    3    0    0 -0.11124679591E+02  0.88325753447E+01  0.15776469687E+02  0.21228986770E+02  0.51100000000E-03 0. -1.
        -11    1    3    3    0    0  0.25189777649E+02  0.12673020527E+02  0.66095721776E+01  0.28962334020E+02  0.51100000000E-03 0.  1.
        -12    1    3    3    0    0 -0.89298347865E+00 -0.83100403101E+01 -0.20642802104E+02  0.22270596493E+02  0.00000000000E+00 0.  1.
</event>
<event>
 7    1  0.2577508E-013  0.7246159E+02  0.7816164E-02  0.1226708E+00
        -11   -1    0    0    0    0  0.00000000000E+00  0.00000000000E+00  0.45593999997E+02  0.45594000000E+02  0.51100000000E-03 0.  1.
         11   -1    0    0    0    0 -0.00000000000E+00 -0.00000000000E+00 -0.45593999997E+02  0.45594000000E+02  0.51100000000E-03 0. -1.
    9900012    2    1    2    0    0 -0.13741145896E+02 -0.53671598625E+01 -0.11534855674E+02  0.72461591083E+02  0.70000027081E+02 0.  0.
        -12    1    1    2    0    0  0.13741145896E+02  0.53671598625E+01  0.11534855674E+02  0.18726408917E+02  0.00000000000E+00 0.  1.
         11    1    3    3    0    0  0.14636158578E+02 -0.17496172041E+02 -0.80134207112E+01  0.24177429263E+02  0.51100000000E-03 0. -1.
        -11    1    3    3    0    0  0.42028611810E-01  0.11679464310E+02 -0.13782594918E+02  0.18065756998E+02  0.51100000000E-03 0.  1.
        -12    1    3    3    0    0 -0.28419333086E+02  0.44954786839E+00  0.10261159956E+02  0.30218404821E+02  0.00000000000E+00 0.  1.
</event>
<event>
 7    1  0.2577508E-013  0.7246160E+02  0.7816164E-02  0.1226708E+00
        -11   -1    0    0    0    0  0.00000000000E+00  0.00000000000E+00  0.45593999997E+02  0.45594000000E+02  0.51100000000E-03 0. -1.
         11   -1    0    0    0    0 -0.00000000000E+00 -0.00000000000E+00 -0.45593999997E+02  0.45594000000E+02  0.51100000000E-03 0.  1.
    9900012    2    1    2    0    0  0.32483487898E+01  0.16860479545E+02  0.74733275103E+01  0.72461597131E+02  0.70000034959E+02 0.  0.
        -12    1    1    2    0    0 -0.32483487898E+01 -0.16860479545E+02 -0.74733275103E+01  0.18726402869E+02  0.00000000000E+00 0.  1.
         11    1    3    3    0    0 -0.38524515211E+01 -0.56955388403E+01 -0.12411995481E+02  0.14189368467E+02  0.51100000000E-03 0. -1.
        -11    1    3    3    0    0 -0.10634048932E+02 -0.11203246611E+02  0.40803095828E+00  0.15451932592E+02  0.51100000000E-03 0.  1.
         12    1    3    3    0    0  0.17734849243E+02  0.33759264996E+02  0.19477292033E+02  0.42820296072E+02  0.00000000000E+00 0. -1.
</event>
<event>
 7    1  0.2577508E-013  0.7246159E+02  0.7816164E-02  0.1226708E+00
        -11   -1    0    0    0    0  0.00000000000E+00  0.00000000000E+00  0.45593999997E+02  0.45594000000E+02  0.51100000000E-03 0. -1.
         11   -1    0    0    0    0 -0.00000000000E+00 -0.00000000000E+00 -0.45593999997E+02  0.45594000000E+02  0.51100000000E-03 0.  1.
    9900012    2    1    2    0    0 -0.79186571592E+01  0.16799815976E+02 -0.23957449191E+01  0.72461587056E+02  0.70000021835E+02 0.  0.
        -12    1    1    2    0    0  0.79186571592E+01 -0.16799815976E+02  0.23957449191E+01  0.18726412944E+02  0.00000000000E+00 0.  1.
         11    1    3    3    0    0 -0.39823976790E+01  0.60335425752E+01 -0.11511720679E+02  0.13593485224E+02  0.51100000000E-03 0. -1.
        -11    1    3    3    0    0  0.31102849935E+01 -0.36625589148E+01 -0.22714238900E+02  0.23216908916E+02  0.51100000000E-03 0.  1.
         12    1    3    3    0    0 -0.70465444736E+01  0.14428832316E+02  0.31830214660E+02  0.35651192916E+02  0.00000000000E+00 0. -1.
</event>
<event>
 7    1  0.2577508E-013  0.7246157E+02  0.7816164E-02  0.1226708E+00
        -11   -1    0    0    0    0  0.00000000000E+00  0.00000000000E+00  0.45593999997E+02  0.45594000000E+02  0.51100000000E-03 0.  1.
         11   -1    0    0    0    0 -0.00000000000E+00 -0.00000000000E+00 -0.45593999997E+02  0.45594000000E+02  0.51100000000E-03 0. -1.
    9900012    2    1    2    0    0 -0.59307967348E+01  0.60958597672E+01 -0.16683681613E+02  0.72461572461E+02  0.70000002822E+02 0.  0.
        -12    1    1    2    0    0  0.59307967348E+01 -0.60958597672E+01  0.16683681613E+02  0.18726427539E+02  0.00000000000E+00 0.  1.
         11    1    3    3    0    0  0.18246537887E+01 -0.13758751640E+02  0.70328258967E+01  0.15559346018E+02  0.51100000000E-03 0.  1.
        -11    1    3    3    0    0 -0.27300694044E+01  0.25062853919E+02  0.63322414091E+01  0.25994176406E+02  0.51100000000E-03 0. -1.
         12    1    3    3    0    0 -0.50253811191E+01 -0.52082425119E+01 -0.30048748919E+02  0.30908050037E+02  0.00000000000E+00 0. -1.
</event>
<event>
 7    1  0.2577508E-013  0.7246159E+02  0.7816164E-02  0.1226708E+00
        -11   -1    0    0    0    0  0.00000000000E+00  0.00000000000E+00  0.45593999997E+02  0.45594000000E+02  0.51100000000E-03 0. -1.
         11   -1    0    0    0    0 -0.00000000000E+00 -0.00000000000E+00 -0.45593999997E+02  0.45594000000E+02  0.51100000000E-03 0.  1.
    9900012    2    1    2    0    0  0.15117255228E+02  0.40326140274E+01  0.10290040359E+02  0.72461593188E+02  0.70000029823E+02 0.  0.
        -12    1    1    2    0    0 -0.15117255228E+02 -0.40326140274E+01 -0.10290040359E+02  0.18726406812E+02  0.00000000000E+00 0.  1.
         11    1    3    3    0    0  0.26378610362E+01 -0.48119339491E+01  0.88395438234E+00  0.55582726443E+01  0.51100000000E-03 0. -1.
        -11    1    3    3    0    0  0.28826560717E+02 -0.25309178718E+01 -0.17204423595E+02  0.33665536377E+02  0.51100000000E-03 0.  1.
         12    1    3    3    0    0 -0.16347166525E+02  0.11375465848E+02  0.26610509571E+02  0.33237784167E+02  0.00000000000E+00 0. -1.
</event>
<event>
 7    1  0.2577508E-013  0.7246155E+02  0.7816164E-02  0.1226708E+00
        -11   -1    0    0    0    0  0.00000000000E+00  0.00000000000E+00  0.45593999997E+02  0.45594000000E+02  0.51100000000E-03 0. -1.
         11   -1    0    0    0    0 -0.00000000000E+00 -0.00000000000E+00 -0.45593999997E+02  0.45594000000E+02  0.51100000000E-03 0.  1.
    9900012    2    1    2    0    0 -0.14996071412E+02  0.77679615187E+01  0.80905206874E+01  0.72461550551E+02  0.69999974281E+02 0.  0.
        -12    1    1    2    0    0  0.14996071412E+02 -0.77679615187E+01 -0.80905206874E+01  0.18726449449E+02  0.00000000000E+00 0.  1.
         11    1    3    3    0    0 -0.18549298545E+02  0.35870821392E+01 -0.22648176367E+02  0.29493787953E+02  0.51100000000E-03 0. -1.
        -11    1    3    3    0    0  0.12961330022E+02 -0.46161362408E+01  0.58643277229E+01  0.14956441076E+02  0.51100000000E-03 0.  1.
         12    1    3    3    0    0 -0.94081028895E+01  0.87970156203E+01  0.24874369332E+02  0.28011321523E+02  0.00000000000E+00 0. -1.
</event>
<event>
 7    1  0.2577508E-013  0.7246159E+02  0.7816164E-02  0.1226708E+00
        -11   -1    0    0    0    0  0.00000000000E+00  0.00000000000E+00  0.45593999997E+02  0.45594000000E+02  0.51100000000E-03 0. -1.
         11   -1    0    0    0    0 -0.00000000000E+00 -0.00000000000E+00 -0.45593999997E+02  0.45594000000E+02  0.51100000000E-03 0.  1.
    9900012    2    1    2    0    0  0.14111638657E+02  0.43769714104E+01  0.11505747475E+02  0.72461589525E+02  0.70000025051E+02 0.  0.
        -12    1    1    2    0    0 -0.14111638657E+02 -0.43769714104E+01 -0.11505747475E+02  0.18726410475E+02  0.00000000000E+00 0.  1.
         11    1    3    3    0    0  0.84246742381E+01 -0.73627580132E+01 -0.24294475851E+02  0.26747091407E+02  0.51100000000E-03 0.  1.
        -11    1    3    3    0    0 -0.90738402094E+01 -0.56409046932E+00  0.95873373021E+01  0.13212486935E+02  0.51100000000E-03 0. -1.
        -12    1    3    3    0    0  0.14760804629E+02  0.12303819893E+02  0.26212886024E+02  0.32502011183E+02  0.00000000000E+00 0.  1.
</event>
<event>
 7    1  0.2577508E-013  0.7246161E+02  0.7816164E-02  0.1226708E+00
        -11   -1    0    0    0    0  0.00000000000E+00  0.00000000000E+00  0.45593999997E+02  0.45594000000E+02  0.51100000000E-03 0.  1.
         11   -1    0    0    0    0 -0.00000000000E+00 -0.00000000000E+00 -0.45593999997E+02  0.45594000000E+02  0.51100000000E-03 0. -1.
    9900012    2    1    2    0    0  0.28241226162E+01 -0.87865095833E+01 -0.16294143074E+02  0.72461614397E+02  0.70000057452E+02 0.  0.
        -12    1    1    2    0    0 -0.28241226162E+01  0.87865095833E+01  0.16294143074E+02  0.18726385603E+02  0.00000000000E+00 0.  1.
         11    1    3    3    0    0 -0.74824237618E+01 -0.15257047712E+01 -0.68705417000E+01  0.10272233638E+02  0.51100000000E-03 0. -1.
        -11    1    3    3    0    0 -0.29892859707E+00  0.11200366676E+02 -0.30340357415E+02  0.32343080563E+02  0.51100000000E-03 0.  1.
         12    1    3    3    0    0  0.10605474975E+02 -0.18461171488E+02  0.20916756040E+02  0.29846300196E+02  0.00000000000E+00 0. -1.
</event>
<event>
 7    1  0.2577508E-013  0.7246159E+02  0.7816164E-02  0.1226708E+00
        -11   -1    0    0    0    0  0.00000000000E+00  0.00000000000E+00  0.45593999997E+02  0.45594000000E+02  0.51100000000E-03 0.  1.
         11   -1    0    0    0    0 -0.00000000000E+00 -0.00000000000E+00 -0.45593999997E+02  0.45594000000E+02  0.51100000000E-03 0. -1.
    9900012    2    1    2    0    0 -0.72338732111E+01  0.99660258242E+01 -0.14107724540E+02  0.72461588597E+02  0.70000023842E+02 0.  0.
        -12    1    1    2    0    0  0.72338732111E+01 -0.99660258242E+01  0.14107724540E+02  0.18726411403E+02  0.00000000000E+00 0.  1.
         11    1    3    3    0    0 -0.25307209189E+02 -0.64464406225E+01  0.44876789984E+01  0.26498126286E+02  0.51100000000E-03 0. -1.
        -11    1    3    3    0    0  0.90539024801E+01 -0.98977728096E+01 -0.10383016159E+02  0.16963079954E+02  0.51100000000E-03 0.  1.
        -12    1    3    3    0    0  0.90194334976E+01  0.26310239256E+02 -0.82123873792E+01  0.29000382356E+02  0.00000000000E+00 0.  1.
</event>
<event>
 7    1  0.2577508E-013  0.7246153E+02  0.7816164E-02  0.1226708E+00
        -11   -1    0    0    0    0  0.00000000000E+00  0.00000000000E+00  0.45593999997E+02  0.45594000000E+02  0.51100000000E-03 0. -1.
         11   -1    0    0    0    0 -0.00000000000E+00 -0.00000000000E+00 -0.45593999997E+02  0.45594000000E+02  0.51100000000E-03 0.  1.
    9900012    2    1    2    0    0  0.66344698189E+01  0.96629268096E+01  0.14604534153E+02  0.72461527772E+02  0.69999944606E+02 0.  0.
        -12    1    1    2    0    0 -0.66344698189E+01 -0.96629268096E+01 -0.14604534153E+02  0.18726472228E+02  0.00000000000E+00 0.  1.
         11    1    3    3    0    0 -0.16696183024E+02  0.63208965734E+01 -0.49309873504E+01  0.18521093314E+02  0.51100000000E-03 0. -1.
        -11    1    3    3    0    0  0.11636297336E+02 -0.56980041671E+01 -0.12907681262E+02  0.18288764393E+02  0.51100000000E-03 0.  1.
         12    1    3    3    0    0  0.11694355506E+02  0.90400344033E+01  0.32443202765E+02  0.35651670065E+02  0.00000000000E+00 0. -1.
</event>
<event>
 7    1  0.2577508E-013  0.7246144E+02  0.7816164E-02  0.1226708E+00
        -11   -1    0    0    0    0  0.00000000000E+00  0.00000000000E+00  0.45593999997E+02  0.45594000000E+02  0.51100000000E-03 0. -1.
         11   -1    0    0    0    0 -0.00000000000E+00 -0.00000000000E+00 -0.45593999997E+02  0.45594000000E+02  0.51100000000E-03 0.  1.
    9900012    2    1    2    0    0 -0.89850641939E+00  0.18624310977E+02  0.17353972104E+01  0.72461444613E+02  0.69999836277E+02 0.  0.
        -12    1    1    2    0    0  0.89850641939E+00 -0.18624310977E+02 -0.17353972104E+01  0.18726555387E+02  0.00000000000E+00 0.  1.
         11    1    3    3    0    0  0.72666343440E+01  0.30110627205E+01 -0.10002082956E+02  0.12724470014E+02  0.51100000000E-03 0.  1.
        -11    1    3    3    0    0 -0.34245854905E+01  0.15161827805E+02  0.33780689139E+02  0.37185262768E+02  0.51100000000E-03 0. -1.
         12    1    3    3    0    0 -0.47405552729E+01  0.45142045192E+00 -0.22043208972E+02  0.22551711831E+02  0.00000000000E+00 0. -1.
</event>
<event>
 7    1  0.2577508E-013  0.7246158E+02  0.7816164E-02  0.1226708E+00
        -11   -1    0    0    0    0  0.00000000000E+00  0.00000000000E+00  0.45593999997E+02  0.45594000000E+02  0.51100000000E-03 0.  1.
         11   -1    0    0    0    0 -0.00000000000E+00 -0.00000000000E+00 -0.45593999997E+02  0.45594000000E+02  0.51100000000E-03 0. -1.
    9900012    2    1    2    0    0 -0.14128987508E+01  0.20308202191E+00 -0.18671937092E+02  0.72461581230E+02  0.70000014246E+02 0.  0.
        -12    1    1    2    0    0  0.14128987508E+01 -0.20308202191E+00  0.18671937092E+02  0.18726418770E+02  0.00000000000E+00 0.  1.
         11    1    3    3    0    0  0.86943249075E+01 -0.11408144820E+02  0.52817490950E+01  0.15285088406E+02  0.51100000000E-03 0. -1.
        -11    1    3    3    0    0  0.92027558734E+00 -0.71674444214E+01 -0.32862439480E+02  0.33647571912E+02  0.51100000000E-03 0.  1.
        -12    1    3    3    0    0 -0.11027499246E+02  0.18778671263E+02  0.89087532934E+01  0.23528920912E+02  0.00000000000E+00 0.  1.
</event>
<event>
 7    1  0.2577508E-013  0.7246159E+02  0.7816164E-02  0.1226708E+00
        -11   -1    0    0    0    0  0.00000000000E+00  0.00000000000E+00  0.45593999997E+02  0.45594000000E+02  0.51100000000E-03 0. -1.
         11   -1    0    0    0    0 -0.00000000000E+00 -0.00000000000E+00 -0.45593999997E+02  0.45594000000E+02  0.51100000000E-03 0.  1.
    9900012    2    1    2    0    0  0.78065446680E+01 -0.17017631226E+02 -0.36940034422E+00  0.72461591673E+02  0.70000027850E+02 0.  0.
        -12    1    1    2    0    0 -0.78065446680E+01  0.17017631226E+02  0.36940034422E+00  0.18726408327E+02  0.00000000000E+00 0.  1.
         11    1    3    3    0    0 -0.67766061271E+01  0.98809276221E+01  0.88618978107E+01  0.14902629108E+02  0.51100000000E-03 0. -1.
        -11    1    3    3    0    0  0.36430740955E+01 -0.17282891705E+02 -0.28424272547E+02  0.33465050495E+02  0.51100000000E-03 0.  1.
         12    1    3    3    0    0  0.10940076700E+02 -0.96156671434E+01  0.19192974392E+02  0.24093912070E+02  0.00000000000E+00 0. -1.
</event>
<event>
 7    1  0.2577508E-013  0.7246152E+02  0.7816164E-02  0.1226708E+00
        -11   -1    0    0    0    0  0.00000000000E+00  0.00000000000E+00  0.45593999997E+02  0.45594000000E+02  0.51100000000E-03 0.  1.
         11   -1    0    0    0    0 -0.00000000000E+00 -0.00000000000E+00 -0.45593999997E+02  0.45594000000E+02  0.51100000000E-03 0. -1.
    9900012    2    1    2    0    0  0.83650399495E+01  0.10411606306E+02 -0.13126518862E+02  0.72461523111E+02  0.69999938535E+02 0.  0.
        -12    1    1    2    0    0 -0.83650399495E+01 -0.10411606306E+02  0.13126518862E+02  0.18726476889E+02  0.00000000000E+00 0.  1.
         11    1    3    3    0    0 -0.39604509529E+01 -0.33679959771E+01 -0.20969593143E+02  0.21604453371E+02  0.51100000000E-03 0. -1.
        -11    1    3    3    0    0 -0.25749864338E+01 -0.74608785707E+01 -0.14570413009E+02  0.16570823748E+02  0.51100000000E-03 0.  1.
        -12    1    3    3    0    0  0.14900477336E+02  0.21240480854E+02  0.22413487289E+02  0.34286245992E+02  0.00000000000E+00 0.  1.
</event>
<event>
 7    1  0.2577508E-013  0.7246157E+02  0.7816164E-02  0.1226708E+00
        -11   -1    0    0    0    0  0.00000000000E+00  0.00000000000E+00  0.45593999997E+02  0.45594000000E+02  0.51100000000E-03 0. -1.
         11   -1    0    0    0    0 -0.00000000000E+00 -0.00000000000E+00 -0.45593999997E+02  0.45594000000E+02  0.51100000000E-03 0.  1.
    9900012    2    1    2    0    0  0.33714805169E+01 -0.14882811433E+02 -0.10854230568E+02  0.72461567391E+02  0.69999996218E+02 0.  0.
        -12    1    1    2    0    0 -0.33714805169E+01  0.14882811433E+02  0.10854230568E+02  0.18726432609E+02  0.00000000000E+00 0.  1.
         11    1    3    3    0    0  0.99382731302E+01 -0.15206240477E+02  0.10684926739E+02  0.21075262322E+02  0.51100000000E-03 0. -1.
        -11    1    3    3    0    0  0.33477857521E+01  0.12206722807E+02  0.10081356083E+02  0.16181640580E+02  0.51100000000E-03 0.  1.
        -12    1    3    3    0    0 -0.99145783653E+01 -0.11883293763E+02 -0.31620513389E+02  0.35204664490E+02  0.00000000000E+00 0.  1.
</event>
<event>
 7    1  0.2577508E-013  0.7246160E+02  0.7816164E-02  0.1226708E+00
        -11   -1    0    0    0    0  0.00000000000E+00  0.00000000000E+00  0.45593999997E+02  0.45594000000E+02  0.51100000000E-03 0.  1.
         11   -1    0    0    0    0 -0.00000000000E+00 -0.00000000000E+00 -0.45593999997E+02  0.45594000000E+02  0.51100000000E-03 0. -1.
    9900012    2    1    2    0    0 -0.76162140714E+00  0.78973239075E+01 -0.16962611008E+02  0.72461602475E+02  0.70000041921E+02 0.  0.
        -12    1    1    2    0    0  0.76162140714E+00 -0.78973239075E+01  0.16962611008E+02  0.18726397525E+02  0.00000000000E+00 0.  1.
         11    1    3    3    0    0 -0.12593884409E+01 -0.29451701072E+01  0.96012062150E+01  0.10121425159E+02  0.51100000000E-03 0. -1.
        -11    1    3    3    0    0  0.58434352504E+00 -0.16878795167E+02 -0.29979230470E+02  0.34409147671E+02  0.51100000000E-03 0.  1.
         12    1    3    3    0    0 -0.86576491246E-01  0.27721289181E+02  0.34154132472E+01  0.27931029645E+02  0.00000000000E+00 0. -1.
</event>
<event>
 7    1  0.2577508E-013  0.7246154E+02  0.7816164E-02  0.1226708E+00
        -11   -1    0    0    0    0  0.00000000000E+00  0.00000000000E+00  0.45593999997E+02  0.45594000000E+02  0.51100000000E-03 0. -1.
         11   -1    0    0    0    0 -0.00000000000E+00 -0.00000000000E+00 -0.45593999997E+02  0.45594000000E+02  0.51100000000E-03 0.  1.
    9900012    2    1    2    0    0 -0.17769329486E+02 -0.55013156834E+01 -0.21602714503E+01  0.72461539646E+02  0.69999960075E+02 0.  0.
        -12    1    1    2    0    0  0.17769329486E+02  0.55013156834E+01  0.21602714503E+01  0.18726460354E+02  0.00000000000E+00 0.  1.
         11    1    3    3    0    0 -0.25565803437E+02 -0.10550464230E+02  0.36938930034E+00  0.27659700822E+02  0.51100000000E-03 0. -1.
        -11    1    3    3    0    0 -0.34404547877E+01  0.23022217883E+02 -0.37130203457E+01  0.23572139609E+02  0.51100000000E-03 0.  1.
         12    1    3    3    0    0  0.11236928739E+02 -0.17973069337E+02  0.11833595950E+01  0.21229699216E+02  0.00000000000E+00 0. -1.
</event>
<event>
 7    1  0.2577508E-013  0.7246158E+02  0.7816164E-02  0.1226708E+00
        -11   -1    0    0    0    0  0.00000000000E+00  0.00000000000E+00  0.45593999997E+02  0.45594000000E+02  0.51100000000E-03 0.  1.
         11   -1    0    0    0    0 -0.00000000000E+00 -0.00000000000E+00 -0.45593999997E+02  0.45594000000E+02  0.51100000000E-03 0. -1.
    9900012    2    1    2    0    0 -0.70853923477E+01  0.10584741814E+02 -0.13727322640E+02  0.72461576667E+02  0.70000008302E+02 0.  0.
        -12    1    1    2    0    0  0.70853923477E+01 -0.10584741814E+02  0.13727322640E+02  0.18726423333E+02  0.00000000000E+00 0.  1.
         11    1    3    3    0    0  0.12864571708E+00 -0.10674644505E+02  0.40406017210E+00  0.10683063695E+02  0.51100000000E-03 0. -1.
        -11    1    3    3    0    0 -0.12389224286E+02 -0.41199704659E+01  0.16901124650E+02  0.21356850183E+02  0.51100000000E-03 0.  1.
         12    1    3    3    0    0  0.51751862211E+01  0.25379356785E+02 -0.31032507462E+02  0.40421662789E+02  0.00000000000E+00 0. -1.
</event>
<event>
 7    1  0.2577508E-013  0.7246156E+02  0.7816164E-02  0.1226708E+00
        -11   -1    0    0    0    0  0.00000000000E+00  0.00000000000E+00  0.45593999997E+02  0.45594000000E+02  0.51100000000E-03 0. -1.
         11   -1    0    0    0    0 -0.00000000000E+00 -0.00000000000E+00 -0.45593999997E+02  0.45594000000E+02  0.51100000000E-03 0.  1.
    9900012    2    1    2    0    0  0.96850015727E+01  0.10854141939E+02  0.11792700049E+02  0.72461563416E+02  0.69999991039E+02 0.  0.
        -12    1    1    2    0    0 -0.96850015727E+01 -0.10854141939E+02 -0.11792700049E+02  0.18726436584E+02  0.00000000000E+00 0.  1.
         11    1    3    3    0    0 -0.11843204585E+02 -0.11339053329E+02  0.73731902552E+01  0.17977751807E+02  0.51100000000E-03 0. -1.
        -11    1    3    3    0    0  0.78749419047E+01 -0.67128732143E+01  0.17185852826E+02  0.20060680806E+02  0.51100000000E-03 0.  1.
        -12    1    3    3    0    0  0.13653264253E+02  0.28906068481E+02 -0.12766343032E+02  0.34423130802E+02  0.00000000000E+00 0.  1.
</event>
<event>
 7    1  0.2577508E-013  0.7246176E+02  0.7816164E-02  0.1226708E+00
        -11   -1    0    0    0    0  0.00000000000E+00  0.00000000000E+00  0.45593999997E+02  0.45594000000E+02  0.51100000000E-03 0. -1.
         11   -1    0    0    0    0 -0.00000000000E+00 -0.00000000000E+00 -0.45593999997E+02  0.45594000000E+02  0.51100000000E-03 0.  1.
    9900012    2    1    2    0    0 -0.10558576574E+02  0.14304009225E+02  0.58808065392E+01  0.72461758927E+02  0.70000245728E+02 0.  0.
        -12    1    1    2    0    0  0.10558576574E+02 -0.14304009225E+02 -0.58808065392E+01  0.18726241073E+02  0.00000000000E+00 0.  1.
         11    1    3    3    0    0  0.89417119969E+01  0.18941279892E+02  0.28406480278E+02  0.35293829764E+02  0.51100000000E-03 0. -1.
        -11    1    3    3    0    0 -0.34309919509E+00  0.70869146931E+01 -0.50185955445E+01  0.86907064399E+01  0.51100000000E-03 0.  1.
        -12    1    3    3    0    0 -0.19157189376E+02 -0.11724185360E+02 -0.17507078194E+02  0.28477222723E+02  0.00000000000E+00 0.  1.
</event>
<event>
 7    1  0.2577508E-013  0.7246138E+02  0.7816164E-02  0.1226709E+00
        -11   -1    0    0    0    0  0.00000000000E+00  0.00000000000E+00  0.45593999997E+02  0.45594000000E+02  0.51100000000E-03 0.  1.
         11   -1    0    0    0    0 -0.00000000000E+00 -0.00000000000E+00 -0.45593999997E+02  0.45594000000E+02  0.51100000000E-03 0. -1.
    9900012    2    1    2    0    0  0.10735839545E+02 -0.13530201016E+02 -0.72361485095E+01  0.72461376291E+02  0.69999747275E+02 0.  0.
        -12    1    1    2    0    0 -0.10735839545E+02  0.13530201016E+02  0.72361485095E+01  0.18726623709E+02  0.00000000000E+00 0.  1.
         11    1    3    3    0    0 -0.88588853308E+01  0.65786016820E+01  0.22174699961E+01  0.11254999904E+02  0.51100000000E-03 0. -1.
        -11    1    3    3    0    0 -0.11401726394E+02 -0.21808332273E+02  0.76407681807E+01  0.25767888155E+02  0.51100000000E-03 0.  1.
         12    1    3    3    0    0  0.30996451269E+02  0.16995295749E+01 -0.17094386686E+02  0.35438488233E+02  0.00000000000E+00 0. -1.
</event>
<event>
 7    1  0.2577508E-013  0.7246157E+02  0.7816164E-02  0.1226708E+00
        -11   -1    0    0    0    0  0.00000000000E+00  0.00000000000E+00  0.45593999997E+02  0.45594000000E+02  0.51100000000E-03 0.  1.
         11   -1    0    0    0    0 -0.00000000000E+00 -0.00000000000E+00 -0.45593999997E+02  0.45594000000E+02  0.51100000000E-03 0. -1.
    9900012    2    1    2    0    0 -0.17697324842E+02  0.46421483113E+01 -0.39917612931E+01  0.72461574667E+02  0.70000005697E+02 0.  0.
        -12    1    1    2    0    0  0.17697324842E+02 -0.46421483113E+01  0.39917612931E+01  0.18726425333E+02  0.00000000000E+00 0.  1.
         11    1    3    3    0    0  0.15545027364E+01  0.19595201858E+02 -0.16042121241E+02  0.25371993789E+02  0.51100000000E-03 0. -1.
        -11    1    3    3    0    0 -0.33784949825E+01  0.10269903820E+02  0.13447808758E+02  0.17254817109E+02  0.51100000000E-03 0.  1.
        -12    1    3    3    0    0 -0.15873332596E+02 -0.25222957367E+02 -0.13974488100E+01  0.29834763770E+02  0.00000000000E+00 0.  1.
</event>
<event>
 7    1  0.2577508E-013  0.7246155E+02  0.7816164E-02  0.1226708E+00
        -11   -1    0    0    0    0  0.00000000000E+00  0.00000000000E+00  0.45593999997E+02  0.45594000000E+02  0.51100000000E-03 0. -1.
         11   -1    0    0    0    0 -0.00000000000E+00 -0.00000000000E+00 -0.45593999997E+02  0.45594000000E+02  0.51100000000E-03 0.  1.
    9900012    2    1    2    0    0  0.15980279458E+01  0.13158624228E+02  0.13227881932E+02  0.72461549581E+02  0.69999973017E+02 0.  0.
        -12    1    1    2    0    0 -0.15980279458E+01 -0.13158624228E+02 -0.13227881932E+02  0.18726450419E+02  0.00000000000E+00 0.  1.
         11    1    3    3    0    0 -0.11328814360E+02 -0.63478860409E+01  0.29119661563E+02  0.31884045882E+02  0.51100000000E-03 0. -1.
        -11    1    3    3    0    0 -0.88592414640E+01  0.84682147833E+01 -0.18175079000E+01  0.12389517995E+02  0.51100000000E-03 0.  1.
        -12    1    3    3    0    0  0.21786083770E+02  0.11038295486E+02 -0.14074271732E+02  0.28187985703E+02  0.00000000000E+00 0.  1.
</event>
<event>
 7    1  0.2577508E-013  0.7246150E+02  0.7816164E-02  0.1226708E+00
        -11   -1    0    0    0    0  0.00000000000E+00  0.00000000000E+00  0.45593999997E+02  0.45594000000E+02  0.51100000000E-03 0.  1.
         11   -1    0    0    0    0 -0.00000000000E+00 -0.00000000000E+00 -0.45593999997E+02  0.45594000000E+02  0.51100000000E-03 0. -1.
    9900012    2    1    2    0    0 -0.47356503453E+01 -0.12919039175E+02 -0.12702513402E+02  0.72461499950E+02  0.69999908363E+02 0.  0.
        -12    1    1    2    0    0  0.47356503453E+01  0.12919039175E+02  0.12702513402E+02  0.18726500050E+02  0.00000000000E+00 0.  1.
         11    1    3    3    0    0 -0.89285784390E+01 -0.93081505580E+01 -0.25548062928E+02  0.28619306410E+02  0.51100000000E-03 0. -1.
        -11    1    3    3    0    0 -0.99977045902E+01  0.15245590820E+02  0.70034271319E+01  0.19530236260E+02  0.51100000000E-03 0.  1.
        -12    1    3    3    0    0  0.14190632684E+02 -0.18856479437E+02  0.58421223933E+01  0.24311957280E+02  0.00000000000E+00 0.  1.
</event>
<event>
 7    1  0.2577508E-013  0.7246154E+02  0.7816164E-02  0.1226708E+00
        -11   -1    0    0    0    0  0.00000000000E+00  0.00000000000E+00  0.45593999997E+02  0.45594000000E+02  0.51100000000E-03 0.  1.
         11   -1    0    0    0    0 -0.00000000000E+00 -0.00000000000E+00 -0.45593999997E+02  0.45594000000E+02  0.51100000000E-03 0. -1.
    9900012    2    1    2    0    0 -0.36639004780E+01  0.23389407540E+01 -0.18214982452E+02  0.72461537540E+02  0.69999957331E+02 0.  0.
        -12    1    1    2    0    0  0.36639004780E+01 -0.23389407540E+01  0.18214982452E+02  0.18726462460E+02  0.00000000000E+00 0.  1.
         11    1    3    3    0    0 -0.50889329714E+01  0.27117614872E+02 -0.31749368875E+02  0.42062866038E+02  0.51100000000E-03 0. -1.
        -11    1    3    3    0    0 -0.23986580908E+01 -0.54567327705E+01  0.79296428768E+01  0.99201174177E+01  0.51100000000E-03 0.  1.
        -12    1    3    3    0    0  0.38236905841E+01 -0.19321941348E+02  0.56047435465E+01  0.20478554083E+02  0.00000000000E+00 0.  1.
</event>
<event>
 7    1  0.2577508E-013  0.7246156E+02  0.7816164E-02  0.1226708E+00
        -11   -1    0    0    0    0  0.00000000000E+00  0.00000000000E+00  0.45593999997E+02  0.45594000000E+02  0.51100000000E-03 0.  1.
         11   -1    0    0    0    0 -0.00000000000E+00 -0.00000000000E+00 -0.45593999997E+02  0.45594000000E+02  0.51100000000E-03 0. -1.
    9900012    2    1    2    0    0 -0.98044854277E+01  0.16224493500E+01 -0.15871966779E+02  0.72461558645E+02  0.69999984824E+02 0.  0.
        -12    1    1    2    0    0  0.98044854277E+01 -0.16224493500E+01  0.15871966779E+02  0.18726441355E+02  0.00000000000E+00 0.  1.
         11    1    3    3    0    0 -0.10923139201E+02  0.27633158893E+02 -0.14972677680E+01  0.29751441166E+02  0.51100000000E-03 0. -1.
        -11    1    3    3    0    0 -0.25587825890E+01  0.12980586062E+01 -0.14876126184E+02  0.15150295541E+02  0.51100000000E-03 0.  1.
        -12    1    3    3    0    0  0.36774363627E+01 -0.27308768149E+02  0.50142717268E+00  0.27559821938E+02  0.00000000000E+00 0.  1.
</event>
<event>
 7    1  0.2577508E-013  0.7246144E+02  0.7816164E-02  0.1226708E+00
        -11   -1    0    0    0    0  0.00000000000E+00  0.00000000000E+00  0.45593999997E+02  0.45594000000E+02  0.51100000000E-03 0.  1.
         11   -1    0    0    0    0 -0.00000000000E+00 -0.00000000000E+00 -0.45593999997E+02  0.45594000000E+02  0.51100000000E-03 0. -1.
    9900012    2    1    2    0    0  0.13833885738E+02 -0.11337316693E+02  0.55473392452E+01  0.72461438193E+02  0.69999827913E+02 0.  0.
        -12    1    1    2    0    0 -0.13833885738E+02  0.11337316693E+02 -0.55473392452E+01  0.18726561807E+02  0.00000000000E+00 0.  1.
         11    1    3    3    0    0 -0.61711233398E+01 -0.65276273227E+01 -0.56884492365E+01  0.10632550809E+02  0.51100000000E-03 0. -1.
        -11    1    3    3    0    0  0.14212390648E+02 -0.25998463128E+02  0.22441969678E+02  0.37169263327E+02  0.51100000000E-03 0.  1.
         12    1    3    3    0    0  0.57926184298E+01  0.21188773758E+02 -0.11206181196E+02  0.24659624057E+02  0.00000000000E+00 0. -1.
</event>
<event>
 7    1  0.2577508E-013  0.7246159E+02  0.7816164E-02  0.1226708E+00
        -11   -1    0    0    0    0  0.00000000000E+00  0.00000000000E+00  0.45593999997E+02  0.45594000000E+02  0.51100000000E-03 0. -1.
         11   -1    0    0    0    0 -0.00000000000E+00 -0.00000000000E+00 -0.45593999997E+02  0.45594000000E+02  0.51100000000E-03 0.  1.
    9900012    2    1    2    0    0 -0.56121568033E+01 -0.12781209903E+02 -0.12482901796E+02  0.72461589030E+02  0.70000024406E+02 0.  0.
        -12    1    1    2    0    0  0.56121568033E+01  0.12781209903E+02  0.12482901796E+02  0.18726410970E+02  0.00000000000E+00 0.  1.
         11    1    3    3    0    0  0.10237002383E+02 -0.10774602297E+02  0.16122320063E+02  0.21927550637E+02  0.51100000000E-03 0. -1.
        -11    1    3    3    0    0  0.78362327681E+01 -0.20964076192E+01 -0.25361753463E+02  0.26627429614E+02  0.51100000000E-03 0.  1.
        -12    1    3    3    0    0 -0.23685391954E+02  0.89800013273E-01 -0.32434683968E+01  0.23906608779E+02  0.00000000000E+00 0.  1.
</event>
<event>
 7    1  0.2577508E-013  0.7246157E+02  0.7816164E-02  0.1226708E+00
        -11   -1    0    0    0    0  0.00000000000E+00  0.00000000000E+00  0.45593999997E+02  0.45594000000E+02  0.51100000000E-03 0. -1.
         11   -1    0    0    0    0 -0.00000000000E+00 -0.00000000000E+00 -0.45593999997E+02  0.45594000000E+02  0.51100000000E-03 0.  1.
    9900012    2    1    2    0    0  0.97930719245E+01  0.15541510078E+02  0.36381867329E+01  0.72461569589E+02  0.69999999081E+02 0.  0.
        -12    1    1    2    0    0 -0.97930719245E+01 -0.15541510078E+02 -0.36381867329E+01  0.18726430411E+02  0.00000000000E+00 0.  1.
         11    1    3    3    0    0 -0.52676890758E+01 -0.15219777801E+01  0.24037968561E+02  0.24655403006E+02  0.51100000000E-03 0. -1.
        -11    1    3    3    0    0 -0.86942572626E+01  0.34958453485E+01  0.48733290388E+01  0.10562214741E+02  0.51100000000E-03 0.  1.
        -12    1    3    3    0    0  0.23755018263E+02  0.13567642510E+02 -0.25273110867E+02  0.37243951843E+02  0.00000000000E+00 0.  1.
</event>
<event>
 7    1  0.2577508E-013  0.7246155E+02  0.7816164E-02  0.1226708E+00
        -11   -1    0    0    0    0  0.00000000000E+00  0.00000000000E+00  0.45593999997E+02  0.45594000000E+02  0.51100000000E-03 0. -1.
         11   -1    0    0    0    0 -0.00000000000E+00 -0.00000000000E+00 -0.45593999997E+02  0.45594000000E+02  0.51100000000E-03 0.  1.
    9900012    2    1    2    0    0  0.12322630054E+02  0.13652029179E+02 -0.35291303421E+01  0.72461551508E+02  0.69999975527E+02 0.  0.
        -12    1    1    2    0    0 -0.12322630054E+02 -0.13652029179E+02  0.35291303421E+01  0.18726448492E+02  0.00000000000E+00 0.  1.
         11    1    3    3    0    0  0.17568959929E+02  0.31305396634E+02  0.24978795336E+01  0.35985213822E+02  0.51100000000E-03 0. -1.
        -11    1    3    3    0    0 -0.57570875188E+01  0.25439739313E+01  0.92210202577E+01  0.11164366302E+02  0.51100000000E-03 0.  1.
        -12    1    3    3    0    0  0.51075764344E+00 -0.20197341386E+02 -0.15248030133E+02  0.25311971384E+02  0.00000000000E+00 0.  1.
</event>
<event>
 7    1  0.2577508E-013  0.7246158E+02  0.7816164E-02  0.1226708E+00
        -11   -1    0    0    0    0  0.00000000000E+00  0.00000000000E+00  0.45593999997E+02  0.45594000000E+02  0.51100000000E-03 0. -1.
         11   -1    0    0    0    0 -0.00000000000E+00 -0.00000000000E+00 -0.45593999997E+02  0.45594000000E+02  0.51100000000E-03 0.  1.
    9900012    2    1    2    0    0 -0.79280502107E+01 -0.90401674734E+01  0.14356193104E+02  0.72461577797E+02  0.70000009773E+02 0.  0.
        -12    1    1    2    0    0  0.79280502107E+01  0.90401674734E+01 -0.14356193104E+02  0.18726422203E+02  0.00000000000E+00 0.  1.
         11    1    3    3    0    0 -0.28956626138E+02 -0.45917313744E+01 -0.50314591712E+01  0.29747029699E+02  0.51100000000E-03 0. -1.
        -11    1    3    3    0    0 -0.71079542141E+01  0.45893384884E+01  0.34367485276E+01  0.91321564580E+01  0.51100000000E-03 0.  1.
        -12    1    3    3    0    0  0.28136530141E+02 -0.90377745874E+01  0.15950903748E+02  0.33582391639E+02  0.00000000000E+00 0.  1.
</event>
<event>
 7    1  0.2577508E-013  0.7246158E+02  0.7816164E-02  0.1226708E+00
        -11   -1    0    0    0    0  0.00000000000E+00  0.00000000000E+00  0.45593999997E+02  0.45594000000E+02  0.51100000000E-03 0.  1.
         11   -1    0    0    0    0 -0.00000000000E+00 -0.00000000000E+00 -0.45593999997E+02  0.45594000000E+02  0.51100000000E-03 0. -1.
    9900012    2    1    2    0    0 -0.13911228331E+01  0.86408531825E+01 -0.16555334896E+02  0.72461583365E+02  0.70000017027E+02 0.  0.
        -12    1    1    2    0    0  0.13911228331E+01 -0.86408531825E+01  0.16555334896E+02  0.18726416635E+02  0.00000000000E+00 0.  1.
         11    1    3    3    0    0  0.77344786702E+01 -0.52362817067E+01 -0.13426274336E+02  0.16355599934E+02  0.51100000000E-03 0. -1.
        -11    1    3    3    0    0  0.96013337016E+01 -0.60986480331E+01 -0.20666542946E+02  0.23589936716E+02  0.51100000000E-03 0.  1.
        -12    1    3    3    0    0 -0.18726935205E+02  0.19975782922E+02  0.17537482385E+02  0.32516046714E+02  0.00000000000E+00 0.  1.
</event>
<event>
 7    1  0.2577508E-013  0.7246159E+02  0.7816164E-02  0.1226708E+00
        -11   -1    0    0    0    0  0.00000000000E+00  0.00000000000E+00  0.45593999997E+02  0.45594000000E+02  0.51100000000E-03 0. -1.
         11   -1    0    0    0    0 -0.00000000000E+00 -0.00000000000E+00 -0.45593999997E+02  0.45594000000E+02  0.51100000000E-03 0.  1.
    9900012    2    1    2    0    0  0.16756605027E+01 -0.91031963031E+01  0.16278898639E+02  0.72461586517E+02  0.70000021133E+02 0.  0.
        -12    1    1    2    0    0 -0.16756605027E+01  0.91031963031E+01 -0.16278898639E+02  0.18726413483E+02  0.00000000000E+00 0.  1.
         11    1    3    3    0    0 -0.12415399678E+02 -0.13567900361E+02  0.15498370382E+02  0.24050562450E+02  0.51100000000E-03 0. -1.
        -11    1    3    3    0    0 -0.14153513334E+02 -0.74921492667E+01  0.63701602689E+01  0.17234650633E+02  0.51100000000E-03 0.  1.
         12    1    3    3    0    0  0.28244573515E+02  0.11956853325E+02 -0.55896320120E+01  0.31176373434E+02  0.00000000000E+00 0. -1.
</event>
<event>
 7    1  0.2577508E-013  0.7246159E+02  0.7816164E-02  0.1226708E+00
        -11   -1    0    0    0    0  0.00000000000E+00  0.00000000000E+00  0.45593999997E+02  0.45594000000E+02  0.51100000000E-03 0. -1.
         11   -1    0    0    0    0 -0.00000000000E+00 -0.00000000000E+00 -0.45593999997E+02  0.45594000000E+02  0.51100000000E-03 0.  1.
    9900012    2    1    2    0    0 -0.26303141287E+01  0.13561420338E+02  0.12643098596E+02  0.72461585071E+02  0.70000019249E+02 0.  0.
        -12    1    1    2    0    0  0.26303141287E+01 -0.13561420338E+02 -0.12643098596E+02  0.18726414929E+02  0.00000000000E+00 0.  1.
         11    1    3    3    0    0 -0.65214275793E+01  0.24373016127E+01 -0.61413438139E+01  0.92836178791E+01  0.51100000000E-03 0. -1.
        -11    1    3    3    0    0  0.12768098400E+02  0.31857413116E+02  0.79751344528E+00  0.34330090812E+02  0.51100000000E-03 0.  1.
         12    1    3    3    0    0 -0.88769849490E+01 -0.20733294391E+02  0.17986928965E+02  0.28847876380E+02  0.00000000000E+00 0. -1.
</event>
<event>
 7    1  0.2577508E-013  0.7246160E+02  0.7816164E-02  0.1226708E+00
        -11   -1    0    0    0    0  0.00000000000E+00  0.00000000000E+00  0.45593999997E+02  0.45594000000E+02  0.51100000000E-03 0.  1.
         11   -1    0    0    0    0 -0.00000000000E+00 -0.00000000000E+00 -0.45593999997E+02  0.45594000000E+02  0.51100000000E-03 0. -1.
    9900012    2    1    2    0    0  0.31645850740E+00  0.13141207797E+02 -0.13337408730E+02  0.72461602589E+02  0.70000042070E+02 0.  0.
        -12    1    1    2    0    0 -0.31645850740E+00 -0.13141207797E+02  0.13337408730E+02  0.18726397411E+02  0.00000000000E+00 0.  1.
         11    1    3    3    0    0 -0.84746708574E+01 -0.47585687762E+00 -0.19548558705E+01  0.87102208724E+01  0.51100000000E-03 0. -1.
        -11    1    3    3    0    0 -0.58353279301E+00 -0.23498414179E+02  0.97284410998E+00  0.23525781717E+02  0.51100000000E-03 0.  1.
         12    1    3    3    0    0  0.93746621579E+01  0.37115478854E+02 -0.12355396969E+02  0.40225600000E+02  0.00000000000E+00 0. -1.
</event>
<event>
 7    1  0.2577508E-013  0.7246155E+02  0.7816164E-02  0.1226708E+00
        -11   -1    0    0    0    0  0.00000000000E+00  0.00000000000E+00  0.45593999997E+02  0.45594000000E+02  0.51100000000E-03 0.  1.
         11   -1    0    0    0    0 -0.00000000000E+00 -0.00000000000E+00 -0.45593999997E+02  0.45594000000E+02  0.51100000000E-03 0. -1.
    9900012    2    1    2    0    0  0.17116618972E+02 -0.75956532558E+01 -0.85803173117E-01  0.72461549306E+02  0.69999972658E+02 0.  0.
        -12    1    1    2    0    0 -0.17116618972E+02  0.75956532558E+01  0.85803173117E-01  0.18726450694E+02  0.00000000000E+00 0.  1.
         11    1    3    3    0    0  0.45551320859E+01 -0.24568282844E+02  0.15323361006E+00  0.24987461476E+02  0.51100000000E-03 0. -1.
        -11    1    3    3    0    0 -0.32170572124E+01 -0.39572769965E+01  0.15896506260E+02  0.16694562284E+02  0.51100000000E-03 0.  1.
         12    1    3    3    0    0  0.15778544099E+02  0.20929906584E+02 -0.16135543043E+02  0.30779525545E+02  0.00000000000E+00 0. -1.
</event>
<event>
 7    1  0.2577508E-013  0.7246155E+02  0.7816164E-02  0.1226708E+00
        -11   -1    0    0    0    0  0.00000000000E+00  0.00000000000E+00  0.45593999997E+02  0.45594000000E+02  0.51100000000E-03 0. -1.
         11   -1    0    0    0    0 -0.00000000000E+00 -0.00000000000E+00 -0.45593999997E+02  0.45594000000E+02  0.51100000000E-03 0.  1.
    9900012    2    1    2    0    0  0.16977851535E+02  0.72491907214E+01  0.31435134072E+01  0.72461551180E+02  0.69999975101E+02 0.  0.
        -12    1    1    2    0    0 -0.16977851535E+02 -0.72491907214E+01 -0.31435134072E+01  0.18726448820E+02  0.00000000000E+00 0.  1.
         11    1    3    3    0    0  0.10756840954E+01 -0.74224716233E+01 -0.26546040250E+00  0.75047085725E+01  0.51100000000E-03 0. -1.
        -11    1    3    3    0    0  0.13984624441E+02 -0.22488231254E+02 -0.46441366399E+01  0.26886023713E+02  0.51100000000E-03 0.  1.
         12    1    3    3    0    0  0.19175429980E+01  0.37159893599E+02  0.80531104496E+01  0.38070818895E+02  0.00000000000E+00 0. -1.
</event>
<event>
 7    1  0.2577508E-013  0.7246152E+02  0.7816164E-02  0.1226708E+00
        -11   -1    0    0    0    0  0.00000000000E+00  0.00000000000E+00  0.45593999997E+02  0.45594000000E+02  0.51100000000E-03 0. -1.
         11   -1    0    0    0    0 -0.00000000000E+00 -0.00000000000E+00 -0.45593999997E+02  0.45594000000E+02  0.51100000000E-03 0.  1.
    9900012    2    1    2    0    0 -0.75566633550E+01 -0.28038984823E+01  0.16903138576E+02  0.72461518710E+02  0.69999932802E+02 0.  0.
        -12    1    1    2    0    0  0.75566633550E+01  0.28038984823E+01 -0.16903138576E+02  0.18726481290E+02  0.00000000000E+00 0.  1.
         11    1    3    3    0    0  0.18583838197E+02 -0.25337301931E+00  0.26930149230E+02  0.32720882901E+02  0.51100000000E-03 0. -1.
        -11    1    3    3    0    0  0.94665780789E+00 -0.35077798449E+01  0.68908163970E+01  0.77899955920E+01  0.51100000000E-03 0.  1.
        -12    1    3    3    0    0 -0.27087159360E+02  0.95725438195E+00 -0.16917827051E+02  0.31950640217E+02  0.00000000000E+00 0.  1.
</event>
<event>
 7    1  0.2577508E-013  0.7246158E+02  0.7816164E-02  0.1226708E+00
        -11   -1    0    0    0    0  0.00000000000E+00  0.00000000000E+00  0.45593999997E+02  0.45594000000E+02  0.51100000000E-03 0.  1.
         11   -1    0    0    0    0 -0.00000000000E+00 -0.00000000000E+00 -0.45593999997E+02  0.45594000000E+02  0.51100000000E-03 0. -1.
    9900012    2    1    2    0    0  0.47529465768E+00 -0.17040731723E+02 -0.77502429385E+01  0.72461582609E+02  0.70000016043E+02 0.  0.
        -12    1    1    2    0    0 -0.47529465768E+00  0.17040731723E+02  0.77502429385E+01  0.18726417391E+02  0.00000000000E+00 0.  1.
         11    1    3    3    0    0 -0.65251225979E+01  0.23951023361E+01  0.35309942468E+01  0.77962594075E+01  0.51100000000E-03 0. -1.
        -11    1    3    3    0    0  0.10939521923E+02  0.77047288107E+01  0.19366047367E+02  0.23538899227E+02  0.51100000000E-03 0.  1.
         12    1    3    3    0    0 -0.39391046677E+01 -0.27140562870E+02 -0.30647284552E+02  0.41126423974E+02  0.00000000000E+00 0. -1.
</event>
<event>
 7    1  0.2577508E-013  0.7246160E+02  0.7816164E-02  0.1226708E+00
        -11   -1    0    0    0    0  0.00000000000E+00  0.00000000000E+00  0.45593999997E+02  0.45594000000E+02  0.51100000000E-03 0.  1.
         11   -1    0    0    0    0 -0.00000000000E+00 -0.00000000000E+00 -0.45593999997E+02  0.45594000000E+02  0.51100000000E-03 0. -1.
    9900012    2    1    2    0    0 -0.15269637412E+02  0.28603814758E+01 -0.10456309102E+02  0.72461601283E+02  0.70000040368E+02 0.  0.
        -12    1    1    2    0    0  0.15269637412E+02 -0.28603814758E+01  0.10456309102E+02  0.18726398717E+02  0.00000000000E+00 0.  1.
         11    1    3    3    0    0 -0.87769587867E+01 -0.21665625349E+02 -0.21234901565E+02  0.31580933679E+02  0.51100000000E-03 0. -1.
        -11    1    3    3    0    0  0.96439207272E+01  0.72820675152E+01 -0.43391016101E+01  0.12839841017E+02  0.51100000000E-03 0.  1.
        -12    1    3    3    0    0 -0.16136599352E+02  0.17243939310E+02  0.15117694073E+02  0.28040826587E+02  0.00000000000E+00 0.  1.
</event>
<event>
 8    1  0.2577508E-013  0.7246160E+02  0.7816164E-02  0.1226708E+00
        -11   -1    0    0    0    0  0.00000000000E+00  0.00000000000E+00  0.45593999997E+02  0.45594000000E+02  0.51100000000E-03 0. -1.
         11   -1    0    0    0    0 -0.00000000000E+00 -0.00000000000E+00 -0.45593999997E+02  0.45594000000E+02  0.51100000000E-03 0.  1.
    9900012    2    1    2    0    0  0.73521390514E+01  0.54146965121E+01  0.16349466591E+02  0.72461602996E+02  0.70000042600E+02 0.  0.
         23    2    3    3    0    0  0.11613900135E+02  0.17153952385E+02  0.16187557327E+02  0.59971649009E+02  0.53901956494E+02 0.  0.
        -12    1    1    2    0    0 -0.73521390514E+01 -0.54146965121E+01 -0.16349466591E+02  0.18726397004E+02  0.00000000000E+00 0.  1.
         11    1    4    4    0    0  0.18029874951E+02  0.23274855742E+02  0.30971650522E+02  0.42732170983E+02  0.51100000000E-03 0. -1.
        -11    1    4    4    0    0 -0.64159748160E+01 -0.61209033575E+01 -0.14784093195E+02  0.17239478026E+02  0.51100000000E-03 0.  1.
        -12    1    3    3    0    0 -0.42617610838E+01 -0.11739255873E+02  0.16190926341E+00  0.12489953987E+02  0.00000000000E+00 0.  1.
</event>
<event>
 7    1  0.2577508E-013  0.7246159E+02  0.7816164E-02  0.1226708E+00
        -11   -1    0    0    0    0  0.00000000000E+00  0.00000000000E+00  0.45593999997E+02  0.45594000000E+02  0.51100000000E-03 0.  1.
         11   -1    0    0    0    0 -0.00000000000E+00 -0.00000000000E+00 -0.45593999997E+02  0.45594000000E+02  0.51100000000E-03 0. -1.
    9900012    2    1    2    0    0 -0.11970698513E+02  0.27832067860E+01 -0.14129213220E+02  0.72461587393E+02  0.70000022274E+02 0.  0.
        -12    1    1    2    0    0  0.11970698513E+02 -0.27832067860E+01  0.14129213220E+02  0.18726412607E+02  0.00000000000E+00 0.  1.
         11    1    3    3    0    0 -0.27067059487E+02 -0.83974296816E+01 -0.25371313713E+02  0.38037430175E+02  0.51100000000E-03 0. -1.
        -11    1    3    3    0    0 -0.37846439274E+01  0.93303009104E+01  0.11714365981E+02  0.15446825413E+02  0.51100000000E-03 0.  1.
        -12    1    3    3    0    0  0.18881004901E+02  0.18503355572E+01 -0.47226548834E+00  0.18977331805E+02  0.00000000000E+00 0.  1.
</event>
<event>
 7    1  0.2577508E-013  0.7246156E+02  0.7816164E-02  0.1226708E+00
        -11   -1    0    0    0    0  0.00000000000E+00  0.00000000000E+00  0.45593999997E+02  0.45594000000E+02  0.51100000000E-03 0.  1.
         11   -1    0    0    0    0 -0.00000000000E+00 -0.00000000000E+00 -0.45593999997E+02  0.45594000000E+02  0.51100000000E-03 0. -1.
    9900012    2    1    2    0    0 -0.12612821634E+02 -0.29074037277E+01 -0.13533039403E+02  0.72461563567E+02  0.69999991236E+02 0.  0.
        -12    1    1    2    0    0  0.12612821634E+02  0.29074037277E+01  0.13533039403E+02  0.18726436433E+02  0.00000000000E+00 0.  1.
         11    1    3    3    0    0  0.61214273018E+00  0.17072943177E+02 -0.21064890625E+02  0.27121757405E+02  0.51100000000E-03 0. -1.
        -11    1    3    3    0    0  0.51052656600E+01 -0.11300201349E+02 -0.11947253625E+02  0.17219034741E+02  0.51100000000E-03 0.  1.
        -12    1    3    3    0    0 -0.18330230025E+02 -0.86801455559E+01  0.19479104847E+02  0.28120771420E+02  0.00000000000E+00 0.  1.
</event>
<event>
 7    1  0.2577508E-013  0.7246159E+02  0.7816164E-02  0.1226708E+00
        -11   -1    0    0    0    0  0.00000000000E+00  0.00000000000E+00  0.45593999997E+02  0.45594000000E+02  0.51100000000E-03 0.  1.
         11   -1    0    0    0    0 -0.00000000000E+00 -0.00000000000E+00 -0.45593999997E+02  0.45594000000E+02  0.51100000000E-03 0. -1.
    9900012    2    1    2    0    0 -0.60210783923E+01  0.12634244044E+02 -0.12441895443E+02  0.72461594318E+02  0.70000031295E+02 0.  0.
        -12    1    1    2    0    0  0.60210783923E+01 -0.12634244044E+02  0.12441895443E+02  0.18726405682E+02  0.00000000000E+00 0.  1.
         11    1    3    3    0    0  0.31011793929E-01 -0.77676382882E+01  0.27197096050E+01  0.82300660328E+01  0.51100000000E-03 0. -1.
        -11    1    3    3    0    0 -0.12778260999E+00 -0.95812966416E+01  0.17218749700E+02  0.19705403198E+02  0.51100000000E-03 0.  1.
         12    1    3    3    0    0 -0.59243075763E+01  0.29983178974E+02 -0.32380354747E+02  0.44526125086E+02  0.00000000000E+00 0. -1.
</event>
<event>
 7    1  0.2577508E-013  0.7246159E+02  0.7816164E-02  0.1226708E+00
        -11   -1    0    0    0    0  0.00000000000E+00  0.00000000000E+00  0.45593999997E+02  0.45594000000E+02  0.51100000000E-03 0.  1.
         11   -1    0    0    0    0 -0.00000000000E+00 -0.00000000000E+00 -0.45593999997E+02  0.45594000000E+02  0.51100000000E-03 0. -1.
    9900012    2    1    2    0    0  0.67848479588E+01 -0.15240334787E+00 -0.17453398598E+02  0.72461587871E+02  0.70000022897E+02 0.  0.
        -12    1    1    2    0    0 -0.67848479588E+01  0.15240334787E+00  0.17453398598E+02  0.18726412129E+02  0.00000000000E+00 0.  1.
         11    1    3    3    0    0 -0.67070877626E+01  0.15335474527E+02  0.19567861839E+02  0.25750010145E+02  0.51100000000E-03 0. -1.
        -11    1    3    3    0    0  0.52359310441E+00 -0.97841911440E+00  0.24578642492E+01  0.26967666994E+01  0.51100000000E-03 0.  1.
         12    1    3    3    0    0  0.12968342617E+02 -0.14509458761E+02 -0.39479124686E+02  0.44014811027E+02  0.00000000000E+00 0. -1.
</event>
<event>
 7    1  0.2577508E-013  0.7246160E+02  0.7816164E-02  0.1226708E+00
        -11   -1    0    0    0    0  0.00000000000E+00  0.00000000000E+00  0.45593999997E+02  0.45594000000E+02  0.51100000000E-03 0.  1.
         11   -1    0    0    0    0 -0.00000000000E+00 -0.00000000000E+00 -0.45593999997E+02  0.45594000000E+02  0.51100000000E-03 0. -1.
    9900012    2    1    2    0    0  0.16893115844E+02 -0.10350197467E+01 -0.80143314079E+01  0.72461597870E+02  0.70000035923E+02 0.  0.
        -12    1    1    2    0    0 -0.16893115844E+02  0.10350197467E+01  0.80143314079E+01  0.18726402130E+02  0.00000000000E+00 0.  1.
         11    1    3    3    0    0  0.41516328911E+01  0.96707416242E+01  0.11091852889E+02  0.15290143884E+02  0.51100000000E-03 0. -1.
        -11    1    3    3    0    0 -0.85915608575E+01 -0.81371199653E+01  0.13606946600E+02  0.18032654695E+02  0.51100000000E-03 0.  1.
         12    1    3    3    0    0  0.21333043811E+02 -0.25686414056E+01 -0.32713130897E+02  0.39138799292E+02  0.00000000000E+00 0. -1.
</event>
<event>
 7    1  0.2577508E-013  0.7246139E+02  0.7816164E-02  0.1226708E+00
        -11   -1    0    0    0    0  0.00000000000E+00  0.00000000000E+00  0.45593999997E+02  0.45594000000E+02  0.51100000000E-03 0.  1.
         11   -1    0    0    0    0 -0.00000000000E+00 -0.00000000000E+00 -0.45593999997E+02  0.45594000000E+02  0.51100000000E-03 0. -1.
    9900012    2    1    2    0    0  0.17267022013E+02 -0.62163671878E+01 -0.37272853522E+01  0.72461389888E+02  0.69999764987E+02 0.  0.
        -12    1    1    2    0    0 -0.17267022013E+02  0.62163671878E+01  0.37272853522E+01  0.18726610112E+02  0.00000000000E+00 0.  1.
         11    1    3    3    0    0  0.61906297164E+01  0.66672340469E+00 -0.13159246320E+02  0.14557959347E+02  0.51100000000E-03 0. -1.
        -11    1    3    3    0    0  0.33016574938E+02 -0.71186673576E+01 -0.59249545322E+00  0.33780478041E+02  0.51100000000E-03 0.  1.
         12    1    3    3    0    0 -0.21940182641E+02  0.23557676519E+00  0.10024456421E+02  0.24122952499E+02  0.00000000000E+00 0. -1.
</event>
<event>
 7    1  0.2577508E-013  0.7246157E+02  0.7816164E-02  0.1226708E+00
        -11   -1    0    0    0    0  0.00000000000E+00  0.00000000000E+00  0.45593999997E+02  0.45594000000E+02  0.51100000000E-03 0. -1.
         11   -1    0    0    0    0 -0.00000000000E+00 -0.00000000000E+00 -0.45593999997E+02  0.45594000000E+02  0.51100000000E-03 0.  1.
    9900012    2    1    2    0    0  0.91178985725E+01 -0.16338701699E+02 -0.76807183746E+00  0.72461569963E+02  0.69999999569E+02 0.  0.
        -12    1    1    2    0    0 -0.91178985725E+01  0.16338701699E+02  0.76807183746E+00  0.18726430037E+02  0.00000000000E+00 0.  1.
         11    1    3    3    0    0  0.21525296637E+02 -0.59868588942E+01  0.28029912254E+02  0.35844899999E+02  0.51100000000E-03 0. -1.
        -11    1    3    3    0    0 -0.43623315017E+01  0.31140194115E+01 -0.23183542853E+01  0.58396763505E+01  0.51100000000E-03 0.  1.
        -12    1    3    3    0    0 -0.80450665626E+01 -0.13465862216E+02 -0.26479629806E+02  0.30776993614E+02  0.00000000000E+00 0.  1.
</event>
<event>
 7    1  0.2577508E-013  0.7246128E+02  0.7816164E-02  0.1226709E+00
        -11   -1    0    0    0    0  0.00000000000E+00  0.00000000000E+00  0.45593999997E+02  0.45594000000E+02  0.51100000000E-03 0.  1.
         11   -1    0    0    0    0 -0.00000000000E+00 -0.00000000000E+00 -0.45593999997E+02  0.45594000000E+02  0.51100000000E-03 0. -1.
    9900012    2    1    2    0    0  0.44234704527E+01  0.17398538375E+02 -0.53304525305E+01  0.72461282386E+02  0.69999624944E+02 0.  0.
        -12    1    1    2    0    0 -0.44234704527E+01 -0.17398538375E+02  0.53304525305E+01  0.18726717614E+02  0.00000000000E+00 0.  1.
         11    1    3    3    0    0 -0.11248773107E+02  0.13153464110E+02 -0.13613378003E+02  0.22019822330E+02  0.51100000000E-03 0. -1.
        -11    1    3    3    0    0  0.19260903748E+01  0.15235275547E+02  0.22894003678E+02  0.27567351157E+02  0.51100000000E-03 0.  1.
         12    1    3    3    0    0  0.13746153185E+02 -0.10990201282E+02 -0.14611078205E+02  0.22874108899E+02  0.00000000000E+00 0. -1.
</event>
<event>
 7    1  0.2577508E-013  0.7246160E+02  0.7816164E-02  0.1226708E+00
        -11   -1    0    0    0    0  0.00000000000E+00  0.00000000000E+00  0.45593999997E+02  0.45594000000E+02  0.51100000000E-03 0. -1.
         11   -1    0    0    0    0 -0.00000000000E+00 -0.00000000000E+00 -0.45593999997E+02  0.45594000000E+02  0.51100000000E-03 0.  1.
    9900012    2    1    2    0    0  0.18445588954E+02 -0.40341487066E+00  0.32055339289E+01  0.72461603037E+02  0.70000042654E+02 0.  0.
        -12    1    1    2    0    0 -0.18445588954E+02  0.40341487066E+00 -0.32055339289E+01  0.18726396963E+02  0.00000000000E+00 0.  1.
         11    1    3    3    0    0  0.37262998164E+02  0.45349384390E+01 -0.59758258271E+01  0.38010619482E+02  0.51100000000E-03 0.  1.
        -11    1    3    3    0    0 -0.20332222605E+01 -0.13843860853E+02  0.19806972903E+01  0.14131866052E+02  0.51100000000E-03 0. -1.
        -12    1    3    3    0    0 -0.16784186950E+02  0.89055075438E+01  0.72006624657E+01  0.20319117503E+02  0.00000000000E+00 0.  1.
</event>
<event>
 7    1  0.2577508E-013  0.7246161E+02  0.7816164E-02  0.1226708E+00
        -11   -1    0    0    0    0  0.00000000000E+00  0.00000000000E+00  0.45593999997E+02  0.45594000000E+02  0.51100000000E-03 0.  1.
         11   -1    0    0    0    0 -0.00000000000E+00 -0.00000000000E+00 -0.45593999997E+02  0.45594000000E+02  0.51100000000E-03 0. -1.
    9900012    2    1    2    0    0  0.12967816104E+01 -0.11888566442E+02 -0.14410350440E+02  0.72461605408E+02  0.70000045743E+02 0.  0.
        -12    1    1    2    0    0 -0.12967816104E+01  0.11888566442E+02  0.14410350440E+02  0.18726394592E+02  0.00000000000E+00 0.  1.
         11    1    3    3    0    0  0.21556521931E+02 -0.12780031396E+01  0.48688276542E+01  0.22136449868E+02  0.51100000000E-03 0. -1.
        -11    1    3    3    0    0 -0.31412401115E+01  0.73793490885E+01  0.94212424532E+01  0.12372630764E+02  0.51100000000E-03 0.  1.
         12    1    3    3    0    0 -0.17118500209E+02 -0.17989912391E+02 -0.28700420548E+02  0.37952524776E+02  0.00000000000E+00 0. -1.
</event>
<event>
 7    1  0.2577508E-013  0.7246155E+02  0.7816164E-02  0.1226708E+00
        -11   -1    0    0    0    0  0.00000000000E+00  0.00000000000E+00  0.45593999997E+02  0.45594000000E+02  0.51100000000E-03 0.  1.
         11   -1    0    0    0    0 -0.00000000000E+00 -0.00000000000E+00 -0.45593999997E+02  0.45594000000E+02  0.51100000000E-03 0. -1.
    9900012    2    1    2    0    0 -0.17592450695E+02 -0.62531129150E+01 -0.14436489994E+01  0.72461551724E+02  0.69999975809E+02 0.  0.
        -12    1    1    2    0    0  0.17592450695E+02  0.62531129150E+01  0.14436489994E+01  0.18726448276E+02  0.00000000000E+00 0.  1.
         11    1    3    3    0    0 -0.89962619837E+01  0.13424459537E+02 -0.33623350927E+01  0.16506184934E+02  0.51100000000E-03 0. -1.
        -11    1    3    3    0    0  0.72840908549E+01 -0.18672576874E+02  0.22374809246E+02  0.30039227616E+02  0.51100000000E-03 0.  1.
         12    1    3    3    0    0 -0.15880279567E+02 -0.10049955775E+01 -0.20456123153E+02  0.25916139174E+02  0.00000000000E+00 0. -1.
</event>
<event>
 7    1  0.2577508E-013  0.7246159E+02  0.7816164E-02  0.1226708E+00
        -11   -1    0    0    0    0  0.00000000000E+00  0.00000000000E+00  0.45593999997E+02  0.45594000000E+02  0.51100000000E-03 0. -1.
         11   -1    0    0    0    0 -0.00000000000E+00 -0.00000000000E+00 -0.45593999997E+02  0.45594000000E+02  0.51100000000E-03 0.  1.
    9900012    2    1    2    0    0 -0.55574899964E+01 -0.17659850004E+02  0.28147026968E+01  0.72461586876E+02  0.70000021601E+02 0.  0.
        -12    1    1    2    0    0  0.55574899964E+01  0.17659850004E+02 -0.28147026968E+01  0.18726413124E+02  0.00000000000E+00 0.  1.
         11    1    3    3    0    0 -0.29250247697E+02 -0.19757290121E+02 -0.70325265058E+01  0.35991442491E+02  0.51100000000E-03 0. -1.
        -11    1    3    3    0    0 -0.51157906801E+01  0.32883761916E+01  0.32355255883E+01  0.68886398043E+01  0.51100000000E-03 0.  1.
        -12    1    3    3    0    0  0.28808548381E+02 -0.11909360748E+01  0.66117036143E+01  0.29581504581E+02  0.00000000000E+00 0.  1.
</event>
<event>
 7    1  0.2577508E-013  0.7246156E+02  0.7816164E-02  0.1226708E+00
        -11   -1    0    0    0    0  0.00000000000E+00  0.00000000000E+00  0.45593999997E+02  0.45594000000E+02  0.51100000000E-03 0. -1.
         11   -1    0    0    0    0 -0.00000000000E+00 -0.00000000000E+00 -0.45593999997E+02  0.45594000000E+02  0.51100000000E-03 0.  1.
    9900012    2    1    2    0    0 -0.17634524719E+00  0.64883272063E+01  0.17565589596E+02  0.72461563462E+02  0.69999991099E+02 0.  0.
        -12    1    1    2    0    0  0.17634524719E+00 -0.64883272063E+01 -0.17565589596E+02  0.18726436538E+02  0.00000000000E+00 0.  1.
         11    1    3    3    0    0  0.15772989224E+02  0.29616051245E+01  0.10146885843E+01  0.16080668119E+02  0.51100000000E-03 0. -1.
        -11    1    3    3    0    0  0.18766120705E+02 -0.84851668197E+00  0.75972381716E+01  0.20263397913E+02  0.51100000000E-03 0.  1.
         12    1    3    3    0    0 -0.34715455176E+02  0.43752387637E+01  0.89536628397E+01  0.36117497430E+02  0.00000000000E+00 0. -1.
</event>
<event>
 7    1  0.2577508E-013  0.7246149E+02  0.7816164E-02  0.1226708E+00
        -11   -1    0    0    0    0  0.00000000000E+00  0.00000000000E+00  0.45593999997E+02  0.45594000000E+02  0.51100000000E-03 0. -1.
         11   -1    0    0    0    0 -0.00000000000E+00 -0.00000000000E+00 -0.45593999997E+02  0.45594000000E+02  0.51100000000E-03 0.  1.
    9900012    2    1    2    0    0 -0.35047260700E+01 -0.35347314755E+01  0.18052836994E+02  0.72461485242E+02  0.69999889204E+02 0.  0.
        -12    1    1    2    0    0  0.35047260700E+01  0.35347314755E+01 -0.18052836994E+02  0.18726514758E+02  0.00000000000E+00 0.  1.
         11    1    3    3    0    0  0.23881850235E+02 -0.58621027920E+01  0.88128856131E-02  0.24590792946E+02  0.51100000000E-03 0. -1.
        -11    1    3    3    0    0 -0.11214887248E+02 -0.16227107934E+02  0.82234494384E+01  0.21370958069E+02  0.51100000000E-03 0.  1.
        -12    1    3    3    0    0 -0.16171689057E+02  0.18554479250E+02  0.98205746704E+01  0.26499734226E+02  0.00000000000E+00 0.  1.
</event>
<event>
 7    1  0.2577508E-013  0.7246158E+02  0.7816164E-02  0.1226708E+00
        -11   -1    0    0    0    0  0.00000000000E+00  0.00000000000E+00  0.45593999997E+02  0.45594000000E+02  0.51100000000E-03 0.  1.
         11   -1    0    0    0    0 -0.00000000000E+00 -0.00000000000E+00 -0.45593999997E+02  0.45594000000E+02  0.51100000000E-03 0. -1.
    9900012    2    1    2    0    0  0.39645364089E+01 -0.17074670989E+01 -0.18222120262E+02  0.72461583908E+02  0.70000017734E+02 0.  0.
        -12    1    1    2    0    0 -0.39645364089E+01  0.17074670989E+01  0.18222120262E+02  0.18726416092E+02  0.00000000000E+00 0.  1.
         11    1    3    3    0    0 -0.15383631681E+02  0.27634312318E+00  0.18058351011E+01  0.15491724562E+02  0.51100000000E-03 0. -1.
        -11    1    3    3    0    0 -0.81802791998E+01 -0.16711583397E+02  0.20686072683E+01  0.18720927427E+02  0.51100000000E-03 0.  1.
        -12    1    3    3    0    0  0.27528447290E+02  0.14727773175E+02 -0.22096562631E+02  0.38248931919E+02  0.00000000000E+00 0.  1.
</event>
<event>
 7    1  0.2577508E-013  0.7246154E+02  0.7816164E-02  0.1226708E+00
        -11   -1    0    0    0    0  0.00000000000E+00  0.00000000000E+00  0.45593999997E+02  0.45594000000E+02  0.51100000000E-03 0. -1.
         11   -1    0    0    0    0 -0.00000000000E+00 -0.00000000000E+00 -0.45593999997E+02  0.45594000000E+02  0.51100000000E-03 0.  1.
    9900012    2    1    2    0    0 -0.82171086013E+01  0.46425869542E+01  0.16174232265E+02  0.72461540731E+02  0.69999961489E+02 0.  0.
        -12    1    1    2    0    0  0.82171086013E+01 -0.46425869542E+01 -0.16174232265E+02  0.18726459269E+02  0.00000000000E+00 0.  1.
         11    1    3    3    0    0  0.11741745649E+02 -0.62173764905E+01  0.30288053481E+02  0.33074016164E+02  0.51100000000E-03 0. -1.
        -11    1    3    3    0    0  0.73612940494E+01  0.23312964028E+00 -0.39772004396E+01  0.83702522727E+01  0.51100000000E-03 0.  1.
         12    1    3    3    0    0 -0.27320148300E+02  0.10626833804E+02 -0.10136620777E+02  0.31017272294E+02  0.00000000000E+00 0. -1.
</event>
<event>
 7    1  0.2577508E-013  0.7246157E+02  0.7816164E-02  0.1226708E+00
        -11   -1    0    0    0    0  0.00000000000E+00  0.00000000000E+00  0.45593999997E+02  0.45594000000E+02  0.51100000000E-03 0.  1.
         11   -1    0    0    0    0 -0.00000000000E+00 -0.00000000000E+00 -0.45593999997E+02  0.45594000000E+02  0.51100000000E-03 0. -1.
    9900012    2    1    2    0    0 -0.14408074700E+02  0.35313491824E+01 -0.11428735836E+02  0.72461573581E+02  0.70000004281E+02 0.  0.
        -12    1    1    2    0    0  0.14408074700E+02 -0.35313491824E+01  0.11428735836E+02  0.18726426419E+02  0.00000000000E+00 0.  1.
         11    1    3    3    0    0 -0.51127268422E+01  0.23909471990E+01 -0.27602007904E+01  0.62829382406E+01  0.51100000000E-03 0. -1.
        -11    1    3    3    0    0 -0.10010904782E+02  0.31044963068E+02  0.55001512392E+01  0.33079595076E+02  0.51100000000E-03 0.  1.
         12    1    3    3    0    0  0.71555692415E+00 -0.29904561085E+02 -0.14168686285E+02  0.33099040264E+02  0.00000000000E+00 0. -1.
</event>
<event>
 7    1  0.2577508E-013  0.7246156E+02  0.7816164E-02  0.1226708E+00
        -11   -1    0    0    0    0  0.00000000000E+00  0.00000000000E+00  0.45593999997E+02  0.45594000000E+02  0.51100000000E-03 0. -1.
         11   -1    0    0    0    0 -0.00000000000E+00 -0.00000000000E+00 -0.45593999997E+02  0.45594000000E+02  0.51100000000E-03 0.  1.
    9900012    2    1    2    0    0  0.11892726498E+02 -0.10891868748E+02  0.95189156054E+01  0.72461561399E+02  0.69999988412E+02 0.  0.
        -12    1    1    2    0    0 -0.11892726498E+02  0.10891868748E+02 -0.95189156054E+01  0.18726438601E+02  0.00000000000E+00 0.  1.
         11    1    3    3    0    0 -0.21625188656E+02 -0.14701302244E+01  0.48760109555E+01  0.22216785329E+02  0.51100000000E-03 0. -1.
        -11    1    3    3    0    0  0.80662821931E+01 -0.13164267908E+02 -0.12044197401E+02  0.19581255048E+02  0.51100000000E-03 0.  1.
        -12    1    3    3    0    0  0.25451632960E+02  0.37425293841E+01  0.16687102051E+02  0.30663521021E+02  0.00000000000E+00 0.  1.
</event>
<event>
 7    1  0.2577508E-013  0.7246156E+02  0.7816164E-02  0.1226708E+00
        -11   -1    0    0    0    0  0.00000000000E+00  0.00000000000E+00  0.45593999997E+02  0.45594000000E+02  0.51100000000E-03 0.  1.
         11   -1    0    0    0    0 -0.00000000000E+00 -0.00000000000E+00 -0.45593999997E+02  0.45594000000E+02  0.51100000000E-03 0. -1.
    9900012    2    1    2    0    0  0.18189780872E+02 -0.95514196227E+00  0.43473087881E+01  0.72461560989E+02  0.69999987878E+02 0.  0.
        -12    1    1    2    0    0 -0.18189780872E+02  0.95514196227E+00 -0.43473087881E+01  0.18726439011E+02  0.00000000000E+00 0.  1.
         11    1    3    3    0    0 -0.13427259835E+01  0.13556803523E+02  0.15474469304E+02  0.20616717375E+02  0.51100000000E-03 0. -1.
        -11    1    3    3    0    0 -0.11728220846E+01 -0.11830379459E+02  0.14525169218E+02  0.18770027460E+02  0.51100000000E-03 0.  1.
        -12    1    3    3    0    0  0.20705328940E+02 -0.26815660270E+01 -0.25652329733E+02  0.33074816154E+02  0.00000000000E+00 0.  1.
</event>
<event>
 7    1  0.2577508E-013  0.7246158E+02  0.7816164E-02  0.1226708E+00
        -11   -1    0    0    0    0  0.00000000000E+00  0.00000000000E+00  0.45593999997E+02  0.45594000000E+02  0.51100000000E-03 0.  1.
         11   -1    0    0    0    0 -0.00000000000E+00 -0.00000000000E+00 -0.45593999997E+02  0.45594000000E+02  0.51100000000E-03 0. -1.
    9900012    2    1    2    0    0 -0.35666317918E+01 -0.17744786435E+02 -0.48042290800E+01  0.72461576823E+02  0.70000008504E+02 0.  0.
        -12    1    1    2    0    0  0.35666317918E+01  0.17744786435E+02  0.48042290800E+01  0.18726423177E+02  0.00000000000E+00 0.  1.
         11    1    3    3    0    0 -0.90368801208E+01 -0.18967036875E+02  0.15044225062E+02  0.25840712028E+02  0.51100000000E-03 0. -1.
        -11    1    3    3    0    0  0.93780467994E+01 -0.35307857492E+01  0.11165292779E+02  0.15002598871E+02  0.51100000000E-03 0.  1.
         12    1    3    3    0    0 -0.39077984704E+01  0.47530361893E+01 -0.31013746921E+02  0.31618265924E+02  0.00000000000E+00 0. -1.
</event>
<event>
 7    1  0.2577508E-013  0.7246157E+02  0.7816164E-02  0.1226708E+00
        -11   -1    0    0    0    0  0.00000000000E+00  0.00000000000E+00  0.45593999997E+02  0.45594000000E+02  0.51100000000E-03 0.  1.
         11   -1    0    0    0    0 -0.00000000000E+00 -0.00000000000E+00 -0.45593999997E+02  0.45594000000E+02  0.51100000000E-03 0. -1.
    9900012    2    1    2    0    0  0.57258653729E+01  0.84664953237E+01 -0.15691145397E+02  0.72461571584E+02  0.70000001681E+02 0.  0.
        -12    1    1    2    0    0 -0.57258653729E+01 -0.84664953237E+01  0.15691145397E+02  0.18726428416E+02  0.00000000000E+00 0.  1.
         11    1    3    3    0    0  0.19031821798E+02  0.24397555085E+02 -0.15932123265E+02  0.34803498201E+02  0.51100000000E-03 0. -1.
        -11    1    3    3    0    0  0.30477589689E+01  0.61904397491E+01 -0.63414320363E+01  0.93714534386E+01  0.51100000000E-03 0.  1.
        -12    1    3    3    0    0 -0.16353715394E+02 -0.22121499510E+02  0.65824099040E+01  0.28286619945E+02  0.00000000000E+00 0.  1.
</event>
<event>
 7    1  0.2577508E-013  0.7246162E+02  0.7816164E-02  0.1226708E+00
        -11   -1    0    0    0    0  0.00000000000E+00  0.00000000000E+00  0.45593999997E+02  0.45594000000E+02  0.51100000000E-03 0.  1.
         11   -1    0    0    0    0 -0.00000000000E+00 -0.00000000000E+00 -0.45593999997E+02  0.45594000000E+02  0.51100000000E-03 0. -1.
    9900012    2    1    2    0    0 -0.15109809888E+02  0.56699216755E+01 -0.94985720724E+01  0.72461621865E+02  0.70000067180E+02 0.  0.
        -12    1    1    2    0    0  0.15109809888E+02 -0.56699216755E+01  0.94985720724E+01  0.18726378135E+02  0.00000000000E+00 0.  1.
         11    1    3    3    0    0  0.65619970405E+00  0.75271967119E+01 -0.48609410048E+01  0.89843216830E+01  0.51100000000E-03 0. -1.
        -11    1    3    3    0    0  0.89486044999E+01 -0.26425433090E+02 -0.62526941445E+01  0.28591558559E+02  0.51100000000E-03 0.  1.
         12    1    3    3    0    0 -0.24714614092E+02  0.24568158054E+02  0.16150630769E+01  0.34885741623E+02  0.00000000000E+00 0. -1.
</event>
<event>
 7    1  0.2577508E-013  0.7246159E+02  0.7816164E-02  0.1226708E+00
        -11   -1    0    0    0    0  0.00000000000E+00  0.00000000000E+00  0.45593999997E+02  0.45594000000E+02  0.51100000000E-03 0. -1.
         11   -1    0    0    0    0 -0.00000000000E+00 -0.00000000000E+00 -0.45593999997E+02  0.45594000000E+02  0.51100000000E-03 0.  1.
    9900012    2    1    2    0    0 -0.41352999925E+01  0.12369440711E+02  0.13437811929E+02  0.72461586597E+02  0.70000021237E+02 0.  0.
        -12    1    1    2    0    0  0.41352999925E+01 -0.12369440711E+02 -0.13437811929E+02  0.18726413403E+02  0.00000000000E+00 0.  1.
         11    1    3    3    0    0  0.20333934916E+02  0.88884872665E+00  0.17393056182E+02  0.26772698124E+02  0.51100000000E-03 0. -1.
        -11    1    3    3    0    0 -0.10945808947E+01  0.98213016349E+01 -0.16406544423E+02  0.19152826770E+02  0.51100000000E-03 0.  1.
         12    1    3    3    0    0 -0.23374654014E+02  0.16592903491E+01  0.12451300169E+02  0.26536061702E+02  0.00000000000E+00 0. -1.
</event>
<event>
 7    1  0.2577508E-013  0.7246161E+02  0.7816164E-02  0.1226708E+00
        -11   -1    0    0    0    0  0.00000000000E+00  0.00000000000E+00  0.45593999997E+02  0.45594000000E+02  0.51100000000E-03 0.  1.
         11   -1    0    0    0    0 -0.00000000000E+00 -0.00000000000E+00 -0.45593999997E+02  0.45594000000E+02  0.51100000000E-03 0. -1.
    9900012    2    1    2    0    0 -0.24436023810E+01  0.21240205526E+01 -0.18444379773E+02  0.72461606831E+02  0.70000047596E+02 0.  0.
        -12    1    1    2    0    0  0.24436023810E+01 -0.21240205526E+01  0.18444379773E+02  0.18726393169E+02  0.00000000000E+00 0.  1.
         11    1    3    3    0    0  0.11750248375E+02 -0.70957219566E+01 -0.13708297061E+02  0.19399356060E+02  0.51100000000E-03 0. -1.
        -11    1    3    3    0    0 -0.16528081509E+02  0.16683733600E+02  0.17631741834E+02  0.29366694835E+02  0.51100000000E-03 0.  1.
         12    1    3    3    0    0  0.23342307535E+01 -0.74639910906E+01 -0.22367824546E+02  0.23695555936E+02  0.00000000000E+00 0. -1.
</event>
<event>
 7    1  0.2577508E-013  0.7246156E+02  0.7816164E-02  0.1226708E+00
        -11   -1    0    0    0    0  0.00000000000E+00  0.00000000000E+00  0.45593999997E+02  0.45594000000E+02  0.51100000000E-03 0. -1.
         11   -1    0    0    0    0 -0.00000000000E+00 -0.00000000000E+00 -0.45593999997E+02  0.45594000000E+02  0.51100000000E-03 0.  1.
    9900012    2    1    2    0    0  0.16122698863E+02 -0.33128873507E+01  0.89310082832E+01  0.72461560130E+02  0.69999986760E+02 0.  0.
        -12    1    1    2    0    0 -0.16122698863E+02  0.33128873507E+01 -0.89310082832E+01  0.18726439870E+02  0.00000000000E+00 0.  1.
         11    1    3    3    0    0 -0.75917650945E+01  0.71358540294E+01 -0.22120700561E+01  0.10651223600E+02  0.51100000000E-03 0. -1.
        -11    1    3    3    0    0  0.97219277406E+01  0.21856281107E+02  0.11637695124E+02  0.26601670077E+02  0.51100000000E-03 0.  1.
         12    1    3    3    0    0  0.13992536217E+02 -0.32305022487E+02 -0.49461678496E+00  0.35208666454E+02  0.00000000000E+00 0. -1.
</event>
<event>
 7    1  0.2577508E-013  0.7246158E+02  0.7816164E-02  0.1226708E+00
        -11   -1    0    0    0    0  0.00000000000E+00  0.00000000000E+00  0.45593999997E+02  0.45594000000E+02  0.51100000000E-03 0.  1.
         11   -1    0    0    0    0 -0.00000000000E+00 -0.00000000000E+00 -0.45593999997E+02  0.45594000000E+02  0.51100000000E-03 0. -1.
    9900012    2    1    2    0    0  0.13252357656E+01  0.52948248108E+01 -0.17913325883E+02  0.72461583798E+02  0.70000017591E+02 0.  0.
        -12    1    1    2    0    0 -0.13252357656E+01 -0.52948248108E+01  0.17913325883E+02  0.18726416202E+02  0.00000000000E+00 0.  1.
         11    1    3    3    0    0  0.17835206765E+01 -0.66663234585E+01  0.55796950699E-01  0.69010092029E+01  0.51100000000E-03 0. -1.
        -11    1    3    3    0    0  0.48484480608E+01 -0.59305456221E+01  0.20999905166E+02  0.22353407732E+02  0.51100000000E-03 0.  1.
         12    1    3    3    0    0 -0.53067329717E+01  0.17891693891E+02 -0.38969027999E+02  0.43207166863E+02  0.00000000000E+00 0. -1.
</event>
<event>
 7    1  0.2577508E-013  0.7246156E+02  0.7816164E-02  0.1226708E+00
        -11   -1    0    0    0    0  0.00000000000E+00  0.00000000000E+00  0.45593999997E+02  0.45594000000E+02  0.51100000000E-03 0.  1.
         11   -1    0    0    0    0 -0.00000000000E+00 -0.00000000000E+00 -0.45593999997E+02  0.45594000000E+02  0.51100000000E-03 0. -1.
    9900012    2    1    2    0    0 -0.10267275149E+02 -0.10205712789E+02 -0.11878801726E+02  0.72461562993E+02  0.69999990489E+02 0.  0.
        -12    1    1    2    0    0  0.10267275149E+02  0.10205712789E+02  0.11878801726E+02  0.18726437007E+02  0.00000000000E+00 0.  1.
         11    1    3    3    0    0  0.16702710705E+00  0.31927300563E+01 -0.23094795186E+02  0.23315037813E+02  0.51100000000E-03 0. -1.
        -11    1    3    3    0    0 -0.41060425025E+01 -0.27437876602E+02 -0.33554600025E+01  0.27945585869E+02  0.51100000000E-03 0.  1.
        -12    1    3    3    0    0 -0.63282597532E+01  0.14039433757E+02  0.14571453462E+02  0.21200939312E+02  0.00000000000E+00 0.  1.
</event>
<event>
 7    1  0.2577508E-013  0.7246153E+02  0.7816164E-02  0.1226708E+00
        -11   -1    0    0    0    0  0.00000000000E+00  0.00000000000E+00  0.45593999997E+02  0.45594000000E+02  0.51100000000E-03 0. -1.
         11   -1    0    0    0    0 -0.00000000000E+00 -0.00000000000E+00 -0.45593999997E+02  0.45594000000E+02  0.51100000000E-03 0.  1.
    9900012    2    1    2    0    0  0.16915804991E+02  0.80227328215E+01 -0.41478723575E+00  0.72461528126E+02  0.69999945068E+02 0.  0.
        -12    1    1    2    0    0 -0.16915804991E+02 -0.80227328215E+01  0.41478723575E+00  0.18726471874E+02  0.00000000000E+00 0.  1.
         11    1    3    3    0    0  0.89832614152E+01 -0.30020150352E+01 -0.24193056088E+02  0.25981051615E+02  0.51100000000E-03 0. -1.
        -11    1    3    3    0    0 -0.16493563643E+01 -0.68704707389E+01 -0.67813543634E+01  0.97933912336E+01  0.51100000000E-03 0.  1.
         12    1    3    3    0    0  0.95818999398E+01  0.17895218596E+02  0.30559623215E+02  0.36687085277E+02  0.00000000000E+00 0. -1.
</event>
<event>
 7    1  0.2577508E-013  0.7246152E+02  0.7816164E-02  0.1226708E+00
        -11   -1    0    0    0    0  0.00000000000E+00  0.00000000000E+00  0.45593999997E+02  0.45594000000E+02  0.51100000000E-03 0.  1.
         11   -1    0    0    0    0 -0.00000000000E+00 -0.00000000000E+00 -0.45593999997E+02  0.45594000000E+02  0.51100000000E-03 0. -1.
    9900012    2    1    2    0    0 -0.14011024699E+02  0.11826118279E+02 -0.38098618402E+01  0.72461523185E+02  0.69999938632E+02 0.  0.
        -12    1    1    2    0    0  0.14011024699E+02 -0.11826118279E+02  0.38098618402E+01  0.18726476815E+02  0.00000000000E+00 0.  1.
         11    1    3    3    0    0 -0.13021310714E+02  0.11496760543E+01  0.13546075076E+02  0.18824782548E+02  0.51100000000E-03 0. -1.
        -11    1    3    3    0    0  0.13074132159E+02  0.26441532274E+02 -0.82333393578E+01  0.30624752048E+02  0.51100000000E-03 0.  1.
         12    1    3    3    0    0 -0.14063846143E+02 -0.15765090050E+02 -0.91225975586E+01  0.23011988589E+02  0.00000000000E+00 0. -1.
</event>
<event>
 7    1  0.2577508E-013  0.7246122E+02  0.7816164E-02  0.1226709E+00
        -11   -1    0    0    0    0  0.00000000000E+00  0.00000000000E+00  0.45593999997E+02  0.45594000000E+02  0.51100000000E-03 0. -1.
         11   -1    0    0    0    0 -0.00000000000E+00 -0.00000000000E+00 -0.45593999997E+02  0.45594000000E+02  0.51100000000E-03 0.  1.
    9900012    2    1    2    0    0  0.13403065282E+02  0.11636414345E+02 -0.59702639449E+01  0.72461218394E+02  0.69999541583E+02 0.  0.
        -12    1    1    2    0    0 -0.13403065282E+02 -0.11636414345E+02  0.59702639449E+01  0.18726781606E+02  0.00000000000E+00 0.  1.
         11    1    3    3    0    0 -0.18630654018E+02  0.16086379081E+00 -0.88154182950E+01  0.20611616779E+02  0.51100000000E-03 0. -1.
        -11    1    3    3    0    0 -0.87478722284E+01  0.55475048401E+01  0.24186783310E+01  0.10637202809E+02  0.51100000000E-03 0.  1.
         12    1    3    3    0    0  0.40781591528E+02  0.59280457138E+01  0.42647601910E+00  0.41212398805E+02  0.00000000000E+00 0. -1.
</event>
<event>
 7    1  0.2577508E-013  0.7246155E+02  0.7816164E-02  0.1226708E+00
        -11   -1    0    0    0    0  0.00000000000E+00  0.00000000000E+00  0.45593999997E+02  0.45594000000E+02  0.51100000000E-03 0. -1.
         11   -1    0    0    0    0 -0.00000000000E+00 -0.00000000000E+00 -0.45593999997E+02  0.45594000000E+02  0.51100000000E-03 0.  1.
    9900012    2    1    2    0    0 -0.96458008834E+01  0.13381903999E+02  0.88635811981E+01  0.72461550765E+02  0.69999974559E+02 0.  0.
        -12    1    1    2    0    0  0.96458008834E+01 -0.13381903999E+02 -0.88635811981E+01  0.18726449235E+02  0.00000000000E+00 0.  1.
         11    1    3    3    0    0  0.55497766406E+01  0.12324490026E+02  0.71871011660E+01  0.15308412674E+02  0.51100000000E-03 0. -1.
        -11    1    3    3    0    0 -0.60610999715E+00  0.52506898534E+01 -0.25490493596E+02  0.26032717440E+02  0.51100000000E-03 0.  1.
         12    1    3    3    0    0 -0.14589467527E+02 -0.41932758806E+01  0.27166973629E+02  0.31120420651E+02  0.00000000000E+00 0. -1.
</event>
<event>
 7    1  0.2577508E-013  0.7246158E+02  0.7816164E-02  0.1226708E+00
        -11   -1    0    0    0    0  0.00000000000E+00  0.00000000000E+00  0.45593999997E+02  0.45594000000E+02  0.51100000000E-03 0. -1.
         11   -1    0    0    0    0 -0.00000000000E+00 -0.00000000000E+00 -0.45593999997E+02  0.45594000000E+02  0.51100000000E-03 0.  1.
    9900012    2    1    2    0    0 -0.29581848487E+01 -0.17009078681E+02 -0.72539053683E+01  0.72461581275E+02  0.70000014304E+02 0.  0.
        -12    1    1    2    0    0  0.29581848487E+01  0.17009078681E+02  0.72539053683E+01  0.18726418725E+02  0.00000000000E+00 0.  1.
         11    1    3    3    0    0  0.17466258825E+01 -0.12800898362E+02  0.73013473652E+01  0.14839925015E+02  0.51100000000E-03 0. -1.
        -11    1    3    3    0    0  0.14645901521E+02 -0.21658145668E+02 -0.17406215517E+02  0.31409457876E+02  0.51100000000E-03 0.  1.
         12    1    3    3    0    0 -0.19350712252E+02  0.17449965349E+02  0.28509627833E+01  0.26212198384E+02  0.00000000000E+00 0. -1.
</event>
<event>
 7    1  0.2577508E-013  0.7246159E+02  0.7816164E-02  0.1226708E+00
        -11   -1    0    0    0    0  0.00000000000E+00  0.00000000000E+00  0.45593999997E+02  0.45594000000E+02  0.51100000000E-03 0. -1.
         11   -1    0    0    0    0 -0.00000000000E+00 -0.00000000000E+00 -0.45593999997E+02  0.45594000000E+02  0.51100000000E-03 0.  1.
    9900012    2    1    2    0    0  0.89319606262E+01  0.15949124407E+02 -0.40649684886E+01  0.72461589271E+02  0.70000024721E+02 0.  0.
        -12    1    1    2    0    0 -0.89319606262E+01 -0.15949124407E+02  0.40649684886E+01  0.18726410729E+02  0.00000000000E+00 0.  1.
         11    1    3    3    0    0  0.44977388425E+01  0.25460541506E+02  0.20316676925E+02  0.32882156104E+02  0.51100000000E-03 0. -1.
        -11    1    3    3    0    0 -0.14747770160E+01  0.62046508975E+01  0.33175129852E+01  0.71887796373E+01  0.51100000000E-03 0.  1.
        -12    1    3    3    0    0  0.59089987997E+01 -0.15716067997E+02 -0.27699158399E+02  0.32390653530E+02  0.00000000000E+00 0.  1.
</event>
<event>
 7    1  0.2577508E-013  0.7246159E+02  0.7816164E-02  0.1226708E+00
        -11   -1    0    0    0    0  0.00000000000E+00  0.00000000000E+00  0.45593999997E+02  0.45594000000E+02  0.51100000000E-03 0.  1.
         11   -1    0    0    0    0 -0.00000000000E+00 -0.00000000000E+00 -0.45593999997E+02  0.45594000000E+02  0.51100000000E-03 0. -1.
    9900012    2    1    2    0    0  0.12007141539E+02  0.82453891887E+01 -0.11769472584E+02  0.72461591489E+02  0.70000027610E+02 0.  0.
        -12    1    1    2    0    0 -0.12007141539E+02 -0.82453891887E+01  0.11769472584E+02  0.18726408511E+02  0.00000000000E+00 0.  1.
         11    1    3    3    0    0 -0.13040214964E+01  0.21498075094E+01 -0.31002691117E+02  0.31104485226E+02  0.51100000000E-03 0. -1.
        -11    1    3    3    0    0  0.15247668172E+02 -0.75655185862E+00 -0.50275720887E+01  0.16072966022E+02  0.51100000000E-03 0.  1.
        -12    1    3    3    0    0 -0.19365051367E+01  0.68521335379E+01  0.24260790622E+02  0.25284140241E+02  0.00000000000E+00 0.  1.
</event>
<event>
 7    1  0.2577508E-013  0.7246161E+02  0.7816164E-02  0.1226708E+00
        -11   -1    0    0    0    0  0.00000000000E+00  0.00000000000E+00  0.45593999997E+02  0.45594000000E+02  0.51100000000E-03 0. -1.
         11   -1    0    0    0    0 -0.00000000000E+00 -0.00000000000E+00 -0.45593999997E+02  0.45594000000E+02  0.51100000000E-03 0.  1.
    9900012    2    1    2    0    0 -0.70571898518E+01  0.48568939848E+01  0.16651858722E+02  0.72461608284E+02  0.70000049489E+02 0.  0.
        -12    1    1    2    0    0  0.70571898518E+01 -0.48568939848E+01 -0.16651858722E+02  0.18726391716E+02  0.00000000000E+00 0.  1.
         11    1    3    3    0    0 -0.36350056192E+02  0.50704807231E+01  0.86179999239E+01  0.37700215952E+02  0.51100000000E-03 0. -1.
        -11    1    3    3    0    0  0.23702475834E+01 -0.36089545448E+01  0.62110304359E+01  0.75643589186E+01  0.51100000000E-03 0.  1.
        -12    1    3    3    0    0  0.26922618756E+02  0.33953678064E+01  0.18228283625E+01  0.27197033413E+02  0.00000000000E+00 0.  1.
</event>
<event>
 7    1  0.2577508E-013  0.7246160E+02  0.7816164E-02  0.1226708E+00
        -11   -1    0    0    0    0  0.00000000000E+00  0.00000000000E+00  0.45593999997E+02  0.45594000000E+02  0.51100000000E-03 0.  1.
         11   -1    0    0    0    0 -0.00000000000E+00 -0.00000000000E+00 -0.45593999997E+02  0.45594000000E+02  0.51100000000E-03 0. -1.
    9900012    2    1    2    0    0  0.15649288877E+02 -0.43710950237E+01 -0.93097523965E+01  0.72461596081E+02  0.70000033591E+02 0.  0.
        -12    1    1    2    0    0 -0.15649288877E+02  0.43710950237E+01  0.93097523965E+01  0.18726403919E+02  0.00000000000E+00 0.  1.
         11    1    3    3    0    0  0.12229714776E+01 -0.78810787021E+01 -0.16892011122E+01  0.81523285877E+01  0.51100000000E-03 0. -1.
        -11    1    3    3    0    0 -0.16019042742E+02 -0.14142304892E+02  0.11490837324E+02  0.24262189941E+02  0.51100000000E-03 0.  1.
         12    1    3    3    0    0  0.30445360142E+02  0.17652288570E+02 -0.19111388608E+02  0.40047077552E+02  0.00000000000E+00 0. -1.
</event>
<event>
 7    1  0.2577508E-013  0.7246156E+02  0.7816164E-02  0.1226708E+00
        -11   -1    0    0    0    0  0.00000000000E+00  0.00000000000E+00  0.45593999997E+02  0.45594000000E+02  0.51100000000E-03 0.  1.
         11   -1    0    0    0    0 -0.00000000000E+00 -0.00000000000E+00 -0.45593999997E+02  0.45594000000E+02  0.51100000000E-03 0. -1.
    9900012    2    1    2    0    0 -0.66911033670E+01  0.60170727872E+00 -0.17479889980E+02  0.72461562281E+02  0.69999989561E+02 0.  0.
        -12    1    1    2    0    0  0.66911033670E+01 -0.60170727872E+00  0.17479889980E+02  0.18726437719E+02  0.00000000000E+00 0.  1.
         11    1    3    3    0    0 -0.69563516385E+00 -0.20803824200E+02 -0.13649567682E+02  0.24891639315E+02  0.51100000000E-03 0. -1.
        -11    1    3    3    0    0 -0.22130781734E+02  0.31540940380E+01 -0.59034111923E+01  0.23120771469E+02  0.51100000000E-03 0.  1.
         12    1    3    3    0    0  0.16135313531E+02  0.18251437440E+02  0.20730888935E+01  0.24449151497E+02  0.00000000000E+00 0. -1.
</event>
<event>
 7    1  0.2577508E-013  0.7246155E+02  0.7816164E-02  0.1226708E+00
        -11   -1    0    0    0    0  0.00000000000E+00  0.00000000000E+00  0.45593999997E+02  0.45594000000E+02  0.51100000000E-03 0.  1.
         11   -1    0    0    0    0 -0.00000000000E+00 -0.00000000000E+00 -0.45593999997E+02  0.45594000000E+02  0.51100000000E-03 0. -1.
    9900012    2    1    2    0    0 -0.37656584849E+00  0.13301207624E+02 -0.13176343748E+02  0.72461549170E+02  0.69999972482E+02 0.  0.
        -12    1    1    2    0    0  0.37656584849E+00 -0.13301207624E+02  0.13176343748E+02  0.18726450830E+02  0.00000000000E+00 0.  1.
         11    1    3    3    0    0 -0.89084464745E+01  0.12570535701E+02 -0.15105818199E+02  0.21576944411E+02  0.51100000000E-03 0. -1.
        -11    1    3    3    0    0  0.24735757566E+02  0.15094269740E+02 -0.12200027730E+01  0.29003156524E+02  0.51100000000E-03 0.  1.
         12    1    3    3    0    0 -0.16203876940E+02 -0.14363597817E+02  0.31494772234E+01  0.21881448236E+02  0.00000000000E+00 0. -1.
</event>
<event>
 7    1  0.2577508E-013  0.7246155E+02  0.7816164E-02  0.1226708E+00
        -11   -1    0    0    0    0  0.00000000000E+00  0.00000000000E+00  0.45593999997E+02  0.45594000000E+02  0.51100000000E-03 0. -1.
         11   -1    0    0    0    0 -0.00000000000E+00 -0.00000000000E+00 -0.45593999997E+02  0.45594000000E+02  0.51100000000E-03 0.  1.
    9900012    2    1    2    0    0 -0.15651608274E+01 -0.18643008563E+02 -0.81754851796E+00  0.72461551263E+02  0.69999975209E+02 0.  0.
        -12    1    1    2    0    0  0.15651608274E+01  0.18643008563E+02  0.81754851796E+00  0.18726448737E+02  0.00000000000E+00 0.  1.
         11    1    3    3    0    0  0.43195282548E+01  0.11378726849E+02  0.46488719940E+01  0.13028651508E+02  0.51100000000E-03 0. -1.
        -11    1    3    3    0    0  0.16818521140E+02 -0.18395587610E+01  0.10463097620E+02  0.19892788690E+02  0.51100000000E-03 0.  1.
         12    1    3    3    0    0 -0.22703210222E+02 -0.28182176651E+02 -0.15929518132E+02  0.39540111066E+02  0.00000000000E+00 0. -1.
</event>
<event>
 7    1  0.2577508E-013  0.7246164E+02  0.7816164E-02  0.1226708E+00
        -11   -1    0    0    0    0  0.00000000000E+00  0.00000000000E+00  0.45593999997E+02  0.45594000000E+02  0.51100000000E-03 0. -1.
         11   -1    0    0    0    0 -0.00000000000E+00 -0.00000000000E+00 -0.45593999997E+02  0.45594000000E+02  0.51100000000E-03 0.  1.
    9900012    2    1    2    0    0  0.74610837614E+01  0.84278534863E+01 -0.14965961457E+02  0.72461641902E+02  0.70000093283E+02 0.  0.
        -12    1    1    2    0    0 -0.74610837614E+01 -0.84278534863E+01  0.14965961457E+02  0.18726358098E+02  0.00000000000E+00 0.  1.
         11    1    3    3    0    0  0.12572361153E+02  0.61464456221E+01  0.69734050191E+01  0.15635582386E+02  0.51100000000E-03 0. -1.
        -11    1    3    3    0    0  0.23531538949E+02  0.29282846943E+01 -0.11255560823E+02  0.26248729993E+02  0.51100000000E-03 0.  1.
        -12    1    3    3    0    0 -0.28642816340E+02 -0.64687683002E+00 -0.10683805653E+02  0.30577329523E+02  0.00000000000E+00 0.  1.
</event>
<event>
 7    1  0.2577508E-013  0.7246150E+02  0.7816164E-02  0.1226708E+00
        -11   -1    0    0    0    0  0.00000000000E+00  0.00000000000E+00  0.45593999997E+02  0.45594000000E+02  0.51100000000E-03 0.  1.
         11   -1    0    0    0    0 -0.00000000000E+00 -0.00000000000E+00 -0.45593999997E+02  0.45594000000E+02  0.51100000000E-03 0. -1.
    9900012    2    1    2    0    0  0.47494460755E+01  0.53102913510E+00 -0.18106421398E+02  0.72461502041E+02  0.69999911087E+02 0.  0.
        -12    1    1    2    0    0 -0.47494460755E+01 -0.53102913510E+00  0.18106421398E+02  0.18726497959E+02  0.00000000000E+00 0.  1.
         11    1    3    3    0    0 -0.98684213002E+01 -0.14477570412E+02 -0.10057796662E+02  0.20202600277E+02  0.51100000000E-03 0. -1.
        -11    1    3    3    0    0 -0.11677679262E+02 -0.94240677557E+01 -0.64367437697E+01  0.16328285783E+02  0.51100000000E-03 0.  1.
        -12    1    3    3    0    0  0.26295546637E+02  0.24432667303E+02 -0.16118809670E+01  0.35930615980E+02  0.00000000000E+00 0.  1.
</event>
<event>
 7    1  0.2577508E-013  0.7246159E+02  0.7816164E-02  0.1226708E+00
        -11   -1    0    0    0    0  0.00000000000E+00  0.00000000000E+00  0.45593999997E+02  0.45594000000E+02  0.51100000000E-03 0. -1.
         11   -1    0    0    0    0 -0.00000000000E+00 -0.00000000000E+00 -0.45593999997E+02  0.45594000000E+02  0.51100000000E-03 0.  1.
    9900012    2    1    2    0    0  0.10590281124E+02 -0.34230606451E+01  0.15060108284E+02  0.72461594579E+02  0.70000031635E+02 0.  0.
        -12    1    1    2    0    0 -0.10590281124E+02  0.34230606451E+01 -0.15060108284E+02  0.18726405421E+02  0.00000000000E+00 0.  1.
         11    1    3    3    0    0 -0.11923200189E+01  0.26874542629E+00 -0.22110597511E+01  0.25263880572E+01  0.51100000000E-03 0. -1.
        -11    1    3    3    0    0  0.35952030489E+01  0.26230601844E+02 -0.10322145996E+02  0.28416837548E+02  0.51100000000E-03 0.  1.
         12    1    3    3    0    0  0.81873980942E+01 -0.29922407915E+02  0.27593314031E+02  0.41518368973E+02  0.00000000000E+00 0. -1.
</event>
<event>
 7    1  0.2577508E-013  0.7246163E+02  0.7816164E-02  0.1226708E+00
        -11   -1    0    0    0    0  0.00000000000E+00  0.00000000000E+00  0.45593999997E+02  0.45594000000E+02  0.51100000000E-03 0. -1.
         11   -1    0    0    0    0 -0.00000000000E+00 -0.00000000000E+00 -0.45593999997E+02  0.45594000000E+02  0.51100000000E-03 0.  1.
    9900012    2    1    2    0    0  0.67325524350E+01  0.17058341756E+02  0.37898120457E+01  0.72461629260E+02  0.70000076814E+02 0.  0.
        -12    1    1    2    0    0 -0.67325524350E+01 -0.17058341756E+02 -0.37898120457E+01  0.18726370740E+02  0.00000000000E+00 0.  1.
         11    1    3    3    0    0 -0.63907688113E+01  0.21718934453E+01 -0.17314967657E+02  0.18584056402E+02  0.51100000000E-03 0. -1.
        -11    1    3    3    0    0 -0.40863784079E+01  0.21454975212E+02 -0.45352182432E+01  0.22306560798E+02  0.51100000000E-03 0.  1.
        -12    1    3    3    0    0  0.17209699654E+02 -0.65685269018E+01  0.25639997946E+02  0.31571012060E+02  0.00000000000E+00 0.  1.
</event>
<event>
 7    1  0.2577508E-013  0.7246154E+02  0.7816164E-02  0.1226708E+00
        -11   -1    0    0    0    0  0.00000000000E+00  0.00000000000E+00  0.45593999997E+02  0.45594000000E+02  0.51100000000E-03 0. -1.
         11   -1    0    0    0    0 -0.00000000000E+00 -0.00000000000E+00 -0.45593999997E+02  0.45594000000E+02  0.51100000000E-03 0.  1.
    9900012    2    1    2    0    0 -0.44715991131E+00  0.23895739651E+01  0.18567992494E+02  0.72461538483E+02  0.69999958559E+02 0.  0.
        -12    1    1    2    0    0  0.44715991131E+00 -0.23895739651E+01 -0.18567992494E+02  0.18726461517E+02  0.00000000000E+00 0.  1.
         11    1    3    3    0    0 -0.36478503540E+01  0.16161604251E+01 -0.17630698112E+01  0.43620181276E+01  0.51100000000E-03 0. -1.
        -11    1    3    3    0    0  0.18024920538E+02 -0.34644065604E+01 -0.18657835713E+02  0.26172785617E+02  0.51100000000E-03 0.  1.
         12    1    3    3    0    0 -0.14824230095E+02  0.42378201003E+01  0.38988898018E+02  0.41926734738E+02  0.00000000000E+00 0. -1.
</event>
<event>
 7    1  0.2577508E-013  0.7246159E+02  0.7816164E-02  0.1226708E+00
        -11   -1    0    0    0    0  0.00000000000E+00  0.00000000000E+00  0.45593999997E+02  0.45594000000E+02  0.51100000000E-03 0.  1.
         11   -1    0    0    0    0 -0.00000000000E+00 -0.00000000000E+00 -0.45593999997E+02  0.45594000000E+02  0.51100000000E-03 0. -1.
    9900012    2    1    2    0    0 -0.10612684780E+02 -0.51271490427E+01 -0.14552034390E+02  0.72461589761E+02  0.70000025360E+02 0.  0.
        -12    1    1    2    0    0  0.10612684780E+02  0.51271490427E+01  0.14552034390E+02  0.18726410239E+02  0.00000000000E+00 0.  1.
         11    1    3    3    0    0  0.63228546804E+00 -0.43534735762E+01  0.94046161713E+00  0.44985537016E+01  0.51100000000E-03 0. -1.
        -11    1    3    3    0    0 -0.34998458202E+02  0.11511808396E+02 -0.18182681729E+02  0.41085565886E+02  0.51100000000E-03 0.  1.
         12    1    3    3    0    0  0.23753487954E+02 -0.12285483862E+02  0.26901857226E+01  0.26877470174E+02  0.00000000000E+00 0. -1.
</event>
<event>
 7    1  0.2577508E-013  0.7246158E+02  0.7816164E-02  0.1226708E+00
        -11   -1    0    0    0    0  0.00000000000E+00  0.00000000000E+00  0.45593999997E+02  0.45594000000E+02  0.51100000000E-03 0.  1.
         11   -1    0    0    0    0 -0.00000000000E+00 -0.00000000000E+00 -0.45593999997E+02  0.45594000000E+02  0.51100000000E-03 0. -1.
    9900012    2    1    2    0    0  0.14793195681E+02 -0.11449235265E+02  0.86905791719E+00  0.72461577803E+02  0.70000009782E+02 0.  0.
        -12    1    1    2    0    0 -0.14793195681E+02  0.11449235265E+02 -0.86905791719E+00  0.18726422197E+02  0.00000000000E+00 0.  1.
         11    1    3    3    0    0  0.11197429572E+01  0.41195925116E+01  0.90065468961E+01  0.99670835255E+01  0.51100000000E-03 0.  1.
        -11    1    3    3    0    0  0.29897534584E+02 -0.16149160752E+02 -0.22553031835E+02  0.40783540950E+02  0.51100000000E-03 0. -1.
         12    1    3    3    0    0 -0.16224081860E+02  0.58033297540E+00  0.14415542856E+02  0.21710953328E+02  0.00000000000E+00 0. -1.
</event>
<event>
 7    1  0.2577508E-013  0.7246141E+02  0.7816164E-02  0.1226708E+00
        -11   -1    0    0    0    0  0.00000000000E+00  0.00000000000E+00  0.45593999997E+02  0.45594000000E+02  0.51100000000E-03 0.  1.
         11   -1    0    0    0    0 -0.00000000000E+00 -0.00000000000E+00 -0.45593999997E+02  0.45594000000E+02  0.51100000000E-03 0. -1.
    9900012    2    1    2    0    0  0.11776268261E+02 -0.54752560882E+01 -0.13491716738E+02  0.72461405437E+02  0.69999785242E+02 0.  0.
        -12    1    1    2    0    0 -0.11776268261E+02  0.54752560882E+01  0.13491716738E+02  0.18726594563E+02  0.00000000000E+00 0.  1.
         11    1    3    3    0    0 -0.18748016806E+01 -0.58026249230E+01  0.34420888750E+01  0.70023791259E+01  0.51100000000E-03 0. -1.
        -11    1    3    3    0    0 -0.13634346953E+02 -0.20897932615E+02  0.36622872560E+01  0.25219662024E+02  0.51100000000E-03 0.  1.
         12    1    3    3    0    0  0.27285416894E+02  0.21225301450E+02 -0.20596092869E+02  0.40239364287E+02  0.00000000000E+00 0. -1.
</event>
<event>
 7    1  0.2577508E-013  0.7246160E+02  0.7816164E-02  0.1226708E+00
        -11   -1    0    0    0    0  0.00000000000E+00  0.00000000000E+00  0.45593999997E+02  0.45594000000E+02  0.51100000000E-03 0.  1.
         11   -1    0    0    0    0 -0.00000000000E+00 -0.00000000000E+00 -0.45593999997E+02  0.45594000000E+02  0.51100000000E-03 0. -1.
    9900012    2    1    2    0    0 -0.17178800624E+02  0.73884051977E+01  0.98911615021E+00  0.72461599572E+02  0.70000038139E+02 0.  0.
        -12    1    1    2    0    0  0.17178800624E+02 -0.73884051977E+01 -0.98911615021E+00  0.18726400428E+02  0.00000000000E+00 0.  1.
         11    1    3    3    0    0 -0.27363686663E+02  0.26975675743E+00 -0.67402639689E+01  0.28182889758E+02  0.51100000000E-03 0. -1.
        -11    1    3    3    0    0  0.21484621752E+01  0.11548456006E+02  0.23363623321E+02  0.26150365596E+02  0.51100000000E-03 0.  1.
         12    1    3    3    0    0  0.80364238636E+01 -0.44298075662E+01 -0.15634243202E+02  0.18128344218E+02  0.00000000000E+00 0. -1.
</event>
<event>
 7    1  0.2577508E-013  0.7246153E+02  0.7816164E-02  0.1226708E+00
        -11   -1    0    0    0    0  0.00000000000E+00  0.00000000000E+00  0.45593999997E+02  0.45594000000E+02  0.51100000000E-03 0. -1.
         11   -1    0    0    0    0 -0.00000000000E+00 -0.00000000000E+00 -0.45593999997E+02  0.45594000000E+02  0.51100000000E-03 0.  1.
    9900012    2    1    2    0    0 -0.28786534544E+01  0.18148844685E+02 -0.36074102451E+01  0.72461531626E+02  0.69999949627E+02 0.  0.
        -12    1    1    2    0    0  0.28786534544E+01 -0.18148844685E+02  0.36074102451E+01  0.18726468374E+02  0.00000000000E+00 0.  1.
         11    1    3    3    0    0 -0.11580208129E+02  0.85315765263E+01  0.23305754229E+01  0.14571225082E+02  0.51100000000E-03 0. -1.
        -11    1    3    3    0    0  0.15882209951E+02 -0.99126387427E+00 -0.28099605920E+02  0.32292646997E+02  0.51100000000E-03 0.  1.
         12    1    3    3    0    0 -0.71806552757E+01  0.10608532032E+02  0.22161620252E+02  0.25597659546E+02  0.00000000000E+00 0. -1.
</event>
<event>
 7    1  0.2577508E-013  0.7246158E+02  0.7816164E-02  0.1226708E+00
        -11   -1    0    0    0    0  0.00000000000E+00  0.00000000000E+00  0.45593999997E+02  0.45594000000E+02  0.51100000000E-03 0.  1.
         11   -1    0    0    0    0 -0.00000000000E+00 -0.00000000000E+00 -0.45593999997E+02  0.45594000000E+02  0.51100000000E-03 0. -1.
    9900012    2    1    2    0    0  0.12783944004E+01 -0.13586595610E+02 -0.12823763209E+02  0.72461580819E+02  0.70000013710E+02 0.  0.
        -12    1    1    2    0    0 -0.12783944004E+01  0.13586595610E+02  0.12823763209E+02  0.18726419181E+02  0.00000000000E+00 0.  1.
         11    1    3    3    0    0 -0.46077589045E+01 -0.98634747645E+01 -0.11693973800E+02  0.15977127403E+02  0.51100000000E-03 0. -1.
        -11    1    3    3    0    0 -0.12309707007E+02  0.21692158192E+02  0.22604364193E+01  0.25043725495E+02  0.51100000000E-03 0.  1.
         12    1    3    3    0    0  0.18195860312E+02 -0.25415279037E+02 -0.33902258284E+01  0.31440727921E+02  0.00000000000E+00 0. -1.
</event>
<event>
 7    1  0.2577508E-013  0.7246156E+02  0.7816164E-02  0.1226708E+00
        -11   -1    0    0    0    0  0.00000000000E+00  0.00000000000E+00  0.45593999997E+02  0.45594000000E+02  0.51100000000E-03 0. -1.
         11   -1    0    0    0    0 -0.00000000000E+00 -0.00000000000E+00 -0.45593999997E+02  0.45594000000E+02  0.51100000000E-03 0.  1.
    9900012    2    1    2    0    0 -0.18297973591E+02  0.38822066536E+01 -0.88999274315E+00  0.72461562723E+02  0.69999990136E+02 0.  0.
        -12    1    1    2    0    0  0.18297973591E+02 -0.38822066536E+01  0.88999274315E+00  0.18726437277E+02  0.00000000000E+00 0.  1.
         11    1    3    3    0    0  0.85217574202E+00  0.49450187873E+01 -0.75163663406E+00  0.50738912279E+01  0.51100000000E-03 0. -1.
        -11    1    3    3    0    0 -0.27813164092E+02  0.23960418648E+02 -0.11647777839E+02  0.38514211500E+02  0.51100000000E-03 0.  1.
         12    1    3    3    0    0  0.86630147598E+01 -0.25023230782E+02  0.11509421730E+02  0.28873459994E+02  0.00000000000E+00 0. -1.
</event>
<event>
 7    1  0.2577508E-013  0.7246154E+02  0.7816164E-02  0.1226708E+00
        -11   -1    0    0    0    0  0.00000000000E+00  0.00000000000E+00  0.45593999997E+02  0.45594000000E+02  0.51100000000E-03 0.  1.
         11   -1    0    0    0    0 -0.00000000000E+00 -0.00000000000E+00 -0.45593999997E+02  0.45594000000E+02  0.51100000000E-03 0. -1.
    9900012    2    1    2    0    0  0.18345094378E+02 -0.12617534108E+01 -0.35420141105E+01  0.72461538151E+02  0.69999958128E+02 0.  0.
        -12    1    1    2    0    0 -0.18345094378E+02  0.12617534108E+01  0.35420141105E+01  0.18726461849E+02  0.00000000000E+00 0.  1.
         11    1    3    3    0    0  0.66923679496E+01  0.17581591078E+02 -0.16702393906E+02  0.25156909510E+02  0.51100000000E-03 0. -1.
        -11    1    3    3    0    0 -0.13384317325E+02 -0.43474327956E+01  0.11760927805E+02  0.18340107558E+02  0.51100000000E-03 0.  1.
         12    1    3    3    0    0  0.25037043753E+02 -0.14495911693E+02  0.13994519907E+01  0.28964521083E+02  0.00000000000E+00 0. -1.
</event>
<event>
 7    1  0.2577508E-013  0.7246157E+02  0.7816164E-02  0.1226708E+00
        -11   -1    0    0    0    0  0.00000000000E+00  0.00000000000E+00  0.45593999997E+02  0.45594000000E+02  0.51100000000E-03 0.  1.
         11   -1    0    0    0    0 -0.00000000000E+00 -0.00000000000E+00 -0.45593999997E+02  0.45594000000E+02  0.51100000000E-03 0. -1.
    9900012    2    1    2    0    0  0.10427417301E+02  0.10471166986E+02 -0.11502297683E+02  0.72461568903E+02  0.69999998188E+02 0.  0.
        -12    1    1    2    0    0 -0.10427417301E+02 -0.10471166986E+02  0.11502297683E+02  0.18726431097E+02  0.00000000000E+00 0.  1.
         11    1    3    3    0    0 -0.80621602716E+01  0.24076745428E+01  0.41207520790E+00  0.84240804356E+01  0.51100000000E-03 0. -1.
        -11    1    3    3    0    0  0.16445104715E+02 -0.10336131912E+02  0.19532316330E+02  0.27546115397E+02  0.51100000000E-03 0.  1.
         12    1    3    3    0    0  0.20444728581E+01  0.18399624355E+02 -0.31446689221E+02  0.36491373071E+02  0.00000000000E+00 0. -1.
</event>
<event>
 7    1  0.2577508E-013  0.7246148E+02  0.7816164E-02  0.1226708E+00
        -11   -1    0    0    0    0  0.00000000000E+00  0.00000000000E+00  0.45593999997E+02  0.45594000000E+02  0.51100000000E-03 0. -1.
         11   -1    0    0    0    0 -0.00000000000E+00 -0.00000000000E+00 -0.45593999997E+02  0.45594000000E+02  0.51100000000E-03 0.  1.
    9900012    2    1    2    0    0  0.14313413341E+02 -0.17591061696E+01  0.11946305789E+02  0.72461481958E+02  0.69999884925E+02 0.  0.
        -12    1    1    2    0    0 -0.14313413341E+02  0.17591061696E+01 -0.11946305789E+02  0.18726518042E+02  0.00000000000E+00 0.  1.
         11    1    3    3    0    0  0.83148526427E+01  0.28110996150E+01 -0.65158053930E+01  0.10931366598E+02  0.51100000000E-03 0. -1.
        -11    1    3    3    0    0  0.21807313456E+02  0.11015467088E+02 -0.91604000765E+01  0.26092381362E+02  0.51100000000E-03 0.  1.
         12    1    3    3    0    0 -0.15808752758E+02 -0.15585672872E+02  0.27622511259E+02  0.35437733997E+02  0.00000000000E+00 0. -1.
</event>
<event>
 7    1  0.2577508E-013  0.7246157E+02  0.7816164E-02  0.1226708E+00
        -11   -1    0    0    0    0  0.00000000000E+00  0.00000000000E+00  0.45593999997E+02  0.45594000000E+02  0.51100000000E-03 0.  1.
         11   -1    0    0    0    0 -0.00000000000E+00 -0.00000000000E+00 -0.45593999997E+02  0.45594000000E+02  0.51100000000E-03 0. -1.
    9900012    2    1    2    0    0 -0.15752738068E+02  0.42102118630E+01 -0.92089384143E+01  0.72461569820E+02  0.69999999382E+02 0.  0.
        -12    1    1    2    0    0  0.15752738068E+02 -0.42102118630E+01  0.92089384143E+01  0.18726430180E+02  0.00000000000E+00 0.  1.
         11    1    3    3    0    0  0.30869116157E+01 -0.14544688160E+02  0.49868469816E+01  0.15682653477E+02  0.51100000000E-03 0. -1.
        -11    1    3    3    0    0  0.14167864444E+02  0.11650633220E+02  0.34774763311E+01  0.18669720920E+02  0.51100000000E-03 0.  1.
         12    1    3    3    0    0 -0.33007514128E+02  0.71042668031E+01 -0.17673261727E+02  0.38109195423E+02  0.00000000000E+00 0. -1.
</event>
<event>
 7    1  0.2577508E-013  0.7246152E+02  0.7816164E-02  0.1226708E+00
        -11   -1    0    0    0    0  0.00000000000E+00  0.00000000000E+00  0.45593999997E+02  0.45594000000E+02  0.51100000000E-03 0.  1.
         11   -1    0    0    0    0 -0.00000000000E+00 -0.00000000000E+00 -0.45593999997E+02  0.45594000000E+02  0.51100000000E-03 0. -1.
    9900012    2    1    2    0    0 -0.15530417945E+02  0.35335771102E+01 -0.98489083277E+01  0.72461520246E+02  0.69999934802E+02 0.  0.
        -12    1    1    2    0    0  0.15530417945E+02 -0.35335771102E+01  0.98489083277E+01  0.18726479754E+02  0.00000000000E+00 0.  1.
         11    1    3    3    0    0  0.10302702313E+02 -0.83463095511E+00 -0.32218783382E+02  0.33836256983E+02  0.51100000000E-03 0. -1.
        -11    1    3    3    0    0 -0.67285553152E+01 -0.11846589318E+01 -0.20442463349E+01  0.71313264372E+01  0.51100000000E-03 0.  1.
        -12    1    3    3    0    0 -0.19104564943E+02  0.55528669971E+01  0.24414121389E+02  0.31493936825E+02  0.00000000000E+00 0.  1.
</event>
<event>
 7    1  0.2577508E-013  0.7246156E+02  0.7816164E-02  0.1226708E+00
        -11   -1    0    0    0    0  0.00000000000E+00  0.00000000000E+00  0.45593999997E+02  0.45594000000E+02  0.51100000000E-03 0. -1.
         11   -1    0    0    0    0 -0.00000000000E+00 -0.00000000000E+00 -0.45593999997E+02  0.45594000000E+02  0.51100000000E-03 0.  1.
    9900012    2    1    2    0    0  0.76286550250E+01  0.76118683374E+01  0.15314781452E+02  0.72461562859E+02  0.69999990314E+02 0.  0.
        -12    1    1    2    0    0 -0.76286550250E+01 -0.76118683374E+01 -0.15314781452E+02  0.18726437141E+02  0.00000000000E+00 0.  1.
         11    1    3    3    0    0 -0.10769495858E+02 -0.87136861504E+01  0.33425915479E+01  0.14250729310E+02  0.51100000000E-03 0. -1.
        -11    1    3    3    0    0  0.89090634566E+01 -0.18140135025E+02 -0.86336948657E+00  0.20228230707E+02  0.51100000000E-03 0.  1.
         12    1    3    3    0    0  0.94890874262E+01  0.34465689512E+02  0.12835559391E+02  0.37982602842E+02  0.00000000000E+00 0. -1.
</event>
<event>
 7    1  0.2577508E-013  0.7246161E+02  0.7816164E-02  0.1226708E+00
        -11   -1    0    0    0    0  0.00000000000E+00  0.00000000000E+00  0.45593999997E+02  0.45594000000E+02  0.51100000000E-03 0.  1.
         11   -1    0    0    0    0 -0.00000000000E+00 -0.00000000000E+00 -0.45593999997E+02  0.45594000000E+02  0.51100000000E-03 0. -1.
    9900012    2    1    2    0    0 -0.73785750400E+01 -0.17079152319E+02 -0.21299787383E+01  0.72461611587E+02  0.70000053791E+02 0.  0.
        -12    1    1    2    0    0  0.73785750400E+01  0.17079152319E+02  0.21299787383E+01  0.18726388413E+02  0.00000000000E+00 0.  1.
         11    1    3    3    0    0  0.74951111574E+01 -0.11549342197E+01 -0.14439562076E+02  0.16309859519E+02  0.51100000000E-03 0. -1.
        -11    1    3    3    0    0  0.73188861293E+00 -0.25620487104E+02 -0.97682473766E+01  0.27429248576E+02  0.51100000000E-03 0.  1.
        -12    1    3    3    0    0 -0.15605574810E+02  0.96962690044E+01  0.22077830715E+02  0.28722503492E+02  0.00000000000E+00 0.  1.
</event>
<event>
 7    1  0.2577508E-013  0.7246155E+02  0.7816164E-02  0.1226708E+00
        -11   -1    0    0    0    0  0.00000000000E+00  0.00000000000E+00  0.45593999997E+02  0.45594000000E+02  0.51100000000E-03 0.  1.
         11   -1    0    0    0    0 -0.00000000000E+00 -0.00000000000E+00 -0.45593999997E+02  0.45594000000E+02  0.51100000000E-03 0. -1.
    9900012    2    1    2    0    0 -0.10518125489E+02 -0.45474039031E+01 -0.14811142971E+02  0.72461553403E+02  0.69999977996E+02 0.  0.
        -12    1    1    2    0    0  0.10518125489E+02  0.45474039031E+01  0.14811142971E+02  0.18726446597E+02  0.00000000000E+00 0.  1.
         11    1    3    3    0    0  0.16606145109E+01  0.36553770929E+01  0.14808499514E+02  0.15343111822E+02  0.51100000000E-03 0. -1.
        -11    1    3    3    0    0  0.45025506706E+01  0.17019833488E+02 -0.16591995660E+02  0.24191775767E+02  0.51100000000E-03 0.  1.
         12    1    3    3    0    0 -0.16681290671E+02 -0.25222614484E+02 -0.13027646824E+02  0.32926665814E+02  0.00000000000E+00 0. -1.
</event>
<event>
 7    1  0.2577508E-013  0.7246157E+02  0.7816164E-02  0.1226708E+00
        -11   -1    0    0    0    0  0.00000000000E+00  0.00000000000E+00  0.45593999997E+02  0.45594000000E+02  0.51100000000E-03 0. -1.
         11   -1    0    0    0    0 -0.00000000000E+00 -0.00000000000E+00 -0.45593999997E+02  0.45594000000E+02  0.51100000000E-03 0.  1.
    9900012    2    1    2    0    0 -0.39064992986E+01 -0.74183215988E+01  0.16744762030E+02  0.72461567143E+02  0.69999995895E+02 0.  0.
        -12    1    1    2    0    0  0.39064992986E+01  0.74183215988E+01 -0.16744762030E+02  0.18726432857E+02  0.00000000000E+00 0.  1.
         11    1    3    3    0    0 -0.98682566148E+01  0.70337663126E+01 -0.52234847702E+01  0.13196255172E+02  0.51100000000E-03 0. -1.
        -11    1    3    3    0    0 -0.22580567694E+02 -0.92372522353E+01  0.29536233007E+01  0.24575043380E+02  0.51100000000E-03 0.  1.
         12    1    3    3    0    0  0.28542325011E+02 -0.52148356761E+01  0.19014623499E+02  0.34690268591E+02  0.00000000000E+00 0. -1.
</event>
<event>
 7    1  0.2577508E-013  0.7246157E+02  0.7816164E-02  0.1226708E+00
        -11   -1    0    0    0    0  0.00000000000E+00  0.00000000000E+00  0.45593999997E+02  0.45594000000E+02  0.51100000000E-03 0.  1.
         11   -1    0    0    0    0 -0.00000000000E+00 -0.00000000000E+00 -0.45593999997E+02  0.45594000000E+02  0.51100000000E-03 0. -1.
    9900012    2    1    2    0    0  0.29192793755E+01 -0.17092673569E+02 -0.70709030192E+01  0.72461565440E+02  0.69999993676E+02 0.  0.
        -12    1    1    2    0    0 -0.29192793755E+01  0.17092673569E+02  0.70709030192E+01  0.18726434560E+02  0.00000000000E+00 0.  1.
         11    1    3    3    0    0  0.29219240797E+02 -0.26172503538E+02  0.24235269052E+01  0.39301876000E+02  0.51100000000E-03 0. -1.
        -11    1    3    3    0    0  0.78097067531E+00  0.16087796679E+01  0.21089412361E+01  0.27650896213E+01  0.51100000000E-03 0.  1.
        -12    1    3    3    0    0 -0.27080932097E+02  0.74710503010E+01 -0.11603371160E+02  0.30394599818E+02  0.00000000000E+00 0.  1.
</event>
<event>
 7    1  0.2577508E-013  0.7246134E+02  0.7816164E-02  0.1226709E+00
        -11   -1    0    0    0    0  0.00000000000E+00  0.00000000000E+00  0.45593999997E+02  0.45594000000E+02  0.51100000000E-03 0.  1.
         11   -1    0    0    0    0 -0.00000000000E+00 -0.00000000000E+00 -0.45593999997E+02  0.45594000000E+02  0.51100000000E-03 0. -1.
    9900012    2    1    2    0    0 -0.18703849604E+01  0.58756327557E+01 -0.17682370185E+02  0.72461344785E+02  0.69999706232E+02 0.  0.
        -12    1    1    2    0    0  0.18703849604E+01 -0.58756327557E+01  0.17682370185E+02  0.18726655215E+02  0.00000000000E+00 0.  1.
         11    1    3    3    0    0  0.12075637366E+02 -0.10912391363E+02 -0.13298370673E+02  0.21017801166E+02  0.51100000000E-03 0. -1.
        -11    1    3    3    0    0  0.73626523742E+01 -0.93303947485E+01 -0.11995758894E+02  0.16886774347E+02  0.51100000000E-03 0.  1.
        -12    1    3    3    0    0 -0.21308674700E+02  0.26118418867E+02  0.76117593828E+01  0.34556769272E+02  0.00000000000E+00 0.  1.
</event>
<event>
 7    1  0.2577508E-013  0.7246156E+02  0.7816164E-02  0.1226708E+00
        -11   -1    0    0    0    0  0.00000000000E+00  0.00000000000E+00  0.45593999997E+02  0.45594000000E+02  0.51100000000E-03 0.  1.
         11   -1    0    0    0    0 -0.00000000000E+00 -0.00000000000E+00 -0.45593999997E+02  0.45594000000E+02  0.51100000000E-03 0. -1.
    9900012    2    1    2    0    0  0.17102334500E+02  0.18725010403E+01 -0.73948202247E+01  0.72461562228E+02  0.69999989492E+02 0.  0.
        -12    1    1    2    0    0 -0.17102334500E+02 -0.18725010403E+01  0.73948202247E+01  0.18726437772E+02  0.00000000000E+00 0.  1.
         11    1    3    3    0    0  0.11496100133E+02  0.10320305162E+02  0.14803281360E+01  0.15519677463E+02  0.51100000000E-03 0. -1.
        -11    1    3    3    0    0  0.30239071916E+02 -0.85362823945E+01 -0.73053644860E+01  0.32258920285E+02  0.51100000000E-03 0.  1.
        -12    1    3    3    0    0 -0.24632837549E+02  0.88478272750E-01 -0.15697838747E+01  0.24682964480E+02  0.00000000000E+00 0.  1.
</event>
<event>
 7    1  0.2577508E-013  0.7246155E+02  0.7816164E-02  0.1226708E+00
        -11   -1    0    0    0    0  0.00000000000E+00  0.00000000000E+00  0.45593999997E+02  0.45594000000E+02  0.51100000000E-03 0. -1.
         11   -1    0    0    0    0 -0.00000000000E+00 -0.00000000000E+00 -0.45593999997E+02  0.45594000000E+02  0.51100000000E-03 0.  1.
    9900012    2    1    2    0    0  0.10740726623E+02  0.15339938522E+02 -0.56208534252E-01  0.72461545940E+02  0.69999968274E+02 0.  0.
        -12    1    1    2    0    0 -0.10740726623E+02 -0.15339938522E+02  0.56208534252E-01  0.18726454060E+02  0.00000000000E+00 0.  1.
         11    1    3    3    0    0 -0.24938871807E+01  0.20133034620E+02 -0.53284421882E+01  0.20975005428E+02  0.51100000000E-03 0. -1.
        -11    1    3    3    0    0 -0.76732852585E+01  0.18303477839E+02 -0.24024217136E+00  0.19848282651E+02  0.51100000000E-03 0.  1.
         12    1    3    3    0    0  0.20907899062E+02 -0.23096573936E+02  0.55124758253E+01  0.31638257861E+02  0.00000000000E+00 0. -1.
</event>
<event>
 7    1  0.2577508E-013  0.7246157E+02  0.7816164E-02  0.1226708E+00
        -11   -1    0    0    0    0  0.00000000000E+00  0.00000000000E+00  0.45593999997E+02  0.45594000000E+02  0.51100000000E-03 0.  1.
         11   -1    0    0    0    0 -0.00000000000E+00 -0.00000000000E+00 -0.45593999997E+02  0.45594000000E+02  0.51100000000E-03 0. -1.
    9900012    2    1    2    0    0  0.30165102454E+01 -0.15921944283E+02  0.93846468657E+01  0.72461568396E+02  0.69999997528E+02 0.  0.
        -12    1    1    2    0    0 -0.30165102454E+01  0.15921944283E+02 -0.93846468657E+01  0.18726431604E+02  0.00000000000E+00 0.  1.
         11    1    3    3    0    0 -0.91378423945E+00  0.60884057425E+01 -0.16801214687E+02  0.17893700046E+02  0.51100000000E-03 0. -1.
        -11    1    3    3    0    0  0.18862696856E+02 -0.14238769032E+02  0.23422980481E+00  0.23634693569E+02  0.51100000000E-03 0.  1.
        -12    1    3    3    0    0 -0.14932402371E+02 -0.77715809933E+01  0.25951631747E+02  0.30933174782E+02  0.00000000000E+00 0.  1.
</event>
<event>
 7    1  0.2577508E-013  0.7246154E+02  0.7816164E-02  0.1226708E+00
        -11   -1    0    0    0    0  0.00000000000E+00  0.00000000000E+00  0.45593999997E+02  0.45594000000E+02  0.51100000000E-03 0. -1.
         11   -1    0    0    0    0 -0.00000000000E+00 -0.00000000000E+00 -0.45593999997E+02  0.45594000000E+02  0.51100000000E-03 0.  1.
    9900012    2    1    2    0    0  0.77712718735E+01 -0.16565243765E+02  0.39850250091E+01  0.72461537658E+02  0.69999957485E+02 0.  0.
        -12    1    1    2    0    0 -0.77712718735E+01  0.16565243765E+02 -0.39850250091E+01  0.18726462342E+02  0.00000000000E+00 0.  1.
         11    1    3    3    0    0  0.37576173463E+01 -0.35962906100E+00  0.34921564655E+01  0.51423903220E+01  0.51100000000E-03 0. -1.
        -11    1    3    3    0    0  0.44949741423E+01  0.10781458468E+02  0.27043244592E+02  0.29458134998E+02  0.51100000000E-03 0.  1.
         12    1    3    3    0    0 -0.48131961517E+00 -0.26987073172E+02 -0.26550376048E+02  0.37861012338E+02  0.00000000000E+00 0. -1.
</event>
<event>
 7    1  0.2577508E-013  0.7246161E+02  0.7816164E-02  0.1226708E+00
        -11   -1    0    0    0    0  0.00000000000E+00  0.00000000000E+00  0.45593999997E+02  0.45594000000E+02  0.51100000000E-03 0.  1.
         11   -1    0    0    0    0 -0.00000000000E+00 -0.00000000000E+00 -0.45593999997E+02  0.45594000000E+02  0.51100000000E-03 0. -1.
    9900012    2    1    2    0    0 -0.15958555178E+02  0.93991314229E+01 -0.27674110062E+01  0.72461609036E+02  0.70000050468E+02 0.  0.
        -12    1    1    2    0    0  0.15958555178E+02 -0.93991314229E+01  0.27674110062E+01  0.18726390964E+02  0.00000000000E+00 0.  1.
         11    1    3    3    0    0 -0.28051621786E+02 -0.12784112993E+02  0.15299388294E+02  0.34415088439E+02  0.51100000000E-03 0. -1.
        -11    1    3    3    0    0 -0.47055183020E+01  0.84959745962E+01  0.18717197079E+00  0.97138313984E+01  0.51100000000E-03 0.  1.
        -12    1    3    3    0    0  0.16798584910E+02  0.13687269819E+02 -0.18253971271E+02  0.28332689199E+02  0.00000000000E+00 0.  1.
</event>
<event>
 7    1  0.2577508E-013  0.7246158E+02  0.7816164E-02  0.1226708E+00
        -11   -1    0    0    0    0  0.00000000000E+00  0.00000000000E+00  0.45593999997E+02  0.45594000000E+02  0.51100000000E-03 0. -1.
         11   -1    0    0    0    0 -0.00000000000E+00 -0.00000000000E+00 -0.45593999997E+02  0.45594000000E+02  0.51100000000E-03 0.  1.
    9900012    2    1    2    0    0  0.49477898015E+01 -0.18035177698E+02 -0.96458405566E+00  0.72461583340E+02  0.70000016994E+02 0.  0.
        -12    1    1    2    0    0 -0.49477898015E+01  0.18035177698E+02  0.96458405566E+00  0.18726416660E+02  0.00000000000E+00 0.  1.
         11    1    3    3    0    0 -0.17817871424E+00  0.24117197862E+02 -0.33391129545E+01  0.24347908656E+02  0.51100000000E-03 0. -1.
        -11    1    3    3    0    0 -0.58490937250E+01 -0.19618894530E+01  0.18772736613E+01  0.64486482529E+01  0.51100000000E-03 0.  1.
        -12    1    3    3    0    0  0.10975062241E+02 -0.40190486107E+02  0.49725523752E+00  0.41665026431E+02  0.00000000000E+00 0.  1.
</event>
<event>
 7    1  0.2577508E-013  0.7246154E+02  0.7816164E-02  0.1226708E+00
        -11   -1    0    0    0    0  0.00000000000E+00  0.00000000000E+00  0.45593999997E+02  0.45594000000E+02  0.51100000000E-03 0. -1.
         11   -1    0    0    0    0 -0.00000000000E+00 -0.00000000000E+00 -0.45593999997E+02  0.45594000000E+02  0.51100000000E-03 0.  1.
    9900012    2    1    2    0    0  0.16931719216E+02  0.77907330965E+01 -0.18170324380E+01  0.72461541587E+02  0.69999962604E+02 0.  0.
        -12    1    1    2    0    0 -0.16931719216E+02 -0.77907330965E+01  0.18170324380E+01  0.18726458413E+02  0.00000000000E+00 0.  1.
         11    1    3    3    0    0  0.12821038914E+02  0.27831081462E+02  0.83734809603E+01  0.31765757001E+02  0.51100000000E-03 0. -1.
        -11    1    3    3    0    0  0.18325259261E+02 -0.83151565188E+01 -0.95080712569E+01  0.22256692796E+02  0.51100000000E-03 0.  1.
        -12    1    3    3    0    0 -0.14214578958E+02 -0.11725191847E+02 -0.68244214144E+00  0.18439091791E+02  0.00000000000E+00 0.  1.
</event>
<event>
 7    1  0.2577508E-013  0.7246151E+02  0.7816164E-02  0.1226708E+00
        -11   -1    0    0    0    0  0.00000000000E+00  0.00000000000E+00  0.45593999997E+02  0.45594000000E+02  0.51100000000E-03 0. -1.
         11   -1    0    0    0    0 -0.00000000000E+00 -0.00000000000E+00 -0.45593999997E+02  0.45594000000E+02  0.51100000000E-03 0.  1.
    9900012    2    1    2    0    0 -0.17654377791E+02  0.59873676635E+01  0.17764654751E+01  0.72461509237E+02  0.69999920461E+02 0.  0.
        -12    1    1    2    0    0  0.17654377791E+02 -0.59873676635E+01 -0.17764654751E+01  0.18726490763E+02  0.00000000000E+00 0.  1.
         11    1    3    3    0    0 -0.12179700661E+02 -0.52481181736E+01  0.23213981301E+02  0.26735309623E+02  0.51100000000E-03 0. -1.
        -11    1    3    3    0    0 -0.13934185145E+02  0.10025010895E+02  0.50508962982E+01  0.17893404169E+02  0.51100000000E-03 0.  1.
        -12    1    3    3    0    0  0.84595080145E+01  0.12104749422E+01 -0.26488412124E+02  0.27832795445E+02  0.00000000000E+00 0.  1.
</event>
<event>
 7    1  0.2577508E-013  0.7246153E+02  0.7816164E-02  0.1226708E+00
        -11   -1    0    0    0    0  0.00000000000E+00  0.00000000000E+00  0.45593999997E+02  0.45594000000E+02  0.51100000000E-03 0.  1.
         11   -1    0    0    0    0 -0.00000000000E+00 -0.00000000000E+00 -0.45593999997E+02  0.45594000000E+02  0.51100000000E-03 0. -1.
    9900012    2    1    2    0    0 -0.68504643783E+01  0.10416853885E+02 -0.13972864704E+02  0.72461530629E+02  0.69999948329E+02 0.  0.
        -12    1    1    2    0    0  0.68504643783E+01 -0.10416853885E+02  0.13972864704E+02  0.18726469371E+02  0.00000000000E+00 0.  1.
         11    1    3    3    0    0 -0.13426903282E+02  0.31398642644E+02 -0.21090044619E+02  0.40136597687E+02  0.51100000000E-03 0. -1.
        -11    1    3    3    0    0 -0.55812736465E+01 -0.94162279191E+01 -0.45848032473E+01  0.11867450645E+02  0.51100000000E-03 0.  1.
        -12    1    3    3    0    0  0.12157712551E+02 -0.11565560840E+02  0.11701983162E+02  0.20457482297E+02  0.00000000000E+00 0.  1.
</event>
<event>
 7    1  0.2577508E-013  0.7246155E+02  0.7816164E-02  0.1226708E+00
        -11   -1    0    0    0    0  0.00000000000E+00  0.00000000000E+00  0.45593999997E+02  0.45594000000E+02  0.51100000000E-03 0. -1.
         11   -1    0    0    0    0 -0.00000000000E+00 -0.00000000000E+00 -0.45593999997E+02  0.45594000000E+02  0.51100000000E-03 0.  1.
    9900012    2    1    2    0    0 -0.48650376773E+01  0.17751725065E+02 -0.34478592277E+01  0.72461546314E+02  0.69999968762E+02 0.  0.
        -12    1    1    2    0    0  0.48650376773E+01 -0.17751725065E+02  0.34478592277E+01  0.18726453686E+02  0.00000000000E+00 0.  1.
         11    1    3    3    0    0  0.46244924505E+01  0.24923420609E+02 -0.55761925389E+01  0.25954898358E+02  0.51100000000E-03 0. -1.
        -11    1    3    3    0    0  0.15370519947E+02  0.77951190928E+01 -0.13205689918E+01  0.17284694613E+02  0.51100000000E-03 0.  1.
         12    1    3    3    0    0 -0.24860050075E+02 -0.14966814637E+02  0.34489023031E+01  0.29221953344E+02  0.00000000000E+00 0. -1.
</event>
<event>
 7    1  0.2577508E-013  0.7246160E+02  0.7816164E-02  0.1226708E+00
        -11   -1    0    0    0    0  0.00000000000E+00  0.00000000000E+00  0.45593999997E+02  0.45594000000E+02  0.51100000000E-03 0.  1.
         11   -1    0    0    0    0 -0.00000000000E+00 -0.00000000000E+00 -0.45593999997E+02  0.45594000000E+02  0.51100000000E-03 0. -1.
    9900012    2    1    2    0    0  0.18785366159E+01  0.22660221340E+01 -0.18493624675E+02  0.72461603930E+02  0.70000043817E+02 0.  0.
        -12    1    1    2    0    0 -0.18785366159E+01 -0.22660221340E+01  0.18493624675E+02  0.18726396070E+02  0.00000000000E+00 0.  1.
         11    1    3    3    0    0  0.81708728782E+01 -0.25739426865E+00 -0.25050814196E+02  0.26350952688E+02  0.51100000000E-03 0. -1.
        -11    1    3    3    0    0  0.10922128031E+02  0.10753224652E+02 -0.12021447149E+02  0.19479217462E+02  0.51100000000E-03 0.  1.
        -12    1    3    3    0    0 -0.17214464293E+02 -0.82298082495E+01  0.18578636669E+02  0.26631433781E+02  0.00000000000E+00 0.  1.
</event>
<event>
 7    1  0.2577508E-013  0.7246158E+02  0.7816164E-02  0.1226708E+00
        -11   -1    0    0    0    0  0.00000000000E+00  0.00000000000E+00  0.45593999997E+02  0.45594000000E+02  0.51100000000E-03 0. -1.
         11   -1    0    0    0    0 -0.00000000000E+00 -0.00000000000E+00 -0.45593999997E+02  0.45594000000E+02  0.51100000000E-03 0.  1.
    9900012    2    1    2    0    0  0.36831936378E+01  0.17016589894E+02  0.68955397093E+01  0.72461582434E+02  0.70000015814E+02 0.  0.
        -12    1    1    2    0    0 -0.36831936378E+01 -0.17016589894E+02 -0.68955397093E+01  0.18726417566E+02  0.00000000000E+00 0.  1.
         11    1    3    3    0    0  0.34066169197E+02 -0.19324546316E+01  0.40019528577E+01  0.34354823411E+02  0.51100000000E-03 0.  1.
        -11    1    3    3    0    0 -0.14186338045E+02  0.16241779575E+02  0.12000987431E+01  0.21598329290E+02  0.51100000000E-03 0. -1.
        -12    1    3    3    0    0 -0.16196637514E+02  0.27072649509E+01  0.16934881085E+01  0.16508429733E+02  0.00000000000E+00 0.  1.
</event>
<event>
 7    1  0.2577508E-013  0.7246153E+02  0.7816164E-02  0.1226708E+00
        -11   -1    0    0    0    0  0.00000000000E+00  0.00000000000E+00  0.45593999997E+02  0.45594000000E+02  0.51100000000E-03 0.  1.
         11   -1    0    0    0    0 -0.00000000000E+00 -0.00000000000E+00 -0.45593999997E+02  0.45594000000E+02  0.51100000000E-03 0. -1.
    9900012    2    1    2    0    0 -0.18661671854E+01  0.11570384376E+02 -0.14605622753E+02  0.72461532352E+02  0.69999950573E+02 0.  0.
        -12    1    1    2    0    0  0.18661671854E+01 -0.11570384376E+02  0.14605622753E+02  0.18726467648E+02  0.00000000000E+00 0.  1.
         11    1    3    3    0    0  0.24086579479E+02  0.17258850635E+01 -0.22499088946E+02  0.33005317662E+02  0.51100000000E-03 0. -1.
        -11    1    3    3    0    0  0.23908271072E+01  0.96225210323E+01  0.45699986731E+01  0.10917593755E+02  0.51100000000E-03 0.  1.
        -12    1    3    3    0    0 -0.28343573772E+02  0.22197828015E+00  0.33234675203E+01  0.28538620935E+02  0.00000000000E+00 0.  1.
</event>
<event>
 7    1  0.2577508E-013  0.7246159E+02  0.7816164E-02  0.1226708E+00
        -11   -1    0    0    0    0  0.00000000000E+00  0.00000000000E+00  0.45593999997E+02  0.45594000000E+02  0.51100000000E-03 0. -1.
         11   -1    0    0    0    0 -0.00000000000E+00 -0.00000000000E+00 -0.45593999997E+02  0.45594000000E+02  0.51100000000E-03 0.  1.
    9900012    2    1    2    0    0 -0.12038266151E+02  0.13256150504E+02  0.54802507397E+01  0.72461587469E+02  0.70000022374E+02 0.  0.
        -12    1    1    2    0    0  0.12038266151E+02 -0.13256150504E+02 -0.54802507397E+01  0.18726412531E+02  0.00000000000E+00 0.  1.
         11    1    3    3    0    0 -0.30440412488E+01  0.45699584605E+01 -0.17166406179E+02  0.18023213055E+02  0.51100000000E-03 0. -1.
        -11    1    3    3    0    0  0.49534644797E+01 -0.18272782441E+02  0.62363371338E+01  0.19932969914E+02  0.51100000000E-03 0.  1.
         12    1    3    3    0    0 -0.13947689382E+02  0.26958974484E+02  0.16410319785E+02  0.34505404501E+02  0.00000000000E+00 0. -1.
</event>
<event>
 7    1  0.2577508E-013  0.7246159E+02  0.7816164E-02  0.1226708E+00
        -11   -1    0    0    0    0  0.00000000000E+00  0.00000000000E+00  0.45593999997E+02  0.45594000000E+02  0.51100000000E-03 0.  1.
         11   -1    0    0    0    0 -0.00000000000E+00 -0.00000000000E+00 -0.45593999997E+02  0.45594000000E+02  0.51100000000E-03 0. -1.
    9900012    2    1    2    0    0 -0.17090909705E+02  0.63327808251E+01 -0.42982516719E+01  0.72461594179E+02  0.70000031115E+02 0.  0.
        -12    1    1    2    0    0  0.17090909705E+02 -0.63327808251E+01  0.42982516719E+01  0.18726405821E+02  0.00000000000E+00 0.  1.
         11    1    3    3    0    0 -0.39139055986E+02 -0.98272814228E+01 -0.11771547419E+02  0.42035823918E+02  0.51100000000E-03 0. -1.
        -11    1    3    3    0    0 -0.12429169316E+01  0.23697689348E+00  0.51851774253E+00  0.13674287760E+01  0.51100000000E-03 0.  1.
        -12    1    3    3    0    0  0.23291063212E+02  0.15923085354E+02  0.69547780042E+01  0.29058341485E+02  0.00000000000E+00 0.  1.
</event>
<event>
 7    1  0.2577508E-013  0.7246158E+02  0.7816164E-02  0.1226708E+00
        -11   -1    0    0    0    0  0.00000000000E+00  0.00000000000E+00  0.45593999997E+02  0.45594000000E+02  0.51100000000E-03 0.  1.
         11   -1    0    0    0    0 -0.00000000000E+00 -0.00000000000E+00 -0.45593999997E+02  0.45594000000E+02  0.51100000000E-03 0. -1.
    9900012    2    1    2    0    0  0.82204043485E+01  0.78740536097E+00 -0.16807251477E+02  0.72461581307E+02  0.70000014346E+02 0.  0.
        -12    1    1    2    0    0 -0.82204043485E+01 -0.78740536097E+00  0.16807251477E+02  0.18726418693E+02  0.00000000000E+00 0.  1.
         11    1    3    3    0    0  0.74773056662E+01 -0.13082034176E+01 -0.14686824448E+02  0.16532522761E+02  0.51100000000E-03 0. -1.
        -11    1    3    3    0    0  0.17548532732E+02  0.22968231294E+02  0.11828474832E+01  0.28929047310E+02  0.51100000000E-03 0.  1.
         12    1    3    3    0    0 -0.16805434050E+02 -0.20872622515E+02 -0.33032745127E+01  0.27000011236E+02  0.00000000000E+00 0. -1.
</event>
<event>
 7    1  0.2577508E-013  0.7246159E+02  0.7816164E-02  0.1226708E+00
        -11   -1    0    0    0    0  0.00000000000E+00  0.00000000000E+00  0.45593999997E+02  0.45594000000E+02  0.51100000000E-03 0.  1.
         11   -1    0    0    0    0 -0.00000000000E+00 -0.00000000000E+00 -0.45593999997E+02  0.45594000000E+02  0.51100000000E-03 0. -1.
    9900012    2    1    2    0    0  0.13730363610E+02 -0.88259155030E+01 -0.91792645109E+01  0.72461586401E+02  0.70000020981E+02 0.  0.
        -12    1    1    2    0    0 -0.13730363610E+02  0.88259155030E+01  0.91792645109E+01  0.18726413599E+02  0.00000000000E+00 0.  1.
         11    1    3    3    0    0  0.23505267909E+01  0.44267020709E+01  0.16371946275E+02  0.17121953525E+02  0.51100000000E-03 0. -1.
        -11    1    3    3    0    0  0.83090607736E+01 -0.85668069028E+01  0.12263539284E+02  0.17112132172E+02  0.51100000000E-03 0.  1.
         12    1    3    3    0    0  0.30707760457E+01 -0.46858106711E+01 -0.37814750070E+02  0.38227500703E+02  0.00000000000E+00 0. -1.
</event>
<event>
 7    1  0.2577508E-013  0.7246155E+02  0.7816164E-02  0.1226708E+00
        -11   -1    0    0    0    0  0.00000000000E+00  0.00000000000E+00  0.45593999997E+02  0.45594000000E+02  0.51100000000E-03 0.  1.
         11   -1    0    0    0    0 -0.00000000000E+00 -0.00000000000E+00 -0.45593999997E+02  0.45594000000E+02  0.51100000000E-03 0. -1.
    9900012    2    1    2    0    0 -0.96124222910E+01  0.10323858856E+02 -0.12316618007E+02  0.72461553378E+02  0.69999977963E+02 0.  0.
        -12    1    1    2    0    0  0.96124222910E+01 -0.10323858856E+02  0.12316618007E+02  0.18726446622E+02  0.00000000000E+00 0.  1.
         11    1    3    3    0    0  0.92051468764E+00 -0.14767165644E+02 -0.98096352606E+01  0.17752337104E+02  0.51100000000E-03 0. -1.
        -11    1    3    3    0    0 -0.16405854628E+02 -0.73324836283E+01  0.86196109427E+01  0.19930255274E+02  0.51100000000E-03 0.  1.
         12    1    3    3    0    0  0.58729176495E+01  0.32423508128E+02 -0.11126593689E+02  0.34778960999E+02  0.00000000000E+00 0. -1.
</event>
<event>
 7    1  0.2577508E-013  0.7246166E+02  0.7816164E-02  0.1226708E+00
        -11   -1    0    0    0    0  0.00000000000E+00  0.00000000000E+00  0.45593999997E+02  0.45594000000E+02  0.51100000000E-03 0. -1.
         11   -1    0    0    0    0 -0.00000000000E+00 -0.00000000000E+00 -0.45593999997E+02  0.45594000000E+02  0.51100000000E-03 0.  1.
    9900012    2    1    2    0    0  0.18218118692E+01 -0.18479174814E+02  0.24242635482E+01  0.72461656149E+02  0.70000111841E+02 0.  0.
        -12    1    1    2    0    0 -0.18218118692E+01  0.18479174814E+02 -0.24242635482E+01  0.18726343851E+02  0.00000000000E+00 0.  1.
         11    1    3    3    0    0  0.79007535681E+01 -0.16305564121E+02  0.10257646221E+02  0.20820966224E+02  0.51100000000E-03 0. -1.
        -11    1    3    3    0    0 -0.20316720936E+02 -0.54369011867E+01  0.14076812835E+02  0.25307819028E+02  0.51100000000E-03 0.  1.
         12    1    3    3    0    0  0.14237779237E+02  0.32632904942E+01 -0.21910195508E+02  0.26332870897E+02  0.00000000000E+00 0. -1.
</event>
<event>
 7    1  0.2577508E-013  0.7246160E+02  0.7816164E-02  0.1226708E+00
        -11   -1    0    0    0    0  0.00000000000E+00  0.00000000000E+00  0.45593999997E+02  0.45594000000E+02  0.51100000000E-03 0. -1.
         11   -1    0    0    0    0 -0.00000000000E+00 -0.00000000000E+00 -0.45593999997E+02  0.45594000000E+02  0.51100000000E-03 0.  1.
    9900012    2    1    2    0    0 -0.81681581757E+01 -0.16714046000E+02  0.21447242480E+01  0.72461601954E+02  0.70000041243E+02 0.  0.
        -12    1    1    2    0    0  0.81681581757E+01  0.16714046000E+02 -0.21447242480E+01  0.18726398046E+02  0.00000000000E+00 0.  1.
         11    1    3    3    0    0 -0.21759425519E+02 -0.65008201151E+01  0.12386327670E+02  0.25868018372E+02  0.51100000000E-03 0. -1.
        -11    1    3    3    0    0 -0.13593546618E+02 -0.60875220914E+01  0.42816728226E+01  0.15497585531E+02  0.51100000000E-03 0.  1.
        -12    1    3    3    0    0  0.27184813961E+02 -0.41257037934E+01 -0.14523276245E+02  0.31095998051E+02  0.00000000000E+00 0.  1.
</event>
<event>
 7    1  0.2577508E-013  0.7246157E+02  0.7816164E-02  0.1226708E+00
        -11   -1    0    0    0    0  0.00000000000E+00  0.00000000000E+00  0.45593999997E+02  0.45594000000E+02  0.51100000000E-03 0. -1.
         11   -1    0    0    0    0 -0.00000000000E+00 -0.00000000000E+00 -0.45593999997E+02  0.45594000000E+02  0.51100000000E-03 0.  1.
    9900012    2    1    2    0    0  0.25912812918E+01 -0.12833769827E+02  0.13388758479E+02  0.72461568404E+02  0.69999997537E+02 0.  0.
        -12    1    1    2    0    0 -0.25912812918E+01  0.12833769827E+02 -0.13388758479E+02  0.18726431596E+02  0.00000000000E+00 0.  1.
         11    1    3    3    0    0  0.13346082201E+02 -0.25977350475E+02  0.26990837799E+02  0.39767398371E+02  0.51100000000E-03 0. -1.
        -11    1    3    3    0    0  0.16022834609E+01 -0.53012142461E+01  0.16262151424E+01  0.57718940325E+01  0.51100000000E-03 0.  1.
        -12    1    3    3    0    0 -0.12357084370E+02  0.18444794894E+02 -0.15228294462E+02  0.26922276001E+02  0.00000000000E+00 0.  1.
</event>
<event>
 7    1  0.2577508E-013  0.7246161E+02  0.7816164E-02  0.1226708E+00
        -11   -1    0    0    0    0  0.00000000000E+00  0.00000000000E+00  0.45593999997E+02  0.45594000000E+02  0.51100000000E-03 0. -1.
         11   -1    0    0    0    0 -0.00000000000E+00 -0.00000000000E+00 -0.45593999997E+02  0.45594000000E+02  0.51100000000E-03 0.  1.
    9900012    2    1    2    0    0 -0.69963034519E+01 -0.53370420793E+01  0.16530141588E+02  0.72461605231E+02  0.70000045511E+02 0.  0.
        -12    1    1    2    0    0  0.69963034519E+01  0.53370420793E+01 -0.16530141588E+02  0.18726394769E+02  0.00000000000E+00 0.  1.
         11    1    3    3    0    0 -0.25587180437E+01 -0.10858384965E+01  0.23885872365E+01  0.36648918831E+01  0.51100000000E-03 0. -1.
        -11    1    3    3    0    0  0.11806212628E+02 -0.31873072722E+02  0.56228360071E+00  0.33994052192E+02  0.51100000000E-03 0.  1.
         12    1    3    3    0    0 -0.16243798037E+02  0.27621869139E+02  0.13579270751E+02  0.34802661155E+02  0.00000000000E+00 0. -1.
</event>
<event>
 7    1  0.2577508E-013  0.7246223E+02  0.7816164E-02  0.1226706E+00
        -11   -1    0    0    0    0  0.00000000000E+00  0.00000000000E+00  0.45593999997E+02  0.45594000000E+02  0.51100000000E-03 0.  1.
         11   -1    0    0    0    0 -0.00000000000E+00 -0.00000000000E+00 -0.45593999997E+02  0.45594000000E+02  0.51100000000E-03 0. -1.
    9900012    2    1    2    0    0 -0.43141389297E+00  0.45168021317E+01 -0.18167737047E+02  0.72462234626E+02  0.70000865409E+02 0.  0.
        -12    1    1    2    0    0  0.43141389297E+00 -0.45168021317E+01  0.18167737047E+02  0.18725765374E+02  0.00000000000E+00 0.  1.
         11    1    3    3    0    0 -0.13048021608E+02  0.24065293074E+01 -0.11470940386E+02  0.17539233871E+02  0.51100000000E-03 0. -1.
        -11    1    3    3    0    0  0.13056915408E+02  0.25647968851E+02 -0.11329119301E+02  0.30929763829E+02  0.51100000000E-03 0.  1.
        -12    1    3    3    0    0 -0.44030769263E+00 -0.23537696027E+02  0.46323226393E+01  0.23993236925E+02  0.00000000000E+00 0.  1.
</event>
<event>
 7    1  0.2577508E-013  0.7246158E+02  0.7816164E-02  0.1226708E+00
        -11   -1    0    0    0    0  0.00000000000E+00  0.00000000000E+00  0.45593999997E+02  0.45594000000E+02  0.51100000000E-03 0. -1.
         11   -1    0    0    0    0 -0.00000000000E+00 -0.00000000000E+00 -0.45593999997E+02  0.45594000000E+02  0.51100000000E-03 0.  1.
    9900012    2    1    2    0    0 -0.14142065610E+02  0.10272028584E+02 -0.67205704622E+01  0.72461583944E+02  0.70000017782E+02 0.  0.
        -12    1    1    2    0    0  0.14142065610E+02 -0.10272028584E+02  0.67205704622E+01  0.18726416056E+02  0.00000000000E+00 0.  1.
         11    1    3    3    0    0 -0.18490393376E+02  0.26541574087E+02  0.13710276422E+02  0.35132911665E+02  0.51100000000E-03 0. -1.
        -11    1    3    3    0    0 -0.82575118240E+01  0.45995992086E+00 -0.29901312515E+00  0.82757159063E+01  0.51100000000E-03 0.  1.
        -12    1    3    3    0    0  0.12605839590E+02 -0.16729505424E+02 -0.20131833759E+02  0.29052956373E+02  0.00000000000E+00 0.  1.
</event>
<event>
 7    1  0.2577508E-013  0.7246157E+02  0.7816164E-02  0.1226708E+00
        -11   -1    0    0    0    0  0.00000000000E+00  0.00000000000E+00  0.45593999997E+02  0.45594000000E+02  0.51100000000E-03 0.  1.
         11   -1    0    0    0    0 -0.00000000000E+00 -0.00000000000E+00 -0.45593999997E+02  0.45594000000E+02  0.51100000000E-03 0. -1.
    9900012    2    1    2    0    0 -0.69376009055E+01  0.10121174834E+02 -0.14146054995E+02  0.72461565255E+02  0.69999993435E+02 0.  0.
        -12    1    1    2    0    0  0.69376009055E+01 -0.10121174834E+02  0.14146054995E+02  0.18726434745E+02  0.00000000000E+00 0.  1.
         11    1    3    3    0    0  0.85687840867E+01  0.69779223349E+01 -0.60099474110E+01  0.12579146592E+02  0.51100000000E-03 0. -1.
        -11    1    3    3    0    0 -0.18417504177E+02  0.14983092557E+02  0.18820294373E+02  0.30296881081E+02  0.51100000000E-03 0.  1.
         12    1    3    3    0    0  0.29111191845E+01 -0.11839840058E+02 -0.26956401957E+02  0.29585537582E+02  0.00000000000E+00 0. -1.
</event>
<event>
 7    1  0.2577508E-013  0.7246148E+02  0.7816164E-02  0.1226708E+00
        -11   -1    0    0    0    0  0.00000000000E+00  0.00000000000E+00  0.45593999997E+02  0.45594000000E+02  0.51100000000E-03 0.  1.
         11   -1    0    0    0    0 -0.00000000000E+00 -0.00000000000E+00 -0.45593999997E+02  0.45594000000E+02  0.51100000000E-03 0. -1.
    9900012    2    1    2    0    0 -0.14183471517E+02  0.91654516254E+01  0.80935900324E+01  0.72461479571E+02  0.69999881816E+02 0.  0.
        -12    1    1    2    0    0  0.14183471517E+02 -0.91654516254E+01 -0.80935900324E+01  0.18726520429E+02  0.00000000000E+00 0.  1.
         11    1    3    3    0    0  0.12104207319E+02 -0.13222725691E+02 -0.58044689935E+01  0.18842615797E+02  0.51100000000E-03 0. -1.
        -11    1    3    3    0    0 -0.60590479385E+01  0.11432420941E+02  0.24943533275E+02  0.28099682614E+02  0.51100000000E-03 0.  1.
        -12    1    3    3    0    0 -0.20228630897E+02  0.10955756375E+02 -0.11045474249E+02  0.25519181161E+02  0.00000000000E+00 0.  1.
</event>
<event>
 7    1  0.2577508E-013  0.7246155E+02  0.7816164E-02  0.1226708E+00
        -11   -1    0    0    0    0  0.00000000000E+00  0.00000000000E+00  0.45593999997E+02  0.45594000000E+02  0.51100000000E-03 0. -1.
         11   -1    0    0    0    0 -0.00000000000E+00 -0.00000000000E+00 -0.45593999997E+02  0.45594000000E+02  0.51100000000E-03 0.  1.
    9900012    2    1    2    0    0 -0.18534715489E+01 -0.10039497229E+02  0.15698820299E+02  0.72461552922E+02  0.69999977369E+02 0.  0.
        -12    1    1    2    0    0  0.18534715489E+01  0.10039497229E+02 -0.15698820299E+02  0.18726447078E+02  0.00000000000E+00 0.  1.
         11    1    3    3    0    0  0.69144511470E+01  0.53336692726E+01 -0.15270793849E+02  0.17591327625E+02  0.51100000000E-03 0. -1.
        -11    1    3    3    0    0  0.15444647878E+02 -0.73660603915E+01  0.36476706503E+01  0.17495756491E+02  0.51100000000E-03 0.  1.
         12    1    3    3    0    0 -0.24212570574E+02 -0.80071061102E+01  0.27321943497E+02  0.37374468806E+02  0.00000000000E+00 0. -1.
</event>
<event>
 7    1  0.2577508E-013  0.7246153E+02  0.7816164E-02  0.1226708E+00
        -11   -1    0    0    0    0  0.00000000000E+00  0.00000000000E+00  0.45593999997E+02  0.45594000000E+02  0.51100000000E-03 0. -1.
         11   -1    0    0    0    0 -0.00000000000E+00 -0.00000000000E+00 -0.45593999997E+02  0.45594000000E+02  0.51100000000E-03 0.  1.
    9900012    2    1    2    0    0  0.19150036073E+01 -0.35961767167E+01  0.18277876793E+02  0.72461534614E+02  0.69999953520E+02 0.  0.
        -12    1    1    2    0    0 -0.19150036073E+01  0.35961767167E+01 -0.18277876793E+02  0.18726465386E+02  0.00000000000E+00 0.  1.
         11    1    3    3    0    0 -0.23887105572E+02  0.14061627629E+02  0.95109468114E+01  0.29304970460E+02  0.51100000000E-03 0. -1.
        -11    1    3    3    0    0 -0.44731904775E+01  0.24027602431E+01  0.41265093591E+01  0.65429939313E+01  0.51100000000E-03 0.  1.
        -12    1    3    3    0    0  0.30275299657E+02 -0.20060564588E+02  0.46404206221E+01  0.36613570223E+02  0.00000000000E+00 0.  1.
</event>
<event>
 7    1  0.2577508E-013  0.7246156E+02  0.7816164E-02  0.1226708E+00
        -11   -1    0    0    0    0  0.00000000000E+00  0.00000000000E+00  0.45593999997E+02  0.45594000000E+02  0.51100000000E-03 0. -1.
         11   -1    0    0    0    0 -0.00000000000E+00 -0.00000000000E+00 -0.45593999997E+02  0.45594000000E+02  0.51100000000E-03 0.  1.
    9900012    2    1    2    0    0  0.16973621885E+02  0.37383451463E+01  0.69714140461E+01  0.72461556714E+02  0.69999982310E+02 0.  0.
        -12    1    1    2    0    0 -0.16973621885E+02 -0.37383451463E+01 -0.69714140461E+01  0.18726443286E+02  0.00000000000E+00 0.  1.
         11    1    3    3    0    0  0.23940271898E+01  0.70294760923E+01  0.23465298144E+02  0.24612296065E+02  0.51100000000E-03 0. -1.
        -11    1    3    3    0    0 -0.13227275437E+02  0.18630913134E+01 -0.14169728290E+02  0.19473395308E+02  0.51100000000E-03 0.  1.
        -12    1    3    3    0    0  0.27806870133E+02 -0.51542222594E+01 -0.23241558084E+01  0.28375865342E+02  0.00000000000E+00 0.  1.
</event>
<event>
 7    1  0.2577508E-013  0.7246154E+02  0.7816164E-02  0.1226708E+00
        -11   -1    0    0    0    0  0.00000000000E+00  0.00000000000E+00  0.45593999997E+02  0.45594000000E+02  0.51100000000E-03 0. -1.
         11   -1    0    0    0    0 -0.00000000000E+00 -0.00000000000E+00 -0.45593999997E+02  0.45594000000E+02  0.51100000000E-03 0.  1.
    9900012    2    1    2    0    0  0.11277586479E+02 -0.53184889551E+01  0.13971754912E+02  0.72461542329E+02  0.69999963570E+02 0.  0.
        -12    1    1    2    0    0 -0.11277586479E+02  0.53184889551E+01 -0.13971754912E+02  0.18726457671E+02  0.00000000000E+00 0.  1.
         11    1    3    3    0    0 -0.78097759479E+01 -0.20021057907E+02  0.13189276238E+02  0.25214923518E+02  0.51100000000E-03 0. -1.
        -11    1    3    3    0    0  0.69729834776E+01 -0.95781978931E+01 -0.12338566587E+02  0.17105689087E+02  0.51100000000E-03 0.  1.
        -12    1    3    3    0    0  0.12114378950E+02  0.24280766845E+02  0.13121045262E+02  0.30140929724E+02  0.00000000000E+00 0.  1.
</event>
<event>
 7    1  0.2577508E-013  0.7246155E+02  0.7816164E-02  0.1226708E+00
        -11   -1    0    0    0    0  0.00000000000E+00  0.00000000000E+00  0.45593999997E+02  0.45594000000E+02  0.51100000000E-03 0.  1.
         11   -1    0    0    0    0 -0.00000000000E+00 -0.00000000000E+00 -0.45593999997E+02  0.45594000000E+02  0.51100000000E-03 0. -1.
    9900012    2    1    2    0    0 -0.10726919874E+02 -0.85678386572E+01  0.12735985784E+02  0.72461548037E+02  0.69999971006E+02 0.  0.
        -12    1    1    2    0    0  0.10726919874E+02  0.85678386572E+01 -0.12735985784E+02  0.18726451963E+02  0.00000000000E+00 0.  1.
         11    1    3    3    0    0 -0.11648903960E+02  0.29692569004E+01 -0.17839517835E+02  0.21511900122E+02  0.51100000000E-03 0. -1.
        -11    1    3    3    0    0  0.25152007185E+01  0.41575681523E+01 -0.79511350069E+01  0.93183773134E+01  0.51100000000E-03 0.  1.
        -12    1    3    3    0    0 -0.15932166325E+01 -0.15694663710E+02  0.38526638625E+02  0.41631270602E+02  0.00000000000E+00 0.  1.
</event>
<event>
 7    1  0.2577508E-013  0.7246158E+02  0.7816164E-02  0.1226708E+00
        -11   -1    0    0    0    0  0.00000000000E+00  0.00000000000E+00  0.45593999997E+02  0.45594000000E+02  0.51100000000E-03 0. -1.
         11   -1    0    0    0    0 -0.00000000000E+00 -0.00000000000E+00 -0.45593999997E+02  0.45594000000E+02  0.51100000000E-03 0.  1.
    9900012    2    1    2    0    0 -0.32215323138E+01 -0.13492208800E+02  0.12580174249E+02  0.72461581419E+02  0.70000014492E+02 0.  0.
        -12    1    1    2    0    0  0.32215323138E+01  0.13492208800E+02 -0.12580174249E+02  0.18726418581E+02  0.00000000000E+00 0.  1.
         11    1    3    3    0    0 -0.58734229255E+00  0.19745845589E+01  0.16618675521E+02  0.16745875058E+02  0.51100000000E-03 0. -1.
        -11    1    3    3    0    0 -0.16785181328E+02  0.14512825872E+02  0.85034767153E+00  0.22205574040E+02  0.51100000000E-03 0.  1.
        -12    1    3    3    0    0  0.14150991307E+02 -0.29979619230E+02 -0.48888489432E+01  0.33510132321E+02  0.00000000000E+00 0.  1.
</event>
<event>
 7    1  0.2577508E-013  0.7246156E+02  0.7816164E-02  0.1226708E+00
        -11   -1    0    0    0    0  0.00000000000E+00  0.00000000000E+00  0.45593999997E+02  0.45594000000E+02  0.51100000000E-03 0. -1.
         11   -1    0    0    0    0 -0.00000000000E+00 -0.00000000000E+00 -0.45593999997E+02  0.45594000000E+02  0.51100000000E-03 0.  1.
    9900012    2    1    2    0    0 -0.78521591093E+01 -0.32247884746E+01  0.16692027825E+02  0.72461562637E+02  0.69999990025E+02 0.  0.
        -12    1    1    2    0    0  0.78521591093E+01  0.32247884746E+01 -0.16692027825E+02  0.18726437363E+02  0.00000000000E+00 0.  1.
         11    1    3    3    0    0  0.49878021441E+01  0.82511933751E+01  0.22626984851E+02  0.24595544435E+02  0.51100000000E-03 0. -1.
        -11    1    3    3    0    0 -0.10683609959E+02  0.84678220857E+01  0.14031174180E+02  0.19563163899E+02  0.51100000000E-03 0.  1.
        -12    1    3    3    0    0 -0.21563512948E+01 -0.19943803935E+02 -0.19966131206E+02  0.28302854302E+02  0.00000000000E+00 0.  1.
</event>
<event>
 7    1  0.2577508E-013  0.7246153E+02  0.7816164E-02  0.1226708E+00
        -11   -1    0    0    0    0  0.00000000000E+00  0.00000000000E+00  0.45593999997E+02  0.45594000000E+02  0.51100000000E-03 0.  1.
         11   -1    0    0    0    0 -0.00000000000E+00 -0.00000000000E+00 -0.45593999997E+02  0.45594000000E+02  0.51100000000E-03 0. -1.
    9900012    2    1    2    0    0  0.18299501120E+02 -0.39296049717E+01 -0.60588380929E+00  0.72461531255E+02  0.69999949143E+02 0.  0.
        -12    1    1    2    0    0 -0.18299501120E+02  0.39296049717E+01  0.60588380929E+00  0.18726468745E+02  0.00000000000E+00 0.  1.
         11    1    3    3    0    0 -0.38991721230E+01 -0.23512827398E+01 -0.18986638312E+01  0.49332543389E+01  0.51100000000E-03 0. -1.
        -11    1    3    3    0    0 -0.50755542121E+01  0.82875018255E+01 -0.25966307494E+02  0.27725314465E+02  0.51100000000E-03 0.  1.
         12    1    3    3    0    0  0.27274227455E+02 -0.98658240574E+01  0.27259087516E+02  0.39802962450E+02  0.00000000000E+00 0. -1.
</event>
<event>
 7    1  0.2836277E-013  0.7246161E+02  0.7816164E-02  0.1226708E+00
        -11   -1    0    0    0    0  0.00000000000E+00  0.00000000000E+00  0.45593999997E+02  0.45594000000E+02  0.51100000000E-03 0. -1.
         11   -1    0    0    0    0 -0.00000000000E+00 -0.00000000000E+00 -0.45593999997E+02  0.45594000000E+02  0.51100000000E-03 0.  1.
    9900012    2    1    2    0    0  0.13018825077E+02 -0.13266176444E+02 -0.22795453568E+01  0.72461612979E+02  0.70000055605E+02 0.  0.
        -12    1    1    2    0    0 -0.13018825077E+02  0.13266176444E+02  0.22795453568E+01  0.18726387021E+02  0.00000000000E+00 0.  1.
         11    1    3    3    0    0  0.17098632344E+02 -0.16247049711E+01 -0.72171557793E+01  0.18630357809E+02  0.51100000000E-03 0. -1.
        -11    1    3    3    0    0 -0.86408793989E+01  0.17597705788E+02  0.12546774749E+02  0.23275858795E+02  0.51100000000E-03 0.  1.
         12    1    3    3    0    0  0.45610721317E+01 -0.29239177261E+02 -0.76091643269E+01  0.30555396375E+02  0.00000000000E+00 0. -1.
</event>
<event>
 7    1  0.2577508E-013  0.7246193E+02  0.7816164E-02  0.1226707E+00
        -11   -1    0    0    0    0  0.00000000000E+00  0.00000000000E+00  0.45593999997E+02  0.45594000000E+02  0.51100000000E-03 0.  1.
         11   -1    0    0    0    0 -0.00000000000E+00 -0.00000000000E+00 -0.45593999997E+02  0.45594000000E+02  0.51100000000E-03 0. -1.
    9900012    2    1    2    0    0  0.13764051246E+02 -0.12667712686E+02 -0.86359964072E+00  0.72461925779E+02  0.70000463083E+02 0.  0.
        -12    1    1    2    0    0 -0.13764051246E+02  0.12667712686E+02  0.86359964072E+00  0.18726074221E+02  0.00000000000E+00 0.  1.
         11    1    3    3    0    0  0.99970370466E+01  0.20165983829E+02 -0.14891669535E+02  0.26988321091E+02  0.51100000000E-03 0. -1.
        -11    1    3    3    0    0  0.10550659144E+02 -0.69612828620E+01 -0.39535881511E+01  0.13244120469E+02  0.51100000000E-03 0.  1.
        -12    1    3    3    0    0 -0.67836449450E+01 -0.25872413653E+02  0.17981658046E+02  0.32229484219E+02  0.00000000000E+00 0.  1.
</event>
<event>
 7    1  0.2577508E-013  0.7246163E+02  0.7816164E-02  0.1226708E+00
        -11   -1    0    0    0    0  0.00000000000E+00  0.00000000000E+00  0.45593999997E+02  0.45594000000E+02  0.51100000000E-03 0.  1.
         11   -1    0    0    0    0 -0.00000000000E+00 -0.00000000000E+00 -0.45593999997E+02  0.45594000000E+02  0.51100000000E-03 0. -1.
    9900012    2    1    2    0    0  0.36779213015E+01 -0.17747399597E+02 -0.47095217904E+01  0.72461631076E+02  0.70000079180E+02 0.  0.
        -12    1    1    2    0    0 -0.36779213015E+01  0.17747399597E+02  0.47095217904E+01  0.18726368924E+02  0.00000000000E+00 0.  1.
         11    1    3    3    0    0 -0.94291145997E+00 -0.15125674734E+02 -0.13597798934E+02  0.20361121146E+02  0.51100000000E-03 0. -1.
        -11    1    3    3    0    0 -0.16623558415E+02 -0.16285244672E+02 -0.42074305608E+01  0.23648559377E+02  0.51100000000E-03 0.  1.
        -12    1    3    3    0    0  0.21244391176E+02  0.13663519809E+02  0.13095707705E+02  0.28451950554E+02  0.00000000000E+00 0.  1.
</event>
<event>
 7    1  0.2577508E-013  0.7246150E+02  0.7816164E-02  0.1226708E+00
        -11   -1    0    0    0    0  0.00000000000E+00  0.00000000000E+00  0.45593999997E+02  0.45594000000E+02  0.51100000000E-03 0.  1.
         11   -1    0    0    0    0 -0.00000000000E+00 -0.00000000000E+00 -0.45593999997E+02  0.45594000000E+02  0.51100000000E-03 0. -1.
    9900012    2    1    2    0    0 -0.19254193809E+01  0.16844831143E+02 -0.79514917595E+01  0.72461500134E+02  0.69999908603E+02 0.  0.
        -12    1    1    2    0    0  0.19254193809E+01 -0.16844831143E+02  0.79514917595E+01  0.18726499866E+02  0.00000000000E+00 0.  1.
         11    1    3    3    0    0  0.23471851337E+02  0.22249350767E+02 -0.17813677401E+02  0.36922737135E+02  0.51100000000E-03 0. -1.
        -11    1    3    3    0    0  0.35544431852E+01 -0.31857824808E+01 -0.28115587346E+00  0.47814563951E+01  0.51100000000E-03 0.  1.
        -12    1    3    3    0    0 -0.28951713903E+02 -0.22187371434E+01  0.10143341515E+02  0.30757306604E+02  0.00000000000E+00 0.  1.
</event>
<event>
 7    1  0.2577508E-013  0.7246147E+02  0.7816164E-02  0.1226708E+00
        -11   -1    0    0    0    0  0.00000000000E+00  0.00000000000E+00  0.45593999997E+02  0.45594000000E+02  0.51100000000E-03 0.  1.
         11   -1    0    0    0    0 -0.00000000000E+00 -0.00000000000E+00 -0.45593999997E+02  0.45594000000E+02  0.51100000000E-03 0. -1.
    9900012    2    1    2    0    0  0.18216026924E+02 -0.14772338033E+01 -0.40837494157E+01  0.72461471600E+02  0.69999871432E+02 0.  0.
        -12    1    1    2    0    0 -0.18216026924E+02  0.14772338033E+01  0.40837494157E+01  0.18726528400E+02  0.00000000000E+00 0.  1.
         11    1    3    3    0    0  0.11618529117E+02  0.26420738759E+02 -0.14636503610E+02  0.32361595968E+02  0.51100000000E-03 0. -1.
        -11    1    3    3    0    0  0.14575312771E+01 -0.66520071411E+00 -0.70756207887E+01  0.72547432223E+01  0.51100000000E-03 0.  1.
        -12    1    3    3    0    0  0.51399665298E+01 -0.27232771848E+02  0.17628374983E+02  0.32845132410E+02  0.00000000000E+00 0.  1.
</event>
<event>
 7    1  0.2577508E-013  0.7246156E+02  0.7816164E-02  0.1226708E+00
        -11   -1    0    0    0    0  0.00000000000E+00  0.00000000000E+00  0.45593999997E+02  0.45594000000E+02  0.51100000000E-03 0. -1.
         11   -1    0    0    0    0 -0.00000000000E+00 -0.00000000000E+00 -0.45593999997E+02  0.45594000000E+02  0.51100000000E-03 0.  1.
    9900012    2    1    2    0    0 -0.14295029966E+01 -0.18659700128E+02  0.67201141343E+00  0.72461561817E+02  0.69999988956E+02 0.  0.
        -12    1    1    2    0    0  0.14295029966E+01  0.18659700128E+02 -0.67201141343E+00  0.18726438183E+02  0.00000000000E+00 0.  1.
         11    1    3    3    0    0  0.96343432102E+01 -0.73964173772E+01  0.16840222358E+02  0.20763445004E+02  0.51100000000E-03 0. -1.
        -11    1    3    3    0    0  0.10799381327E+02  0.14905486726E+01  0.10354864566E+02  0.15035677332E+02  0.51100000000E-03 0.  1.
        -12    1    3    3    0    0 -0.21863227533E+02 -0.12753831424E+02 -0.26523075511E+02  0.36662439481E+02  0.00000000000E+00 0.  1.
</event>
<event>
 7    1  0.2577508E-013  0.7246158E+02  0.7816164E-02  0.1226708E+00
        -11   -1    0    0    0    0  0.00000000000E+00  0.00000000000E+00  0.45593999997E+02  0.45594000000E+02  0.51100000000E-03 0.  1.
         11   -1    0    0    0    0 -0.00000000000E+00 -0.00000000000E+00 -0.45593999997E+02  0.45594000000E+02  0.51100000000E-03 0. -1.
    9900012    2    1    2    0    0 -0.26299828647E+01  0.10341320081E+02 -0.15388922412E+02  0.72461584329E+02  0.70000018283E+02 0.  0.
        -12    1    1    2    0    0  0.26299828647E+01 -0.10341320081E+02  0.15388922412E+02  0.18726415671E+02  0.00000000000E+00 0.  1.
         11    1    3    3    0    0  0.10221359666E+02 -0.11343589915E+01  0.57452023056E+01  0.11780081220E+02  0.51100000000E-03 0. -1.
        -11    1    3    3    0    0  0.33120065820E+01 -0.17290769732E+02  0.53183478916E+01  0.18390892585E+02  0.51100000000E-03 0.  1.
         12    1    3    3    0    0 -0.16163349113E+02  0.28766448804E+02 -0.26452472609E+02  0.42290610524E+02  0.00000000000E+00 0. -1.
</event>
<event>
 7    1  0.2577508E-013  0.7246157E+02  0.7816164E-02  0.1226708E+00
        -11   -1    0    0    0    0  0.00000000000E+00  0.00000000000E+00  0.45593999997E+02  0.45594000000E+02  0.51100000000E-03 0.  1.
         11   -1    0    0    0    0 -0.00000000000E+00 -0.00000000000E+00 -0.45593999997E+02  0.45594000000E+02  0.51100000000E-03 0. -1.
    9900012    2    1    2    0    0 -0.70909460439E+01 -0.15106997742E+02  0.84956574400E+01  0.72461572366E+02  0.70000002699E+02 0.  0.
        -12    1    1    2    0    0  0.70909460439E+01  0.15106997742E+02 -0.84956574400E+01  0.18726427634E+02  0.00000000000E+00 0.  1.
         11    1    3    3    0    0  0.79134393229E+01  0.12224768041E+02 -0.17502753520E+02  0.22768703446E+02  0.51100000000E-03 0. -1.
        -11    1    3    3    0    0  0.44977892463E+00  0.39827187756E+01 -0.24098119192E+01  0.46767022220E+01  0.51100000000E-03 0.  1.
        -12    1    3    3    0    0 -0.15454164291E+02 -0.31314484559E+02  0.28408222879E+02  0.45016166699E+02  0.00000000000E+00 0.  1.
</event>
<event>
 7    1  0.2577508E-013  0.7246151E+02  0.7816164E-02  0.1226708E+00
        -11   -1    0    0    0    0  0.00000000000E+00  0.00000000000E+00  0.45593999997E+02  0.45594000000E+02  0.51100000000E-03 0.  1.
         11   -1    0    0    0    0 -0.00000000000E+00 -0.00000000000E+00 -0.45593999997E+02  0.45594000000E+02  0.51100000000E-03 0. -1.
    9900012    2    1    2    0    0  0.83541014129E+01 -0.14930677919E+02 -0.76134817799E+01  0.72461514522E+02  0.69999927346E+02 0.  0.
        -12    1    1    2    0    0 -0.83541014129E+01  0.14930677919E+02  0.76134817799E+01  0.18726485478E+02  0.00000000000E+00 0.  1.
         11    1    3    3    0    0 -0.89329401176E+01  0.18044283705E+01  0.18597301919E+02  0.20710215350E+02  0.51100000000E-03 0. -1.
        -11    1    3    3    0    0  0.62002873443E+01  0.94500449914E+01  0.22447285174E+01  0.11523268628E+02  0.51100000000E-03 0.  1.
         12    1    3    3    0    0  0.11086754186E+02 -0.26185151281E+02 -0.28455512217E+02  0.40228030545E+02  0.00000000000E+00 0. -1.
</event>
<event>
 7    1  0.2577508E-013  0.7246153E+02  0.7816164E-02  0.1226708E+00
        -11   -1    0    0    0    0  0.00000000000E+00  0.00000000000E+00  0.45593999997E+02  0.45594000000E+02  0.51100000000E-03 0. -1.
         11   -1    0    0    0    0 -0.00000000000E+00 -0.00000000000E+00 -0.45593999997E+02  0.45594000000E+02  0.51100000000E-03 0.  1.
    9900012    2    1    2    0    0 -0.18718799401E+02  0.42458653953E+00  0.32727783222E+00  0.72461525812E+02  0.69999942053E+02 0.  0.
        -12    1    1    2    0    0  0.18718799401E+02 -0.42458653953E+00 -0.32727783222E+00  0.18726474188E+02  0.00000000000E+00 0.  1.
         11    1    3    3    0    0 -0.11817316104E+02  0.58676402531E+01 -0.52135248736E+01  0.14186578302E+02  0.51100000000E-03 0. -1.
        -11    1    3    3    0    0 -0.25761212783E+02  0.80669731511E+01 -0.11649151998E+02  0.29401001384E+02  0.51100000000E-03 0.  1.
        -12    1    3    3    0    0  0.18859729486E+02 -0.13510026865E+02  0.17189954703E+02  0.28873946126E+02  0.00000000000E+00 0.  1.
</event>
<event>
 7    1  0.2577508E-013  0.7246149E+02  0.7816164E-02  0.1226708E+00
        -11   -1    0    0    0    0  0.00000000000E+00  0.00000000000E+00  0.45593999997E+02  0.45594000000E+02  0.51100000000E-03 0.  1.
         11   -1    0    0    0    0 -0.00000000000E+00 -0.00000000000E+00 -0.45593999997E+02  0.45594000000E+02  0.51100000000E-03 0. -1.
    9900012    2    1    2    0    0  0.98424119323E+01 -0.14243191701E+02 -0.71372556752E+01  0.72461494692E+02  0.69999901514E+02 0.  0.
        -12    1    1    2    0    0 -0.98424119323E+01  0.14243191701E+02  0.71372556752E+01  0.18726505308E+02  0.00000000000E+00 0.  1.
         11    1    3    3    0    0  0.87855907515E+01 -0.14192485341E+02  0.14032281241E+01  0.16750590868E+02  0.51100000000E-03 0. -1.
        -11    1    3    3    0    0 -0.13468834944E+02 -0.67793831703E+01  0.18756502409E+02  0.24066074333E+02  0.51100000000E-03 0.  1.
         12    1    3    3    0    0  0.14525656124E+02  0.67286768102E+01 -0.27296986208E+02  0.31644829491E+02  0.00000000000E+00 0. -1.
</event>
<event>
 7    1  0.2577508E-013  0.7246157E+02  0.7816164E-02  0.1226708E+00
        -11   -1    0    0    0    0  0.00000000000E+00  0.00000000000E+00  0.45593999997E+02  0.45594000000E+02  0.51100000000E-03 0. -1.
         11   -1    0    0    0    0 -0.00000000000E+00 -0.00000000000E+00 -0.45593999997E+02  0.45594000000E+02  0.51100000000E-03 0.  1.
    9900012    2    1    2    0    0  0.18454207805E+02  0.30001497533E+01  0.10585792213E+01  0.72461567499E+02  0.69999996358E+02 0.  0.
        -12    1    1    2    0    0 -0.18454207805E+02 -0.30001497533E+01 -0.10585792213E+01  0.18726432501E+02  0.00000000000E+00 0.  1.
         11    1    3    3    0    0  0.25518130467E+01  0.20251651928E+01 -0.52749834185E+01  0.61998785641E+01  0.51100000000E-03 0. -1.
        -11    1    3    3    0    0  0.13404141077E+02 -0.11357903620E+02 -0.26105813077E+02  0.31467228180E+02  0.51100000000E-03 0.  1.
         12    1    3    3    0    0  0.24982536809E+01  0.12332888180E+02  0.32439375717E+02  0.34794460755E+02  0.00000000000E+00 0. -1.
</event>
<event>
 7    1  0.2577508E-013  0.7246161E+02  0.7816164E-02  0.1226708E+00
        -11   -1    0    0    0    0  0.00000000000E+00  0.00000000000E+00  0.45593999997E+02  0.45594000000E+02  0.51100000000E-03 0.  1.
         11   -1    0    0    0    0 -0.00000000000E+00 -0.00000000000E+00 -0.45593999997E+02  0.45594000000E+02  0.51100000000E-03 0. -1.
    9900012    2    1    2    0    0 -0.13822373574E+02 -0.24728899520E+01 -0.12389690678E+02  0.72461611372E+02  0.70000053511E+02 0.  0.
        -12    1    1    2    0    0  0.13822373574E+02  0.24728899520E+01  0.12389690678E+02  0.18726388628E+02  0.00000000000E+00 0.  1.
         11    1    3    3    0    0 -0.10665000733E+02 -0.14619464598E+02 -0.26043867184E+02  0.31713624894E+02  0.51100000000E-03 0. -1.
        -11    1    3    3    0    0  0.91610671538E+00 -0.12933697557E+02  0.51921209147E+01  0.13967029171E+02  0.51100000000E-03 0.  1.
        -12    1    3    3    0    0 -0.40734795570E+01  0.25080272203E+02  0.84620555907E+01  0.26780957307E+02  0.00000000000E+00 0.  1.
</event>
<event>
 7    1  0.2577508E-013  0.7246156E+02  0.7816164E-02  0.1226708E+00
        -11   -1    0    0    0    0  0.00000000000E+00  0.00000000000E+00  0.45593999997E+02  0.45594000000E+02  0.51100000000E-03 0. -1.
         11   -1    0    0    0    0 -0.00000000000E+00 -0.00000000000E+00 -0.45593999997E+02  0.45594000000E+02  0.51100000000E-03 0.  1.
    9900012    2    1    2    0    0 -0.17312927519E+02 -0.11352623239E+01 -0.70465052064E+01  0.72461561058E+02  0.69999987968E+02 0.  0.
        -12    1    1    2    0    0  0.17312927519E+02  0.11352623239E+01  0.70465052064E+01  0.18726438942E+02  0.00000000000E+00 0.  1.
         11    1    3    3    0    0  0.18662778375E+02 -0.15476913124E+02 -0.43178028154E+01  0.24626765073E+02  0.51100000000E-03 0. -1.
        -11    1    3    3    0    0 -0.17375261088E+02  0.12694624064E+02 -0.14327880894E+02  0.25852298721E+02  0.51100000000E-03 0.  1.
        -12    1    3    3    0    0 -0.18600444805E+02  0.16470267369E+01  0.11599178503E+02  0.21982497264E+02  0.00000000000E+00 0.  1.
</event>
<event>
 7    1  0.2577508E-013  0.7246157E+02  0.7816164E-02  0.1226708E+00
        -11   -1    0    0    0    0  0.00000000000E+00  0.00000000000E+00  0.45593999997E+02  0.45594000000E+02  0.51100000000E-03 0. -1.
         11   -1    0    0    0    0 -0.00000000000E+00 -0.00000000000E+00 -0.45593999997E+02  0.45594000000E+02  0.51100000000E-03 0.  1.
    9900012    2    1    2    0    0  0.11051640495E+02  0.77893506877E+01  0.12956331103E+02  0.72461567948E+02  0.69999996943E+02 0.  0.
        -12    1    1    2    0    0 -0.11051640495E+02 -0.77893506877E+01 -0.12956331103E+02  0.18726432052E+02  0.00000000000E+00 0.  1.
         11    1    3    3    0    0 -0.41612730140E+01  0.29454137037E+01  0.20283962460E+02  0.20914846122E+02  0.51100000000E-03 0. -1.
        -11    1    3    3    0    0  0.83057236345E+01  0.14834343702E+02  0.17195193604E+02  0.24180932189E+02  0.51100000000E-03 0.  1.
         12    1    3    3    0    0  0.69071898741E+01 -0.99904067179E+01 -0.24522824962E+02  0.27365789637E+02  0.00000000000E+00 0. -1.
</event>
<event>
 7    1  0.2577508E-013  0.7246156E+02  0.7816164E-02  0.1226708E+00
        -11   -1    0    0    0    0  0.00000000000E+00  0.00000000000E+00  0.45593999997E+02  0.45594000000E+02  0.51100000000E-03 0.  1.
         11   -1    0    0    0    0 -0.00000000000E+00 -0.00000000000E+00 -0.45593999997E+02  0.45594000000E+02  0.51100000000E-03 0. -1.
    9900012    2    1    2    0    0  0.61052164549E+01 -0.17126379770E+02 -0.44825180865E+01  0.72461560927E+02  0.69999987797E+02 0.  0.
        -12    1    1    2    0    0 -0.61052164549E+01  0.17126379770E+02  0.44825180865E+01  0.18726439073E+02  0.00000000000E+00 0.  1.
         11    1    3    3    0    0 -0.61557621270E+00 -0.20397410620E+02 -0.23582045701E+01  0.20542502845E+02  0.51100000000E-03 0. -1.
        -11    1    3    3    0    0  0.21430130855E+02  0.65328344075E+01  0.16601591131E+02  0.27884426876E+02  0.51100000000E-03 0.  1.
         12    1    3    3    0    0 -0.14709338187E+02 -0.32618035569E+01 -0.18725904647E+02  0.24034631206E+02  0.00000000000E+00 0. -1.
</event>
<event>
 7    1  0.2577508E-013  0.7246156E+02  0.7816164E-02  0.1226708E+00
        -11   -1    0    0    0    0  0.00000000000E+00  0.00000000000E+00  0.45593999997E+02  0.45594000000E+02  0.51100000000E-03 0.  1.
         11   -1    0    0    0    0 -0.00000000000E+00 -0.00000000000E+00 -0.45593999997E+02  0.45594000000E+02  0.51100000000E-03 0. -1.
    9900012    2    1    2    0    0 -0.17635964184E+02  0.62523300998E+01  0.74868331906E+00  0.72461564379E+02  0.69999992294E+02 0.  0.
        -12    1    1    2    0    0  0.17635964184E+02 -0.62523300998E+01 -0.74868331906E+00  0.18726435621E+02  0.00000000000E+00 0.  1.
         11    1    3    3    0    0 -0.80425393332E+01  0.18526909719E+02 -0.11076069824E+02  0.23034933160E+02  0.51100000000E-03 0. -1.
        -11    1    3    3    0    0 -0.24745216567E+02  0.25044378780E+01  0.13309172469E+02  0.28208722483E+02  0.51100000000E-03 0.  1.
         12    1    3    3    0    0  0.15151791716E+02 -0.14779017497E+02 -0.14844193258E+01  0.21217908736E+02  0.00000000000E+00 0. -1.
</event>
<event>
 7    1  0.2577508E-013  0.7246158E+02  0.7816164E-02  0.1226708E+00
        -11   -1    0    0    0    0  0.00000000000E+00  0.00000000000E+00  0.45593999997E+02  0.45594000000E+02  0.51100000000E-03 0.  1.
         11   -1    0    0    0    0 -0.00000000000E+00 -0.00000000000E+00 -0.45593999997E+02  0.45594000000E+02  0.51100000000E-03 0. -1.
    9900012    2    1    2    0    0  0.92768932436E+01 -0.10796536145E+02 -0.12167699701E+02  0.72461578638E+02  0.70000010870E+02 0.  0.
        -12    1    1    2    0    0 -0.92768932436E+01  0.10796536145E+02  0.12167699701E+02  0.18726421362E+02  0.00000000000E+00 0.  1.
         11    1    3    3    0    0  0.89156689128E+01 -0.14517427799E+02 -0.18341858572E+02  0.25033350518E+02  0.51100000000E-03 0. -1.
        -11    1    3    3    0    0  0.79269996608E+01 -0.12891236228E+02 -0.13721163469E+02  0.20427717012E+02  0.51100000000E-03 0.  1.
        -12    1    3    3    0    0 -0.75657753300E+01  0.16612127881E+02  0.19895322340E+02  0.27000511108E+02  0.00000000000E+00 0.  1.
</event>
<event>
 7    1  0.2577508E-013  0.7246158E+02  0.7816164E-02  0.1226708E+00
        -11   -1    0    0    0    0  0.00000000000E+00  0.00000000000E+00  0.45593999997E+02  0.45594000000E+02  0.51100000000E-03 0. -1.
         11   -1    0    0    0    0 -0.00000000000E+00 -0.00000000000E+00 -0.45593999997E+02  0.45594000000E+02  0.51100000000E-03 0.  1.
    9900012    2    1    2    0    0 -0.13180783840E+02  0.64717334827E+01  0.11621630605E+02  0.72461582969E+02  0.70000016511E+02 0.  0.
        -12    1    1    2    0    0  0.13180783840E+02 -0.64717334827E+01 -0.11621630605E+02  0.18726417031E+02  0.00000000000E+00 0.  1.
         11    1    3    3    0    0 -0.27695180753E+02  0.14643709778E+01  0.44038636909E+01  0.28081336061E+02  0.51100000000E-03 0.  1.
        -11    1    3    3    0    0 -0.10297045876E+01  0.11844603390E+02 -0.13238786839E+02  0.17793830341E+02  0.51100000000E-03 0. -1.
         12    1    3    3    0    0  0.15544101501E+02 -0.68372408846E+01  0.20456553753E+02  0.26586416566E+02  0.00000000000E+00 0. -1.
</event>
<event>
 7    1  0.2577508E-013  0.7246155E+02  0.7816164E-02  0.1226708E+00
        -11   -1    0    0    0    0  0.00000000000E+00  0.00000000000E+00  0.45593999997E+02  0.45594000000E+02  0.51100000000E-03 0.  1.
         11   -1    0    0    0    0 -0.00000000000E+00 -0.00000000000E+00 -0.45593999997E+02  0.45594000000E+02  0.51100000000E-03 0. -1.
    9900012    2    1    2    0    0  0.10799391614E+02 -0.14388378992E+02 -0.51988234809E+01  0.72461546122E+02  0.69999968512E+02 0.  0.
        -12    1    1    2    0    0 -0.10799391614E+02  0.14388378992E+02  0.51988234809E+01  0.18726453878E+02  0.00000000000E+00 0.  1.
         11    1    3    3    0    0  0.15110250866E+02  0.18286256311E+01 -0.57506832946E+01  0.16270645701E+02  0.51100000000E-03 0. -1.
        -11    1    3    3    0    0  0.15064249114E+02 -0.24926954198E+02  0.12639605543E+02  0.31749712999E+02  0.51100000000E-03 0.  1.
         12    1    3    3    0    0 -0.19375108366E+02  0.87099495756E+01 -0.12087745729E+02  0.24441187422E+02  0.00000000000E+00 0. -1.
</event>
<event>
 7    1  0.2577508E-013  0.7246159E+02  0.7816164E-02  0.1226708E+00
        -11   -1    0    0    0    0  0.00000000000E+00  0.00000000000E+00  0.45593999997E+02  0.45594000000E+02  0.51100000000E-03 0.  1.
         11   -1    0    0    0    0 -0.00000000000E+00 -0.00000000000E+00 -0.45593999997E+02  0.45594000000E+02  0.51100000000E-03 0. -1.
    9900012    2    1    2    0    0  0.10290530919E+02  0.12470587824E+02  0.94481671716E+01  0.72461589501E+02  0.70000025020E+02 0.  0.
        -12    1    1    2    0    0 -0.10290530919E+02 -0.12470587824E+02 -0.94481671716E+01  0.18726410499E+02  0.00000000000E+00 0.  1.
         11    1    3    3    0    0  0.31906769573E+01  0.13257132513E+02 -0.16110619950E+02  0.21106493250E+02  0.51100000000E-03 0. -1.
        -11    1    3    3    0    0 -0.15183402202E+02  0.75121749142E+01  0.69951863748E+00  0.16954580530E+02  0.51100000000E-03 0.  1.
        -12    1    3    3    0    0  0.22283256164E+02 -0.82987196025E+01  0.24859268484E+02  0.34400515721E+02  0.00000000000E+00 0.  1.
</event>
<event>
 7    1  0.2577508E-013  0.7246152E+02  0.7816164E-02  0.1226708E+00
        -11   -1    0    0    0    0  0.00000000000E+00  0.00000000000E+00  0.45593999997E+02  0.45594000000E+02  0.51100000000E-03 0.  1.
         11   -1    0    0    0    0 -0.00000000000E+00 -0.00000000000E+00 -0.45593999997E+02  0.45594000000E+02  0.51100000000E-03 0. -1.
    9900012    2    1    2    0    0  0.24598334607E+01  0.14495172841E+02 -0.11598287965E+02  0.72461518748E+02  0.69999932852E+02 0.  0.
        -12    1    1    2    0    0 -0.24598334607E+01 -0.14495172841E+02  0.11598287965E+02  0.18726481252E+02  0.00000000000E+00 0.  1.
         11    1    3    3    0    0  0.48156187935E+01  0.38690157019E+01 -0.22298276465E+02  0.23138120071E+02  0.51100000000E-03 0. -1.
        -11    1    3    3    0    0 -0.75930001397E+01 -0.16117039852E+02 -0.41439290991E+01  0.18291658573E+02  0.51100000000E-03 0.  1.
         12    1    3    3    0    0  0.52372148069E+01  0.26743196991E+02  0.14843917599E+02  0.31031740104E+02  0.00000000000E+00 0. -1.
</event>
<event>
 7    1  0.2577508E-013  0.7246157E+02  0.7816164E-02  0.1226708E+00
        -11   -1    0    0    0    0  0.00000000000E+00  0.00000000000E+00  0.45593999997E+02  0.45594000000E+02  0.51100000000E-03 0. -1.
         11   -1    0    0    0    0 -0.00000000000E+00 -0.00000000000E+00 -0.45593999997E+02  0.45594000000E+02  0.51100000000E-03 0.  1.
    9900012    2    1    2    0    0 -0.25668492466E+01  0.99418479384E+01  0.15660460076E+02  0.72461573078E+02  0.70000003626E+02 0.  0.
        -12    1    1    2    0    0  0.25668492466E+01 -0.99418479384E+01 -0.15660460076E+02  0.18726426922E+02  0.00000000000E+00 0.  1.
         11    1    3    3    0    0 -0.86450643772E+01  0.25430080724E+02  0.20619025132E+02  0.33861044600E+02  0.51100000000E-03 0. -1.
        -11    1    3    3    0    0  0.19027491176E+02 -0.31950882023E+01  0.20852555570E+01  0.19406243843E+02  0.51100000000E-03 0.  1.
        -12    1    3    3    0    0 -0.12949276045E+02 -0.12293144583E+02 -0.70438206131E+01  0.19194284636E+02  0.00000000000E+00 0.  1.
</event>
<event>
 7    1  0.2577508E-013  0.7246154E+02  0.7816164E-02  0.1226708E+00
        -11   -1    0    0    0    0  0.00000000000E+00  0.00000000000E+00  0.45593999997E+02  0.45594000000E+02  0.51100000000E-03 0.  1.
         11   -1    0    0    0    0 -0.00000000000E+00 -0.00000000000E+00 -0.45593999997E+02  0.45594000000E+02  0.51100000000E-03 0. -1.
    9900012    2    1    2    0    0 -0.16505615318E+02 -0.15047022660E+01 -0.87167033203E+01  0.72461537902E+02  0.69999957803E+02 0.  0.
        -12    1    1    2    0    0  0.16505615318E+02  0.15047022660E+01  0.87167033203E+01  0.18726462098E+02  0.00000000000E+00 0.  1.
         11    1    3    3    0    0 -0.30178138175E+01  0.18811730000E+02  0.23743028183E+01  0.19199627600E+02  0.51100000000E-03 0. -1.
        -11    1    3    3    0    0 -0.18786489848E+02  0.93569034552E+01 -0.96089101347E+01  0.23082785735E+02  0.51100000000E-03 0.  1.
         12    1    3    3    0    0  0.52986883473E+01 -0.29673335721E+02 -0.14820960039E+01  0.30179124567E+02  0.00000000000E+00 0. -1.
</event>
<event>
 7    1  0.2577508E-013  0.7246160E+02  0.7816164E-02  0.1226708E+00
        -11   -1    0    0    0    0  0.00000000000E+00  0.00000000000E+00  0.45593999997E+02  0.45594000000E+02  0.51100000000E-03 0.  1.
         11   -1    0    0    0    0 -0.00000000000E+00 -0.00000000000E+00 -0.45593999997E+02  0.45594000000E+02  0.51100000000E-03 0. -1.
    9900012    2    1    2    0    0 -0.79372691049E+00  0.18521990097E+02  0.26427460954E+01  0.72461595473E+02  0.70000032800E+02 0.  0.
        -12    1    1    2    0    0  0.79372691049E+00 -0.18521990097E+02 -0.26427460954E+01  0.18726404527E+02  0.00000000000E+00 0.  1.
         11    1    3    3    0    0  0.53532798104E+01 -0.11885483166E+02 -0.24293789894E+02  0.27570102330E+02  0.51100000000E-03 0. -1.
        -11    1    3    3    0    0  0.31726373929E+01  0.26377103011E+01  0.10548920922E+02  0.11327085969E+02  0.51100000000E-03 0.  1.
        -12    1    3    3    0    0 -0.93196441137E+01  0.27769762962E+02  0.16387615067E+02  0.33564407175E+02  0.00000000000E+00 0.  1.
</event>
<event>
 7    1  0.2577508E-013  0.7246139E+02  0.7816164E-02  0.1226709E+00
        -11   -1    0    0    0    0  0.00000000000E+00  0.00000000000E+00  0.45593999997E+02  0.45594000000E+02  0.51100000000E-03 0. -1.
         11   -1    0    0    0    0 -0.00000000000E+00 -0.00000000000E+00 -0.45593999997E+02  0.45594000000E+02  0.51100000000E-03 0.  1.
    9900012    2    1    2    0    0  0.10232020969E+01 -0.60184840641E+01  0.17703587165E+02  0.72461385478E+02  0.69999759242E+02 0.  0.
        -12    1    1    2    0    0 -0.10232020969E+01  0.60184840641E+01 -0.17703587165E+02  0.18726614522E+02  0.00000000000E+00 0.  1.
         11    1    3    3    0    0 -0.19741969286E+02  0.63746337422E+01  0.23930223216E+02  0.31670757649E+02  0.51100000000E-03 0. -1.
        -11    1    3    3    0    0 -0.25859125211E+01  0.83805216650E+01 -0.34095824965E+01  0.94098533467E+01  0.51100000000E-03 0.  1.
        -12    1    3    3    0    0  0.23351083904E+02 -0.20773639471E+02 -0.28170535547E+01  0.31380774482E+02  0.00000000000E+00 0.  1.
</event>
<event>
 7    1  0.2577508E-013  0.7246157E+02  0.7816164E-02  0.1226708E+00
        -11   -1    0    0    0    0  0.00000000000E+00  0.00000000000E+00  0.45593999997E+02  0.45594000000E+02  0.51100000000E-03 0.  1.
         11   -1    0    0    0    0 -0.00000000000E+00 -0.00000000000E+00 -0.45593999997E+02  0.45594000000E+02  0.51100000000E-03 0. -1.
    9900012    2    1    2    0    0  0.28174659461E+01  0.18442408374E+02 -0.16182676017E+01  0.72461565982E+02  0.69999994383E+02 0.  0.
        -12    1    1    2    0    0 -0.28174659461E+01 -0.18442408374E+02  0.16182676017E+01  0.18726434018E+02  0.00000000000E+00 0.  1.
         11    1    3    3    0    0 -0.17633293966E+01  0.20488076165E+02 -0.16537568637E+02  0.26388667496E+02  0.51100000000E-03 0. -1.
        -11    1    3    3    0    0  0.15250695319E+02 -0.52274623588E+01 -0.98663850934E+01  0.18901206985E+02  0.51100000000E-03 0.  1.
        -12    1    3    3    0    0 -0.10669899977E+02  0.31817945673E+01  0.24785686128E+02  0.27171691501E+02  0.00000000000E+00 0.  1.
</event>
<event>
 7    1  0.2577508E-013  0.7246159E+02  0.7816164E-02  0.1226708E+00
        -11   -1    0    0    0    0  0.00000000000E+00  0.00000000000E+00  0.45593999997E+02  0.45594000000E+02  0.51100000000E-03 0.  1.
         11   -1    0    0    0    0 -0.00000000000E+00 -0.00000000000E+00 -0.45593999997E+02  0.45594000000E+02  0.51100000000E-03 0. -1.
    9900012    2    1    2    0    0 -0.88027548228E+01 -0.24027114368E+01 -0.16352892382E+02  0.72461585394E+02  0.70000019670E+02 0.  0.
        -12    1    1    2    0    0  0.88027548228E+01  0.24027114368E+01  0.16352892382E+02  0.18726414606E+02  0.00000000000E+00 0.  1.
         11    1    3    3    0    0  0.46566055807E+01 -0.11041415896E+02 -0.26030536743E+02  0.28656337587E+02  0.51100000000E-03 0. -1.
        -11    1    3    3    0    0 -0.93942694998E+01  0.18212576736E+02 -0.90351500438E+01  0.22396075268E+02  0.51100000000E-03 0.  1.
        -12    1    3    3    0    0 -0.40650909038E+01 -0.95738722768E+01  0.18712794404E+02  0.21409172540E+02  0.00000000000E+00 0.  1.
</event>
<event>
 7    1  0.2577508E-013  0.7246159E+02  0.7816164E-02  0.1226708E+00
        -11   -1    0    0    0    0  0.00000000000E+00  0.00000000000E+00  0.45593999997E+02  0.45594000000E+02  0.51100000000E-03 0. -1.
         11   -1    0    0    0    0 -0.00000000000E+00 -0.00000000000E+00 -0.45593999997E+02  0.45594000000E+02  0.51100000000E-03 0.  1.
    9900012    2    1    2    0    0  0.13444279560E+02  0.10582750759E+02 -0.76115241782E+01  0.72461586386E+02  0.70000020963E+02 0.  0.
        -12    1    1    2    0    0 -0.13444279560E+02 -0.10582750759E+02  0.76115241782E+01  0.18726413614E+02  0.00000000000E+00 0.  1.
         11    1    3    3    0    0  0.14918438915E+02 -0.90475268090E+01 -0.51620609675E+01  0.18195176139E+02  0.51100000000E-03 0. -1.
        -11    1    3    3    0    0  0.96070064893E+01  0.20299783984E+01 -0.23012107967E+02  0.25019442427E+02  0.51100000000E-03 0.  1.
        -12    1    3    3    0    0 -0.11081165845E+02  0.17600299170E+02  0.20562644757E+02  0.29246967821E+02  0.00000000000E+00 0.  1.
</event>
<event>
 7    1  0.2577508E-013  0.7246159E+02  0.7816164E-02  0.1226708E+00
        -11   -1    0    0    0    0  0.00000000000E+00  0.00000000000E+00  0.45593999997E+02  0.45594000000E+02  0.51100000000E-03 0. -1.
         11   -1    0    0    0    0 -0.00000000000E+00 -0.00000000000E+00 -0.45593999997E+02  0.45594000000E+02  0.51100000000E-03 0.  1.
    9900012    2    1    2    0    0 -0.16254834343E+02 -0.69331296560E+01  0.61960187216E+01  0.72461586186E+02  0.70000020701E+02 0.  0.
        -12    1    1    2    0    0  0.16254834343E+02  0.69331296560E+01 -0.61960187216E+01  0.18726413814E+02  0.00000000000E+00 0.  1.
         11    1    3    3    0    0  0.46577208951E+00  0.14819854264E+02 -0.12347067314E+02  0.19294950001E+02  0.51100000000E-03 0. -1.
        -11    1    3    3    0    0  0.11770645194E+02  0.26115947066E+01  0.21341747873E+01  0.12244313679E+02  0.51100000000E-03 0.  1.
         12    1    3    3    0    0 -0.28491251626E+02 -0.24364578626E+02  0.16408911248E+02  0.40922322505E+02  0.00000000000E+00 0. -1.
</event>
<event>
 7    1  0.2577508E-013  0.7246122E+02  0.7816164E-02  0.1226709E+00
        -11   -1    0    0    0    0  0.00000000000E+00  0.00000000000E+00  0.45593999997E+02  0.45594000000E+02  0.51100000000E-03 0.  1.
         11   -1    0    0    0    0 -0.00000000000E+00 -0.00000000000E+00 -0.45593999997E+02  0.45594000000E+02  0.51100000000E-03 0. -1.
    9900012    2    1    2    0    0  0.45071500476E+01 -0.17909218232E+02 -0.31044761144E+01  0.72461220480E+02  0.69999544301E+02 0.  0.
        -12    1    1    2    0    0 -0.45071500476E+01  0.17909218232E+02  0.31044761144E+01  0.18726779520E+02  0.00000000000E+00 0.  1.
         11    1    3    3    0    0 -0.30640949376E+01 -0.22274371949E+02 -0.17350364077E+01  0.22550979471E+02  0.51100000000E-03 0. -1.
        -11    1    3    3    0    0 -0.64838203827E+01 -0.19919516706E+02 -0.52194481298E+01  0.21588647748E+02  0.51100000000E-03 0.  1.
         12    1    3    3    0    0  0.14055065368E+02  0.24284670423E+02  0.38500084230E+01  0.28321593262E+02  0.00000000000E+00 0. -1.
</event>
<event>
 7    1  0.2577508E-013  0.7246180E+02  0.7816164E-02  0.1226707E+00
        -11   -1    0    0    0    0  0.00000000000E+00  0.00000000000E+00  0.45593999997E+02  0.45594000000E+02  0.51100000000E-03 0.  1.
         11   -1    0    0    0    0 -0.00000000000E+00 -0.00000000000E+00 -0.45593999997E+02  0.45594000000E+02  0.51100000000E-03 0. -1.
    9900012    2    1    2    0    0  0.17204007613E+01  0.17505637467E+02 -0.64236751657E+01  0.72461795778E+02  0.70000293734E+02 0.  0.
        -12    1    1    2    0    0 -0.17204007613E+01 -0.17505637467E+02  0.64236751657E+01  0.18726204222E+02  0.00000000000E+00 0.  1.
         11    1    3    3    0    0 -0.61691913830E+01  0.14924316920E+02  0.58006888268E+01  0.17159316682E+02  0.51100000000E-03 0. -1.
        -11    1    3    3    0    0 -0.84327683705E+01  0.15144943621E+02  0.13769008069E+02  0.22137445271E+02  0.51100000000E-03 0.  1.
         12    1    3    3    0    0  0.16322360515E+02 -0.12563623074E+02 -0.25993372062E+02  0.33165033825E+02  0.00000000000E+00 0. -1.
</event>
<event>
 7    1  0.2577508E-013  0.7246124E+02  0.7816164E-02  0.1226709E+00
        -11   -1    0    0    0    0  0.00000000000E+00  0.00000000000E+00  0.45593999997E+02  0.45594000000E+02  0.51100000000E-03 0.  1.
         11   -1    0    0    0    0 -0.00000000000E+00 -0.00000000000E+00 -0.45593999997E+02  0.45594000000E+02  0.51100000000E-03 0. -1.
    9900012    2    1    2    0    0  0.95113528526E+01  0.67355475963E+01 -0.14658034427E+02  0.72461243533E+02  0.69999574332E+02 0.  0.
        -12    1    1    2    0    0 -0.95113528526E+01 -0.67355475963E+01  0.14658034427E+02  0.18726756467E+02  0.00000000000E+00 0.  1.
         11    1    3    3    0    0  0.46282537110E+01 -0.36309063222E+01  0.11026850646E+02  0.12497825754E+02  0.51100000000E-03 0.  1.
        -11    1    3    3    0    0  0.27833424492E+02  0.13609867524E+02 -0.13829921438E+02  0.33929260826E+02  0.51100000000E-03 0. -1.
         12    1    3    3    0    0 -0.22950325350E+02 -0.32434136051E+01 -0.11854963635E+02  0.26034156953E+02  0.00000000000E+00 0. -1.
</event>
<event>
 7    1  0.2577508E-013  0.7246154E+02  0.7816164E-02  0.1226708E+00
        -11   -1    0    0    0    0  0.00000000000E+00  0.00000000000E+00  0.45593999997E+02  0.45594000000E+02  0.51100000000E-03 0.  1.
         11   -1    0    0    0    0 -0.00000000000E+00 -0.00000000000E+00 -0.45593999997E+02  0.45594000000E+02  0.51100000000E-03 0. -1.
    9900012    2    1    2    0    0 -0.14005429471E+01  0.52925618126E+01 -0.17908308228E+02  0.72461541855E+02  0.69999962952E+02 0.  0.
        -12    1    1    2    0    0  0.14005429471E+01 -0.52925618126E+01  0.17908308228E+02  0.18726458145E+02  0.00000000000E+00 0.  1.
         11    1    3    3    0    0 -0.19721734565E+02  0.39347190345E+01  0.59788498547E+01  0.20980359243E+02  0.51100000000E-03 0. -1.
        -11    1    3    3    0    0  0.51805171677E+01  0.16871757094E+02  0.28648139962E+01  0.17880187500E+02  0.51100000000E-03 0.  1.
        -12    1    3    3    0    0  0.13140674450E+02 -0.15513914316E+02 -0.26751972079E+02  0.33600995112E+02  0.00000000000E+00 0.  1.
</event>
<event>
 7    1  0.2577508E-013  0.7246159E+02  0.7816164E-02  0.1226708E+00
        -11   -1    0    0    0    0  0.00000000000E+00  0.00000000000E+00  0.45593999997E+02  0.45594000000E+02  0.51100000000E-03 0. -1.
         11   -1    0    0    0    0 -0.00000000000E+00 -0.00000000000E+00 -0.45593999997E+02  0.45594000000E+02  0.51100000000E-03 0.  1.
    9900012    2    1    2    0    0 -0.18313366332E+02 -0.86155975520E+00  0.38153238367E+01  0.72461591706E+02  0.70000027892E+02 0.  0.
        -12    1    1    2    0    0  0.18313366332E+02  0.86155975520E+00 -0.38153238367E+01  0.18726408294E+02  0.00000000000E+00 0.  1.
         11    1    3    3    0    0 -0.84571978912E+01 -0.16848306522E+02  0.64609750340E+01  0.19928216867E+02  0.51100000000E-03 0. -1.
        -11    1    3    3    0    0 -0.25165622638E+02 -0.41175505273E+01  0.52972822523E+01  0.26044653667E+02  0.51100000000E-03 0.  1.
        -12    1    3    3    0    0  0.15309454198E+02  0.20104297294E+02 -0.79429334496E+01  0.26488721172E+02  0.00000000000E+00 0.  1.
</event>
<event>
 7    1  0.2577508E-013  0.7246157E+02  0.7816164E-02  0.1226708E+00
        -11   -1    0    0    0    0  0.00000000000E+00  0.00000000000E+00  0.45593999997E+02  0.45594000000E+02  0.51100000000E-03 0. -1.
         11   -1    0    0    0    0 -0.00000000000E+00 -0.00000000000E+00 -0.45593999997E+02  0.45594000000E+02  0.51100000000E-03 0.  1.
    9900012    2    1    2    0    0  0.62619170233E+01  0.65679615070E+01  0.16380761912E+02  0.72461572578E+02  0.70000002975E+02 0.  0.
        -12    1    1    2    0    0 -0.62619170233E+01 -0.65679615070E+01 -0.16380761912E+02  0.18726427422E+02  0.00000000000E+00 0.  1.
         11    1    3    3    0    0  0.13806717001E+02 -0.56331176796E+01 -0.24242433318E+01  0.15107428806E+02  0.51100000000E-03 0. -1.
        -11    1    3    3    0    0 -0.99639253879E+01 -0.16266004752E+02 -0.54917834821E+01  0.19849997627E+02  0.51100000000E-03 0.  1.
         12    1    3    3    0    0  0.24191254101E+01  0.28467083938E+02  0.24296788726E+02  0.37504146145E+02  0.00000000000E+00 0. -1.
</event>
<event>
 7    1  0.2577508E-013  0.7246159E+02  0.7816164E-02  0.1226708E+00
        -11   -1    0    0    0    0  0.00000000000E+00  0.00000000000E+00  0.45593999997E+02  0.45594000000E+02  0.51100000000E-03 0.  1.
         11   -1    0    0    0    0 -0.00000000000E+00 -0.00000000000E+00 -0.45593999997E+02  0.45594000000E+02  0.51100000000E-03 0. -1.
    9900012    2    1    2    0    0  0.88798259881E+01  0.43975138467E+01 -0.15889899934E+02  0.72461591975E+02  0.70000028243E+02 0.  0.
        -12    1    1    2    0    0 -0.88798259881E+01 -0.43975138467E+01  0.15889899934E+02  0.18726408025E+02  0.00000000000E+00 0.  1.
         11    1    3    3    0    0 -0.59559391901E+01  0.77974439534E+01  0.13067644166E+02  0.16341256627E+02  0.51100000000E-03 0. -1.
        -11    1    3    3    0    0  0.10079361603E+02  0.20708864676E+02 -0.17920032369E+02  0.29181812262E+02  0.51100000000E-03 0.  1.
         12    1    3    3    0    0  0.47564035750E+01 -0.24108794783E+02 -0.11037511731E+02  0.26938523086E+02  0.00000000000E+00 0. -1.
</event>
<event>
 7    1  0.2577508E-013  0.7246161E+02  0.7816164E-02  0.1226708E+00
        -11   -1    0    0    0    0  0.00000000000E+00  0.00000000000E+00  0.45593999997E+02  0.45594000000E+02  0.51100000000E-03 0. -1.
         11   -1    0    0    0    0 -0.00000000000E+00 -0.00000000000E+00 -0.45593999997E+02  0.45594000000E+02  0.51100000000E-03 0.  1.
    9900012    2    1    2    0    0  0.67726034741E+01  0.10873621598E+02  0.13659208034E+02  0.72461607699E+02  0.70000048727E+02 0.  0.
        -12    1    1    2    0    0 -0.67726034741E+01 -0.10873621598E+02 -0.13659208034E+02  0.18726392301E+02  0.00000000000E+00 0.  1.
         11    1    3    3    0    0  0.11706993405E+02  0.33080756764E+01  0.30274081215E+02  0.32626937536E+02  0.51100000000E-03 0. -1.
        -11    1    3    3    0    0  0.32393809090E+01 -0.11322806808E+02  0.21635182609E+01  0.11974153590E+02  0.51100000000E-03 0.  1.
        -12    1    3    3    0    0 -0.81737708401E+01  0.18888352729E+02 -0.18778391442E+02  0.27860516573E+02  0.00000000000E+00 0.  1.
</event>
<event>
 7    1  0.2577508E-013  0.7246160E+02  0.7816164E-02  0.1226708E+00
        -11   -1    0    0    0    0  0.00000000000E+00  0.00000000000E+00  0.45593999997E+02  0.45594000000E+02  0.51100000000E-03 0.  1.
         11   -1    0    0    0    0 -0.00000000000E+00 -0.00000000000E+00 -0.45593999997E+02  0.45594000000E+02  0.51100000000E-03 0. -1.
    9900012    2    1    2    0    0  0.18579779698E+02  0.16042593772E+01  0.17018727930E+01  0.72461595306E+02  0.70000032582E+02 0.  0.
        -12    1    1    2    0    0 -0.18579779698E+02 -0.16042593772E+01 -0.17018727930E+01  0.18726404694E+02  0.00000000000E+00 0.  1.
         11    1    3    3    0    0  0.26261297854E+02 -0.16151629863E+02 -0.21517621632E+02  0.37597060433E+02  0.51100000000E-03 0. -1.
        -11    1    3    3    0    0  0.18052810414E+01  0.12552879721E+02  0.49146842036E+01  0.13601027535E+02  0.51100000000E-03 0.  1.
        -12    1    3    3    0    0 -0.94867991976E+01  0.52030095195E+01  0.18304810222E+02  0.21263507338E+02  0.00000000000E+00 0.  1.
</event>
<event>
 7    1  0.2577508E-013  0.7246166E+02  0.7816164E-02  0.1226708E+00
        -11   -1    0    0    0    0  0.00000000000E+00  0.00000000000E+00  0.45593999997E+02  0.45594000000E+02  0.51100000000E-03 0.  1.
         11   -1    0    0    0    0 -0.00000000000E+00 -0.00000000000E+00 -0.45593999997E+02  0.45594000000E+02  0.51100000000E-03 0. -1.
    9900012    2    1    2    0    0  0.15029258433E+02 -0.54041053556E+01  0.97771664967E+01  0.72461656298E+02  0.70000112036E+02 0.  0.
        -12    1    1    2    0    0 -0.15029258433E+02  0.54041053556E+01 -0.97771664967E+01  0.18726343702E+02  0.00000000000E+00 0.  1.
         11    1    3    3    0    0 -0.61427190454E+01 -0.79260462978E+01  0.74766288143E+01  0.12508204742E+02  0.51100000000E-03 0. -1.
        -11    1    3    3    0    0 -0.93845573153E+01 -0.18591740467E+02  0.81312249389E+01  0.22357091691E+02  0.51100000000E-03 0.  1.
         12    1    3    3    0    0  0.30556534793E+02  0.21113681409E+02 -0.58306872564E+01  0.37596359865E+02  0.00000000000E+00 0. -1.
</event>
<event>
 7    1  0.2577508E-013  0.7246158E+02  0.7816164E-02  0.1226708E+00
        -11   -1    0    0    0    0  0.00000000000E+00  0.00000000000E+00  0.45593999997E+02  0.45594000000E+02  0.51100000000E-03 0.  1.
         11   -1    0    0    0    0 -0.00000000000E+00 -0.00000000000E+00 -0.45593999997E+02  0.45594000000E+02  0.51100000000E-03 0. -1.
    9900012    2    1    2    0    0  0.99218605607E+01  0.15866221038E+02  0.70617551392E+00  0.72461575599E+02  0.70000006910E+02 0.  0.
        -12    1    1    2    0    0 -0.99218605607E+01 -0.15866221038E+02 -0.70617551392E+00  0.18726424401E+02  0.00000000000E+00 0.  1.
         11    1    3    3    0    0 -0.22318413223E+02 -0.74803068913E+01 -0.15654330937E+01  0.23590615529E+02  0.51100000000E-03 0. -1.
        -11    1    3    3    0    0  0.14096894729E+02 -0.41345116073E+01 -0.42673531897E+01  0.15297938775E+02  0.51100000000E-03 0.  1.
        -12    1    3    3    0    0  0.18143379054E+02  0.27481039536E+02  0.65389617974E+01  0.33573021295E+02  0.00000000000E+00 0.  1.
</event>
<event>
 7    1  0.2577508E-013  0.7246157E+02  0.7816164E-02  0.1226708E+00
        -11   -1    0    0    0    0  0.00000000000E+00  0.00000000000E+00  0.45593999997E+02  0.45594000000E+02  0.51100000000E-03 0.  1.
         11   -1    0    0    0    0 -0.00000000000E+00 -0.00000000000E+00 -0.45593999997E+02  0.45594000000E+02  0.51100000000E-03 0. -1.
    9900012    2    1    2    0    0  0.10478081925E+02  0.52730033309E+01 -0.14597406275E+02  0.72461573889E+02  0.70000004682E+02 0.  0.
        -12    1    1    2    0    0 -0.10478081925E+02 -0.52730033309E+01  0.14597406275E+02  0.18726426111E+02  0.00000000000E+00 0.  1.
         11    1    3    3    0    0 -0.64739459121E+01 -0.10709851609E+02  0.36893389877E+01  0.13046996574E+02  0.51100000000E-03 0. -1.
        -11    1    3    3    0    0 -0.12514164312E+02  0.12785006395E+02  0.81861673407E+01  0.19674197136E+02  0.51100000000E-03 0.  1.
        -12    1    3    3    0    0  0.29466192149E+02  0.31978485449E+01 -0.26472912603E+02  0.39740380179E+02  0.00000000000E+00 0.  1.
</event>
<event>
 7    1  0.2577508E-013  0.7246177E+02  0.7816164E-02  0.1226707E+00
        -11   -1    0    0    0    0  0.00000000000E+00  0.00000000000E+00  0.45593999997E+02  0.45594000000E+02  0.51100000000E-03 0.  1.
         11   -1    0    0    0    0 -0.00000000000E+00 -0.00000000000E+00 -0.45593999997E+02  0.45594000000E+02  0.51100000000E-03 0. -1.
    9900012    2    1    2    0    0  0.13507381927E+02 -0.42545984394E+01 -0.12252379452E+02  0.72461767687E+02  0.70000257140E+02 0.  0.
        -12    1    1    2    0    0 -0.13507381927E+02  0.42545984394E+01  0.12252379452E+02  0.18726232313E+02  0.00000000000E+00 0.  1.
         11    1    3    3    0    0  0.94871839530E+00  0.36398368083E+01 -0.11883340780E+02  0.12464440097E+02  0.51100000000E-03 0. -1.
        -11    1    3    3    0    0 -0.22046735308E+01  0.24235230481E+02 -0.31043449556E+01  0.24532507816E+02  0.51100000000E-03 0.  1.
        -12    1    3    3    0    0  0.14763337063E+02 -0.32129665729E+02  0.27353062832E+01  0.35464819773E+02  0.00000000000E+00 0.  1.
</event>
<event>
 7    1  0.2577508E-013  0.7246158E+02  0.7816164E-02  0.1226708E+00
        -11   -1    0    0    0    0  0.00000000000E+00  0.00000000000E+00  0.45593999997E+02  0.45594000000E+02  0.51100000000E-03 0.  1.
         11   -1    0    0    0    0 -0.00000000000E+00 -0.00000000000E+00 -0.45593999997E+02  0.45594000000E+02  0.51100000000E-03 0. -1.
    9900012    2    1    2    0    0 -0.56631748977E+01  0.63391568947E+01 -0.16685994252E+02  0.72461578446E+02  0.70000010619E+02 0.  0.
        -12    1    1    2    0    0  0.56631748977E+01 -0.63391568947E+01  0.16685994252E+02  0.18726421554E+02  0.00000000000E+00 0.  1.
         11    1    3    3    0    0  0.11663915566E+02  0.22710229626E+02  0.99496564831E+01  0.27400677371E+02  0.51100000000E-03 0. -1.
        -11    1    3    3    0    0 -0.43154558114E-01 -0.76664796025E+01  0.41350541767E+01  0.87106512453E+01  0.51100000000E-03 0.  1.
        -12    1    3    3    0    0 -0.17283935905E+02 -0.87045931289E+01 -0.30770704912E+02  0.36350249830E+02  0.00000000000E+00 0.  1.
</event>
<event>
 7    1  0.2577508E-013  0.7246156E+02  0.7816164E-02  0.1226708E+00
        -11   -1    0    0    0    0  0.00000000000E+00  0.00000000000E+00  0.45593999997E+02  0.45594000000E+02  0.51100000000E-03 0.  1.
         11   -1    0    0    0    0 -0.00000000000E+00 -0.00000000000E+00 -0.45593999997E+02  0.45594000000E+02  0.51100000000E-03 0. -1.
    9900012    2    1    2    0    0  0.10929691414E+02 -0.97124503678E+01 -0.11699982690E+02  0.72461563032E+02  0.69999990540E+02 0.  0.
        -12    1    1    2    0    0 -0.10929691414E+02  0.97124503678E+01  0.11699982690E+02  0.18726436968E+02  0.00000000000E+00 0.  1.
         11    1    3    3    0    0  0.40968131932E+01  0.23752901463E+01 -0.26372617308E+02  0.26794417805E+02  0.51100000000E-03 0. -1.
        -11    1    3    3    0    0  0.19375121249E+02  0.41030645916E+01 -0.10725292591E+01  0.19833829225E+02  0.51100000000E-03 0.  1.
        -12    1    3    3    0    0 -0.12542243028E+02 -0.16190805106E+02  0.15745163877E+02  0.25833316002E+02  0.00000000000E+00 0.  1.
</event>
<event>
 7    1  0.2577508E-013  0.7246159E+02  0.7816164E-02  0.1226708E+00
        -11   -1    0    0    0    0  0.00000000000E+00  0.00000000000E+00  0.45593999997E+02  0.45594000000E+02  0.51100000000E-03 0. -1.
         11   -1    0    0    0    0 -0.00000000000E+00 -0.00000000000E+00 -0.45593999997E+02  0.45594000000E+02  0.51100000000E-03 0.  1.
    9900012    2    1    2    0    0  0.14416577299E+02  0.11950417203E+02  0.16767976960E+00  0.72461593809E+02  0.70000030632E+02 0.  0.
        -12    1    1    2    0    0 -0.14416577299E+02 -0.11950417203E+02 -0.16767976960E+00  0.18726406191E+02  0.00000000000E+00 0.  1.
         11    1    3    3    0    0  0.83027663665E+01 -0.20520948633E+01  0.10597945484E+01  0.86180152826E+01  0.51100000000E-03 0. -1.
        -11    1    3    3    0    0  0.19844192573E+02 -0.17284896517E+02  0.97381816856E+01  0.28060502655E+02  0.51100000000E-03 0.  1.
         12    1    3    3    0    0 -0.13730381641E+02  0.31287408583E+02 -0.10630296464E+02  0.35783075871E+02  0.00000000000E+00 0. -1.
</event>
<event>
 7    1  0.2577508E-013  0.7246152E+02  0.7816164E-02  0.1226708E+00
        -11   -1    0    0    0    0  0.00000000000E+00  0.00000000000E+00  0.45593999997E+02  0.45594000000E+02  0.51100000000E-03 0. -1.
         11   -1    0    0    0    0 -0.00000000000E+00 -0.00000000000E+00 -0.45593999997E+02  0.45594000000E+02  0.51100000000E-03 0.  1.
    9900012    2    1    2    0    0  0.64397041927E+01  0.86592772690E+01  0.15304515928E+02  0.72461519266E+02  0.69999933526E+02 0.  0.
        -12    1    1    2    0    0 -0.64397041927E+01 -0.86592772690E+01 -0.15304515928E+02  0.18726480734E+02  0.00000000000E+00 0.  1.
         11    1    3    3    0    0 -0.17278503791E+02 -0.41498493495E+01 -0.45047454365E+01  0.18331957740E+02  0.51100000000E-03 0. -1.
        -11    1    3    3    0    0 -0.10421227379E+02 -0.14711251718E+01 -0.26350172609E+01  0.10849401163E+02  0.51100000000E-03 0.  1.
         12    1    3    3    0    0  0.34139435363E+02  0.14280251790E+02  0.22444278625E+02  0.43280160363E+02  0.00000000000E+00 0. -1.
</event>
<event>
 7    1  0.2577508E-013  0.7246158E+02  0.7816164E-02  0.1226708E+00
        -11   -1    0    0    0    0  0.00000000000E+00  0.00000000000E+00  0.45593999997E+02  0.45594000000E+02  0.51100000000E-03 0.  1.
         11   -1    0    0    0    0 -0.00000000000E+00 -0.00000000000E+00 -0.45593999997E+02  0.45594000000E+02  0.51100000000E-03 0. -1.
    9900012    2    1    2    0    0 -0.78754564013E+01 -0.16950725126E+02  0.11528167719E+01  0.72461577963E+02  0.70000009989E+02 0.  0.
        -12    1    1    2    0    0  0.78754564013E+01  0.16950725126E+02 -0.11528167719E+01  0.18726422037E+02  0.00000000000E+00 0.  1.
         11    1    3    3    0    0 -0.16640687789E+02  0.64086344691E+01  0.41217402783E+01  0.18302235630E+02  0.51100000000E-03 0. -1.
        -11    1    3    3    0    0 -0.76207467701E+01 -0.18669202196E+02  0.18074387635E+02  0.27079482650E+02  0.51100000000E-03 0.  1.
         12    1    3    3    0    0  0.16385978158E+02 -0.46901573987E+01 -0.21043311141E+02  0.27079859682E+02  0.00000000000E+00 0. -1.
</event>
<event>
 7    1  0.2577508E-013  0.7246159E+02  0.7816164E-02  0.1226708E+00
        -11   -1    0    0    0    0  0.00000000000E+00  0.00000000000E+00  0.45593999997E+02  0.45594000000E+02  0.51100000000E-03 0. -1.
         11   -1    0    0    0    0 -0.00000000000E+00 -0.00000000000E+00 -0.45593999997E+02  0.45594000000E+02  0.51100000000E-03 0.  1.
    9900012    2    1    2    0    0 -0.44882692780E+01 -0.13070696368E+02 -0.12636879064E+02  0.72461591451E+02  0.70000027561E+02 0.  0.
        -12    1    1    2    0    0  0.44882692780E+01  0.13070696368E+02  0.12636879064E+02  0.18726408549E+02  0.00000000000E+00 0.  1.
         11    1    3    3    0    0 -0.14775257102E+02 -0.15953346549E+02 -0.16372880473E+02  0.27219270816E+02  0.51100000000E-03 0. -1.
        -11    1    3    3    0    0 -0.96095754726E+01 -0.10612738705E+02 -0.10083892961E+02  0.17511683560E+02  0.51100000000E-03 0.  1.
        -12    1    3    3    0    0  0.19896563297E+02  0.13495388886E+02  0.13819894370E+02  0.27730637075E+02  0.00000000000E+00 0.  1.
</event>
<event>
 7    1  0.2577508E-013  0.7246151E+02  0.7816164E-02  0.1226708E+00
        -11   -1    0    0    0    0  0.00000000000E+00  0.00000000000E+00  0.45593999997E+02  0.45594000000E+02  0.51100000000E-03 0. -1.
         11   -1    0    0    0    0 -0.00000000000E+00 -0.00000000000E+00 -0.45593999997E+02  0.45594000000E+02  0.51100000000E-03 0.  1.
    9900012    2    1    2    0    0  0.12894059764E+02 -0.10811744844E+02  0.82177054823E+01  0.72461513753E+02  0.69999926344E+02 0.  0.
        -12    1    1    2    0    0 -0.12894059764E+02  0.10811744844E+02 -0.82177054823E+01  0.18726486247E+02  0.00000000000E+00 0.  1.
         11    1    3    3    0    0 -0.73525152600E+00 -0.97946776676E+01  0.69281939433E+01  0.12019824333E+02  0.51100000000E-03 0. -1.
        -11    1    3    3    0    0  0.19306678404E+02 -0.23118483531E+02 -0.13752409157E+02  0.33111038486E+02  0.51100000000E-03 0.  1.
         12    1    3    3    0    0 -0.56773671138E+01  0.22101416355E+02  0.15041920696E+02  0.27330650933E+02  0.00000000000E+00 0. -1.
</event>
<event>
 7    1  0.2577508E-013  0.7246156E+02  0.7816164E-02  0.1226708E+00
        -11   -1    0    0    0    0  0.00000000000E+00  0.00000000000E+00  0.45593999997E+02  0.45594000000E+02  0.51100000000E-03 0. -1.
         11   -1    0    0    0    0 -0.00000000000E+00 -0.00000000000E+00 -0.45593999997E+02  0.45594000000E+02  0.51100000000E-03 0.  1.
    9900012    2    1    2    0    0  0.14162521980E+02 -0.94406569129E+01  0.78087399216E+01  0.72461562781E+02  0.69999990212E+02 0.  0.
        -12    1    1    2    0    0 -0.14162521980E+02  0.94406569129E+01 -0.78087399216E+01  0.18726437219E+02  0.00000000000E+00 0.  1.
         11    1    3    3    0    0  0.60359204916E+01 -0.55881028055E+01  0.24818302645E+02  0.26145886399E+02  0.51100000000E-03 0. -1.
        -11    1    3    3    0    0  0.87300685208E+00 -0.48654945047E+01  0.13794219713E+02  0.14653179706E+02  0.51100000000E-03 0.  1.
        -12    1    3    3    0    0  0.72535946358E+01  0.10129403973E+01 -0.30803782436E+02  0.31662496676E+02  0.00000000000E+00 0.  1.
</event>
<event>
 7    1  0.2577508E-013  0.7246168E+02  0.7816164E-02  0.1226708E+00
        -11   -1    0    0    0    0  0.00000000000E+00  0.00000000000E+00  0.45593999997E+02  0.45594000000E+02  0.51100000000E-03 0.  1.
         11   -1    0    0    0    0 -0.00000000000E+00 -0.00000000000E+00 -0.45593999997E+02  0.45594000000E+02  0.51100000000E-03 0. -1.
    9900012    2    1    2    0    0  0.66173587914E+01 -0.16318617062E+02  0.63709044180E+01  0.72461678330E+02  0.70000140736E+02 0.  0.
        -12    1    1    2    0    0 -0.66173587914E+01  0.16318617062E+02 -0.63709044180E+01  0.18726321670E+02  0.00000000000E+00 0.  1.
         11    1    3    3    0    0 -0.18994692901E+02 -0.15211010912E+02 -0.34923068905E+01  0.24583926030E+02  0.51100000000E-03 0. -1.
        -11    1    3    3    0    0 -0.23095570804E+01 -0.23777952214E+01  0.18365863419E+02  0.18662607090E+02  0.51100000000E-03 0.  1.
        -12    1    3    3    0    0  0.27921608773E+02  0.12701890707E+01 -0.85026521102E+01  0.29215145210E+02  0.00000000000E+00 0.  1.
</event>
<event>
 7    1  0.2577508E-013  0.7246165E+02  0.7816164E-02  0.1226708E+00
        -11   -1    0    0    0    0  0.00000000000E+00  0.00000000000E+00  0.45593999997E+02  0.45594000000E+02  0.51100000000E-03 0.  1.
         11   -1    0    0    0    0 -0.00000000000E+00 -0.00000000000E+00 -0.45593999997E+02  0.45594000000E+02  0.51100000000E-03 0. -1.
    9900012    2    1    2    0    0  0.60892128762E+01  0.23949395884E+01 -0.17545999667E+02  0.72461645485E+02  0.70000097950E+02 0.  0.
        -12    1    1    2    0    0 -0.60892128762E+01 -0.23949395884E+01  0.17545999667E+02  0.18726354515E+02  0.00000000000E+00 0.  1.
         11    1    3    3    0    0 -0.11188657931E+02 -0.10676216601E+02  0.57036707883E+01  0.16483310588E+02  0.51100000000E-03 0. -1.
        -11    1    3    3    0    0  0.27962948273E+01 -0.86590569969E+01  0.10117551824E+02  0.13607475446E+02  0.51100000000E-03 0.  1.
        -12    1    3    3    0    0  0.14481575980E+02  0.21730213186E+02 -0.33367222280E+02  0.42370859452E+02  0.00000000000E+00 0.  1.
</event>
<event>
 7    1  0.2577508E-013  0.7246163E+02  0.7816164E-02  0.1226708E+00
        -11   -1    0    0    0    0  0.00000000000E+00  0.00000000000E+00  0.45593999997E+02  0.45594000000E+02  0.51100000000E-03 0.  1.
         11   -1    0    0    0    0 -0.00000000000E+00 -0.00000000000E+00 -0.45593999997E+02  0.45594000000E+02  0.51100000000E-03 0. -1.
    9900012    2    1    2    0    0 -0.15069482297E+02  0.97493375773E+01 -0.53421179821E+01  0.72461625433E+02  0.70000071828E+02 0.  0.
        -12    1    1    2    0    0  0.15069482297E+02 -0.97493375773E+01  0.53421179821E+01  0.18726374567E+02  0.00000000000E+00 0.  1.
         11    1    3    3    0    0 -0.80940638633E+01  0.20226065178E+01 -0.30503837121E+02  0.31624181987E+02  0.51100000000E-03 0. -1.
        -11    1    3    3    0    0 -0.28513843126E+01  0.94799978378E+01 -0.44748918351E+01  0.10863949958E+02  0.51100000000E-03 0.  1.
        -12    1    3    3    0    0 -0.41240341211E+01 -0.17532667784E+01  0.29636610974E+02  0.29973493488E+02  0.00000000000E+00 0.  1.
</event>
<event>
 7    1  0.2577508E-013  0.7246159E+02  0.7816164E-02  0.1226708E+00
        -11   -1    0    0    0    0  0.00000000000E+00  0.00000000000E+00  0.45593999997E+02  0.45594000000E+02  0.51100000000E-03 0.  1.
         11   -1    0    0    0    0 -0.00000000000E+00 -0.00000000000E+00 -0.45593999997E+02  0.45594000000E+02  0.51100000000E-03 0. -1.
    9900012    2    1    2    0    0  0.16173425452E+02  0.33240397105E+01 -0.88345700245E+01  0.72461586612E+02  0.70000021257E+02 0.  0.
        -12    1    1    2    0    0 -0.16173425452E+02 -0.33240397105E+01  0.88345700245E+01  0.18726413388E+02  0.00000000000E+00 0.  1.
         11    1    3    3    0    0  0.64770402201E+01 -0.22705211274E+01 -0.18993715009E+01  0.71214414666E+01  0.51100000000E-03 0. -1.
        -11    1    3    3    0    0  0.36670867191E+02 -0.25450211397E+01 -0.28448610584E+01  0.36868996024E+02  0.51100000000E-03 0.  1.
         12    1    3    3    0    0 -0.26974481959E+02  0.81395819775E+01 -0.40903374652E+01  0.28471149121E+02  0.00000000000E+00 0. -1.
</event>
<event>
 7    1  0.2577508E-013  0.7246155E+02  0.7816164E-02  0.1226708E+00
        -11   -1    0    0    0    0  0.00000000000E+00  0.00000000000E+00  0.45593999997E+02  0.45594000000E+02  0.51100000000E-03 0.  1.
         11   -1    0    0    0    0 -0.00000000000E+00 -0.00000000000E+00 -0.45593999997E+02  0.45594000000E+02  0.51100000000E-03 0. -1.
    9900012    2    1    2    0    0 -0.75722650447E+01 -0.11717307470E+02 -0.12491809355E+02  0.72461553642E+02  0.69999978307E+02 0.  0.
        -12    1    1    2    0    0  0.75722650447E+01  0.11717307470E+02  0.12491809355E+02  0.18726446358E+02  0.00000000000E+00 0.  1.
         11    1    3    3    0    0  0.17838016119E+02 -0.22761090992E+02 -0.11865426403E+02  0.31257805844E+02  0.51100000000E-03 0. -1.
        -11    1    3    3    0    0  0.68291604438E+01  0.47872667317E+01  0.36371875606E+00  0.83479127165E+01  0.51100000000E-03 0.  1.
        -12    1    3    3    0    0 -0.32239441608E+02  0.62565167899E+01 -0.99010170768E+00  0.32855835082E+02  0.00000000000E+00 0.  1.
</event>
<event>
 7    1  0.2577508E-013  0.7246161E+02  0.7816164E-02  0.1226708E+00
        -11   -1    0    0    0    0  0.00000000000E+00  0.00000000000E+00  0.45593999997E+02  0.45594000000E+02  0.51100000000E-03 0.  1.
         11   -1    0    0    0    0 -0.00000000000E+00 -0.00000000000E+00 -0.45593999997E+02  0.45594000000E+02  0.51100000000E-03 0. -1.
    9900012    2    1    2    0    0 -0.68275431616E+01 -0.15077328676E+02 -0.87599338642E+01  0.72461611482E+02  0.70000053654E+02 0.  0.
        -12    1    1    2    0    0  0.68275431616E+01  0.15077328676E+02  0.87599338642E+01  0.18726388518E+02  0.00000000000E+00 0.  1.
         11    1    3    3    0    0 -0.27936390658E+00 -0.13903936135E+02 -0.16061648438E+01  0.13999187476E+02  0.51100000000E-03 0. -1.
        -11    1    3    3    0    0  0.16575083197E+02 -0.11067045402E+02  0.15001329960E+02  0.24944995044E+02  0.51100000000E-03 0.  1.
         12    1    3    3    0    0 -0.23123262452E+02  0.98936528606E+01 -0.22155098980E+02  0.33517428961E+02  0.00000000000E+00 0. -1.
</event>
<event>
 7    1  0.2577508E-013  0.7246159E+02  0.7816164E-02  0.1226708E+00
        -11   -1    0    0    0    0  0.00000000000E+00  0.00000000000E+00  0.45593999997E+02  0.45594000000E+02  0.51100000000E-03 0. -1.
         11   -1    0    0    0    0 -0.00000000000E+00 -0.00000000000E+00 -0.45593999997E+02  0.45594000000E+02  0.51100000000E-03 0.  1.
    9900012    2    1    2    0    0 -0.55151144725E+00 -0.76299469089E+01  0.17092636008E+02  0.72461589227E+02  0.70000024664E+02 0.  0.
        -12    1    1    2    0    0  0.55151144725E+00  0.76299469089E+01 -0.17092636008E+02  0.18726410773E+02  0.00000000000E+00 0.  1.
         11    1    3    3    0    0  0.76546854588E+01 -0.37436638086E+01  0.47793204794E+01  0.97699095539E+01  0.51100000000E-03 0. -1.
        -11    1    3    3    0    0  0.17200350881E+01 -0.31770532961E+02  0.50519358217E+01  0.32215638146E+02  0.51100000000E-03 0.  1.
         12    1    3    3    0    0 -0.99262319942E+01  0.27884249861E+02  0.72613797074E+01  0.30476041527E+02  0.00000000000E+00 0. -1.
</event>
<event>
 7    1  0.2577508E-013  0.7246157E+02  0.7816164E-02  0.1226708E+00
        -11   -1    0    0    0    0  0.00000000000E+00  0.00000000000E+00  0.45593999997E+02  0.45594000000E+02  0.51100000000E-03 0. -1.
         11   -1    0    0    0    0 -0.00000000000E+00 -0.00000000000E+00 -0.45593999997E+02  0.45594000000E+02  0.51100000000E-03 0.  1.
    9900012    2    1    2    0    0 -0.70050149446E+01  0.20306239962E+01  0.17247767045E+02  0.72461571183E+02  0.70000001158E+02 0.  0.
        -12    1    1    2    0    0  0.70050149446E+01 -0.20306239962E+01 -0.17247767045E+02  0.18726428817E+02  0.00000000000E+00 0.  1.
         11    1    3    3    0    0 -0.20761035588E+02  0.11511063787E+02  0.20207744613E+02  0.31174959997E+02  0.51100000000E-03 0. -1.
        -11    1    3    3    0    0 -0.56348321939E+01 -0.17262517895E+02 -0.79213986211E+01  0.19811471786E+02  0.51100000000E-03 0.  1.
        -12    1    3    3    0    0  0.19390852838E+02  0.77820781047E+01  0.49614210533E+01  0.21475139400E+02  0.00000000000E+00 0.  1.
</event>
<event>
 7    1  0.2577508E-013  0.7246160E+02  0.7816164E-02  0.1226708E+00
        -11   -1    0    0    0    0  0.00000000000E+00  0.00000000000E+00  0.45593999997E+02  0.45594000000E+02  0.51100000000E-03 0.  1.
         11   -1    0    0    0    0 -0.00000000000E+00 -0.00000000000E+00 -0.45593999997E+02  0.45594000000E+02  0.51100000000E-03 0. -1.
    9900012    2    1    2    0    0 -0.14055410188E+02  0.12345437715E+02  0.84471052431E+00  0.72461603555E+02  0.70000043329E+02 0.  0.
        -12    1    1    2    0    0  0.14055410188E+02 -0.12345437715E+02 -0.84471052431E+00  0.18726396445E+02  0.00000000000E+00 0.  1.
         11    1    3    3    0    0  0.45348469581E+01  0.23687172881E+02 -0.19458552027E+02  0.30988421116E+02  0.51100000000E-03 0. -1.
        -11    1    3    3    0    0 -0.62115205078E+01 -0.47274213057E+01 -0.71849671450E+01  0.10609206019E+02  0.51100000000E-03 0.  1.
         12    1    3    3    0    0 -0.12378736638E+02 -0.66143138599E+01  0.27488229697E+02  0.30863976420E+02  0.00000000000E+00 0. -1.
</event>
<event>
 7    1  0.2577508E-013  0.7246156E+02  0.7816164E-02  0.1226708E+00
        -11   -1    0    0    0    0  0.00000000000E+00  0.00000000000E+00  0.45593999997E+02  0.45594000000E+02  0.51100000000E-03 0. -1.
         11   -1    0    0    0    0 -0.00000000000E+00 -0.00000000000E+00 -0.45593999997E+02  0.45594000000E+02  0.51100000000E-03 0.  1.
    9900012    2    1    2    0    0 -0.18907584352E+01 -0.13490476862E+02 -0.12849575750E+02  0.72461560659E+02  0.69999987448E+02 0.  0.
        -12    1    1    2    0    0  0.18907584352E+01  0.13490476862E+02  0.12849575750E+02  0.18726439341E+02  0.00000000000E+00 0.  1.
         11    1    3    3    0    0 -0.47042542083E+01 -0.37042290445E+01  0.95859798526E+00  0.60638462075E+01  0.51100000000E-03 0. -1.
        -11    1    3    3    0    0 -0.18971349844E+02  0.20204053421E+02 -0.35813871097E+01  0.27945343502E+02  0.51100000000E-03 0.  1.
        -12    1    3    3    0    0  0.21784845617E+02 -0.29990301239E+02 -0.10226786626E+02  0.38452370950E+02  0.00000000000E+00 0.  1.
</event>
<event>
 7    1  0.2577508E-013  0.7246156E+02  0.7816164E-02  0.1226708E+00
        -11   -1    0    0    0    0  0.00000000000E+00  0.00000000000E+00  0.45593999997E+02  0.45594000000E+02  0.51100000000E-03 0.  1.
         11   -1    0    0    0    0 -0.00000000000E+00 -0.00000000000E+00 -0.45593999997E+02  0.45594000000E+02  0.51100000000E-03 0. -1.
    9900012    2    1    2    0    0  0.13948423079E+02 -0.39944944376E+01  0.11839126086E+02  0.72461564176E+02  0.69999992030E+02 0.  0.
        -12    1    1    2    0    0 -0.13948423079E+02  0.39944944376E+01 -0.11839126086E+02  0.18726435824E+02  0.00000000000E+00 0.  1.
         11    1    3    3    0    0  0.10762857177E+01 -0.33780467527E-01 -0.60323694256E+01  0.61277249624E+01  0.51100000000E-03 0. -1.
        -11    1    3    3    0    0  0.13643778860E+02  0.27735369417E+02  0.22568650931E+01  0.30991883753E+02  0.51100000000E-03 0.  1.
         12    1    3    3    0    0 -0.77164149936E+00 -0.31696083387E+02  0.15614630418E+02  0.35341955460E+02  0.00000000000E+00 0. -1.
</event>
<event>
 7    1  0.2577508E-013  0.7246167E+02  0.7816164E-02  0.1226708E+00
        -11   -1    0    0    0    0  0.00000000000E+00  0.00000000000E+00  0.45593999997E+02  0.45594000000E+02  0.51100000000E-03 0.  1.
         11   -1    0    0    0    0 -0.00000000000E+00 -0.00000000000E+00 -0.45593999997E+02  0.45594000000E+02  0.51100000000E-03 0. -1.
    9900012    2    1    2    0    0  0.15038109281E+02 -0.49305671155E+01 -0.10011002047E+02  0.72461671347E+02  0.70000131640E+02 0.  0.
        -12    1    1    2    0    0 -0.15038109281E+02  0.49305671155E+01  0.10011002047E+02  0.18726328653E+02  0.00000000000E+00 0.  1.
         11    1    3    3    0    0 -0.32769247806E+01 -0.26639373863E+02 -0.96051815222E+01  0.28507086631E+02  0.51100000000E-03 0. -1.
        -11    1    3    3    0    0  0.15721178364E+02 -0.35275257592E+01  0.69400470241E+01  0.17543179304E+02  0.51100000000E-03 0.  1.
        -12    1    3    3    0    0  0.25938556975E+01  0.25236332507E+02 -0.73458675491E+01  0.26411405412E+02  0.00000000000E+00 0.  1.
</event>
<event>
 7    1  0.2577508E-013  0.7246160E+02  0.7816164E-02  0.1226708E+00
        -11   -1    0    0    0    0  0.00000000000E+00  0.00000000000E+00  0.45593999997E+02  0.45594000000E+02  0.51100000000E-03 0. -1.
         11   -1    0    0    0    0 -0.00000000000E+00 -0.00000000000E+00 -0.45593999997E+02  0.45594000000E+02  0.51100000000E-03 0.  1.
    9900012    2    1    2    0    0  0.42349090943E+01  0.18159308052E+02 -0.17272069004E+01  0.72461597045E+02  0.70000034847E+02 0.  0.
        -12    1    1    2    0    0 -0.42349090943E+01 -0.18159308052E+02  0.17272069004E+01  0.18726402955E+02  0.00000000000E+00 0.  1.
         11    1    3    3    0    0  0.42292056936E+01  0.13360603510E+02 -0.12450254580E+02  0.18745686072E+02  0.51100000000E-03 0. -1.
        -11    1    3    3    0    0  0.24708993447E+02 -0.50316860034E+00 -0.31134688192E+01  0.24909460536E+02  0.51100000000E-03 0.  1.
         12    1    3    3    0    0 -0.24703290047E+02  0.53018731422E+01  0.13836516499E+02  0.28806450437E+02  0.00000000000E+00 0. -1.
</event>
<event>
 7    1  0.2577508E-013  0.7246164E+02  0.7816164E-02  0.1226708E+00
        -11   -1    0    0    0    0  0.00000000000E+00  0.00000000000E+00  0.45593999997E+02  0.45594000000E+02  0.51100000000E-03 0. -1.
         11   -1    0    0    0    0 -0.00000000000E+00 -0.00000000000E+00 -0.45593999997E+02  0.45594000000E+02  0.51100000000E-03 0.  1.
    9900012    2    1    2    0    0 -0.17884103351E+02 -0.82942070605E+00 -0.54906730498E+01  0.72461639384E+02  0.70000090002E+02 0.  0.
        -12    1    1    2    0    0  0.17884103351E+02  0.82942070605E+00  0.54906730498E+01  0.18726360616E+02  0.00000000000E+00 0.  1.
         11    1    3    3    0    0 -0.15085587078E+02  0.77283410046E+01  0.46614572544E+01  0.17579288273E+02  0.51100000000E-03 0.  1.
        -11    1    3    3    0    0  0.13087642720E+02  0.56779294704E+01  0.15800628639E+02  0.21288145544E+02  0.51100000000E-03 0. -1.
         12    1    3    3    0    0 -0.15886158994E+02 -0.14235691181E+02 -0.25952758943E+02  0.33594205568E+02  0.00000000000E+00 0. -1.
</event>
<event>
 7    1  0.2577508E-013  0.7246156E+02  0.7816164E-02  0.1226708E+00
        -11   -1    0    0    0    0  0.00000000000E+00  0.00000000000E+00  0.45593999997E+02  0.45594000000E+02  0.51100000000E-03 0.  1.
         11   -1    0    0    0    0 -0.00000000000E+00 -0.00000000000E+00 -0.45593999997E+02  0.45594000000E+02  0.51100000000E-03 0. -1.
    9900012    2    1    2    0    0 -0.41957195014E+01 -0.12581151814E+01 -0.18206940674E+02  0.72461558676E+02  0.69999984865E+02 0.  0.
        -12    1    1    2    0    0  0.41957195014E+01  0.12581151814E+01  0.18206940674E+02  0.18726441324E+02  0.00000000000E+00 0.  1.
         11    1    3    3    0    0  0.23868993548E+01 -0.58936380872E+01 -0.31036762789E+02  0.31681428363E+02  0.51100000000E-03 0. -1.
        -11    1    3    3    0    0  0.14000402116E+02  0.99837530627E+01  0.34561326607E+01  0.17539425243E+02  0.51100000000E-03 0.  1.
        -12    1    3    3    0    0 -0.20583020972E+02 -0.53482301569E+01  0.93736894543E+01  0.23240705070E+02  0.00000000000E+00 0.  1.
</event>
<event>
 7    1  0.2577508E-013  0.7246155E+02  0.7816164E-02  0.1226708E+00
        -11   -1    0    0    0    0  0.00000000000E+00  0.00000000000E+00  0.45593999997E+02  0.45594000000E+02  0.51100000000E-03 0. -1.
         11   -1    0    0    0    0 -0.00000000000E+00 -0.00000000000E+00 -0.45593999997E+02  0.45594000000E+02  0.51100000000E-03 0.  1.
    9900012    2    1    2    0    0  0.22684252707E+01  0.18365640546E+02 -0.28700897614E+01  0.72461550227E+02  0.69999973859E+02 0.  0.
        -12    1    1    2    0    0 -0.22684252707E+01 -0.18365640546E+02  0.28700897614E+01  0.18726449773E+02  0.00000000000E+00 0.  1.
         11    1    3    3    0    0 -0.10259527300E+02 -0.58019767718E+01  0.41232022886E+01  0.12486858382E+02  0.51100000000E-03 0. -1.
        -11    1    3    3    0    0 -0.66863310587E+01 -0.14492280876E+02  0.13023533684E+01  0.16013411647E+02  0.51100000000E-03 0.  1.
         12    1    3    3    0    0  0.19214283629E+02  0.38659898194E+02 -0.82956454184E+01  0.43961280198E+02  0.00000000000E+00 0. -1.
</event>
<event>
 7    1  0.2577508E-013  0.7246158E+02  0.7816164E-02  0.1226708E+00
        -11   -1    0    0    0    0  0.00000000000E+00  0.00000000000E+00  0.45593999997E+02  0.45594000000E+02  0.51100000000E-03 0. -1.
         11   -1    0    0    0    0 -0.00000000000E+00 -0.00000000000E+00 -0.45593999997E+02  0.45594000000E+02  0.51100000000E-03 0.  1.
    9900012    2    1    2    0    0  0.78761175341E+01 -0.16246578255E+02  0.49693411723E+01  0.72461577915E+02  0.70000009928E+02 0.  0.
        -12    1    1    2    0    0 -0.78761175341E+01  0.16246578255E+02 -0.49693411723E+01  0.18726422085E+02  0.00000000000E+00 0.  1.
         11    1    3    3    0    0  0.63124038825E+01 -0.64592162832E+01  0.28180948748E+01  0.94609500979E+01  0.51100000000E-03 0. -1.
        -11    1    3    3    0    0  0.13377761911E+02 -0.92843640844E+01 -0.27006751366E+02  0.31536146718E+02  0.51100000000E-03 0.  1.
         12    1    3    3    0    0 -0.11814048259E+02 -0.50299788730E+00  0.29157997663E+02  0.31464481100E+02  0.00000000000E+00 0. -1.
</event>
<event>
 7    1  0.2577508E-013  0.7246157E+02  0.7816164E-02  0.1226708E+00
        -11   -1    0    0    0    0  0.00000000000E+00  0.00000000000E+00  0.45593999997E+02  0.45594000000E+02  0.51100000000E-03 0.  1.
         11   -1    0    0    0    0 -0.00000000000E+00 -0.00000000000E+00 -0.45593999997E+02  0.45594000000E+02  0.51100000000E-03 0. -1.
    9900012    2    1    2    0    0  0.99681545195E+01 -0.22024412290E+01 -0.15699183570E+02  0.72461569036E+02  0.69999998360E+02 0.  0.
        -12    1    1    2    0    0 -0.99681545195E+01  0.22024412290E+01  0.15699183570E+02  0.18726430964E+02  0.00000000000E+00 0.  1.
         11    1    3    3    0    0  0.17183724805E+01  0.21975226028E+02 -0.27342694400E+02  0.35121023623E+02  0.51100000000E-03 0. -1.
        -11    1    3    3    0    0 -0.77045740616E+01 -0.28892105132E+01 -0.17445886007E+00  0.82303362637E+01  0.51100000000E-03 0.  1.
        -12    1    3    3    0    0  0.15954356101E+02 -0.21288456744E+02  0.11817969690E+02  0.29110209149E+02  0.00000000000E+00 0.  1.
</event>
<event>
 7    1  0.2577508E-013  0.7246174E+02  0.7816164E-02  0.1226708E+00
        -11   -1    0    0    0    0  0.00000000000E+00  0.00000000000E+00  0.45593999997E+02  0.45594000000E+02  0.51100000000E-03 0. -1.
         11   -1    0    0    0    0 -0.00000000000E+00 -0.00000000000E+00 -0.45593999997E+02  0.45594000000E+02  0.51100000000E-03 0.  1.
    9900012    2    1    2    0    0  0.52833774574E+01  0.17435132173E+02  0.43330097324E+01  0.72461738104E+02  0.70000218603E+02 0.  0.
        -12    1    1    2    0    0 -0.52833774574E+01 -0.17435132173E+02 -0.43330097324E+01  0.18726261896E+02  0.00000000000E+00 0.  1.
         11    1    3    3    0    0 -0.74390228721E+01  0.36559031712E+01  0.10517232523E+01  0.83552864313E+01  0.51100000000E-03 0. -1.
        -11    1    3    3    0    0  0.17727283333E+02  0.22350764706E+02 -0.22595135650E+02  0.36391666802E+02  0.51100000000E-03 0.  1.
         12    1    3    3    0    0 -0.50048830034E+01 -0.85715357035E+01  0.25876422130E+02  0.27714784871E+02  0.00000000000E+00 0. -1.
</event>
<event>
 7    1  0.2577508E-013  0.7246161E+02  0.7816164E-02  0.1226708E+00
        -11   -1    0    0    0    0  0.00000000000E+00  0.00000000000E+00  0.45593999997E+02  0.45594000000E+02  0.51100000000E-03 0.  1.
         11   -1    0    0    0    0 -0.00000000000E+00 -0.00000000000E+00 -0.45593999997E+02  0.45594000000E+02  0.51100000000E-03 0. -1.
    9900012    2    1    2    0    0 -0.15439726107E+01 -0.18989620593E+01 -0.18565770827E+02  0.72461608070E+02  0.70000049210E+02 0.  0.
        -12    1    1    2    0    0  0.15439726107E+01  0.18989620593E+01  0.18565770827E+02  0.18726391930E+02  0.00000000000E+00 0.  1.
         11    1    3    3    0    0  0.20901334951E+02 -0.21121856424E+02 -0.26964542674E+02  0.40125866762E+02  0.51100000000E-03 0. -1.
        -11    1    3    3    0    0 -0.38561840334E-01  0.13699090049E+00 -0.13287948568E+01  0.13363942364E+01  0.51100000000E-03 0.  1.
        -12    1    3    3    0    0 -0.22406745721E+02  0.19085903464E+02  0.97275667043E+01  0.30999347071E+02  0.00000000000E+00 0.  1.
</event>
<event>
 7    1  0.2577508E-013  0.7246158E+02  0.7816164E-02  0.1226708E+00
        -11   -1    0    0    0    0  0.00000000000E+00  0.00000000000E+00  0.45593999997E+02  0.45594000000E+02  0.51100000000E-03 0.  1.
         11   -1    0    0    0    0 -0.00000000000E+00 -0.00000000000E+00 -0.45593999997E+02  0.45594000000E+02  0.51100000000E-03 0. -1.
    9900012    2    1    2    0    0  0.40977349829E+01  0.55574638288E+01 -0.17406949812E+02  0.72461581817E+02  0.70000015010E+02 0.  0.
        -12    1    1    2    0    0 -0.40977349829E+01 -0.55574638288E+01  0.17406949812E+02  0.18726418183E+02  0.00000000000E+00 0.  1.
         11    1    3    3    0    0  0.17320114346E+02  0.12879664052E+02 -0.36584250457E+02  0.42476811189E+02  0.51100000000E-03 0. -1.
        -11    1    3    3    0    0  0.18247454647E+01  0.17921928861E+00 -0.21509126010E+01  0.28263476153E+01  0.51100000000E-03 0.  1.
        -12    1    3    3    0    0 -0.15047124828E+02 -0.75014195118E+01  0.21328213245E+02  0.27158423012E+02  0.00000000000E+00 0.  1.
</event>
<event>
 7    1  0.2577508E-013  0.7246155E+02  0.7816164E-02  0.1226708E+00
        -11   -1    0    0    0    0  0.00000000000E+00  0.00000000000E+00  0.45593999997E+02  0.45594000000E+02  0.51100000000E-03 0.  1.
         11   -1    0    0    0    0 -0.00000000000E+00 -0.00000000000E+00 -0.45593999997E+02  0.45594000000E+02  0.51100000000E-03 0. -1.
    9900012    2    1    2    0    0  0.37833554546E+01  0.88278299977E+01 -0.16075927384E+02  0.72461553401E+02  0.69999977994E+02 0.  0.
        -12    1    1    2    0    0 -0.37833554546E+01 -0.88278299977E+01  0.16075927384E+02  0.18726446599E+02  0.00000000000E+00 0.  1.
         11    1    3    3    0    0 -0.42726354106E+01  0.64313716403E+00  0.15770995359E+01  0.45995958486E+01  0.51100000000E-03 0. -1.
        -11    1    3    3    0    0 -0.26562182660E+02  0.97195306767E+01  0.13960899005E+01  0.28319037617E+02  0.51100000000E-03 0.  1.
         12    1    3    3    0    0  0.34618173526E+02 -0.15348378429E+01 -0.19049116820E+02  0.39542919936E+02  0.00000000000E+00 0. -1.
</event>
<event>
 7    1  0.2577508E-013  0.7246157E+02  0.7816164E-02  0.1226708E+00
        -11   -1    0    0    0    0  0.00000000000E+00  0.00000000000E+00  0.45593999997E+02  0.45594000000E+02  0.51100000000E-03 0. -1.
         11   -1    0    0    0    0 -0.00000000000E+00 -0.00000000000E+00 -0.45593999997E+02  0.45594000000E+02  0.51100000000E-03 0.  1.
    9900012    2    1    2    0    0 -0.22337822173E+01 -0.18589259632E+02 -0.35910532562E+00  0.72461566456E+02  0.69999994999E+02 0.  0.
        -12    1    1    2    0    0  0.22337822173E+01  0.18589259632E+02  0.35910532562E+00  0.18726433544E+02  0.00000000000E+00 0.  1.
         11    1    3    3    0    0 -0.25919524574E+01 -0.26591699885E+02  0.18492136706E+02  0.32493012181E+02  0.51100000000E-03 0. -1.
        -11    1    3    3    0    0  0.91839191755E+01  0.74648803742E+01  0.62297776391E+01  0.13374563175E+02  0.51100000000E-03 0.  1.
        -12    1    3    3    0    0 -0.88257489355E+01  0.53755987933E+00 -0.25081019671E+02  0.26593991100E+02  0.00000000000E+00 0.  1.
</event>
<event>
 7    1  0.2577508E-013  0.7246147E+02  0.7816164E-02  0.1226708E+00
        -11   -1    0    0    0    0  0.00000000000E+00  0.00000000000E+00  0.45593999997E+02  0.45594000000E+02  0.51100000000E-03 0. -1.
         11   -1    0    0    0    0 -0.00000000000E+00 -0.00000000000E+00 -0.45593999997E+02  0.45594000000E+02  0.51100000000E-03 0.  1.
    9900012    2    1    2    0    0  0.80750652420E+01  0.16405007281E+02  0.40437462316E+01  0.72461472662E+02  0.69999872815E+02 0.  0.
        -12    1    1    2    0    0 -0.80750652420E+01 -0.16405007281E+02 -0.40437462316E+01  0.18726527338E+02  0.00000000000E+00 0.  1.
         11    1    3    3    0    0  0.14482906179E+02 -0.82510651364E+01 -0.15738921940E+01  0.16742514273E+02  0.51100000000E-03 0. -1.
        -11    1    3    3    0    0  0.16120632934E+02  0.75573828808E+01 -0.12835824072E+02  0.21948740786E+02  0.51100000000E-03 0.  1.
         12    1    3    3    0    0 -0.22528473871E+02  0.17098689537E+02  0.18453462498E+02  0.33770217603E+02  0.00000000000E+00 0. -1.
</event>
<event>
 7    1  0.2577508E-013  0.7246152E+02  0.7816164E-02  0.1226708E+00
        -11   -1    0    0    0    0  0.00000000000E+00  0.00000000000E+00  0.45593999997E+02  0.45594000000E+02  0.51100000000E-03 0. -1.
         11   -1    0    0    0    0 -0.00000000000E+00 -0.00000000000E+00 -0.45593999997E+02  0.45594000000E+02  0.51100000000E-03 0.  1.
    9900012    2    1    2    0    0 -0.13590411873E+02 -0.42682941215E+01  0.12155801880E+02  0.72461517444E+02  0.69999931153E+02 0.  0.
        -12    1    1    2    0    0  0.13590411873E+02  0.42682941215E+01 -0.12155801880E+02  0.18726482556E+02  0.00000000000E+00 0.  1.
         11    1    3    3    0    0 -0.82984662153E+01 -0.69705960942E+01  0.31632191106E+02  0.33437243694E+02  0.51100000000E-03 0. -1.
        -11    1    3    3    0    0  0.13733202784E+00 -0.76589843068E+00  0.94029334782E+01  0.94350738602E+01  0.51100000000E-03 0.  1.
        -12    1    3    3    0    0 -0.54292776852E+01  0.34682004034E+01 -0.28879322704E+02  0.29589199889E+02  0.00000000000E+00 0.  1.
</event>
<event>
 7    1  0.2577508E-013  0.7246192E+02  0.7816164E-02  0.1226707E+00
        -11   -1    0    0    0    0  0.00000000000E+00  0.00000000000E+00  0.45593999997E+02  0.45594000000E+02  0.51100000000E-03 0. -1.
         11   -1    0    0    0    0 -0.00000000000E+00 -0.00000000000E+00 -0.45593999997E+02  0.45594000000E+02  0.51100000000E-03 0.  1.
    9900012    2    1    2    0    0 -0.23722798579E+01 -0.28319708148E+01  0.18358056272E+02  0.72461921913E+02  0.70000458047E+02 0.  0.
        -12    1    1    2    0    0  0.23722798579E+01  0.28319708148E+01 -0.18358056272E+02  0.18726078087E+02  0.00000000000E+00 0.  1.
         11    1    3    3    0    0  0.97237213340E+01  0.15208207502E+02  0.19518328998E+02  0.26585813870E+02  0.51100000000E-03 0. -1.
        -11    1    3    3    0    0  0.90975151859E+01  0.20310624162E+01  0.10857141784E+02  0.14309700384E+02  0.51100000000E-03 0.  1.
        -12    1    3    3    0    0 -0.21193516378E+02 -0.20071240733E+02 -0.12017414510E+02  0.31566407659E+02  0.00000000000E+00 0.  1.
</event>
<event>
 7    1  0.2577508E-013  0.7246167E+02  0.7816164E-02  0.1226708E+00
        -11   -1    0    0    0    0  0.00000000000E+00  0.00000000000E+00  0.45593999997E+02  0.45594000000E+02  0.51100000000E-03 0.  1.
         11   -1    0    0    0    0 -0.00000000000E+00 -0.00000000000E+00 -0.45593999997E+02  0.45594000000E+02  0.51100000000E-03 0. -1.
    9900012    2    1    2    0    0  0.11839097116E+02  0.42823368777E+01 -0.13862641864E+02  0.72461669097E+02  0.70000128708E+02 0.  0.
        -12    1    1    2    0    0 -0.11839097116E+02 -0.42823368777E+01  0.13862641864E+02  0.18726330903E+02  0.00000000000E+00 0.  1.
         11    1    3    3    0    0  0.14862242482E+01  0.50212223012E+01 -0.26926730455E+01  0.58882955347E+01  0.51100000000E-03 0. -1.
        -11    1    3    3    0    0  0.29420281951E+02  0.19766060151E+02 -0.14661172812E+02  0.38356226515E+02  0.51100000000E-03 0.  1.
         12    1    3    3    0    0 -0.19067409083E+02 -0.20504945574E+02  0.34912039932E+01  0.28217147047E+02  0.00000000000E+00 0. -1.
</event>
<event>
 7    1  0.2577508E-013  0.7246150E+02  0.7816164E-02  0.1226708E+00
        -11   -1    0    0    0    0  0.00000000000E+00  0.00000000000E+00  0.45593999997E+02  0.45594000000E+02  0.51100000000E-03 0.  1.
         11   -1    0    0    0    0 -0.00000000000E+00 -0.00000000000E+00 -0.45593999997E+02  0.45594000000E+02  0.51100000000E-03 0. -1.
    9900012    2    1    2    0    0 -0.92984906422E+01  0.12376743161E+01 -0.16207647900E+02  0.72461504962E+02  0.69999914893E+02 0.  0.
        -12    1    1    2    0    0  0.92984906422E+01 -0.12376743161E+01  0.16207647900E+02  0.18726495038E+02  0.00000000000E+00 0.  1.
         11    1    3    3    0    0  0.28026762781E+02  0.78960932851E+01 -0.12525434352E+02  0.31697542919E+02  0.51100000000E-03 0.  1.
        -11    1    3    3    0    0 -0.17365179723E+02 -0.25250687029E+01 -0.89674426229E+01  0.19706355986E+02  0.51100000000E-03 0. -1.
        -12    1    3    3    0    0 -0.19960073699E+02 -0.41333502661E+01  0.52852290748E+01  0.21057606058E+02  0.00000000000E+00 0.  1.
</event>
<event>
 7    1  0.2577508E-013  0.7246155E+02  0.7816164E-02  0.1226708E+00
        -11   -1    0    0    0    0  0.00000000000E+00  0.00000000000E+00  0.45593999997E+02  0.45594000000E+02  0.51100000000E-03 0.  1.
         11   -1    0    0    0    0 -0.00000000000E+00 -0.00000000000E+00 -0.45593999997E+02  0.45594000000E+02  0.51100000000E-03 0. -1.
    9900012    2    1    2    0    0  0.17212322091E+02  0.66247971095E+01  0.32446994057E+01  0.72461546979E+02  0.69999969628E+02 0.  0.
        -12    1    1    2    0    0 -0.17212322091E+02 -0.66247971095E+01 -0.32446994057E+01  0.18726453021E+02  0.00000000000E+00 0.  1.
         11    1    3    3    0    0 -0.28124007547E+01 -0.72975648568E+01  0.35207590435E+01  0.85767007263E+01  0.51100000000E-03 0. -1.
        -11    1    3    3    0    0  0.12134467942E+02  0.30434237685E+01  0.29048282441E+02  0.31627684922E+02  0.51100000000E-03 0.  1.
         12    1    3    3    0    0  0.78902549039E+01  0.10878938198E+02 -0.29324342079E+02  0.32257161331E+02  0.00000000000E+00 0. -1.
</event>
<event>
 7    1  0.2577508E-013  0.7246160E+02  0.7816164E-02  0.1226708E+00
        -11   -1    0    0    0    0  0.00000000000E+00  0.00000000000E+00  0.45593999997E+02  0.45594000000E+02  0.51100000000E-03 0. -1.
         11   -1    0    0    0    0 -0.00000000000E+00 -0.00000000000E+00 -0.45593999997E+02  0.45594000000E+02  0.51100000000E-03 0.  1.
    9900012    2    1    2    0    0  0.41203370059E+01  0.10161095745E+02  0.15180685030E+02  0.72461595065E+02  0.70000032269E+02 0.  0.
        -12    1    1    2    0    0 -0.41203370059E+01 -0.10161095745E+02 -0.15180685030E+02  0.18726404935E+02  0.00000000000E+00 0.  1.
         11    1    3    3    0    0  0.14538259787E+02 -0.74721857899E+01 -0.38331168358E+01  0.16789500977E+02  0.51100000000E-03 0. -1.
        -11    1    3    3    0    0 -0.21639792715E+02  0.48996725765E+01 -0.81538866403E+01  0.23638385894E+02  0.51100000000E-03 0.  1.
         12    1    3    3    0    0  0.11221869934E+02  0.12733608959E+02  0.27167688506E+02  0.32033708195E+02  0.00000000000E+00 0. -1.
</event>
<event>
 7    1  0.2577508E-013  0.7246160E+02  0.7816164E-02  0.1226708E+00
        -11   -1    0    0    0    0  0.00000000000E+00  0.00000000000E+00  0.45593999997E+02  0.45594000000E+02  0.51100000000E-03 0.  1.
         11   -1    0    0    0    0 -0.00000000000E+00 -0.00000000000E+00 -0.45593999997E+02  0.45594000000E+02  0.51100000000E-03 0. -1.
    9900012    2    1    2    0    0 -0.13788675513E+02 -0.53996353763E+01 -0.11462733388E+02  0.72461604423E+02  0.70000044459E+02 0.  0.
        -12    1    1    2    0    0  0.13788675513E+02  0.53996353763E+01  0.11462733388E+02  0.18726395577E+02  0.00000000000E+00 0.  1.
         11    1    3    3    0    0  0.55205116737E+01 -0.10214548245E+02  0.14049781221E+02  0.18226612346E+02  0.51100000000E-03 0. -1.
        -11    1    3    3    0    0 -0.11755171701E+02 -0.53250217000E+01  0.10136460364E+02  0.16409989239E+02  0.51100000000E-03 0.  1.
         12    1    3    3    0    0 -0.75540154850E+01  0.10139934569E+02 -0.35648974974E+02  0.37825002838E+02  0.00000000000E+00 0. -1.
</event>
<event>
 7    1  0.2577508E-013  0.7246151E+02  0.7816164E-02  0.1226708E+00
        -11   -1    0    0    0    0  0.00000000000E+00  0.00000000000E+00  0.45593999997E+02  0.45594000000E+02  0.51100000000E-03 0. -1.
         11   -1    0    0    0    0 -0.00000000000E+00 -0.00000000000E+00 -0.45593999997E+02  0.45594000000E+02  0.51100000000E-03 0.  1.
    9900012    2    1    2    0    0 -0.32264533644E+01 -0.33031502540E+01  0.18148293105E+02  0.72461512194E+02  0.69999924313E+02 0.  0.
        -12    1    1    2    0    0  0.32264533644E+01  0.33031502540E+01 -0.18148293105E+02  0.18726487806E+02  0.00000000000E+00 0.  1.
         11    1    3    3    0    0 -0.97805893054E+01 -0.14161853171E+02  0.26151586018E+02  0.31306923578E+02  0.51100000000E-03 0. -1.
        -11    1    3    3    0    0  0.75677616426E+01  0.21620445952E+02  0.57932104067E+01  0.23627864620E+02  0.51100000000E-03 0.  1.
         12    1    3    3    0    0 -0.10136257017E+01 -0.10761743035E+02 -0.13796503319E+02  0.17526723996E+02  0.00000000000E+00 0. -1.
</event>
<event>
 7    1  0.2577508E-013  0.7246158E+02  0.7816164E-02  0.1226708E+00
        -11   -1    0    0    0    0  0.00000000000E+00  0.00000000000E+00  0.45593999997E+02  0.45594000000E+02  0.51100000000E-03 0.  1.
         11   -1    0    0    0    0 -0.00000000000E+00 -0.00000000000E+00 -0.45593999997E+02  0.45594000000E+02  0.51100000000E-03 0. -1.
    9900012    2    1    2    0    0 -0.91454967749E+01 -0.15160288293E+02  0.60995448168E+01  0.72461577508E+02  0.70000009397E+02 0.  0.
        -12    1    1    2    0    0  0.91454967749E+01  0.15160288293E+02 -0.60995448168E+01  0.18726422492E+02  0.00000000000E+00 0.  1.
         11    1    3    3    0    0  0.46976604912E+01 -0.55696972230E+01  0.87332471704E+01  0.11373616296E+02  0.51100000000E-03 0. -1.
        -11    1    3    3    0    0 -0.18699983337E+02 -0.13567567559E+02  0.24242556083E+02  0.33488353080E+02  0.51100000000E-03 0.  1.
         12    1    3    3    0    0  0.48568260712E+01  0.39769764890E+01 -0.26876258437E+02  0.27599608132E+02  0.00000000000E+00 0. -1.
</event>
<event>
 7    1  0.2577508E-013  0.7246158E+02  0.7816164E-02  0.1226708E+00
        -11   -1    0    0    0    0  0.00000000000E+00  0.00000000000E+00  0.45593999997E+02  0.45594000000E+02  0.51100000000E-03 0. -1.
         11   -1    0    0    0    0 -0.00000000000E+00 -0.00000000000E+00 -0.45593999997E+02  0.45594000000E+02  0.51100000000E-03 0.  1.
    9900012    2    1    2    0    0 -0.13518611073E+01  0.14991055562E+02  0.11140901853E+02  0.72461575637E+02  0.70000006960E+02 0.  0.
        -12    1    1    2    0    0  0.13518611073E+01 -0.14991055562E+02 -0.11140901853E+02  0.18726424363E+02  0.00000000000E+00 0.  1.
         11    1    3    3    0    0 -0.28448723308E+02  0.15867055050E+02 -0.57356102517E+01  0.33075527494E+02  0.51100000000E-03 0. -1.
        -11    1    3    3    0    0  0.10160689900E+02  0.43878618837E+01  0.18519644585E+02  0.21574758098E+02  0.51100000000E-03 0.  1.
        -12    1    3    3    0    0  0.16936172300E+02 -0.52638613721E+01 -0.16431324801E+01  0.17811290045E+02  0.00000000000E+00 0.  1.
</event>
<event>
 7    1  0.2577508E-013  0.7246156E+02  0.7816164E-02  0.1226708E+00
        -11   -1    0    0    0    0  0.00000000000E+00  0.00000000000E+00  0.45593999997E+02  0.45594000000E+02  0.51100000000E-03 0.  1.
         11   -1    0    0    0    0 -0.00000000000E+00 -0.00000000000E+00 -0.45593999997E+02  0.45594000000E+02  0.51100000000E-03 0. -1.
    9900012    2    1    2    0    0 -0.90815818184E+01 -0.99313019642E+01  0.13022041538E+02  0.72461562729E+02  0.69999990145E+02 0.  0.
        -12    1    1    2    0    0  0.90815818184E+01  0.99313019642E+01 -0.13022041538E+02  0.18726437271E+02  0.00000000000E+00 0.  1.
         11    1    3    3    0    0 -0.13820903657E+02 -0.96045357851E+01 -0.17457931483E+02  0.24249615615E+02  0.51100000000E-03 0. -1.
        -11    1    3    3    0    0 -0.10726707617E+02 -0.13041988748E+02  0.17677539936E+02  0.24446904615E+02  0.51100000000E-03 0.  1.
         12    1    3    3    0    0  0.15466029455E+02  0.12715222569E+02  0.12802433085E+02  0.23765042499E+02  0.00000000000E+00 0. -1.
</event>
<event>
 7    1  0.2577508E-013  0.7246157E+02  0.7816164E-02  0.1226708E+00
        -11   -1    0    0    0    0  0.00000000000E+00  0.00000000000E+00  0.45593999997E+02  0.45594000000E+02  0.51100000000E-03 0. -1.
         11   -1    0    0    0    0 -0.00000000000E+00 -0.00000000000E+00 -0.45593999997E+02  0.45594000000E+02  0.51100000000E-03 0.  1.
    9900012    2    1    2    0    0 -0.15792507902E+02 -0.21071931073E+01 -0.98405024605E+01  0.72461573290E+02  0.70000003903E+02 0.  0.
        -12    1    1    2    0    0  0.15792507902E+02  0.21071931073E+01  0.98405024605E+01  0.18726426710E+02  0.00000000000E+00 0.  1.
         11    1    3    3    0    0  0.37634882547E+01  0.49978627934E+01  0.56100638174E+01  0.84032905842E+01  0.51100000000E-03 0. -1.
        -11    1    3    3    0    0  0.15391884842E+02 -0.19580676159E+02 -0.84154303650E+01  0.26289398364E+02  0.51100000000E-03 0.  1.
        -12    1    3    3    0    0 -0.34947880999E+02  0.12475620258E+02 -0.70351359129E+01  0.37768884343E+02  0.00000000000E+00 0.  1.
</event>
<event>
 7    1  0.2577508E-013  0.7246158E+02  0.7816164E-02  0.1226708E+00
        -11   -1    0    0    0    0  0.00000000000E+00  0.00000000000E+00  0.45593999997E+02  0.45594000000E+02  0.51100000000E-03 0. -1.
         11   -1    0    0    0    0 -0.00000000000E+00 -0.00000000000E+00 -0.45593999997E+02  0.45594000000E+02  0.51100000000E-03 0.  1.
    9900012    2    1    2    0    0  0.22555731563E+01  0.10420448511E+01  0.18560853287E+02  0.72461581696E+02  0.70000014853E+02 0.  0.
        -12    1    1    2    0    0 -0.22555731563E+01 -0.10420448511E+01 -0.18560853287E+02  0.18726418304E+02  0.00000000000E+00 0.  1.
         11    1    3    3    0    0 -0.97803760093E+01  0.12141632923E+02  0.16727438156E+02  0.22866617424E+02  0.51100000000E-03 0. -1.
        -11    1    3    3    0    0 -0.58055158049E+01  0.14785501571E+02 -0.63541080049E+01  0.17108178139E+02  0.51100000000E-03 0.  1.
         12    1    3    3    0    0  0.17841464971E+02 -0.25885089642E+02  0.81875231365E+01  0.32486786132E+02  0.00000000000E+00 0. -1.
</event>
<event>
 7    1  0.2577508E-013  0.7246157E+02  0.7816164E-02  0.1226708E+00
        -11   -1    0    0    0    0  0.00000000000E+00  0.00000000000E+00  0.45593999997E+02  0.45594000000E+02  0.51100000000E-03 0.  1.
         11   -1    0    0    0    0 -0.00000000000E+00 -0.00000000000E+00 -0.45593999997E+02  0.45594000000E+02  0.51100000000E-03 0. -1.
    9900012    2    1    2    0    0  0.43942130432E+01  0.35045306451E+01 -0.17863046523E+02  0.72461567494E+02  0.69999996352E+02 0.  0.
        -12    1    1    2    0    0 -0.43942130432E+01 -0.35045306451E+01  0.17863046523E+02  0.18726432506E+02  0.00000000000E+00 0.  1.
         11    1    3    3    0    0  0.94978370252E+01  0.53303075819E+01 -0.98802454774E+01  0.14705112649E+02  0.51100000000E-03 0. -1.
        -11    1    3    3    0    0  0.10418461829E+02 -0.23590334068E+02 -0.15370714840E+02  0.30021776818E+02  0.51100000000E-03 0.  1.
         12    1    3    3    0    0 -0.15522085811E+02  0.21764557131E+02  0.73879137947E+01  0.27734678027E+02  0.00000000000E+00 0. -1.
</event>
<event>
 7    1  0.2577508E-013  0.7246159E+02  0.7816164E-02  0.1226708E+00
        -11   -1    0    0    0    0  0.00000000000E+00  0.00000000000E+00  0.45593999997E+02  0.45594000000E+02  0.51100000000E-03 0.  1.
         11   -1    0    0    0    0 -0.00000000000E+00 -0.00000000000E+00 -0.45593999997E+02  0.45594000000E+02  0.51100000000E-03 0. -1.
    9900012    2    1    2    0    0 -0.16963444144E+02  0.32667173985E+01 -0.72283147968E+01  0.72461590452E+02  0.70000026258E+02 0.  0.
        -12    1    1    2    0    0  0.16963444144E+02 -0.32667173985E+01  0.72283147968E+01  0.18726409548E+02  0.00000000000E+00 0.  1.
         11    1    3    3    0    0 -0.34270692071E+01  0.16170729757E+00  0.36817449851E+01  0.50325141825E+01  0.51100000000E-03 0. -1.
        -11    1    3    3    0    0 -0.69061679288E+01  0.14643926901E+02  0.24632293392E+02  0.29476933839E+02  0.51100000000E-03 0.  1.
         12    1    3    3    0    0 -0.66302070077E+01 -0.11538916800E+02 -0.35542353174E+02  0.37952142430E+02  0.00000000000E+00 0. -1.
</event>
<event>
 7    1  0.2577508E-013  0.7246156E+02  0.7816164E-02  0.1226708E+00
        -11   -1    0    0    0    0  0.00000000000E+00  0.00000000000E+00  0.45593999997E+02  0.45594000000E+02  0.51100000000E-03 0. -1.
         11   -1    0    0    0    0 -0.00000000000E+00 -0.00000000000E+00 -0.45593999997E+02  0.45594000000E+02  0.51100000000E-03 0.  1.
    9900012    2    1    2    0    0  0.40027377704E+01  0.13018915116E+02  0.12851667140E+02  0.72461563907E+02  0.69999991680E+02 0.  0.
        -12    1    1    2    0    0 -0.40027377704E+01 -0.13018915116E+02 -0.12851667140E+02  0.18726436093E+02  0.00000000000E+00 0.  1.
         11    1    3    3    0    0 -0.36180398139E+01  0.68761221558E+01 -0.64677390578E+01  0.10109545825E+02  0.51100000000E-03 0. -1.
        -11    1    3    3    0    0 -0.17080303292E+02  0.77755031572E+01 -0.12117093698E+02  0.22338736979E+02  0.51100000000E-03 0.  1.
        -12    1    3    3    0    0  0.24701080876E+02 -0.16327101969E+01  0.31436499895E+02  0.40013281104E+02  0.00000000000E+00 0.  1.
</event>
<event>
 7    1  0.2577508E-013  0.7246162E+02  0.7816164E-02  0.1226708E+00
        -11   -1    0    0    0    0  0.00000000000E+00  0.00000000000E+00  0.45593999997E+02  0.45594000000E+02  0.51100000000E-03 0.  1.
         11   -1    0    0    0    0 -0.00000000000E+00 -0.00000000000E+00 -0.45593999997E+02  0.45594000000E+02  0.51100000000E-03 0. -1.
    9900012    2    1    2    0    0 -0.10588217640E+02 -0.14225060485E+02  0.60178528104E+01  0.72461621519E+02  0.70000066729E+02 0.  0.
        -12    1    1    2    0    0  0.10588217640E+02  0.14225060485E+02 -0.60178528104E+01  0.18726378481E+02  0.00000000000E+00 0.  1.
         11    1    3    3    0    0  0.73117285166E+01  0.34322431658E+01  0.96926587394E+01  0.12617024243E+02  0.51100000000E-03 0. -1.
        -11    1    3    3    0    0 -0.95380482208E+01 -0.29081534017E+02  0.16829382825E+02  0.34927612446E+02  0.51100000000E-03 0.  1.
         12    1    3    3    0    0 -0.83618979358E+01  0.11424230367E+02 -0.20504188754E+02  0.24916984830E+02  0.00000000000E+00 0. -1.
</event>
<event>
 7    1  0.2577508E-013  0.7246157E+02  0.7816164E-02  0.1226708E+00
        -11   -1    0    0    0    0  0.00000000000E+00  0.00000000000E+00  0.45593999997E+02  0.45594000000E+02  0.51100000000E-03 0.  1.
         11   -1    0    0    0    0 -0.00000000000E+00 -0.00000000000E+00 -0.45593999997E+02  0.45594000000E+02  0.51100000000E-03 0. -1.
    9900012    2    1    2    0    0  0.71843415650E+01  0.17090511711E+02 -0.26417125730E+01  0.72461574832E+02  0.70000005911E+02 0.  0.
        -12    1    1    2    0    0 -0.71843415650E+01 -0.17090511711E+02  0.26417125730E+01  0.18726425168E+02  0.00000000000E+00 0.  1.
         11    1    3    3    0    0 -0.95046994849E+01  0.69000775961E+01 -0.17348375646E+01  0.11872659549E+02  0.51100000000E-03 0. -1.
        -11    1    3    3    0    0  0.44691000847E+01  0.31631148218E+02 -0.11197264178E+02  0.33850865845E+02  0.51100000000E-03 0.  1.
         12    1    3    3    0    0  0.12219940965E+02 -0.21440714103E+02  0.10290389170E+02  0.26738049437E+02  0.00000000000E+00 0. -1.
</event>
<event>
 7    1  0.2577508E-013  0.7246156E+02  0.7816164E-02  0.1226708E+00
        -11   -1    0    0    0    0  0.00000000000E+00  0.00000000000E+00  0.45593999997E+02  0.45594000000E+02  0.51100000000E-03 0.  1.
         11   -1    0    0    0    0 -0.00000000000E+00 -0.00000000000E+00 -0.45593999997E+02  0.45594000000E+02  0.51100000000E-03 0. -1.
    9900012    2    1    2    0    0  0.97966449118E+01 -0.78583461527E+01 -0.13890702504E+02  0.72461562222E+02  0.69999989485E+02 0.  0.
        -12    1    1    2    0    0 -0.97966449118E+01  0.78583461527E+01  0.13890702504E+02  0.18726437778E+02  0.00000000000E+00 0.  1.
         11    1    3    3    0    0  0.18542214110E+02 -0.43502019904E+01 -0.36691762554E+02  0.41340336248E+02  0.51100000000E-03 0. -1.
        -11    1    3    3    0    0  0.40675787403E+01  0.44035506830E+01  0.80921963309E+01  0.10070754547E+02  0.51100000000E-03 0.  1.
        -12    1    3    3    0    0 -0.12813147938E+02 -0.79116948453E+01  0.14708863719E+02  0.21050471428E+02  0.00000000000E+00 0.  1.
</event>
<event>
 7    1  0.2577508E-013  0.7246158E+02  0.7816164E-02  0.1226708E+00
        -11   -1    0    0    0    0  0.00000000000E+00  0.00000000000E+00  0.45593999997E+02  0.45594000000E+02  0.51100000000E-03 0. -1.
         11   -1    0    0    0    0 -0.00000000000E+00 -0.00000000000E+00 -0.45593999997E+02  0.45594000000E+02  0.51100000000E-03 0.  1.
    9900012    2    1    2    0    0  0.15990318308E+02  0.83107210847E+01  0.50912159463E+01  0.72461578976E+02  0.70000011310E+02 0.  0.
        -12    1    1    2    0    0 -0.15990318308E+02 -0.83107210847E+01 -0.50912159463E+01  0.18726421024E+02  0.00000000000E+00 0.  1.
         11    1    3    3    0    0 -0.12254121315E+02  0.13898072232E+02  0.11104304571E+02  0.21601515717E+02  0.51100000000E-03 0. -1.
        -11    1    3    3    0    0  0.65110510042E+01  0.26454202259E+01  0.16851194289E+02  0.18258005985E+02  0.51100000000E-03 0.  1.
        -12    1    3    3    0    0  0.21733388619E+02 -0.82327713734E+01 -0.22864282914E+02  0.32602057274E+02  0.00000000000E+00 0.  1.
</event>
<event>
 7    1  0.2577508E-013  0.7246151E+02  0.7816164E-02  0.1226708E+00
        -11   -1    0    0    0    0  0.00000000000E+00  0.00000000000E+00  0.45593999997E+02  0.45594000000E+02  0.51100000000E-03 0.  1.
         11   -1    0    0    0    0 -0.00000000000E+00 -0.00000000000E+00 -0.45593999997E+02  0.45594000000E+02  0.51100000000E-03 0. -1.
    9900012    2    1    2    0    0  0.15007209315E+02 -0.10537873051E+00  0.11200618077E+02  0.72461513907E+02  0.69999926544E+02 0.  0.
        -12    1    1    2    0    0 -0.15007209315E+02  0.10537873051E+00 -0.11200618077E+02  0.18726486093E+02  0.00000000000E+00 0.  1.
         11    1    3    3    0    0 -0.25940279898E+01  0.10587950893E+02 -0.41476551067E+01  0.11663478404E+02  0.51100000000E-03 0. -1.
        -11    1    3    3    0    0 -0.13229150801E+02 -0.85702538793E+01 -0.11778885267E+02  0.19677444469E+02  0.51100000000E-03 0.  1.
        -12    1    3    3    0    0  0.30830388105E+02 -0.21230757445E+01  0.27127158451E+02  0.41120591033E+02  0.00000000000E+00 0.  1.
</event>
<event>
 7    1  0.2577508E-013  0.7246155E+02  0.7816164E-02  0.1226708E+00
        -11   -1    0    0    0    0  0.00000000000E+00  0.00000000000E+00  0.45593999997E+02  0.45594000000E+02  0.51100000000E-03 0.  1.
         11   -1    0    0    0    0 -0.00000000000E+00 -0.00000000000E+00 -0.45593999997E+02  0.45594000000E+02  0.51100000000E-03 0. -1.
    9900012    2    1    2    0    0 -0.15288778148E+02  0.53705073802E+01  0.93856694994E+01  0.72461551358E+02  0.69999975332E+02 0.  0.
        -12    1    1    2    0    0  0.15288778148E+02 -0.53705073802E+01 -0.93856694994E+01  0.18726448642E+02  0.00000000000E+00 0.  1.
         11    1    3    3    0    0 -0.16800286397E+02  0.11588858792E+02 -0.24974891744E+02  0.32253627533E+02  0.51100000000E-03 0. -1.
        -11    1    3    3    0    0  0.27157315612E+00 -0.75472819274E+01  0.20217819155E+01  0.78181083931E+01  0.51100000000E-03 0.  1.
        -12    1    3    3    0    0  0.12399350932E+01  0.13289305157E+01  0.32338779328E+02  0.32389815433E+02  0.00000000000E+00 0.  1.
</event>
<event>
 7    1  0.2577508E-013  0.7246154E+02  0.7816164E-02  0.1226708E+00
        -11   -1    0    0    0    0  0.00000000000E+00  0.00000000000E+00  0.45593999997E+02  0.45594000000E+02  0.51100000000E-03 0. -1.
         11   -1    0    0    0    0 -0.00000000000E+00 -0.00000000000E+00 -0.45593999997E+02  0.45594000000E+02  0.51100000000E-03 0.  1.
    9900012    2    1    2    0    0  0.10603410729E+02 -0.48581077945E+01  0.14650824637E+02  0.72461542968E+02  0.69999964403E+02 0.  0.
        -12    1    1    2    0    0 -0.10603410729E+02  0.48581077945E+01 -0.14650824637E+02  0.18726457032E+02  0.00000000000E+00 0.  1.
         11    1    3    3    0    0 -0.27486723750E+01 -0.45570879349E+01  0.38163714792E+01  0.65488122435E+01  0.51100000000E-03 0. -1.
        -11    1    3    3    0    0 -0.12082266233E+02 -0.19159399241E+02 -0.13149890397E+02  0.26191283938E+02  0.51100000000E-03 0.  1.
         12    1    3    3    0    0  0.25434349337E+02  0.18858379381E+02  0.23984343555E+02  0.39721446787E+02  0.00000000000E+00 0. -1.
</event>
<event>
 7    1  0.2577508E-013  0.7246154E+02  0.7816164E-02  0.1226708E+00
        -11   -1    0    0    0    0  0.00000000000E+00  0.00000000000E+00  0.45593999997E+02  0.45594000000E+02  0.51100000000E-03 0. -1.
         11   -1    0    0    0    0 -0.00000000000E+00 -0.00000000000E+00 -0.45593999997E+02  0.45594000000E+02  0.51100000000E-03 0.  1.
    9900012    2    1    2    0    0  0.93220787190E+01  0.15843812691E+01  0.16163812008E+02  0.72461541865E+02  0.69999962966E+02 0.  0.
        -12    1    1    2    0    0 -0.93220787190E+01 -0.15843812691E+01 -0.16163812008E+02  0.18726458135E+02  0.00000000000E+00 0.  1.
         11    1    3    3    0    0  0.65649179520E+01 -0.94716772273E+01 -0.73206737759E+01  0.13652951403E+02  0.51100000000E-03 0. -1.
        -11    1    3    3    0    0  0.22751026642E+02  0.58426715729E+01 -0.46066552707E+01  0.23936735313E+02  0.51100000000E-03 0.  1.
         12    1    3    3    0    0 -0.19993865875E+02  0.52133869234E+01  0.28091141054E+02  0.34871855150E+02  0.00000000000E+00 0. -1.
</event>
<event>
 7    1  0.2577508E-013  0.7246159E+02  0.7816164E-02  0.1226708E+00
        -11   -1    0    0    0    0  0.00000000000E+00  0.00000000000E+00  0.45593999997E+02  0.45594000000E+02  0.51100000000E-03 0.  1.
         11   -1    0    0    0    0 -0.00000000000E+00 -0.00000000000E+00 -0.45593999997E+02  0.45594000000E+02  0.51100000000E-03 0. -1.
    9900012    2    1    2    0    0 -0.41658631852E+01 -0.17912979322E+02  0.35283351467E+01  0.72461591023E+02  0.70000027003E+02 0.  0.
        -12    1    1    2    0    0  0.41658631852E+01  0.17912979322E+02 -0.35283351467E+01  0.18726408977E+02  0.00000000000E+00 0.  1.
         11    1    3    3    0    0  0.20694779446E+02 -0.21751545784E+02 -0.50104381416E+01  0.30438596074E+02  0.51100000000E-03 0. -1.
        -11    1    3    3    0    0  0.22510593667E+01  0.96915694912E+01 -0.50264571666E+01  0.11147154766E+02  0.51100000000E-03 0.  1.
        -12    1    3    3    0    0 -0.27111701998E+02 -0.58530030287E+01  0.13565230455E+02  0.30875840183E+02  0.00000000000E+00 0.  1.
</event>
<event>
 7    1  0.2577508E-013  0.7246160E+02  0.7816164E-02  0.1226708E+00
        -11   -1    0    0    0    0  0.00000000000E+00  0.00000000000E+00  0.45593999997E+02  0.45594000000E+02  0.51100000000E-03 0.  1.
         11   -1    0    0    0    0 -0.00000000000E+00 -0.00000000000E+00 -0.45593999997E+02  0.45594000000E+02  0.51100000000E-03 0. -1.
    9900012    2    1    2    0    0 -0.10676385703E+02 -0.14742814546E+02  0.43979702561E+01  0.72461603262E+02  0.70000042947E+02 0.  0.
        -12    1    1    2    0    0  0.10676385703E+02  0.14742814546E+02 -0.43979702561E+01  0.18726396738E+02  0.00000000000E+00 0.  1.
         11    1    3    3    0    0 -0.11230166364E+02 -0.70416344828E+01 -0.13955522210E+02  0.19247281708E+02  0.51100000000E-03 0. -1.
        -11    1    3    3    0    0  0.17116371587E+02 -0.22101590683E+02  0.11427421239E+02  0.30199941117E+02  0.51100000000E-03 0.  1.
         12    1    3    3    0    0 -0.16562590927E+02  0.14400410621E+02  0.69260712273E+01  0.23014380437E+02  0.00000000000E+00 0. -1.
</event>
<event>
 7    1  0.2892052E-013  0.7246158E+02  0.7816164E-02  0.1226708E+00
        -11   -1    0    0    0    0  0.00000000000E+00  0.00000000000E+00  0.45593999997E+02  0.45594000000E+02  0.51100000000E-03 0. -1.
         11   -1    0    0    0    0 -0.00000000000E+00 -0.00000000000E+00 -0.45593999997E+02  0.45594000000E+02  0.51100000000E-03 0.  1.
    9900012    2    1    2    0    0 -0.91658683465E+01 -0.84069126540E+01  0.13999629258E+02  0.72461576362E+02  0.70000007904E+02 0.  0.
        -12    1    1    2    0    0  0.91658683465E+01  0.84069126540E+01 -0.13999629258E+02  0.18726423638E+02  0.00000000000E+00 0.  1.
         11    1    3    3    0    0 -0.62779737957E+01 -0.11823623458E+02  0.90119197800E+01  0.16137711270E+02  0.51100000000E-03 0. -1.
        -11    1    3    3    0    0  0.19271219226E+02 -0.15228023967E+02 -0.61110134300E+01  0.25310414651E+02  0.51100000000E-03 0.  1.
         12    1    3    3    0    0 -0.22159113777E+02  0.18644734771E+02  0.11098722908E+02  0.31013450441E+02  0.00000000000E+00 0. -1.
</event>
<event>
 7    1  0.2577508E-013  0.7246156E+02  0.7816164E-02  0.1226708E+00
        -11   -1    0    0    0    0  0.00000000000E+00  0.00000000000E+00  0.45593999997E+02  0.45594000000E+02  0.51100000000E-03 0. -1.
         11   -1    0    0    0    0 -0.00000000000E+00 -0.00000000000E+00 -0.45593999997E+02  0.45594000000E+02  0.51100000000E-03 0.  1.
    9900012    2    1    2    0    0 -0.10536997415E+02  0.33150340768E+01  0.15121563326E+02  0.72461562996E+02  0.69999990492E+02 0.  0.
        -12    1    1    2    0    0  0.10536997415E+02 -0.33150340768E+01 -0.15121563326E+02  0.18726437004E+02  0.00000000000E+00 0.  1.
         11    1    3    3    0    0  0.79014058719E+01  0.61900899712E+01  0.23385370069E+01  0.10306220655E+02  0.51100000000E-03 0. -1.
        -11    1    3    3    0    0  0.16663167057E+02 -0.16113774430E+02  0.68731898036E+01  0.24177584683E+02  0.51100000000E-03 0.  1.
         12    1    3    3    0    0 -0.35101570344E+02  0.13238718536E+02  0.59098365156E+01  0.37977757658E+02  0.00000000000E+00 0. -1.
</event>
<event>
 7    1  0.2577508E-013  0.7246158E+02  0.7816164E-02  0.1226708E+00
        -11   -1    0    0    0    0  0.00000000000E+00  0.00000000000E+00  0.45593999997E+02  0.45594000000E+02  0.51100000000E-03 0.  1.
         11   -1    0    0    0    0 -0.00000000000E+00 -0.00000000000E+00 -0.45593999997E+02  0.45594000000E+02  0.51100000000E-03 0. -1.
    9900012    2    1    2    0    0  0.12525401229E+02 -0.11295991003E+02  0.81359634557E+01  0.72461575086E+02  0.70000006243E+02 0.  0.
        -12    1    1    2    0    0 -0.12525401229E+02  0.11295991003E+02 -0.81359634557E+01  0.18726424914E+02  0.00000000000E+00 0.  1.
         11    1    3    3    0    0 -0.42239896589E+01 -0.22058191674E+02  0.17048235757E+02  0.28196599994E+02  0.51100000000E-03 0. -1.
        -11    1    3    3    0    0  0.96919499851E+01 -0.12509354515E+02 -0.11850464329E+02  0.19769960798E+02  0.51100000000E-03 0.  1.
        -12    1    3    3    0    0  0.70574409026E+01  0.23271555186E+02  0.29381920279E+01  0.24495014294E+02  0.00000000000E+00 0.  1.
</event>
<event>
 7    1  0.2577508E-013  0.7246137E+02  0.7816164E-02  0.1226709E+00
        -11   -1    0    0    0    0  0.00000000000E+00  0.00000000000E+00  0.45593999997E+02  0.45594000000E+02  0.51100000000E-03 0. -1.
         11   -1    0    0    0    0 -0.00000000000E+00 -0.00000000000E+00 -0.45593999997E+02  0.45594000000E+02  0.51100000000E-03 0.  1.
    9900012    2    1    2    0    0  0.12764581937E+02  0.13244779808E+02 -0.35110953000E+01  0.72461373651E+02  0.69999743836E+02 0.  0.
        -12    1    1    2    0    0 -0.12764581937E+02 -0.13244779808E+02  0.35110953000E+01  0.18726626349E+02  0.00000000000E+00 0.  1.
         11    1    3    3    0    0  0.35661341309E+02 -0.56109323456E+01  0.82154367484E+01  0.37023063446E+02  0.51100000000E-03 0. -1.
        -11    1    3    3    0    0  0.17581685723E+01 -0.71385353891E+00 -0.12099007736E+01  0.22504674507E+01  0.51100000000E-03 0.  1.
        -12    1    3    3    0    0 -0.24654927944E+02  0.19569565693E+02 -0.10516631275E+02  0.33187842754E+02  0.00000000000E+00 0.  1.
</event>
<event>
 7    1  0.2577508E-013  0.7246159E+02  0.7816164E-02  0.1226708E+00
        -11   -1    0    0    0    0  0.00000000000E+00  0.00000000000E+00  0.45593999997E+02  0.45594000000E+02  0.51100000000E-03 0. -1.
         11   -1    0    0    0    0 -0.00000000000E+00 -0.00000000000E+00 -0.45593999997E+02  0.45594000000E+02  0.51100000000E-03 0.  1.
    9900012    2    1    2    0    0 -0.72871508987E+00  0.15601352496E+02  0.10331749426E+02  0.72461594269E+02  0.70000031232E+02 0.  0.
        -12    1    1    2    0    0  0.72871508987E+00 -0.15601352496E+02 -0.10331749426E+02  0.18726405731E+02  0.00000000000E+00 0.  1.
         11    1    3    3    0    0  0.14750268482E+02  0.10184742408E+02  0.93158831124E+01  0.20201115728E+02  0.51100000000E-03 0. -1.
        -11    1    3    3    0    0 -0.21664254456E+02  0.22899917715E+02  0.78665024260E+01  0.32490429563E+02  0.51100000000E-03 0.  1.
         12    1    3    3    0    0  0.61852708841E+01 -0.17483307627E+02 -0.68506361128E+01  0.19770048979E+02  0.00000000000E+00 0. -1.
</event>
<event>
 7    1  0.2577508E-013  0.7246130E+02  0.7816164E-02  0.1226709E+00
        -11   -1    0    0    0    0  0.00000000000E+00  0.00000000000E+00  0.45593999997E+02  0.45594000000E+02  0.51100000000E-03 0.  1.
         11   -1    0    0    0    0 -0.00000000000E+00 -0.00000000000E+00 -0.45593999997E+02  0.45594000000E+02  0.51100000000E-03 0. -1.
    9900012    2    1    2    0    0  0.14594483155E+02 -0.10870869185E+02 -0.44175188239E+01  0.72461302267E+02  0.69999650844E+02 0.  0.
        -12    1    1    2    0    0 -0.14594483155E+02  0.10870869185E+02  0.44175188239E+01  0.18726697733E+02  0.00000000000E+00 0.  1.
         11    1    3    3    0    0  0.20768408158E+02 -0.12730548594E+02 -0.27550113302E+02  0.36775023972E+02  0.51100000000E-03 0. -1.
        -11    1    3    3    0    0 -0.16355215721E+01 -0.12790425777E+01 -0.58372916527E+01  0.61955512126E+01  0.51100000000E-03 0.  1.
        -12    1    3    3    0    0 -0.45384034311E+01  0.31387219862E+01  0.28969886131E+02  0.29490727083E+02  0.00000000000E+00 0.  1.
</event>
<event>
 7    1  0.2577508E-013  0.7246170E+02  0.7816164E-02  0.1226708E+00
        -11   -1    0    0    0    0  0.00000000000E+00  0.00000000000E+00  0.45593999997E+02  0.45594000000E+02  0.51100000000E-03 0.  1.
         11   -1    0    0    0    0 -0.00000000000E+00 -0.00000000000E+00 -0.45593999997E+02  0.45594000000E+02  0.51100000000E-03 0. -1.
    9900012    2    1    2    0    0  0.49697407794E+01 -0.83067298887E+01 -0.16030411187E+02  0.72461703845E+02  0.70000173974E+02 0.  0.
        -12    1    1    2    0    0 -0.49697407794E+01  0.83067298887E+01  0.16030411187E+02  0.18726296155E+02  0.00000000000E+00 0.  1.
         11    1    3    3    0    0  0.12309230559E+02 -0.69987318303E+01 -0.13094648084E+02  0.19286503387E+02  0.51100000000E-03 0. -1.
        -11    1    3    3    0    0  0.79477308232E+01  0.18088801881E+02  0.13120792786E+02  0.23717638633E+02  0.51100000000E-03 0.  1.
         12    1    3    3    0    0 -0.15287220603E+02 -0.19396799940E+02 -0.16056555889E+02  0.29457561825E+02  0.00000000000E+00 0. -1.
</event>
<event>
 7    1  0.2577508E-013  0.7246154E+02  0.7816164E-02  0.1226708E+00
        -11   -1    0    0    0    0  0.00000000000E+00  0.00000000000E+00  0.45593999997E+02  0.45594000000E+02  0.51100000000E-03 0. -1.
         11   -1    0    0    0    0 -0.00000000000E+00 -0.00000000000E+00 -0.45593999997E+02  0.45594000000E+02  0.51100000000E-03 0.  1.
    9900012    2    1    2    0    0  0.13108934369E+00 -0.18719433208E+02  0.49603307996E+00  0.72461537097E+02  0.69999956754E+02 0.  0.
        -12    1    1    2    0    0 -0.13108934369E+00  0.18719433208E+02 -0.49603307996E+00  0.18726462903E+02  0.00000000000E+00 0.  1.
         11    1    3    3    0    0  0.30332075280E+01  0.16990337539E+02  0.22320467187E+02  0.28214804152E+02  0.51100000000E-03 0. -1.
        -11    1    3    3    0    0  0.51771224865E+01 -0.99914374328E+01 -0.89208925358E+01  0.14360144258E+02  0.51100000000E-03 0.  1.
        -12    1    3    3    0    0 -0.80792406707E+01 -0.25718333314E+02 -0.12903541571E+02  0.29886588687E+02  0.00000000000E+00 0.  1.
</event>
<event>
 7    1  0.2577508E-013  0.7246158E+02  0.7816164E-02  0.1226708E+00
        -11   -1    0    0    0    0  0.00000000000E+00  0.00000000000E+00  0.45593999997E+02  0.45594000000E+02  0.51100000000E-03 0.  1.
         11   -1    0    0    0    0 -0.00000000000E+00 -0.00000000000E+00 -0.45593999997E+02  0.45594000000E+02  0.51100000000E-03 0. -1.
    9900012    2    1    2    0    0 -0.87591769303E+00  0.17359896764E+02 -0.69674594283E+01  0.72461581807E+02  0.70000014998E+02 0.  0.
        -12    1    1    2    0    0  0.87591769303E+00 -0.17359896764E+02  0.69674594283E+01  0.18726418193E+02  0.00000000000E+00 0.  1.
         11    1    3    3    0    0 -0.30393678034E+02  0.22083150682E+02 -0.62900752750E+01  0.38092076023E+02  0.51100000000E-03 0. -1.
        -11    1    3    3    0    0 -0.61813556744E+00  0.19750196292E+00  0.34914518059E+01  0.35512440889E+01  0.51100000000E-03 0.  1.
        -12    1    3    3    0    0  0.30135895909E+02 -0.49207558812E+01 -0.41688359592E+01  0.30818261695E+02  0.00000000000E+00 0.  1.
</event>
<event>
 7    1  0.2577508E-013  0.7246155E+02  0.7816164E-02  0.1226708E+00
        -11   -1    0    0    0    0  0.00000000000E+00  0.00000000000E+00  0.45593999997E+02  0.45594000000E+02  0.51100000000E-03 0.  1.
         11   -1    0    0    0    0 -0.00000000000E+00 -0.00000000000E+00 -0.45593999997E+02  0.45594000000E+02  0.51100000000E-03 0. -1.
    9900012    2    1    2    0    0  0.28287569616E+00 -0.16142429710E+02 -0.94879770992E+01  0.72461554394E+02  0.69999979286E+02 0.  0.
        -12    1    1    2    0    0 -0.28287569616E+00  0.16142429710E+02  0.94879770992E+01  0.18726445606E+02  0.00000000000E+00 0.  1.
         11    1    3    3    0    0  0.95566943377E+01 -0.60952612091E+01 -0.13914919782E+02  0.17947356593E+02  0.51100000000E-03 0. -1.
        -11    1    3    3    0    0  0.20453266431E+02  0.49299110034E+01  0.12500384618E+01  0.21076117446E+02  0.51100000000E-03 0.  1.
        -12    1    3    3    0    0 -0.29727085072E+02 -0.14977079505E+02  0.31769042206E+01  0.33438080355E+02  0.00000000000E+00 0.  1.
</event>
<event>
 7    1  0.2577508E-013  0.7246159E+02  0.7816164E-02  0.1226708E+00
        -11   -1    0    0    0    0  0.00000000000E+00  0.00000000000E+00  0.45593999997E+02  0.45594000000E+02  0.51100000000E-03 0.  1.
         11   -1    0    0    0    0 -0.00000000000E+00 -0.00000000000E+00 -0.45593999997E+02  0.45594000000E+02  0.51100000000E-03 0. -1.
    9900012    2    1    2    0    0 -0.11920033197E+02 -0.11338877869E+02  0.89454492693E+01  0.72461590697E+02  0.70000026579E+02 0.  0.
        -12    1    1    2    0    0  0.11920033197E+02  0.11338877869E+02 -0.89454492693E+01  0.18726409303E+02  0.00000000000E+00 0.  1.
         11    1    3    3    0    0  0.17655106356E+02 -0.11065128959E+02 -0.69229388344E+01  0.21956022902E+02  0.51100000000E-03 0. -1.
        -11    1    3    3    0    0  0.65608728143E+01 -0.40035019697E+01 -0.44503554942E+01  0.88813706370E+01  0.51100000000E-03 0.  1.
        -12    1    3    3    0    0 -0.36136012367E+02  0.37297530600E+01  0.20318743598E+02  0.41624197158E+02  0.00000000000E+00 0.  1.
</event>
<event>
 7    1  0.2577508E-013  0.7246156E+02  0.7816164E-02  0.1226708E+00
        -11   -1    0    0    0    0  0.00000000000E+00  0.00000000000E+00  0.45593999997E+02  0.45594000000E+02  0.51100000000E-03 0. -1.
         11   -1    0    0    0    0 -0.00000000000E+00 -0.00000000000E+00 -0.45593999997E+02  0.45594000000E+02  0.51100000000E-03 0.  1.
    9900012    2    1    2    0    0 -0.18690321082E+02  0.33659143322E-01 -0.11619686330E+01  0.72461563975E+02  0.69999991768E+02 0.  0.
        -12    1    1    2    0    0  0.18690321082E+02 -0.33659143322E-01  0.11619686330E+01  0.18726436025E+02  0.00000000000E+00 0.  1.
         11    1    3    3    0    0 -0.19906593825E+02 -0.65561381389E+01  0.83365005968E+00  0.20974994582E+02  0.51100000000E-03 0. -1.
        -11    1    3    3    0    0 -0.44225436109E+01 -0.11779243671E+02 -0.20987279816E+02  0.24469887368E+02  0.51100000000E-03 0.  1.
         12    1    3    3    0    0  0.56388163539E+01  0.18369040953E+02  0.18991661123E+02  0.27016682025E+02  0.00000000000E+00 0. -1.
</event>
<event>
 7    1  0.2577508E-013  0.7246157E+02  0.7816164E-02  0.1226708E+00
        -11   -1    0    0    0    0  0.00000000000E+00  0.00000000000E+00  0.45593999997E+02  0.45594000000E+02  0.51100000000E-03 0.  1.
         11   -1    0    0    0    0 -0.00000000000E+00 -0.00000000000E+00 -0.45593999997E+02  0.45594000000E+02  0.51100000000E-03 0. -1.
    9900012    2    1    2    0    0 -0.99436782621E+01  0.46336433972E+01 -0.15176689644E+02  0.72461566889E+02  0.69999995564E+02 0.  0.
        -12    1    1    2    0    0  0.99436782621E+01 -0.46336433972E+01  0.15176689644E+02  0.18726433111E+02  0.00000000000E+00 0.  1.
         11    1    3    3    0    0 -0.81663919603E+01  0.12618914866E+02 -0.12286913405E+02  0.19413789206E+02  0.51100000000E-03 0. -1.
        -11    1    3    3    0    0  0.17541673386E+02  0.13333183692E+02  0.61769550818E+01  0.22883156839E+02  0.51100000000E-03 0.  1.
         12    1    3    3    0    0 -0.19318959688E+02 -0.21318455161E+02 -0.90667313207E+01  0.30164620845E+02  0.00000000000E+00 0. -1.
</event>
<event>
 7    1  0.2577508E-013  0.7246157E+02  0.7816164E-02  0.1226708E+00
        -11   -1    0    0    0    0  0.00000000000E+00  0.00000000000E+00  0.45593999997E+02  0.45594000000E+02  0.51100000000E-03 0. -1.
         11   -1    0    0    0    0 -0.00000000000E+00 -0.00000000000E+00 -0.45593999997E+02  0.45594000000E+02  0.51100000000E-03 0.  1.
    9900012    2    1    2    0    0 -0.48803643904E+01  0.15656397226E+02  0.90409244890E+01  0.72461573585E+02  0.70000004286E+02 0.  0.
        -12    1    1    2    0    0  0.48803643904E+01 -0.15656397226E+02 -0.90409244890E+01  0.18726426415E+02  0.00000000000E+00 0.  1.
         11    1    3    3    0    0 -0.10422955128E+02  0.47739546003E+01  0.12677856893E+02  0.17092591722E+02  0.51100000000E-03 0. -1.
        -11    1    3    3    0    0  0.22606073059E+02 -0.12761680492E+02 -0.36199560144E+01  0.26210667865E+02  0.51100000000E-03 0.  1.
         12    1    3    3    0    0 -0.17063482322E+02  0.23644123118E+02 -0.16976389802E-01  0.29158313997E+02  0.00000000000E+00 0. -1.
</event>
<event>
 7    1  0.2577508E-013  0.7246155E+02  0.7816164E-02  0.1226708E+00
        -11   -1    0    0    0    0  0.00000000000E+00  0.00000000000E+00  0.45593999997E+02  0.45594000000E+02  0.51100000000E-03 0.  1.
         11   -1    0    0    0    0 -0.00000000000E+00 -0.00000000000E+00 -0.45593999997E+02  0.45594000000E+02  0.51100000000E-03 0. -1.
    9900012    2    1    2    0    0  0.20452631171E+01 -0.14934744867E+01 -0.18554413098E+02  0.72461553122E+02  0.69999977630E+02 0.  0.
        -12    1    1    2    0    0 -0.20452631171E+01  0.14934744867E+01  0.18554413098E+02  0.18726446878E+02  0.00000000000E+00 0.  1.
         11    1    3    3    0    0  0.14881038113E+02  0.93647232853E+01 -0.24883703828E+02  0.30468706142E+02  0.51100000000E-03 0. -1.
        -11    1    3    3    0    0  0.40679911325E+01 -0.41989760983E+01  0.18976140654E+02  0.19856330640E+02  0.51100000000E-03 0.  1.
         12    1    3    3    0    0 -0.16903766129E+02 -0.66592216738E+01 -0.12646849924E+02  0.22136516339E+02  0.00000000000E+00 0. -1.
</event>
<event>
 7    1  0.2577508E-013  0.7246161E+02  0.7816164E-02  0.1226708E+00
        -11   -1    0    0    0    0  0.00000000000E+00  0.00000000000E+00  0.45593999997E+02  0.45594000000E+02  0.51100000000E-03 0. -1.
         11   -1    0    0    0    0 -0.00000000000E+00 -0.00000000000E+00 -0.45593999997E+02  0.45594000000E+02  0.51100000000E-03 0.  1.
    9900012    2    1    2    0    0 -0.68067715007E+01  0.40146004988E+01  0.16977289171E+02  0.72461614790E+02  0.70000057964E+02 0.  0.
        -12    1    1    2    0    0  0.68067715007E+01 -0.40146004988E+01 -0.16977289171E+02  0.18726385210E+02  0.00000000000E+00 0.  1.
         11    1    3    3    0    0  0.10425542392E+02  0.11187235631E+02  0.57531658171E+01  0.16338454408E+02  0.51100000000E-03 0. -1.
        -11    1    3    3    0    0 -0.11619231331E+02  0.20485017991E+02  0.14586402659E+02  0.27702087316E+02  0.51100000000E-03 0.  1.
        -12    1    3    3    0    0 -0.56130825617E+01 -0.27657653124E+02 -0.33622793057E+01  0.28421073067E+02  0.00000000000E+00 0.  1.
</event>
<event>
 7    1  0.2577508E-013  0.7246158E+02  0.7816164E-02  0.1226708E+00
        -11   -1    0    0    0    0  0.00000000000E+00  0.00000000000E+00  0.45593999997E+02  0.45594000000E+02  0.51100000000E-03 0. -1.
         11   -1    0    0    0    0 -0.00000000000E+00 -0.00000000000E+00 -0.45593999997E+02  0.45594000000E+02  0.51100000000E-03 0.  1.
    9900012    2    1    2    0    0  0.10657944572E+02  0.15394042101E+02  0.33255332000E+00  0.72461577320E+02  0.70000009152E+02 0.  0.
        -12    1    1    2    0    0 -0.10657944572E+02 -0.15394042101E+02 -0.33255332000E+00  0.18726422680E+02  0.00000000000E+00 0.  1.
         11    1    3    3    0    0 -0.78781506572E+01  0.87795310686E+01  0.72412076876E+01  0.13841261236E+02  0.51100000000E-03 0. -1.
        -11    1    3    3    0    0  0.17945619507E+02  0.12951163927E+02  0.20690781302E+02  0.30296639049E+02  0.51100000000E-03 0.  1.
        -12    1    3    3    0    0  0.59047572245E+00 -0.63366528951E+01 -0.27599435669E+02  0.28323677034E+02  0.00000000000E+00 0.  1.
</event>
<event>
 7    1  0.2577508E-013  0.7246158E+02  0.7816164E-02  0.1226708E+00
        -11   -1    0    0    0    0  0.00000000000E+00  0.00000000000E+00  0.45593999997E+02  0.45594000000E+02  0.51100000000E-03 0. -1.
         11   -1    0    0    0    0 -0.00000000000E+00 -0.00000000000E+00 -0.45593999997E+02  0.45594000000E+02  0.51100000000E-03 0.  1.
    9900012    2    1    2    0    0 -0.17232778549E+02  0.58989094674E+01 -0.43489045927E+01  0.72461581213E+02  0.70000014224E+02 0.  0.
        -12    1    1    2    0    0  0.17232778549E+02 -0.58989094674E+01  0.43489045927E+01  0.18726418787E+02  0.00000000000E+00 0.  1.
         11    1    3    3    0    0  0.76702165252E+01 -0.15820092425E+01 -0.13987177603E+02  0.16030474489E+02  0.51100000000E-03 0. -1.
        -11    1    3    3    0    0 -0.82612479119E+01 -0.18739164191E+01 -0.19691013898E+02  0.21435853340E+02  0.51100000000E-03 0.  1.
         12    1    3    3    0    0 -0.16641747162E+02  0.93548351291E+01  0.29329286908E+02  0.34995253384E+02  0.00000000000E+00 0. -1.
</event>
<event>
 7    1  0.2577508E-013  0.7246154E+02  0.7816164E-02  0.1226708E+00
        -11   -1    0    0    0    0  0.00000000000E+00  0.00000000000E+00  0.45593999997E+02  0.45594000000E+02  0.51100000000E-03 0.  1.
         11   -1    0    0    0    0 -0.00000000000E+00 -0.00000000000E+00 -0.45593999997E+02  0.45594000000E+02  0.51100000000E-03 0. -1.
    9900012    2    1    2    0    0  0.66569960551E+01  0.97132704888E+01 -0.14560807435E+02  0.72461539223E+02  0.69999959524E+02 0.  0.
        -12    1    1    2    0    0 -0.66569960551E+01 -0.97132704888E+01  0.14560807435E+02  0.18726460777E+02  0.00000000000E+00 0.  1.
         11    1    3    3    0    0  0.10787253284E+02  0.19821727112E+02 -0.18969883736E+02  0.29480878351E+02  0.51100000000E-03 0. -1.
        -11    1    3    3    0    0  0.11628248185E+02 -0.69500767212E+01 -0.13356441648E+02  0.19024044156E+02  0.51100000000E-03 0.  1.
        -12    1    3    3    0    0 -0.15758505414E+02 -0.31583799023E+01  0.17765517949E+02  0.23956616716E+02  0.00000000000E+00 0.  1.
</event>
<event>
 7    1  0.2577508E-013  0.7246151E+02  0.7816164E-02  0.1226708E+00
        -11   -1    0    0    0    0  0.00000000000E+00  0.00000000000E+00  0.45593999997E+02  0.45594000000E+02  0.51100000000E-03 0.  1.
         11   -1    0    0    0    0 -0.00000000000E+00 -0.00000000000E+00 -0.45593999997E+02  0.45594000000E+02  0.51100000000E-03 0. -1.
    9900012    2    1    2    0    0  0.62029343227E+01 -0.17305253977E+02 -0.35683655101E+01  0.72461509623E+02  0.69999920964E+02 0.  0.
        -12    1    1    2    0    0 -0.62029343227E+01  0.17305253977E+02  0.35683655101E+01  0.18726490377E+02  0.00000000000E+00 0.  1.
         11    1    3    3    0    0 -0.15582010951E+02 -0.11196558314E+01 -0.11193176697E+02  0.19218217901E+02  0.51100000000E-03 0. -1.
        -11    1    3    3    0    0 -0.15568219088E+01 -0.18611398040E+02  0.19449866724E+02  0.26964887303E+02  0.51100000000E-03 0.  1.
         12    1    3    3    0    0  0.23341767183E+02  0.24257998942E+01 -0.11825055537E+02  0.26278404419E+02  0.00000000000E+00 0. -1.
</event>
<event>
 7    1  0.2577508E-013  0.7246132E+02  0.7816164E-02  0.1226709E+00
        -11   -1    0    0    0    0  0.00000000000E+00  0.00000000000E+00  0.45593999997E+02  0.45594000000E+02  0.51100000000E-03 0.  1.
         11   -1    0    0    0    0 -0.00000000000E+00 -0.00000000000E+00 -0.45593999997E+02  0.45594000000E+02  0.51100000000E-03 0. -1.
    9900012    2    1    2    0    0 -0.48832793507E+00  0.70825955661E+01  0.17328786486E+02  0.72461322100E+02  0.69999676679E+02 0.  0.
        -12    1    1    2    0    0  0.48832793507E+00 -0.70825955661E+01 -0.17328786486E+02  0.18726677900E+02  0.00000000000E+00 0.  1.
         11    1    3    3    0    0  0.71774576928E+01  0.38634072440E+01  0.15847292575E+02  0.17820732215E+02  0.51100000000E-03 0. -1.
        -11    1    3    3    0    0  0.22646246336E+02  0.28699237648E+01  0.68971549337E+01  0.23846586380E+02  0.51100000000E-03 0.  1.
         12    1    3    3    0    0 -0.30312031964E+02  0.34926455734E+00 -0.54156610235E+01  0.30794003504E+02  0.00000000000E+00 0. -1.
</event>
<event>
 7    1  0.2577508E-013  0.7246146E+02  0.7816164E-02  0.1226708E+00
        -11   -1    0    0    0    0  0.00000000000E+00  0.00000000000E+00  0.45593999997E+02  0.45594000000E+02  0.51100000000E-03 0. -1.
         11   -1    0    0    0    0 -0.00000000000E+00 -0.00000000000E+00 -0.45593999997E+02  0.45594000000E+02  0.51100000000E-03 0.  1.
    9900012    2    1    2    0    0  0.31873578506E+01  0.12316719182E+02  0.13741274681E+02  0.72461455970E+02  0.69999851071E+02 0.  0.
        -12    1    1    2    0    0 -0.31873578506E+01 -0.12316719182E+02 -0.13741274681E+02  0.18726544030E+02  0.00000000000E+00 0.  1.
         11    1    3    3    0    0 -0.25840383220E+02 -0.24454554264E+01  0.16105114163E+02  0.30546364098E+02  0.51100000000E-03 0. -1.
        -11    1    3    3    0    0  0.12198069030E+02  0.10053037029E+01  0.10951862126E+02  0.16423970527E+02  0.51100000000E-03 0.  1.
        -12    1    3    3    0    0  0.16829672041E+02  0.13756870905E+02 -0.13315701607E+02  0.25491121344E+02  0.00000000000E+00 0.  1.
</event>
<event>
 7    1  0.2577508E-013  0.7246154E+02  0.7816164E-02  0.1226708E+00
        -11   -1    0    0    0    0  0.00000000000E+00  0.00000000000E+00  0.45593999997E+02  0.45594000000E+02  0.51100000000E-03 0. -1.
         11   -1    0    0    0    0 -0.00000000000E+00 -0.00000000000E+00 -0.45593999997E+02  0.45594000000E+02  0.51100000000E-03 0.  1.
    9900012    2    1    2    0    0  0.13347449455E-01  0.24626921483E+01  0.18563821180E+02  0.72461535102E+02  0.69999954156E+02 0.  0.
        -12    1    1    2    0    0 -0.13347449455E-01 -0.24626921483E+01 -0.18563821180E+02  0.18726464898E+02  0.00000000000E+00 0.  1.
         11    1    3    3    0    0 -0.19703518644E+01 -0.39862750014E+01  0.17647559330E+01  0.47840399894E+01  0.51100000000E-03 0. -1.
        -11    1    3    3    0    0 -0.18200497852E+02 -0.14651466185E+02 -0.12341862056E+02  0.26424328614E+02  0.51100000000E-03 0.  1.
         12    1    3    3    0    0  0.20184197166E+02  0.21100433334E+02  0.29140927302E+02  0.41253166499E+02  0.00000000000E+00 0. -1.
</event>
<event>
 7    1  0.2577508E-013  0.7246189E+02  0.7816164E-02  0.1226707E+00
        -11   -1    0    0    0    0  0.00000000000E+00  0.00000000000E+00  0.45593999997E+02  0.45594000000E+02  0.51100000000E-03 0. -1.
         11   -1    0    0    0    0 -0.00000000000E+00 -0.00000000000E+00 -0.45593999997E+02  0.45594000000E+02  0.51100000000E-03 0.  1.
    9900012    2    1    2    0    0 -0.14619292469E+02  0.62152167437E+01  0.99153618992E+01  0.72461894344E+02  0.70000422133E+02 0.  0.
        -12    1    1    2    0    0  0.14619292469E+02 -0.62152167437E+01 -0.99153618992E+01  0.18726105656E+02  0.00000000000E+00 0.  1.
         11    1    3    3    0    0  0.31178624385E+00 -0.73959851304E+01 -0.99514395628E+00  0.74691444266E+01  0.51100000000E-03 0. -1.
        -11    1    3    3    0    0 -0.11513230895E+02 -0.26542972916E+01 -0.23764784319E+02  0.26539871020E+02  0.51100000000E-03 0.  1.
         12    1    3    3    0    0 -0.34178478171E+01  0.16265499166E+02  0.34675290174E+02  0.38452878897E+02  0.00000000000E+00 0. -1.
</event>
<event>
 7    1  0.2577508E-013  0.7246124E+02  0.7816164E-02  0.1226709E+00
        -11   -1    0    0    0    0  0.00000000000E+00  0.00000000000E+00  0.45593999997E+02  0.45594000000E+02  0.51100000000E-03 0.  1.
         11   -1    0    0    0    0 -0.00000000000E+00 -0.00000000000E+00 -0.45593999997E+02  0.45594000000E+02  0.51100000000E-03 0. -1.
    9900012    2    1    2    0    0 -0.17651478798E+02 -0.25143437052E+01 -0.57266882840E+01  0.72461238755E+02  0.69999568107E+02 0.  0.
        -12    1    1    2    0    0  0.17651478798E+02  0.25143437052E+01  0.57266882840E+01  0.18726761245E+02  0.00000000000E+00 0.  1.
         11    1    3    3    0    0  0.10013016861E+02 -0.40321256529E+01  0.66242607592E+01  0.12664887477E+02  0.51100000000E-03 0. -1.
        -11    1    3    3    0    0  0.13188978808E+01  0.10026625411E+02  0.15633348942E+02  0.18619191931E+02  0.51100000000E-03 0.  1.
         12    1    3    3    0    0 -0.28983393540E+02 -0.85088434637E+01 -0.27984297985E+02  0.41177159347E+02  0.00000000000E+00 0. -1.
</event>
<event>
 7    1  0.2577508E-013  0.7246159E+02  0.7816164E-02  0.1226708E+00
        -11   -1    0    0    0    0  0.00000000000E+00  0.00000000000E+00  0.45593999997E+02  0.45594000000E+02  0.51100000000E-03 0.  1.
         11   -1    0    0    0    0 -0.00000000000E+00 -0.00000000000E+00 -0.45593999997E+02  0.45594000000E+02  0.51100000000E-03 0. -1.
    9900012    2    1    2    0    0  0.14936602429E+02 -0.84367545410E+01 -0.75098332648E+01  0.72461587771E+02  0.70000022767E+02 0.  0.
        -12    1    1    2    0    0 -0.14936602429E+02  0.84367545410E+01  0.75098332648E+01  0.18726412229E+02  0.00000000000E+00 0.  1.
         11    1    3    3    0    0 -0.19420745924E+00 -0.58210949545E+01  0.16844198794E+01  0.60630135739E+01  0.51100000000E-03 0. -1.
        -11    1    3    3    0    0  0.11268710025E+01 -0.32573815542E+02 -0.27708491849E+01  0.32710868265E+02  0.51100000000E-03 0.  1.
         12    1    3    3    0    0  0.14003938886E+02  0.29958155955E+02 -0.64234039593E+01  0.33687705932E+02  0.00000000000E+00 0. -1.
</event>
<event>
 7    1  0.2577508E-013  0.7246181E+02  0.7816164E-02  0.1226707E+00
        -11   -1    0    0    0    0  0.00000000000E+00  0.00000000000E+00  0.45593999997E+02  0.45594000000E+02  0.51100000000E-03 0.  1.
         11   -1    0    0    0    0 -0.00000000000E+00 -0.00000000000E+00 -0.45593999997E+02  0.45594000000E+02  0.51100000000E-03 0. -1.
    9900012    2    1    2    0    0 -0.87351151820E+01 -0.39897220975E+01 -0.16076378885E+02  0.72461813049E+02  0.70000316233E+02 0.  0.
        -12    1    1    2    0    0  0.87351151820E+01  0.39897220975E+01  0.16076378885E+02  0.18726186951E+02  0.00000000000E+00 0.  1.
         11    1    3    3    0    0  0.53782192260E+01 -0.17052452816E+01 -0.21988523847E+01  0.60554153932E+01  0.51100000000E-03 0. -1.
        -11    1    3    3    0    0  0.37277581163E+01 -0.20044827726E+02 -0.30175022960E+02  0.36417349025E+02  0.51100000000E-03 0.  1.
        -12    1    3    3    0    0 -0.17841092524E+02  0.17760350910E+02  0.16297496460E+02  0.29989048631E+02  0.00000000000E+00 0.  1.
</event>
<event>
 7    1  0.2577508E-013  0.7246165E+02  0.7816164E-02  0.1226708E+00
        -11   -1    0    0    0    0  0.00000000000E+00  0.00000000000E+00  0.45593999997E+02  0.45594000000E+02  0.51100000000E-03 0.  1.
         11   -1    0    0    0    0 -0.00000000000E+00 -0.00000000000E+00 -0.45593999997E+02  0.45594000000E+02  0.51100000000E-03 0. -1.
    9900012    2    1    2    0    0 -0.35011998835E+01  0.16857796856E+02  0.73642749170E+01  0.72461647965E+02  0.70000101181E+02 0.  0.
        -12    1    1    2    0    0  0.35011998835E+01 -0.16857796856E+02 -0.73642749170E+01  0.18726352035E+02  0.00000000000E+00 0.  1.
         11    1    3    3    0    0  0.36269609837E+01  0.18055430463E+02  0.48468191819E+01  0.19043242151E+02  0.51100000000E-03 0. -1.
        -11    1    3    3    0    0  0.65311328864E+01  0.20537253807E+02  0.13572472471E+02  0.25468539415E+02  0.51100000000E-03 0.  1.
         12    1    3    3    0    0 -0.13659293754E+02 -0.21734887413E+02 -0.11055016736E+02  0.27949866399E+02  0.00000000000E+00 0. -1.
</event>
<event>
 7    1  0.2577508E-013  0.7246154E+02  0.7816164E-02  0.1226708E+00
        -11   -1    0    0    0    0  0.00000000000E+00  0.00000000000E+00  0.45593999997E+02  0.45594000000E+02  0.51100000000E-03 0. -1.
         11   -1    0    0    0    0 -0.00000000000E+00 -0.00000000000E+00 -0.45593999997E+02  0.45594000000E+02  0.51100000000E-03 0.  1.
    9900012    2    1    2    0    0 -0.36415787214E+01  0.11968005885E+02  0.13935065690E+02  0.72461539677E+02  0.69999960115E+02 0.  0.
        -12    1    1    2    0    0  0.36415787214E+01 -0.11968005885E+02 -0.13935065690E+02  0.18726460323E+02  0.00000000000E+00 0.  1.
         11    1    3    3    0    0 -0.10477862294E+02  0.21880849450E+02 -0.12131036292E+00  0.24260500559E+02  0.51100000000E-03 0. -1.
        -11    1    3    3    0    0 -0.81487358893E+01  0.13131193409E+02 -0.31502456212E+01  0.15771942958E+02  0.51100000000E-03 0.  1.
        -12    1    3    3    0    0  0.14985019462E+02 -0.23044036973E+02  0.17206621674E+02  0.32429096160E+02  0.00000000000E+00 0.  1.
</event>
<event>
 7    1  0.2577508E-013  0.7246159E+02  0.7816164E-02  0.1226708E+00
        -11   -1    0    0    0    0  0.00000000000E+00  0.00000000000E+00  0.45593999997E+02  0.45594000000E+02  0.51100000000E-03 0.  1.
         11   -1    0    0    0    0 -0.00000000000E+00 -0.00000000000E+00 -0.45593999997E+02  0.45594000000E+02  0.51100000000E-03 0. -1.
    9900012    2    1    2    0    0 -0.45979138949E+01 -0.10605912050E+02 -0.14732688583E+02  0.72461593632E+02  0.70000030401E+02 0.  0.
        -12    1    1    2    0    0  0.45979138949E+01  0.10605912050E+02  0.14732688583E+02  0.18726406368E+02  0.00000000000E+00 0.  1.
         11    1    3    3    0    0  0.73862202923E+01 -0.54045891640E+01 -0.33269165371E+01  0.97382856881E+01  0.51100000000E-03 0. -1.
        -11    1    3    3    0    0  0.83437454417E+01 -0.19973856481E+02  0.14950493108E+02  0.26307608693E+02  0.51100000000E-03 0.  1.
         12    1    3    3    0    0 -0.20327879629E+02  0.14772533595E+02 -0.26356265154E+02  0.36415699250E+02  0.00000000000E+00 0. -1.
</event>
<event>
 7    1  0.2577508E-013  0.7246149E+02  0.7816164E-02  0.1226708E+00
        -11   -1    0    0    0    0  0.00000000000E+00  0.00000000000E+00  0.45593999997E+02  0.45594000000E+02  0.51100000000E-03 0.  1.
         11   -1    0    0    0    0 -0.00000000000E+00 -0.00000000000E+00 -0.45593999997E+02  0.45594000000E+02  0.51100000000E-03 0. -1.
    9900012    2    1    2    0    0 -0.15570706448E+02  0.10391740823E+02 -0.49685097861E+00  0.72461493718E+02  0.69999900246E+02 0.  0.
        -12    1    1    2    0    0  0.15570706448E+02 -0.10391740823E+02  0.49685097861E+00  0.18726506282E+02  0.00000000000E+00 0.  1.
         11    1    3    3    0    0  0.11038970520E+02 -0.79770156313E+01  0.26824406887E+01  0.13881179230E+02  0.51100000000E-03 0. -1.
        -11    1    3    3    0    0  0.10169113254E+02 -0.75361113024E+01 -0.48720197684E+01  0.13562463450E+02  0.51100000000E-03 0.  1.
         12    1    3    3    0    0 -0.36778790222E+02  0.25904867757E+02  0.16927281011E+01  0.45017851038E+02  0.00000000000E+00 0. -1.
</event>
<event>
 7    1  0.2577508E-013  0.7246160E+02  0.7816164E-02  0.1226708E+00
        -11   -1    0    0    0    0  0.00000000000E+00  0.00000000000E+00  0.45593999997E+02  0.45594000000E+02  0.51100000000E-03 0.  1.
         11   -1    0    0    0    0 -0.00000000000E+00 -0.00000000000E+00 -0.45593999997E+02  0.45594000000E+02  0.51100000000E-03 0. -1.
    9900012    2    1    2    0    0 -0.43456055689E+01  0.73425746527E+01  0.16669749611E+02  0.72461595049E+02  0.70000032248E+02 0.  0.
        -12    1    1    2    0    0  0.43456055689E+01 -0.73425746527E+01 -0.16669749611E+02  0.18726404951E+02  0.00000000000E+00 0.  1.
         11    1    3    3    0    0  0.20113828122E+02 -0.15481822292E+02  0.12897800053E+02  0.28471145914E+02  0.51100000000E-03 0. -1.
        -11    1    3    3    0    0  0.13185537807E+01 -0.23138157800E+01 -0.60996753402E+01  0.66557018452E+01  0.51100000000E-03 0.  1.
        -12    1    3    3    0    0 -0.25777987471E+02  0.25138212725E+02  0.98716248976E+01  0.37334747290E+02  0.00000000000E+00 0.  1.
</event>
<event>
 7    1  0.2577508E-013  0.7246157E+02  0.7816164E-02  0.1226708E+00
        -11   -1    0    0    0    0  0.00000000000E+00  0.00000000000E+00  0.45593999997E+02  0.45594000000E+02  0.51100000000E-03 0. -1.
         11   -1    0    0    0    0 -0.00000000000E+00 -0.00000000000E+00 -0.45593999997E+02  0.45594000000E+02  0.51100000000E-03 0.  1.
    9900012    2    1    2    0    0 -0.10862806312E+02 -0.11667673001E+02 -0.98256771692E+01  0.72461572522E+02  0.70000002902E+02 0.  0.
        -12    1    1    2    0    0  0.10862806312E+02  0.11667673001E+02  0.98256771692E+01  0.18726427478E+02  0.00000000000E+00 0.  1.
         11    1    3    3    0    0  0.81620830788E+01 -0.28586072659E+02  0.10969727970E+02  0.31687822302E+02  0.51100000000E-03 0. -1.
        -11    1    3    3    0    0  0.95155148922E+00  0.58017757451E+01  0.39510986171E+01  0.70835889616E+01  0.51100000000E-03 0.  1.
        -12    1    3    3    0    0 -0.19976440880E+02  0.11116623913E+02 -0.24746503756E+02  0.33690161259E+02  0.00000000000E+00 0.  1.
</event>
<event>
 7    1  0.2577508E-013  0.7246156E+02  0.7816164E-02  0.1226708E+00
        -11   -1    0    0    0    0  0.00000000000E+00  0.00000000000E+00  0.45593999997E+02  0.45594000000E+02  0.51100000000E-03 0. -1.
         11   -1    0    0    0    0 -0.00000000000E+00 -0.00000000000E+00 -0.45593999997E+02  0.45594000000E+02  0.51100000000E-03 0.  1.
    9900012    2    1    2    0    0  0.73603837152E+01  0.16199323294E+02 -0.58383343352E+01  0.72461562233E+02  0.69999989499E+02 0.  0.
        -12    1    1    2    0    0 -0.73603837152E+01 -0.16199323294E+02  0.58383343352E+01  0.18726437767E+02  0.00000000000E+00 0.  1.
         11    1    3    3    0    0 -0.36392230775E+01  0.56314567155E+01  0.24127817325E+02  0.25042140852E+02  0.51100000000E-03 0. -1.
        -11    1    3    3    0    0  0.60037656018E+01 -0.11419448771E+02 -0.51546400085E+01  0.13893139513E+02  0.51100000000E-03 0.  1.
        -12    1    3    3    0    0  0.49958411909E+01  0.21987315350E+02 -0.24811511651E+02  0.33526281868E+02  0.00000000000E+00 0.  1.
</event>
<event>
 7    1  0.2577508E-013  0.7246163E+02  0.7816164E-02  0.1226708E+00
        -11   -1    0    0    0    0  0.00000000000E+00  0.00000000000E+00  0.45593999997E+02  0.45594000000E+02  0.51100000000E-03 0.  1.
         11   -1    0    0    0    0 -0.00000000000E+00 -0.00000000000E+00 -0.45593999997E+02  0.45594000000E+02  0.51100000000E-03 0. -1.
    9900012    2    1    2    0    0  0.55126284826E+01  0.17734615803E+02  0.24023417494E+01  0.72461630454E+02  0.70000078369E+02 0.  0.
        -12    1    1    2    0    0 -0.55126284826E+01 -0.17734615803E+02 -0.24023417494E+01  0.18726369546E+02  0.00000000000E+00 0.  1.
         11    1    3    3    0    0  0.28747704653E+01  0.21323563888E+02  0.83241076932E+01  0.23070532098E+02  0.51100000000E-03 0. -1.
        -11    1    3    3    0    0 -0.13292885099E+02  0.83017474070E+00  0.16707196826E+02  0.21366338254E+02  0.51100000000E-03 0.  1.
        -12    1    3    3    0    0  0.15930743116E+02 -0.44191228255E+01 -0.22628962770E+02  0.28024760103E+02  0.00000000000E+00 0.  1.
</event>
<event>
 7    1  0.2577508E-013  0.7246158E+02  0.7816164E-02  0.1226708E+00
        -11   -1    0    0    0    0  0.00000000000E+00  0.00000000000E+00  0.45593999997E+02  0.45594000000E+02  0.51100000000E-03 0. -1.
         11   -1    0    0    0    0 -0.00000000000E+00 -0.00000000000E+00 -0.45593999997E+02  0.45594000000E+02  0.51100000000E-03 0.  1.
    9900012    2    1    2    0    0 -0.78828727870E+01 -0.76187025059E+01  0.15182049085E+02  0.72461576805E+02  0.70000008482E+02 0.  0.
        -12    1    1    2    0    0  0.78828727870E+01  0.76187025059E+01 -0.15182049085E+02  0.18726423195E+02  0.00000000000E+00 0.  1.
         11    1    3    3    0    0  0.64076741742E+00  0.82320728597E+01 -0.50033365726E+01  0.96545835524E+01  0.51100000000E-03 0. -1.
        -11    1    3    3    0    0 -0.20264131362E+02 -0.71412075327E+00 -0.13285874931E+02  0.24241688498E+02  0.51100000000E-03 0.  1.
         12    1    3    3    0    0  0.11740491158E+02 -0.15136654612E+02  0.33471260588E+02  0.38565304755E+02  0.00000000000E+00 0. -1.
</event>
<event>
 7    1  0.2577508E-013  0.7246156E+02  0.7816164E-02  0.1226708E+00
        -11   -1    0    0    0    0  0.00000000000E+00  0.00000000000E+00  0.45593999997E+02  0.45594000000E+02  0.51100000000E-03 0. -1.
         11   -1    0    0    0    0 -0.00000000000E+00 -0.00000000000E+00 -0.45593999997E+02  0.45594000000E+02  0.51100000000E-03 0.  1.
    9900012    2    1    2    0    0  0.88483797814E+00  0.13500234913E+02  0.12947603379E+02  0.72461555751E+02  0.69999981055E+02 0.  0.
        -12    1    1    2    0    0 -0.88483797814E+00 -0.13500234913E+02 -0.12947603379E+02  0.18726444249E+02  0.00000000000E+00 0.  1.
         11    1    3    3    0    0 -0.58426358772E+01  0.49224158614E+01 -0.11790236915E+02  0.14049066114E+02  0.51100000000E-03 0. -1.
        -11    1    3    3    0    0  0.60017053257E+01  0.20258107901E+02 -0.88027641478E+01  0.22888863218E+02  0.51100000000E-03 0.  1.
        -12    1    3    3    0    0  0.72576852969E+00 -0.11680288849E+02  0.33540604442E+02  0.35523626418E+02  0.00000000000E+00 0.  1.
</event>
<event>
 7    1  0.2577508E-013  0.7246160E+02  0.7816164E-02  0.1226708E+00
        -11   -1    0    0    0    0  0.00000000000E+00  0.00000000000E+00  0.45593999997E+02  0.45594000000E+02  0.51100000000E-03 0.  1.
         11   -1    0    0    0    0 -0.00000000000E+00 -0.00000000000E+00 -0.45593999997E+02  0.45594000000E+02  0.51100000000E-03 0. -1.
    9900012    2    1    2    0    0  0.17173326810E+01  0.10398854898E+02 -0.15478785177E+02  0.72461596039E+02  0.70000033538E+02 0.  0.
        -12    1    1    2    0    0 -0.17173326810E+01 -0.10398854898E+02  0.15478785177E+02  0.18726403961E+02  0.00000000000E+00 0.  1.
         11    1    3    3    0    0  0.13815969590E+01  0.19537861570E+02 -0.98542625421E+01  0.21925859969E+02  0.51100000000E-03 0.  1.
        -11    1    3    3    0    0 -0.16148740322E+02  0.98482410800E+01 -0.14539760503E+02  0.23857374166E+02  0.51100000000E-03 0. -1.
        -12    1    3    3    0    0  0.16484476044E+02 -0.18987247752E+02  0.89152378675E+01  0.26678361904E+02  0.00000000000E+00 0.  1.
</event>
<event>
 7    1  0.2577508E-013  0.7246159E+02  0.7816164E-02  0.1226708E+00
        -11   -1    0    0    0    0  0.00000000000E+00  0.00000000000E+00  0.45593999997E+02  0.45594000000E+02  0.51100000000E-03 0.  1.
         11   -1    0    0    0    0 -0.00000000000E+00 -0.00000000000E+00 -0.45593999997E+02  0.45594000000E+02  0.51100000000E-03 0. -1.
    9900012    2    1    2    0    0  0.15078979681E+02 -0.10468894181E+02 -0.37020549319E+01  0.72461585920E+02  0.70000020355E+02 0.  0.
        -12    1    1    2    0    0 -0.15078979681E+02  0.10468894181E+02  0.37020549319E+01  0.18726414080E+02  0.00000000000E+00 0.  1.
         11    1    3    3    0    0  0.17175962524E+02 -0.21291070440E+02 -0.17131621706E+02  0.32277171989E+02  0.51100000000E-03 0. -1.
        -11    1    3    3    0    0 -0.79202264902E+01 -0.32535570175E+01 -0.94154544056E+01  0.12726602172E+02  0.51100000000E-03 0.  1.
        -12    1    3    3    0    0  0.58232436476E+01  0.14075733277E+02  0.22845021179E+02  0.27457811758E+02  0.00000000000E+00 0.  1.
</event>
<event>
 7    1  0.2577508E-013  0.7246158E+02  0.7816164E-02  0.1226708E+00
        -11   -1    0    0    0    0  0.00000000000E+00  0.00000000000E+00  0.45593999997E+02  0.45594000000E+02  0.51100000000E-03 0. -1.
         11   -1    0    0    0    0 -0.00000000000E+00 -0.00000000000E+00 -0.45593999997E+02  0.45594000000E+02  0.51100000000E-03 0.  1.
    9900012    2    1    2    0    0  0.14625392601E+02 -0.11582687839E+02  0.16179933769E+01  0.72461583662E+02  0.70000017414E+02 0.  0.
        -12    1    1    2    0    0 -0.14625392601E+02  0.11582687839E+02 -0.16179933769E+01  0.18726416338E+02  0.00000000000E+00 0.  1.
         11    1    3    3    0    0 -0.87685699254E+01  0.88121070964E+01 -0.10726846912E+02  0.16419692292E+02  0.51100000000E-03 0. -1.
        -11    1    3    3    0    0 -0.40602876685E+01 -0.66188782153E+01 -0.13714631158E+02  0.15760285303E+02  0.51100000000E-03 0.  1.
         12    1    3    3    0    0  0.27454250194E+02 -0.13775916720E+02  0.26059471447E+02  0.40281606067E+02  0.00000000000E+00 0. -1.
</event>
<event>
 7    1  0.2577508E-013  0.7246157E+02  0.7816164E-02  0.1226708E+00
        -11   -1    0    0    0    0  0.00000000000E+00  0.00000000000E+00  0.45593999997E+02  0.45594000000E+02  0.51100000000E-03 0.  1.
         11   -1    0    0    0    0 -0.00000000000E+00 -0.00000000000E+00 -0.45593999997E+02  0.45594000000E+02  0.51100000000E-03 0. -1.
    9900012    2    1    2    0    0 -0.55738878154E+01  0.12677359573E+02 -0.12605375466E+02  0.72461570501E+02  0.70000000269E+02 0.  0.
        -12    1    1    2    0    0  0.55738878154E+01 -0.12677359573E+02  0.12605375466E+02  0.18726429499E+02  0.00000000000E+00 0.  1.
         11    1    3    3    0    0 -0.41238776475E+00  0.16161516654E+02 -0.18170348344E+02  0.24321312536E+02  0.51100000000E-03 0. -1.
        -11    1    3    3    0    0 -0.14361863815E+01  0.79072407203E+01 -0.19097633310E+02  0.20719717311E+02  0.51100000000E-03 0.  1.
        -12    1    3    3    0    0 -0.37253136691E+01 -0.11391397801E+02  0.24662606188E+02  0.27420540655E+02  0.00000000000E+00 0.  1.
</event>
<event>
 7    1  0.2577508E-013  0.7246164E+02  0.7816164E-02  0.1226708E+00
        -11   -1    0    0    0    0  0.00000000000E+00  0.00000000000E+00  0.45593999997E+02  0.45594000000E+02  0.51100000000E-03 0.  1.
         11   -1    0    0    0    0 -0.00000000000E+00 -0.00000000000E+00 -0.45593999997E+02  0.45594000000E+02  0.51100000000E-03 0. -1.
    9900012    2    1    2    0    0  0.15408023985E+02 -0.83476002645E+01  0.66020446786E+01  0.72461638174E+02  0.70000088426E+02 0.  0.
        -12    1    1    2    0    0 -0.15408023985E+02  0.83476002645E+01 -0.66020446786E+01  0.18726361826E+02  0.00000000000E+00 0.  1.
         11    1    3    3    0    0 -0.10147182732E+01  0.71457043336E+01  0.47462624497E+01  0.86381566957E+01  0.51100000000E-03 0. -1.
        -11    1    3    3    0    0  0.71957796414E+01  0.22815208206E+02  0.44528396066E+01  0.24333942364E+02  0.51100000000E-03 0.  1.
         12    1    3    3    0    0  0.92269626167E+01 -0.38308512805E+02 -0.25970573777E+01  0.39489539114E+02  0.00000000000E+00 0. -1.
</event>
<event>
 7    1  0.2577508E-013  0.7246157E+02  0.7816164E-02  0.1226708E+00
        -11   -1    0    0    0    0  0.00000000000E+00  0.00000000000E+00  0.45593999997E+02  0.45594000000E+02  0.51100000000E-03 0.  1.
         11   -1    0    0    0    0 -0.00000000000E+00 -0.00000000000E+00 -0.45593999997E+02  0.45594000000E+02  0.51100000000E-03 0. -1.
    9900012    2    1    2    0    0  0.16559755817E+02  0.75468011161E+01 -0.44158069600E+01  0.72461572927E+02  0.70000003430E+02 0.  0.
        -12    1    1    2    0    0 -0.16559755817E+02 -0.75468011161E+01  0.44158069600E+01  0.18726427073E+02  0.00000000000E+00 0.  1.
         11    1    3    3    0    0 -0.12725758402E+02  0.26820958419E+01 -0.21915781214E+02  0.25484113315E+02  0.51100000000E-03 0. -1.
        -11    1    3    3    0    0 -0.21474191329E+01  0.14077224537E+01 -0.66886193025E+01  0.71645460340E+01  0.51100000000E-03 0.  1.
        -12    1    3    3    0    0  0.31432933352E+02  0.34569828205E+01  0.24188593556E+02  0.39812913578E+02  0.00000000000E+00 0.  1.
</event>
<event>
 7    1  0.2577508E-013  0.7246159E+02  0.7816164E-02  0.1226708E+00
        -11   -1    0    0    0    0  0.00000000000E+00  0.00000000000E+00  0.45593999997E+02  0.45594000000E+02  0.51100000000E-03 0.  1.
         11   -1    0    0    0    0 -0.00000000000E+00 -0.00000000000E+00 -0.45593999997E+02  0.45594000000E+02  0.51100000000E-03 0. -1.
    9900012    2    1    2    0    0 -0.15010692864E+02  0.10537645320E+02  0.37835868073E+01  0.72461590886E+02  0.70000026825E+02 0.  0.
        -12    1    1    2    0    0  0.15010692864E+02 -0.10537645320E+02 -0.37835868073E+01  0.18726409114E+02  0.00000000000E+00 0.  1.
         11    1    3    3    0    0 -0.29410308343E+01  0.12687142226E+02 -0.51804645473E+01  0.14016078389E+02  0.51100000000E-03 0. -1.
        -11    1    3    3    0    0  0.11175077291E+02  0.19855974143E+02  0.12920560398E+02  0.26193185047E+02  0.51100000000E-03 0.  1.
         12    1    3    3    0    0 -0.23244739321E+02 -0.22005471049E+02 -0.39565090436E+01  0.32252327451E+02  0.00000000000E+00 0. -1.
</event>
<event>
 7    1  0.2577508E-013  0.7246159E+02  0.7816164E-02  0.1226708E+00
        -11   -1    0    0    0    0  0.00000000000E+00  0.00000000000E+00  0.45593999997E+02  0.45594000000E+02  0.51100000000E-03 0.  1.
         11   -1    0    0    0    0 -0.00000000000E+00 -0.00000000000E+00 -0.45593999997E+02  0.45594000000E+02  0.51100000000E-03 0. -1.
    9900012    2    1    2    0    0 -0.97343288826E+01  0.15954686763E+02 -0.11701550027E+01  0.72461589473E+02  0.70000024983E+02 0.  0.
        -12    1    1    2    0    0  0.97343288826E+01 -0.15954686763E+02  0.11701550027E+01  0.18726410527E+02  0.00000000000E+00 0.  1.
         11    1    3    3    0    0  0.13558191447E+01  0.36300388519E+01  0.96955426964E+00  0.39944290408E+01  0.51100000000E-03 0. -1.
        -11    1    3    3    0    0  0.17844382471E+02  0.52353589157E+01  0.22936157262E+02  0.29527923715E+02  0.51100000000E-03 0.  1.
        -12    1    3    3    0    0 -0.28934530498E+02  0.70892889958E+01 -0.25075866534E+02  0.38939236716E+02  0.00000000000E+00 0.  1.
</event>
<event>
 7    1  0.2577508E-013  0.7246160E+02  0.7816164E-02  0.1226708E+00
        -11   -1    0    0    0    0  0.00000000000E+00  0.00000000000E+00  0.45593999997E+02  0.45594000000E+02  0.51100000000E-03 0.  1.
         11   -1    0    0    0    0 -0.00000000000E+00 -0.00000000000E+00 -0.45593999997E+02  0.45594000000E+02  0.51100000000E-03 0. -1.
    9900012    2    1    2    0    0 -0.36791565410E+00 -0.14908992819E+02 -0.11325398974E+02  0.72461599098E+02  0.70000037522E+02 0.  0.
        -12    1    1    2    0    0  0.36791565410E+00  0.14908992819E+02  0.11325398974E+02  0.18726400902E+02  0.00000000000E+00 0.  1.
         11    1    3    3    0    0  0.11181461119E+02 -0.72448052996E-01 -0.14806219367E+02  0.18554095335E+02  0.51100000000E-03 0. -1.
        -11    1    3    3    0    0  0.11426057041E+02  0.12986856803E+02 -0.19894263280E+01  0.17411807675E+02  0.51100000000E-03 0.  1.
        -12    1    3    3    0    0 -0.22975433814E+02 -0.27823401569E+02  0.54702467205E+01  0.36495696089E+02  0.00000000000E+00 0.  1.
</event>
<event>
 7    1  0.2577508E-013  0.7246150E+02  0.7816164E-02  0.1226708E+00
        -11   -1    0    0    0    0  0.00000000000E+00  0.00000000000E+00  0.45593999997E+02  0.45594000000E+02  0.51100000000E-03 0.  1.
         11   -1    0    0    0    0 -0.00000000000E+00 -0.00000000000E+00 -0.45593999997E+02  0.45594000000E+02  0.51100000000E-03 0. -1.
    9900012    2    1    2    0    0  0.29438590122E+01  0.18461407403E+02  0.10917750871E+01  0.72461498938E+02  0.69999907046E+02 0.  0.
        -12    1    1    2    0    0 -0.29438590122E+01 -0.18461407403E+02 -0.10917750871E+01  0.18726501062E+02  0.00000000000E+00 0.  1.
         11    1    3    3    0    0  0.28409870788E+02  0.17591867682E+01  0.15406786761E+02  0.32366411213E+02  0.51100000000E-03 0. -1.
        -11    1    3    3    0    0  0.14625602499E+01  0.80491047836E+00  0.36623587224E+01  0.40249018665E+01  0.51100000000E-03 0.  1.
        -12    1    3    3    0    0 -0.26928572025E+02  0.15897310156E+02 -0.17977370396E+02  0.36070185859E+02  0.00000000000E+00 0.  1.
</event>
<event>
 7    1  0.2577508E-013  0.7246166E+02  0.7816164E-02  0.1226708E+00
        -11   -1    0    0    0    0  0.00000000000E+00  0.00000000000E+00  0.45593999997E+02  0.45594000000E+02  0.51100000000E-03 0.  1.
         11   -1    0    0    0    0 -0.00000000000E+00 -0.00000000000E+00 -0.45593999997E+02  0.45594000000E+02  0.51100000000E-03 0. -1.
    9900012    2    1    2    0    0 -0.17992680755E+02  0.13178124813E+01  0.50202102221E+01  0.72461662901E+02  0.70000120637E+02 0.  0.
        -12    1    1    2    0    0  0.17992680755E+02 -0.13178124813E+01 -0.50202102221E+01  0.18726337099E+02  0.00000000000E+00 0.  1.
         11    1    3    3    0    0 -0.19725515294E+01 -0.89890959087E+01  0.44909366298E+01  0.10240279140E+02  0.51100000000E-03 0. -1.
        -11    1    3    3    0    0  0.18478906332E+02  0.13585683172E+02  0.11783190363E+02  0.25785351304E+02  0.51100000000E-03 0.  1.
         12    1    3    3    0    0 -0.34499035558E+02 -0.32787747825E+01 -0.11253916771E+02  0.36436032456E+02  0.00000000000E+00 0. -1.
</event>
<event>
 7    1  0.2577508E-013  0.7246161E+02  0.7816164E-02  0.1226708E+00
        -11   -1    0    0    0    0  0.00000000000E+00  0.00000000000E+00  0.45593999997E+02  0.45594000000E+02  0.51100000000E-03 0. -1.
         11   -1    0    0    0    0 -0.00000000000E+00 -0.00000000000E+00 -0.45593999997E+02  0.45594000000E+02  0.51100000000E-03 0.  1.
    9900012    2    1    2    0    0 -0.14937598725E+02 -0.26474564973E+01  0.10978930416E+02  0.72461607003E+02  0.70000047820E+02 0.  0.
        -12    1    1    2    0    0  0.14937598725E+02  0.26474564973E+01 -0.10978930416E+02  0.18726392997E+02  0.00000000000E+00 0.  1.
         11    1    3    3    0    0 -0.31722178659E+02 -0.74277942020E+01 -0.68804587006E+01  0.33298790636E+02  0.51100000000E-03 0. -1.
        -11    1    3    3    0    0 -0.62661235242E+01 -0.36528008302E+01 -0.20734796732E+01  0.75436447518E+01  0.51100000000E-03 0.  1.
        -12    1    3    3    0    0  0.23050703458E+02  0.84331385349E+01  0.19932868790E+02  0.31619171616E+02  0.00000000000E+00 0.  1.
</event>
<event>
 7    1  0.2577508E-013  0.7246158E+02  0.7816164E-02  0.1226708E+00
        -11   -1    0    0    0    0  0.00000000000E+00  0.00000000000E+00  0.45593999997E+02  0.45594000000E+02  0.51100000000E-03 0.  1.
         11   -1    0    0    0    0 -0.00000000000E+00 -0.00000000000E+00 -0.45593999997E+02  0.45594000000E+02  0.51100000000E-03 0. -1.
    9900012    2    1    2    0    0 -0.41147789988E+01  0.27546496108E+01 -0.18059877700E+02  0.72461583278E+02  0.70000016914E+02 0.  0.
        -12    1    1    2    0    0  0.41147789988E+01 -0.27546496108E+01  0.18059877700E+02  0.18726416722E+02  0.00000000000E+00 0.  1.
         11    1    3    3    0    0 -0.27483080530E+01 -0.15839663336E+01  0.15761670278E+01  0.35420967323E+01  0.51100000000E-03 0. -1.
        -11    1    3    3    0    0 -0.29835185355E+02 -0.10578970556E+02 -0.79793901426E+00  0.31665274516E+02  0.51100000000E-03 0.  1.
         12    1    3    3    0    0  0.28468714410E+02  0.14917586500E+02 -0.18838105714E+02  0.37254212030E+02  0.00000000000E+00 0. -1.
</event>
<event>
 7    1  0.2577508E-013  0.7246155E+02  0.7816164E-02  0.1226708E+00
        -11   -1    0    0    0    0  0.00000000000E+00  0.00000000000E+00  0.45593999997E+02  0.45594000000E+02  0.51100000000E-03 0. -1.
         11   -1    0    0    0    0 -0.00000000000E+00 -0.00000000000E+00 -0.45593999997E+02  0.45594000000E+02  0.51100000000E-03 0.  1.
    9900012    2    1    2    0    0 -0.10910829568E+02  0.42867933732E+00  0.15213474821E+02  0.72461553889E+02  0.69999978628E+02 0.  0.
        -12    1    1    2    0    0  0.10910829568E+02 -0.42867933732E+00 -0.15213474821E+02  0.18726446111E+02  0.00000000000E+00 0.  1.
         11    1    3    3    0    0  0.66361333173E+00  0.13002282505E+01 -0.38535843507E+01  0.41208116636E+01  0.51100000000E-03 0. -1.
        -11    1    3    3    0    0  0.66747848653E+01  0.22925008095E+02 -0.10629893663E+02  0.26136246645E+02  0.51100000000E-03 0.  1.
         12    1    3    3    0    0 -0.18249227765E+02 -0.23796557008E+02  0.29696952835E+02  0.42204495580E+02  0.00000000000E+00 0. -1.
</event>
<event>
 7    1  0.2577508E-013  0.7246159E+02  0.7816164E-02  0.1226708E+00
        -11   -1    0    0    0    0  0.00000000000E+00  0.00000000000E+00  0.45593999997E+02  0.45594000000E+02  0.51100000000E-03 0. -1.
         11   -1    0    0    0    0 -0.00000000000E+00 -0.00000000000E+00 -0.45593999997E+02  0.45594000000E+02  0.51100000000E-03 0.  1.
    9900012    2    1    2    0    0  0.29794664488E+01 -0.17019879588E+02 -0.72197579015E+01  0.72461590155E+02  0.70000025873E+02 0.  0.
        -12    1    1    2    0    0 -0.29794664488E+01  0.17019879588E+02  0.72197579015E+01  0.18726409845E+02  0.00000000000E+00 0.  1.
         11    1    3    3    0    0  0.90919172009E+01 -0.14235582001E+02  0.47689850294E+01  0.17551580321E+02  0.51100000000E-03 0. -1.
        -11    1    3    3    0    0  0.22749718813E+02  0.47579678117E+01 -0.90215667130E+01  0.24931438586E+02  0.51100000000E-03 0.  1.
        -12    1    3    3    0    0 -0.28862169565E+02 -0.75422653990E+01 -0.29671762179E+01  0.29978571248E+02  0.00000000000E+00 0.  1.
</event>
<event>
 7    1  0.2577508E-013  0.7246157E+02  0.7816164E-02  0.1226708E+00
        -11   -1    0    0    0    0  0.00000000000E+00  0.00000000000E+00  0.45593999997E+02  0.45594000000E+02  0.51100000000E-03 0.  1.
         11   -1    0    0    0    0 -0.00000000000E+00 -0.00000000000E+00 -0.45593999997E+02  0.45594000000E+02  0.51100000000E-03 0. -1.
    9900012    2    1    2    0    0  0.28952980557E+01  0.41761664607E+01 -0.18023765019E+02  0.72461568877E+02  0.69999998153E+02 0.  0.
        -12    1    1    2    0    0 -0.28952980557E+01 -0.41761664607E+01  0.18023765019E+02  0.18726431123E+02  0.00000000000E+00 0.  1.
         11    1    3    3    0    0  0.48624832200E+01  0.80134138189E+01 -0.35185087957E+02  0.36412208926E+02  0.51100000000E-03 0. -1.
        -11    1    3    3    0    0  0.32899003002E+01 -0.13037488373E+02 -0.25355335447E+01  0.13683145752E+02  0.51100000000E-03 0.  1.
        -12    1    3    3    0    0 -0.52570854644E+01  0.92002410144E+01  0.19696856482E+02  0.22366214199E+02  0.00000000000E+00 0.  1.
</event>
<event>
 7    1  0.2577508E-013  0.7246181E+02  0.7816164E-02  0.1226707E+00
        -11   -1    0    0    0    0  0.00000000000E+00  0.00000000000E+00  0.45593999997E+02  0.45594000000E+02  0.51100000000E-03 0. -1.
         11   -1    0    0    0    0 -0.00000000000E+00 -0.00000000000E+00 -0.45593999997E+02  0.45594000000E+02  0.51100000000E-03 0.  1.
    9900012    2    1    2    0    0  0.56949453104E+01 -0.28551120943E+01  0.17609258796E+02  0.72461813455E+02  0.70000316761E+02 0.  0.
        -12    1    1    2    0    0 -0.56949453104E+01  0.28551120943E+01 -0.17609258796E+02  0.18726186545E+02  0.00000000000E+00 0.  1.
         11    1    3    3    0    0 -0.70166010507E+01  0.15096768474E+02  0.40113446491E+01  0.17124134863E+02  0.51100000000E-03 0. -1.
        -11    1    3    3    0    0  0.25951513183E+01  0.10808186669E+02 -0.11392605784E+02  0.15916757718E+02  0.51100000000E-03 0.  1.
        -12    1    3    3    0    0  0.10116395043E+02 -0.28760067237E+02  0.24990519931E+02  0.39420920874E+02  0.00000000000E+00 0.  1.
</event>
<event>
 7    1  0.2577508E-013  0.7246150E+02  0.7816164E-02  0.1226708E+00
        -11   -1    0    0    0    0  0.00000000000E+00  0.00000000000E+00  0.45593999997E+02  0.45594000000E+02  0.51100000000E-03 0.  1.
         11   -1    0    0    0    0 -0.00000000000E+00 -0.00000000000E+00 -0.45593999997E+02  0.45594000000E+02  0.51100000000E-03 0. -1.
    9900012    2    1    2    0    0  0.15302187300E+02 -0.79457324055E+01 -0.73068643761E+01  0.72461498281E+02  0.69999906189E+02 0.  0.
        -12    1    1    2    0    0 -0.15302187300E+02  0.79457324055E+01  0.73068643761E+01  0.18726501719E+02  0.00000000000E+00 0.  1.
         11    1    3    3    0    0  0.88364230119E+01  0.62169801736E+01  0.13199242145E+02  0.17057350544E+02  0.51100000000E-03 0. -1.
        -11    1    3    3    0    0  0.97924970845E+01 -0.95586010449E+01  0.14501480531E+02  0.19938725911E+02  0.51100000000E-03 0.  1.
         12    1    3    3    0    0 -0.33267327963E+01 -0.46041115343E+01 -0.35007587052E+02  0.35465421826E+02  0.00000000000E+00 0. -1.
</event>
<event>
 7    1  0.2577508E-013  0.7246160E+02  0.7816164E-02  0.1226708E+00
        -11   -1    0    0    0    0  0.00000000000E+00  0.00000000000E+00  0.45593999997E+02  0.45594000000E+02  0.51100000000E-03 0.  1.
         11   -1    0    0    0    0 -0.00000000000E+00 -0.00000000000E+00 -0.45593999997E+02  0.45594000000E+02  0.51100000000E-03 0. -1.
    9900012    2    1    2    0    0  0.30458886446E+01  0.13146336487E+02 -0.12983618456E+02  0.72461602886E+02  0.70000042457E+02 0.  0.
        -12    1    1    2    0    0 -0.30458886446E+01 -0.13146336487E+02  0.12983618456E+02  0.18726397114E+02  0.00000000000E+00 0.  1.
         11    1    3    3    0    0 -0.76484502195E+01  0.14108462160E+02 -0.51002230287E+00  0.16056388706E+02  0.51100000000E-03 0. -1.
        -11    1    3    3    0    0  0.14138693485E+02  0.13339365751E+02  0.15458950893E+02  0.24835871136E+02  0.51100000000E-03 0.  1.
         12    1    3    3    0    0 -0.34443546213E+01 -0.14301491424E+02 -0.27932547046E+02  0.31569343044E+02  0.00000000000E+00 0. -1.
</event>
<event>
 7    1  0.2577508E-013  0.7246157E+02  0.7816164E-02  0.1226708E+00
        -11   -1    0    0    0    0  0.00000000000E+00  0.00000000000E+00  0.45593999997E+02  0.45594000000E+02  0.51100000000E-03 0. -1.
         11   -1    0    0    0    0 -0.00000000000E+00 -0.00000000000E+00 -0.45593999997E+02  0.45594000000E+02  0.51100000000E-03 0.  1.
    9900012    2    1    2    0    0  0.27472718935E+01  0.14275018435E+02  0.11804895076E+02  0.72461569429E+02  0.69999998872E+02 0.  0.
        -12    1    1    2    0    0 -0.27472718935E+01 -0.14275018435E+02 -0.11804895076E+02  0.18726430571E+02  0.00000000000E+00 0.  1.
         11    1    3    3    0    0 -0.11835245911E+02  0.57808202535E+01 -0.85474377553E+01  0.15701898644E+02  0.51100000000E-03 0. -1.
        -11    1    3    3    0    0 -0.16821471913E+01  0.27691614406E+02  0.12243438131E+02  0.30324196694E+02  0.51100000000E-03 0.  1.
        -12    1    3    3    0    0  0.16264664996E+02 -0.19197416225E+02  0.81088947010E+01  0.26435474091E+02  0.00000000000E+00 0.  1.
</event>
<event>
 7    1  0.2577508E-013  0.7246152E+02  0.7816164E-02  0.1226708E+00
        -11   -1    0    0    0    0  0.00000000000E+00  0.00000000000E+00  0.45593999997E+02  0.45594000000E+02  0.51100000000E-03 0.  1.
         11   -1    0    0    0    0 -0.00000000000E+00 -0.00000000000E+00 -0.45593999997E+02  0.45594000000E+02  0.51100000000E-03 0. -1.
    9900012    2    1    2    0    0 -0.12203472574E+02 -0.31070827581E+01 -0.13860094335E+02  0.72461523527E+02  0.69999939077E+02 0.  0.
        -12    1    1    2    0    0  0.12203472574E+02  0.31070827581E+01  0.13860094335E+02  0.18726476473E+02  0.00000000000E+00 0.  1.
         11    1    3    3    0    0 -0.68392893398E+01 -0.22711747707E+02  0.11517663524E+02  0.26367706307E+02  0.51100000000E-03 0. -1.
        -11    1    3    3    0    0  0.63507949410E+00 -0.64946807402E+01  0.29059123547E+01  0.71434257017E+01  0.51100000000E-03 0.  1.
         12    1    3    3    0    0 -0.59992627282E+01  0.26099345689E+02 -0.28283670213E+02  0.38950391518E+02  0.00000000000E+00 0. -1.
</event>
<event>
 7    1  0.2577508E-013  0.7246156E+02  0.7816164E-02  0.1226708E+00
        -11   -1    0    0    0    0  0.00000000000E+00  0.00000000000E+00  0.45593999997E+02  0.45594000000E+02  0.51100000000E-03 0.  1.
         11   -1    0    0    0    0 -0.00000000000E+00 -0.00000000000E+00 -0.45593999997E+02  0.45594000000E+02  0.51100000000E-03 0. -1.
    9900012    2    1    2    0    0 -0.10834017559E+02 -0.11021859284E+02 -0.10574602720E+02  0.72461560369E+02  0.69999987071E+02 0.  0.
        -12    1    1    2    0    0  0.10834017559E+02  0.11021859284E+02  0.10574602720E+02  0.18726439631E+02  0.00000000000E+00 0.  1.
         11    1    3    3    0    0  0.56596239594E+01  0.41287094103E+00 -0.14921089869E+02  0.15963731673E+02  0.51100000000E-03 0. -1.
        -11    1    3    3    0    0  0.11621825825E+02 -0.75659410476E+01 -0.16300707299E+02  0.21401480280E+02  0.51100000000E-03 0.  1.
        -12    1    3    3    0    0 -0.28115467343E+02 -0.38687891774E+01  0.20647194448E+02  0.35096348417E+02  0.00000000000E+00 0.  1.
</event>
<event>
 7    1  0.2577508E-013  0.7246163E+02  0.7816164E-02  0.1226708E+00
        -11   -1    0    0    0    0  0.00000000000E+00  0.00000000000E+00  0.45593999997E+02  0.45594000000E+02  0.51100000000E-03 0. -1.
         11   -1    0    0    0    0 -0.00000000000E+00 -0.00000000000E+00 -0.45593999997E+02  0.45594000000E+02  0.51100000000E-03 0.  1.
    9900012    2    1    2    0    0  0.86905552040E+01 -0.66159183547E+01  0.15211204434E+02  0.72461631806E+02  0.70000080130E+02 0.  0.
        -12    1    1    2    0    0 -0.86905552040E+01  0.66159183547E+01 -0.15211204434E+02  0.18726368194E+02  0.00000000000E+00 0.  1.
         11    1    3    3    0    0  0.64218872270E+01 -0.36279685438E+01 -0.41799141774E+00  0.73876591961E+01  0.51100000000E-03 0. -1.
        -11    1    3    3    0    0 -0.26451960244E+00  0.10325111281E+02 -0.22419314884E+02  0.24684075307E+02  0.51100000000E-03 0.  1.
         12    1    3    3    0    0  0.25331875795E+01 -0.13313061092E+02  0.38048510736E+02  0.40389897303E+02  0.00000000000E+00 0. -1.
</event>
<event>
 7    1  0.2577508E-013  0.7246164E+02  0.7816164E-02  0.1226708E+00
        -11   -1    0    0    0    0  0.00000000000E+00  0.00000000000E+00  0.45593999997E+02  0.45594000000E+02  0.51100000000E-03 0.  1.
         11   -1    0    0    0    0 -0.00000000000E+00 -0.00000000000E+00 -0.45593999997E+02  0.45594000000E+02  0.51100000000E-03 0. -1.
    9900012    2    1    2    0    0 -0.70151614381E+01 -0.13286893283E+02 -0.11176870089E+02  0.72461642956E+02  0.70000094656E+02 0.  0.
        -12    1    1    2    0    0  0.70151614381E+01  0.13286893283E+02  0.11176870089E+02  0.18726357044E+02  0.00000000000E+00 0.  1.
         11    1    3    3    0    0 -0.24267353463E+02 -0.73906592435E+01 -0.13080313292E+02  0.28541564152E+02  0.51100000000E-03 0. -1.
        -11    1    3    3    0    0  0.81813382889E+00 -0.17999722774E+02  0.11490657944E+02  0.21370413734E+02  0.51100000000E-03 0.  1.
         12    1    3    3    0    0  0.16434058196E+02  0.12103488734E+02 -0.95872147413E+01  0.22549665071E+02  0.00000000000E+00 0. -1.
</event>
<event>
 7    1  0.2577508E-013  0.7246158E+02  0.7816164E-02  0.1226708E+00
        -11   -1    0    0    0    0  0.00000000000E+00  0.00000000000E+00  0.45593999997E+02  0.45594000000E+02  0.51100000000E-03 0.  1.
         11   -1    0    0    0    0 -0.00000000000E+00 -0.00000000000E+00 -0.45593999997E+02  0.45594000000E+02  0.51100000000E-03 0. -1.
    9900012    2    1    2    0    0  0.13872050609E+02  0.12265639053E+02  0.27926720630E+01  0.72461582651E+02  0.70000016097E+02 0.  0.
        -12    1    1    2    0    0 -0.13872050609E+02 -0.12265639053E+02 -0.27926720630E+01  0.18726417349E+02  0.00000000000E+00 0.  1.
         11    1    3    3    0    0 -0.18689723527E+01  0.13918760959E+02 -0.10735430306E+02  0.17676946241E+02  0.51100000000E-03 0. -1.
        -11    1    3    3    0    0  0.26176963481E+02 -0.26816400841E+01 -0.10683192244E+02  0.28399915623E+02  0.51100000000E-03 0.  1.
        -12    1    3    3    0    0 -0.10435940519E+02  0.10285181788E+01  0.24211294613E+02  0.26384720787E+02  0.00000000000E+00 0.  1.
</event>
<event>
 7    1  0.2577508E-013  0.7246154E+02  0.7816164E-02  0.1226708E+00
        -11   -1    0    0    0    0  0.00000000000E+00  0.00000000000E+00  0.45593999997E+02  0.45594000000E+02  0.51100000000E-03 0. -1.
         11   -1    0    0    0    0 -0.00000000000E+00 -0.00000000000E+00 -0.45593999997E+02  0.45594000000E+02  0.51100000000E-03 0.  1.
    9900012    2    1    2    0    0  0.82416084939E+01 -0.16810950879E+02 -0.38481783425E+00  0.72461541050E+02  0.69999961904E+02 0.  0.
        -12    1    1    2    0    0 -0.82416084939E+01  0.16810950879E+02  0.38481783425E+00  0.18726458950E+02  0.00000000000E+00 0.  1.
         11    1    3    3    0    0  0.26383604519E+01 -0.11829654902E+02  0.16904425440E+02  0.20800511549E+02  0.51100000000E-03 0. -1.
        -11    1    3    3    0    0  0.13797494694E+02  0.10610883452E+02  0.93246246915E+01  0.19746147304E+02  0.51100000000E-03 0.  1.
         12    1    3    3    0    0 -0.81942466520E+01 -0.15592179429E+02 -0.26613867966E+02  0.31914882197E+02  0.00000000000E+00 0. -1.
</event>
<event>
 7    1  0.2577508E-013  0.7246157E+02  0.7816164E-02  0.1226708E+00
        -11   -1    0    0    0    0  0.00000000000E+00  0.00000000000E+00  0.45593999997E+02  0.45594000000E+02  0.51100000000E-03 0.  1.
         11   -1    0    0    0    0 -0.00000000000E+00 -0.00000000000E+00 -0.45593999997E+02  0.45594000000E+02  0.51100000000E-03 0. -1.
    9900012    2    1    2    0    0  0.52461631152E+00  0.68367236127E+01 -0.17425936242E+02  0.72461567720E+02  0.69999996646E+02 0.  0.
        -12    1    1    2    0    0 -0.52461631152E+00 -0.68367236127E+01  0.17425936242E+02  0.18726432280E+02  0.00000000000E+00 0.  1.
         11    1    3    3    0    0 -0.29399636389E+02  0.11358841039E+02 -0.64836646988E+01  0.32177628840E+02  0.51100000000E-03 0.  1.
        -11    1    3    3    0    0  0.16491277064E+02  0.44826686719E+01  0.47629542079E+01  0.17740977162E+02  0.51100000000E-03 0. -1.
        -12    1    3    3    0    0  0.13432975637E+02 -0.90047860980E+01 -0.15705225751E+02  0.22542961718E+02  0.00000000000E+00 0.  1.
</event>
<event>
 7    1  0.2577508E-013  0.7246159E+02  0.7816164E-02  0.1226708E+00
        -11   -1    0    0    0    0  0.00000000000E+00  0.00000000000E+00  0.45593999997E+02  0.45594000000E+02  0.51100000000E-03 0.  1.
         11   -1    0    0    0    0 -0.00000000000E+00 -0.00000000000E+00 -0.45593999997E+02  0.45594000000E+02  0.51100000000E-03 0. -1.
    9900012    2    1    2    0    0  0.18170825533E+02  0.41094306522E+01 -0.19005329942E+01  0.72461592269E+02  0.70000028626E+02 0.  0.
        -12    1    1    2    0    0 -0.18170825533E+02 -0.41094306522E+01  0.19005329942E+01  0.18726407731E+02  0.00000000000E+00 0.  1.
         11    1    3    3    0    0 -0.11656912240E+01 -0.21051891653E+01  0.33948884903E+01  0.41612408695E+01  0.51100000000E-03 0. -1.
        -11    1    3    3    0    0  0.31744841007E+02 -0.23688034796E+01  0.20892665373E+02  0.38076890985E+02  0.51100000000E-03 0.  1.
         12    1    3    3    0    0 -0.12408324249E+02  0.85834232971E+01 -0.26188086857E+02  0.30223460414E+02  0.00000000000E+00 0. -1.
</event>
<event>
 7    1  0.2577508E-013  0.7246161E+02  0.7816164E-02  0.1226708E+00
        -11   -1    0    0    0    0  0.00000000000E+00  0.00000000000E+00  0.45593999997E+02  0.45594000000E+02  0.51100000000E-03 0.  1.
         11   -1    0    0    0    0 -0.00000000000E+00 -0.00000000000E+00 -0.45593999997E+02  0.45594000000E+02  0.51100000000E-03 0. -1.
    9900012    2    1    2    0    0  0.15805749916E+02  0.97944820455E+01 -0.22190644815E+01  0.72461605362E+02  0.70000045683E+02 0.  0.
        -12    1    1    2    0    0 -0.15805749916E+02 -0.97944820455E+01  0.22190644815E+01  0.18726394638E+02  0.00000000000E+00 0.  1.
         11    1    3    3    0    0 -0.38579387421E+00  0.15200284116E+01  0.30977545218E+01  0.34720896624E+01  0.51100000000E-03 0. -1.
        -11    1    3    3    0    0 -0.18598393684E+02  0.93633686135E+01  0.17643115403E+02  0.27291984919E+02  0.51100000000E-03 0.  1.
         12    1    3    3    0    0  0.34789937474E+02 -0.10889149796E+01 -0.22959934406E+02  0.41697530781E+02  0.00000000000E+00 0. -1.
</event>
<event>
 7    1  0.2577508E-013  0.7246160E+02  0.7816164E-02  0.1226708E+00
        -11   -1    0    0    0    0  0.00000000000E+00  0.00000000000E+00  0.45593999997E+02  0.45594000000E+02  0.51100000000E-03 0.  1.
         11   -1    0    0    0    0 -0.00000000000E+00 -0.00000000000E+00 -0.45593999997E+02  0.45594000000E+02  0.51100000000E-03 0. -1.
    9900012    2    1    2    0    0 -0.51611520994E+01  0.16552442509E+02 -0.70751162401E+01  0.72461598482E+02  0.70000036720E+02 0.  0.
        -12    1    1    2    0    0  0.51611520994E+01 -0.16552442509E+02  0.70751162401E+01  0.18726401518E+02  0.00000000000E+00 0.  1.
         11    1    3    3    0    0 -0.13430526794E+02 -0.22339177660E+02 -0.46479321459E+01  0.26476804603E+02  0.51100000000E-03 0. -1.
        -11    1    3    3    0    0 -0.22943265442E+01  0.79127701389E+01 -0.94212637323E+01  0.12515433518E+02  0.51100000000E-03 0.  1.
        -12    1    3    3    0    0  0.10563701239E+02  0.30978850030E+02  0.69940796381E+01  0.33469360362E+02  0.00000000000E+00 0.  1.
</event>
<event>
 7    1  0.2577508E-013  0.7246154E+02  0.7816164E-02  0.1226708E+00
        -11   -1    0    0    0    0  0.00000000000E+00  0.00000000000E+00  0.45593999997E+02  0.45594000000E+02  0.51100000000E-03 0.  1.
         11   -1    0    0    0    0 -0.00000000000E+00 -0.00000000000E+00 -0.45593999997E+02  0.45594000000E+02  0.51100000000E-03 0. -1.
    9900012    2    1    2    0    0  0.90296905033E+01  0.14521295978E+02 -0.76339270547E+01  0.72461543054E+02  0.69999964514E+02 0.  0.
        -12    1    1    2    0    0 -0.90296905033E+01 -0.14521295978E+02  0.76339270547E+01  0.18726456946E+02  0.00000000000E+00 0.  1.
         11    1    3    3    0    0  0.77861401141E+01  0.15762290960E+02 -0.20948048748E+02  0.27347660610E+02  0.51100000000E-03 0. -1.
        -11    1    3    3    0    0 -0.11379607662E+02 -0.31208102172E+01 -0.11959508340E+02  0.16800737095E+02  0.51100000000E-03 0.  1.
        -12    1    3    3    0    0  0.12623158051E+02  0.18798152354E+01  0.25273630033E+02  0.28313145349E+02  0.00000000000E+00 0.  1.
</event>
<event>
 7    1  0.2577508E-013  0.7246152E+02  0.7816164E-02  0.1226708E+00
        -11   -1    0    0    0    0  0.00000000000E+00  0.00000000000E+00  0.45593999997E+02  0.45594000000E+02  0.51100000000E-03 0.  1.
         11   -1    0    0    0    0 -0.00000000000E+00 -0.00000000000E+00 -0.45593999997E+02  0.45594000000E+02  0.51100000000E-03 0. -1.
    9900012    2    1    2    0    0 -0.22167197848E+01  0.14341830839E+02 -0.11835501551E+02  0.72461519941E+02  0.69999934406E+02 0.  0.
        -12    1    1    2    0    0  0.22167197848E+01 -0.14341830839E+02  0.11835501551E+02  0.18726480059E+02  0.00000000000E+00 0.  1.
         11    1    3    3    0    0 -0.10274084489E+02  0.10113964804E+02  0.42542834524E+01  0.15031567586E+02  0.51100000000E-03 0. -1.
        -11    1    3    3    0    0  0.11639936870E+02  0.79303908424E+01  0.18054835017E+02  0.22898827415E+02  0.51100000000E-03 0.  1.
         12    1    3    3    0    0 -0.35825721654E+01 -0.37025248074E+01 -0.34144620021E+02  0.34531124940E+02  0.00000000000E+00 0. -1.
</event>
<event>
 7    1  0.2577508E-013  0.7246216E+02  0.7816164E-02  0.1226706E+00
        -11   -1    0    0    0    0  0.00000000000E+00  0.00000000000E+00  0.45593999997E+02  0.45594000000E+02  0.51100000000E-03 0.  1.
         11   -1    0    0    0    0 -0.00000000000E+00 -0.00000000000E+00 -0.45593999997E+02  0.45594000000E+02  0.51100000000E-03 0. -1.
    9900012    2    1    2    0    0 -0.13095268134E+02 -0.13370916696E+02 -0.62414798845E+00  0.72462161660E+02  0.70000770360E+02 0.  0.
        -12    1    1    2    0    0  0.13095268134E+02  0.13370916696E+02  0.62414798845E+00  0.18725838340E+02  0.00000000000E+00 0.  1.
         11    1    3    3    0    0  0.22373939882E+01 -0.10471841228E+02 -0.84461116445E+01  0.13638262086E+02  0.51100000000E-03 0. -1.
        -11    1    3    3    0    0  0.44798653367E+00  0.23087484175E+02 -0.81414217267E+01  0.24485002868E+02  0.51100000000E-03 0.  1.
         12    1    3    3    0    0 -0.15780648656E+02 -0.25986559644E+02  0.15963385383E+02  0.34338896706E+02  0.00000000000E+00 0. -1.
</event>
<event>
 7    1  0.2577508E-013  0.7246156E+02  0.7816164E-02  0.1226708E+00
        -11   -1    0    0    0    0  0.00000000000E+00  0.00000000000E+00  0.45593999997E+02  0.45594000000E+02  0.51100000000E-03 0. -1.
         11   -1    0    0    0    0 -0.00000000000E+00 -0.00000000000E+00 -0.45593999997E+02  0.45594000000E+02  0.51100000000E-03 0.  1.
    9900012    2    1    2    0    0 -0.41786952306E+01  0.79710607914E+01  0.16421942823E+02  0.72461561202E+02  0.69999988156E+02 0.  0.
        -12    1    1    2    0    0  0.41786952306E+01 -0.79710607914E+01 -0.16421942823E+02  0.18726438798E+02  0.00000000000E+00 0.  1.
         11    1    3    3    0    0 -0.47392727268E+01 -0.12116021124E+02  0.28683359311E+02  0.31495932681E+02  0.51100000000E-03 0. -1.
        -11    1    3    3    0    0 -0.10269303292E+02  0.16711327720E+02  0.50633230164E+01  0.20257450592E+02  0.51100000000E-03 0.  1.
        -12    1    3    3    0    0  0.10829880788E+02  0.33757541953E+01 -0.17324739504E+02  0.20708177929E+02  0.00000000000E+00 0.  1.
</event>
<event>
 7    1  0.2577508E-013  0.7246165E+02  0.7816164E-02  0.1226708E+00
        -11   -1    0    0    0    0  0.00000000000E+00  0.00000000000E+00  0.45593999997E+02  0.45594000000E+02  0.51100000000E-03 0.  1.
         11   -1    0    0    0    0 -0.00000000000E+00 -0.00000000000E+00 -0.45593999997E+02  0.45594000000E+02  0.51100000000E-03 0. -1.
    9900012    2    1    2    0    0 -0.46991118373E+01 -0.16745557721E+02 -0.69412286150E+01  0.72461654651E+02  0.70000109890E+02 0.  0.
        -12    1    1    2    0    0  0.46991118373E+01  0.16745557721E+02  0.69412286150E+01  0.18726345349E+02  0.00000000000E+00 0.  1.
         11    1    3    3    0    0 -0.51886356015E+01  0.10067605938E+02 -0.34165330504E+01  0.11830102581E+02  0.51100000000E-03 0. -1.
        -11    1    3    3    0    0 -0.10046345636E+02 -0.16391093216E+02  0.23165045819E+02  0.30103427471E+02  0.51100000000E-03 0.  1.
         12    1    3    3    0    0  0.10535869400E+02 -0.10422070444E+02 -0.26689741384E+02  0.30528124598E+02  0.00000000000E+00 0. -1.
</event>
<event>
 7    1  0.2577508E-013  0.7246172E+02  0.7816164E-02  0.1226708E+00
        -11   -1    0    0    0    0  0.00000000000E+00  0.00000000000E+00  0.45593999997E+02  0.45594000000E+02  0.51100000000E-03 0.  1.
         11   -1    0    0    0    0 -0.00000000000E+00 -0.00000000000E+00 -0.45593999997E+02  0.45594000000E+02  0.51100000000E-03 0. -1.
    9900012    2    1    2    0    0 -0.15901591465E+02 -0.41851841898E+01  0.89608773950E+01  0.72461716292E+02  0.70000190189E+02 0.  0.
        -12    1    1    2    0    0  0.15901591465E+02  0.41851841898E+01 -0.89608773950E+01  0.18726283708E+02  0.00000000000E+00 0.  1.
         11    1    3    3    0    0 -0.22560283085E+02 -0.60365026097E+01  0.17628043632E+02  0.29260103540E+02  0.51100000000E-03 0. -1.
        -11    1    3    3    0    0  0.18069794681E+02 -0.12608963161E+02 -0.11011766003E+02  0.24632548033E+02  0.51100000000E-03 0.  1.
         12    1    3    3    0    0 -0.11411103062E+02  0.14460281581E+02  0.23445997661E+01  0.18569064719E+02  0.00000000000E+00 0. -1.
</event>
<event>
 7    1  0.2577508E-013  0.7246169E+02  0.7816164E-02  0.1226708E+00
        -11   -1    0    0    0    0  0.00000000000E+00  0.00000000000E+00  0.45593999997E+02  0.45594000000E+02  0.51100000000E-03 0. -1.
         11   -1    0    0    0    0 -0.00000000000E+00 -0.00000000000E+00 -0.45593999997E+02  0.45594000000E+02  0.51100000000E-03 0.  1.
    9900012    2    1    2    0    0 -0.16676350335E+01  0.13427945280E+02  0.12945419145E+02  0.72461692359E+02  0.70000159012E+02 0.  0.
        -12    1    1    2    0    0  0.16676350335E+01 -0.13427945280E+02 -0.12945419145E+02  0.18726307641E+02  0.00000000000E+00 0.  1.
         11    1    3    3    0    0 -0.17320942199E+02  0.41236275609E+01 -0.62748961085E+01  0.18878391466E+02  0.51100000000E-03 0.  1.
        -11    1    3    3    0    0  0.27528363110E+02 -0.44796781209E+01  0.11103367927E+01  0.27912562399E+02  0.51100000000E-03 0. -1.
         12    1    3    3    0    0 -0.11875055945E+02  0.13783995839E+02  0.18109978460E+02  0.25670738494E+02  0.00000000000E+00 0. -1.
</event>
<event>
 7    1  0.2577508E-013  0.7246157E+02  0.7816164E-02  0.1226708E+00
        -11   -1    0    0    0    0  0.00000000000E+00  0.00000000000E+00  0.45593999997E+02  0.45594000000E+02  0.51100000000E-03 0.  1.
         11   -1    0    0    0    0 -0.00000000000E+00 -0.00000000000E+00 -0.45593999997E+02  0.45594000000E+02  0.51100000000E-03 0. -1.
    9900012    2    1    2    0    0  0.14861707186E+02  0.83237325629E+01 -0.77797305667E+01  0.72461572900E+02  0.70000003394E+02 0.  0.
        -12    1    1    2    0    0 -0.14861707186E+02 -0.83237325629E+01  0.77797305667E+01  0.18726427100E+02  0.00000000000E+00 0.  1.
         11    1    3    3    0    0  0.13931430173E+02  0.11953700930E+02  0.30975327914E+01  0.18616401968E+02  0.51100000000E-03 0. -1.
        -11    1    3    3    0    0  0.20123063625E+02  0.36762027002E+01  0.11504635122E+02  0.23469315829E+02  0.51100000000E-03 0.  1.
         12    1    3    3    0    0 -0.19192786612E+02 -0.73061710677E+01 -0.22381898480E+02  0.30375855102E+02  0.00000000000E+00 0. -1.
</event>
<event>
 7    1  0.2577508E-013  0.7246160E+02  0.7816164E-02  0.1226708E+00
        -11   -1    0    0    0    0  0.00000000000E+00  0.00000000000E+00  0.45593999997E+02  0.45594000000E+02  0.51100000000E-03 0.  1.
         11   -1    0    0    0    0 -0.00000000000E+00 -0.00000000000E+00 -0.45593999997E+02  0.45594000000E+02  0.51100000000E-03 0. -1.
    9900012    2    1    2    0    0 -0.13495219818E+02  0.98651981687E+01 -0.84400842667E+01  0.72461598443E+02  0.70000036669E+02 0.  0.
        -12    1    1    2    0    0  0.13495219818E+02 -0.98651981687E+01  0.84400842667E+01  0.18726401557E+02  0.00000000000E+00 0.  1.
         11    1    3    3    0    0  0.83766922830E+00  0.24099644266E+02  0.11635477192E+02  0.26774593802E+02  0.51100000000E-03 0. -1.
        -11    1    3    3    0    0  0.10363662295E+02  0.51626893967E+00  0.38933447031E+00  0.10383814876E+02  0.51100000000E-03 0.  1.
         12    1    3    3    0    0 -0.24696551341E+02 -0.14750715037E+02 -0.20464895929E+02  0.35303189766E+02  0.00000000000E+00 0. -1.
</event>
<event>
 7    1  0.2577508E-013  0.7246159E+02  0.7816164E-02  0.1226708E+00
        -11   -1    0    0    0    0  0.00000000000E+00  0.00000000000E+00  0.45593999997E+02  0.45594000000E+02  0.51100000000E-03 0. -1.
         11   -1    0    0    0    0 -0.00000000000E+00 -0.00000000000E+00 -0.45593999997E+02  0.45594000000E+02  0.51100000000E-03 0.  1.
    9900012    2    1    2    0    0 -0.17723992171E+02  0.48000564906E+01  0.36739455981E+01  0.72461593056E+02  0.70000029651E+02 0.  0.
        -12    1    1    2    0    0  0.17723992171E+02 -0.48000564906E+01 -0.36739455981E+01  0.18726406944E+02  0.00000000000E+00 0.  1.
         11    1    3    3    0    0 -0.98231911917E+01 -0.86016648413E+01  0.95818259157E+01  0.16195527511E+02  0.51100000000E-03 0. -1.
        -11    1    3    3    0    0 -0.49767421144E+01  0.68340077272E+01 -0.29976948142E+02  0.31146252485E+02  0.51100000000E-03 0.  1.
         12    1    3    3    0    0 -0.29240588649E+01  0.65677136047E+01  0.24069067824E+02  0.25119813060E+02  0.00000000000E+00 0. -1.
</event>
<event>
 7    1  0.2577508E-013  0.7246154E+02  0.7816164E-02  0.1226708E+00
        -11   -1    0    0    0    0  0.00000000000E+00  0.00000000000E+00  0.45593999997E+02  0.45594000000E+02  0.51100000000E-03 0.  1.
         11   -1    0    0    0    0 -0.00000000000E+00 -0.00000000000E+00 -0.45593999997E+02  0.45594000000E+02  0.51100000000E-03 0. -1.
    9900012    2    1    2    0    0  0.10872453218E+01 -0.15208666801E+02 -0.10871740258E+02  0.72461537854E+02  0.69999957741E+02 0.  0.
        -12    1    1    2    0    0 -0.10872453218E+01  0.15208666801E+02  0.10871740258E+02  0.18726462146E+02  0.00000000000E+00 0.  1.
         11    1    3    3    0    0  0.23883553655E+01 -0.43695315230E+01 -0.24620269939E+02  0.25118812456E+02  0.51100000000E-03 0. -1.
        -11    1    3    3    0    0  0.40314596311E+01  0.16733544374E+02  0.56145176545E+01  0.18104888368E+02  0.51100000000E-03 0.  1.
        -12    1    3    3    0    0 -0.53325696748E+01 -0.27572679652E+02  0.81340120269E+01  0.29237837030E+02  0.00000000000E+00 0.  1.
</event>
<event>
 7    1  0.2577508E-013  0.7246149E+02  0.7816164E-02  0.1226708E+00
        -11   -1    0    0    0    0  0.00000000000E+00  0.00000000000E+00  0.45593999997E+02  0.45594000000E+02  0.51100000000E-03 0. -1.
         11   -1    0    0    0    0 -0.00000000000E+00 -0.00000000000E+00 -0.45593999997E+02  0.45594000000E+02  0.51100000000E-03 0.  1.
    9900012    2    1    2    0    0 -0.83292840308E+01  0.11780278294E+02  0.11938603207E+02  0.72461490029E+02  0.69999895440E+02 0.  0.
        -12    1    1    2    0    0  0.83292840308E+01 -0.11780278294E+02 -0.11938603207E+02  0.18726509971E+02  0.00000000000E+00 0.  1.
         11    1    3    3    0    0  0.11609079038E+02  0.10580302674E+02  0.34173545924E+01  0.16074571019E+02  0.51100000000E-03 0. -1.
        -11    1    3    3    0    0  0.94674680163E+01  0.14534803324E+02  0.15603098407E+02  0.23331312403E+02  0.51100000000E-03 0.  1.
        -12    1    3    3    0    0 -0.29405831085E+02 -0.13334827704E+02 -0.70818497920E+01  0.33055606607E+02  0.00000000000E+00 0.  1.
</event>
<event>
 7    1  0.2577508E-013  0.7246137E+02  0.7816164E-02  0.1226709E+00
        -11   -1    0    0    0    0  0.00000000000E+00  0.00000000000E+00  0.45593999997E+02  0.45594000000E+02  0.51100000000E-03 0. -1.
         11   -1    0    0    0    0 -0.00000000000E+00 -0.00000000000E+00 -0.45593999997E+02  0.45594000000E+02  0.51100000000E-03 0.  1.
    9900012    2    1    2    0    0 -0.14846969386E+01  0.83670200135E+01  0.16687579311E+02  0.72461370507E+02  0.69999739740E+02 0.  0.
        -12    1    1    2    0    0  0.14846969386E+01 -0.83670200135E+01 -0.16687579311E+02  0.18726629493E+02  0.00000000000E+00 0.  1.
         11    1    3    3    0    0  0.39449265684E+01  0.70474062509E+01 -0.11585674400E+02  0.14122897439E+02  0.51100000000E-03 0. -1.
        -11    1    3    3    0    0 -0.10661137456E+02  0.18582914891E+02 -0.35908266024E+01  0.21722767173E+02  0.51100000000E-03 0.  1.
         12    1    3    3    0    0  0.52315139487E+01 -0.17263301128E+02  0.31864080314E+02  0.36615705896E+02  0.00000000000E+00 0. -1.
</event>
<event>
 7    1  0.2577508E-013  0.7246157E+02  0.7816164E-02  0.1226708E+00
        -11   -1    0    0    0    0  0.00000000000E+00  0.00000000000E+00  0.45593999997E+02  0.45594000000E+02  0.51100000000E-03 0.  1.
         11   -1    0    0    0    0 -0.00000000000E+00 -0.00000000000E+00 -0.45593999997E+02  0.45594000000E+02  0.51100000000E-03 0. -1.
    9900012    2    1    2    0    0  0.48850073445E+01 -0.70708758377E+01 -0.16637862384E+02  0.72461573577E+02  0.70000004276E+02 0.  0.
        -12    1    1    2    0    0 -0.48850073445E+01  0.70708758377E+01  0.16637862384E+02  0.18726426423E+02  0.00000000000E+00 0.  1.
         11    1    3    3    0    0 -0.14742302818E+02 -0.11326553541E+02 -0.27860108782E+02  0.33493461587E+02  0.51100000000E-03 0. -1.
        -11    1    3    3    0    0  0.83876369332E+01 -0.11651647156E+02  0.13054695016E+02  0.19404597316E+02  0.51100000000E-03 0.  1.
         12    1    3    3    0    0  0.11239673229E+02  0.15907324859E+02 -0.18324486180E+01  0.19563514674E+02  0.00000000000E+00 0. -1.
</event>
<event>
 7    1  0.2577508E-013  0.7246157E+02  0.7816164E-02  0.1226708E+00
        -11   -1    0    0    0    0  0.00000000000E+00  0.00000000000E+00  0.45593999997E+02  0.45594000000E+02  0.51100000000E-03 0. -1.
         11   -1    0    0    0    0 -0.00000000000E+00 -0.00000000000E+00 -0.45593999997E+02  0.45594000000E+02  0.51100000000E-03 0.  1.
    9900012    2    1    2    0    0 -0.12309188436E+02  0.13917189442E+02 -0.23398514022E+01  0.72461569842E+02  0.69999999410E+02 0.  0.
        -12    1    1    2    0    0  0.12309188436E+02 -0.13917189442E+02  0.23398514022E+01  0.18726430158E+02  0.00000000000E+00 0.  1.
         11    1    3    3    0    0 -0.11550693700E+02  0.69615609548E+01  0.31004082047E+01  0.13838149702E+02  0.51100000000E-03 0. -1.
        -11    1    3    3    0    0  0.12255280704E+02  0.14584101875E+02 -0.26550478329E+02  0.32677451437E+02  0.51100000000E-03 0.  1.
         12    1    3    3    0    0 -0.13013775439E+02 -0.76284733880E+01  0.21110218722E+02  0.25945968703E+02  0.00000000000E+00 0. -1.
</event>
<event>
 7    1  0.2577508E-013  0.7246156E+02  0.7816164E-02  0.1226708E+00
        -11   -1    0    0    0    0  0.00000000000E+00  0.00000000000E+00  0.45593999997E+02  0.45594000000E+02  0.51100000000E-03 0.  1.
         11   -1    0    0    0    0 -0.00000000000E+00 -0.00000000000E+00 -0.45593999997E+02  0.45594000000E+02  0.51100000000E-03 0. -1.
    9900012    2    1    2    0    0 -0.15906087320E+02  0.75193790638E+01 -0.64136341243E+01  0.72461564728E+02  0.69999992748E+02 0.  0.
        -12    1    1    2    0    0  0.15906087320E+02 -0.75193790638E+01  0.64136341243E+01  0.18726435272E+02  0.00000000000E+00 0.  1.
         11    1    3    3    0    0 -0.24698530705E+02  0.20366270035E+02 -0.16777166970E+02  0.36142436358E+02  0.51100000000E-03 0. -1.
        -11    1    3    3    0    0 -0.41712228721E+01  0.82137414855E+01 -0.67465972488E+00  0.92368726009E+01  0.51100000000E-03 0.  1.
        -12    1    3    3    0    0  0.12963666257E+02 -0.21060632456E+02  0.11038192570E+02  0.27082255768E+02  0.00000000000E+00 0.  1.
</event>
<event>
 7    1  0.2577508E-013  0.7246169E+02  0.7816164E-02  0.1226708E+00
        -11   -1    0    0    0    0  0.00000000000E+00  0.00000000000E+00  0.45593999997E+02  0.45594000000E+02  0.51100000000E-03 0.  1.
         11   -1    0    0    0    0 -0.00000000000E+00 -0.00000000000E+00 -0.45593999997E+02  0.45594000000E+02  0.51100000000E-03 0. -1.
    9900012    2    1    2    0    0  0.30405338040E+01  0.12612910245E+02 -0.13503494382E+02  0.72461689333E+02  0.70000155070E+02 0.  0.
        -12    1    1    2    0    0 -0.30405338040E+01 -0.12612910245E+02  0.13503494382E+02  0.18726310667E+02  0.00000000000E+00 0.  1.
         11    1    3    3    0    0  0.62588214288E+01 -0.34282659601E+01 -0.50317200390E+01  0.87317844672E+01  0.51100000000E-03 0. -1.
        -11    1    3    3    0    0 -0.13567951033E+02 -0.18845283256E+02 -0.13708332422E+02  0.26965763002E+02  0.51100000000E-03 0.  1.
         12    1    3    3    0    0  0.10349663408E+02  0.34886459462E+02  0.52365580784E+01  0.36764141863E+02  0.00000000000E+00 0. -1.
</event>
<event>
 7    1  0.2577508E-013  0.7246152E+02  0.7816164E-02  0.1226708E+00
        -11   -1    0    0    0    0  0.00000000000E+00  0.00000000000E+00  0.45593999997E+02  0.45594000000E+02  0.51100000000E-03 0. -1.
         11   -1    0    0    0    0 -0.00000000000E+00 -0.00000000000E+00 -0.45593999997E+02  0.45594000000E+02  0.51100000000E-03 0.  1.
    9900012    2    1    2    0    0 -0.12109420021E+01 -0.17361680597E+02  0.69127811358E+01  0.72461524712E+02  0.69999940620E+02 0.  0.
        -12    1    1    2    0    0  0.12109420021E+01  0.17361680597E+02 -0.69127811358E+01  0.18726475288E+02  0.00000000000E+00 0.  1.
         11    1    3    3    0    0 -0.43458339488E+01 -0.31952834338E+02 -0.20147806875E+01  0.32309893785E+02  0.51100000000E-03 0. -1.
        -11    1    3    3    0    0 -0.95662841602E+01  0.49752096883E+01  0.18610875006E+02  0.21508862658E+02  0.51100000000E-03 0.  1.
        -12    1    3    3    0    0  0.12701176107E+02  0.96159440525E+01 -0.96833131830E+01  0.18642768269E+02  0.00000000000E+00 0.  1.
</event>
<event>
 7    1  0.2577508E-013  0.7246151E+02  0.7816164E-02  0.1226708E+00
        -11   -1    0    0    0    0  0.00000000000E+00  0.00000000000E+00  0.45593999997E+02  0.45594000000E+02  0.51100000000E-03 0. -1.
         11   -1    0    0    0    0 -0.00000000000E+00 -0.00000000000E+00 -0.45593999997E+02  0.45594000000E+02  0.51100000000E-03 0.  1.
    9900012    2    1    2    0    0 -0.54987426403E+01 -0.99566492745E+01  0.14876500658E+02  0.72461513217E+02  0.69999925646E+02 0.  0.
        -12    1    1    2    0    0  0.54987426403E+01  0.99566492745E+01 -0.14876500658E+02  0.18726486783E+02  0.00000000000E+00 0.  1.
         11    1    3    3    0    0 -0.19850676486E+02 -0.11759645499E+02  0.18367046917E+01  0.23145455356E+02  0.51100000000E-03 0. -1.
        -11    1    3    3    0    0 -0.13101919543E+02  0.10501737348E+02  0.11738765844E+02  0.20487689153E+02  0.51100000000E-03 0.  1.
        -12    1    3    3    0    0  0.27453853389E+02 -0.86987411232E+01  0.13010301223E+01  0.28828368709E+02  0.00000000000E+00 0.  1.
</event>
<event>
 7    1  0.2577508E-013  0.7246148E+02  0.7816164E-02  0.1226708E+00
        -11   -1    0    0    0    0  0.00000000000E+00  0.00000000000E+00  0.45593999997E+02  0.45594000000E+02  0.51100000000E-03 0. -1.
         11   -1    0    0    0    0 -0.00000000000E+00 -0.00000000000E+00 -0.45593999997E+02  0.45594000000E+02  0.51100000000E-03 0.  1.
    9900012    2    1    2    0    0  0.90531198273E+01 -0.16244246196E+02 -0.22017983226E+01  0.72461483267E+02  0.69999886631E+02 0.  0.
        -12    1    1    2    0    0 -0.90531198273E+01  0.16244246196E+02  0.22017983226E+01  0.18726516733E+02  0.00000000000E+00 0.  1.
         11    1    3    3    0    0  0.17523683264E+02  0.35857184737E+01  0.98951072723E+01  0.20441379608E+02  0.51100000000E-03 0. -1.
        -11    1    3    3    0    0  0.98293795851E+01 -0.23548865014E+02 -0.19310816468E+02  0.32001146532E+02  0.51100000000E-03 0.  1.
        -12    1    3    3    0    0 -0.18299943021E+02  0.37189003441E+01  0.72139108735E+01  0.20018957127E+02  0.00000000000E+00 0.  1.
</event>
<event>
 7    1  0.2577508E-013  0.7246212E+02  0.7816164E-02  0.1226707E+00
        -11   -1    0    0    0    0  0.00000000000E+00  0.00000000000E+00  0.45593999997E+02  0.45594000000E+02  0.51100000000E-03 0. -1.
         11   -1    0    0    0    0 -0.00000000000E+00 -0.00000000000E+00 -0.45593999997E+02  0.45594000000E+02  0.51100000000E-03 0.  1.
    9900012    2    1    2    0    0  0.17388728517E+02  0.51595786031E+01  0.46550396539E+01  0.72462121517E+02  0.70000718066E+02 0.  0.
        -12    1    1    2    0    0 -0.17388728517E+02 -0.51595786031E+01 -0.46550396539E+01  0.18725878483E+02  0.00000000000E+00 0.  1.
         11    1    3    3    0    0 -0.33907996271E+01  0.82973963999E+01  0.84495334505E+01  0.12318235463E+02  0.51100000000E-03 0. -1.
        -11    1    3    3    0    0  0.18039618544E+02  0.25283353611E+02  0.15379515941E+01  0.31097284486E+02  0.51100000000E-03 0.  1.
         12    1    3    3    0    0  0.27399096001E+01 -0.28421171408E+02 -0.53324453907E+01  0.29046601568E+02  0.00000000000E+00 0. -1.
</event>
<event>
 7    1  0.2577508E-013  0.7246154E+02  0.7816164E-02  0.1226708E+00
        -11   -1    0    0    0    0  0.00000000000E+00  0.00000000000E+00  0.45593999997E+02  0.45594000000E+02  0.51100000000E-03 0. -1.
         11   -1    0    0    0    0 -0.00000000000E+00 -0.00000000000E+00 -0.45593999997E+02  0.45594000000E+02  0.51100000000E-03 0.  1.
    9900012    2    1    2    0    0  0.47172652491E+01 -0.52657706216E+01  0.17340680809E+02  0.72461544313E+02  0.69999966154E+02 0.  0.
        -12    1    1    2    0    0 -0.47172652491E+01  0.52657706216E+01 -0.17340680809E+02  0.18726455687E+02  0.00000000000E+00 0.  1.
         11    1    3    3    0    0 -0.12649451201E+02  0.36795077062E+01 -0.10834091977E+02  0.17056521975E+02  0.51100000000E-03 0.  1.
        -11    1    3    3    0    0 -0.79242650664E+01 -0.17928582313E+02  0.18272245718E+02  0.26797443991E+02  0.51100000000E-03 0. -1.
        -12    1    3    3    0    0  0.25290981517E+02  0.89833039855E+01  0.99025270682E+01  0.28607578347E+02  0.00000000000E+00 0.  1.
</event>
<event>
 7    1  0.2577508E-013  0.7246155E+02  0.7816164E-02  0.1226708E+00
        -11   -1    0    0    0    0  0.00000000000E+00  0.00000000000E+00  0.45593999997E+02  0.45594000000E+02  0.51100000000E-03 0.  1.
         11   -1    0    0    0    0 -0.00000000000E+00 -0.00000000000E+00 -0.45593999997E+02  0.45594000000E+02  0.51100000000E-03 0. -1.
    9900012    2    1    2    0    0 -0.16274344810E+02  0.89768108788E+01 -0.22896195600E+01  0.72461553720E+02  0.69999978409E+02 0.  0.
        -12    1    1    2    0    0  0.16274344810E+02 -0.89768108788E+01  0.22896195600E+01  0.18726446280E+02  0.00000000000E+00 0.  1.
         11    1    3    3    0    0 -0.36530668662E+02 -0.32104675965E+01  0.99164600844E+01  0.37988590865E+02  0.51100000000E-03 0. -1.
        -11    1    3    3    0    0 -0.40994739156E+01  0.53196745251E+01 -0.97226954801E+00  0.67860100039E+01  0.51100000000E-03 0.  1.
        -12    1    3    3    0    0  0.24355797767E+02  0.68676039501E+01 -0.11233810096E+02  0.27686952851E+02  0.00000000000E+00 0.  1.
</event>
<event>
 7    1  0.2577508E-013  0.7246143E+02  0.7816164E-02  0.1226708E+00
        -11   -1    0    0    0    0  0.00000000000E+00  0.00000000000E+00  0.45593999997E+02  0.45594000000E+02  0.51100000000E-03 0.  1.
         11   -1    0    0    0    0 -0.00000000000E+00 -0.00000000000E+00 -0.45593999997E+02  0.45594000000E+02  0.51100000000E-03 0. -1.
    9900012    2    1    2    0    0 -0.51633875280E+01  0.44422034782E+01 -0.17443932908E+02  0.72461426961E+02  0.69999813281E+02 0.  0.
        -12    1    1    2    0    0  0.51633875280E+01 -0.44422034782E+01  0.17443932908E+02  0.18726573039E+02  0.00000000000E+00 0.  1.
         11    1    3    3    0    0 -0.25199760074E+00 -0.52696350168E+01  0.12875306762E+02  0.13914240205E+02  0.51100000000E-03 0. -1.
        -11    1    3    3    0    0 -0.61408987638E+01  0.26263324777E+02 -0.37655919891E+01  0.27233298538E+02  0.51100000000E-03 0.  1.
         12    1    3    3    0    0  0.12295088366E+01 -0.16551486282E+02 -0.26553647681E+02  0.31313888217E+02  0.00000000000E+00 0. -1.
</event>
<event>
 7    1  0.2577508E-013  0.7246161E+02  0.7816164E-02  0.1226708E+00
        -11   -1    0    0    0    0  0.00000000000E+00  0.00000000000E+00  0.45593999997E+02  0.45594000000E+02  0.51100000000E-03 0.  1.
         11   -1    0    0    0    0 -0.00000000000E+00 -0.00000000000E+00 -0.45593999997E+02  0.45594000000E+02  0.51100000000E-03 0. -1.
    9900012    2    1    2    0    0 -0.13402919388E+02  0.14710142727E+01 -0.12995209560E+02  0.72461612131E+02  0.70000054500E+02 0.  0.
        -12    1    1    2    0    0  0.13402919388E+02 -0.14710142727E+01  0.12995209560E+02  0.18726387869E+02  0.00000000000E+00 0.  1.
         11    1    3    3    0    0  0.27035030644E+01 -0.72155452861E+01  0.20437203072E+02  0.21841526784E+02  0.51100000000E-03 0.  1.
        -11    1    3    3    0    0 -0.95998176532E+01  0.13484537016E+01  0.50339581476E+01  0.10923166265E+02  0.51100000000E-03 0. -1.
         12    1    3    3    0    0 -0.65066047995E+01  0.73381058572E+01 -0.38466370780E+02  0.39696919082E+02  0.00000000000E+00 0. -1.
</event>
<event>
 7    1  0.2577508E-013  0.7246159E+02  0.7816164E-02  0.1226708E+00
        -11   -1    0    0    0    0  0.00000000000E+00  0.00000000000E+00  0.45593999997E+02  0.45594000000E+02  0.51100000000E-03 0.  1.
         11   -1    0    0    0    0 -0.00000000000E+00 -0.00000000000E+00 -0.45593999997E+02  0.45594000000E+02  0.51100000000E-03 0. -1.
    9900012    2    1    2    0    0  0.15389166548E+02 -0.43573920380E+01  0.97398664715E+01  0.72461593209E+02  0.70000029850E+02 0.  0.
        -12    1    1    2    0    0 -0.15389166548E+02  0.43573920380E+01 -0.97398664715E+01  0.18726406791E+02  0.00000000000E+00 0.  1.
         11    1    3    3    0    0  0.93831778403E+01 -0.13119756037E+02 -0.18785458964E+01  0.16238871876E+02  0.51100000000E-03 0. -1.
        -11    1    3    3    0    0  0.13113104862E+02  0.59516517269E+01 -0.19465373152E+02  0.24213145801E+02  0.51100000000E-03 0.  1.
        -12    1    3    3    0    0 -0.71071161543E+01  0.28107122718E+01  0.31083785520E+02  0.32009575532E+02  0.00000000000E+00 0.  1.
</event>
<event>
 7    1  0.2577508E-013  0.7246156E+02  0.7816164E-02  0.1226708E+00
        -11   -1    0    0    0    0  0.00000000000E+00  0.00000000000E+00  0.45593999997E+02  0.45594000000E+02  0.51100000000E-03 0.  1.
         11   -1    0    0    0    0 -0.00000000000E+00 -0.00000000000E+00 -0.45593999997E+02  0.45594000000E+02  0.51100000000E-03 0. -1.
    9900012    2    1    2    0    0  0.58437692109E+01 -0.12184471186E+02 -0.12964120713E+02  0.72461564073E+02  0.69999991895E+02 0.  0.
        -12    1    1    2    0    0 -0.58437692109E+01  0.12184471186E+02  0.12964120713E+02  0.18726435927E+02  0.00000000000E+00 0.  1.
         11    1    3    3    0    0  0.15384845122E+02 -0.15754355369E+02  0.13919189012E+02  0.26050662094E+02  0.51100000000E-03 0. -1.
        -11    1    3    3    0    0  0.27394132191E+01  0.12960568130E+02  0.22436073493E+01  0.13435567917E+02  0.51100000000E-03 0.  1.
        -12    1    3    3    0    0 -0.12280489130E+02 -0.93906839475E+01 -0.29126917074E+02  0.32975334062E+02  0.00000000000E+00 0.  1.
</event>
<event>
 7    1  0.2577508E-013  0.7246143E+02  0.7816164E-02  0.1226708E+00
        -11   -1    0    0    0    0  0.00000000000E+00  0.00000000000E+00  0.45593999997E+02  0.45594000000E+02  0.51100000000E-03 0. -1.
         11   -1    0    0    0    0 -0.00000000000E+00 -0.00000000000E+00 -0.45593999997E+02  0.45594000000E+02  0.51100000000E-03 0.  1.
    9900012    2    1    2    0    0  0.13373996945E+02  0.15106357635E+00  0.13107164200E+02  0.72461431499E+02  0.69999819193E+02 0.  0.
        -12    1    1    2    0    0 -0.13373996945E+02 -0.15106357635E+00 -0.13107164200E+02  0.18726568501E+02  0.00000000000E+00 0.  1.
         11    1    3    3    0    0  0.17587665045E+02 -0.20770656045E+02 -0.65896904132E+01  0.28003037947E+02  0.51100000000E-03 0. -1.
        -11    1    3    3    0    0  0.95038943877E+01 -0.36995452113E+01  0.22407110011E+00  0.10201022077E+02  0.51100000000E-03 0.  1.
         12    1    3    3    0    0 -0.13717562488E+02  0.24621264833E+02  0.19472783513E+02  0.34257371474E+02  0.00000000000E+00 0. -1.
</event>
<event>
 7    1  0.2577508E-013  0.7246161E+02  0.7816164E-02  0.1226708E+00
        -11   -1    0    0    0    0  0.00000000000E+00  0.00000000000E+00  0.45593999997E+02  0.45594000000E+02  0.51100000000E-03 0.  1.
         11   -1    0    0    0    0 -0.00000000000E+00 -0.00000000000E+00 -0.45593999997E+02  0.45594000000E+02  0.51100000000E-03 0. -1.
    9900012    2    1    2    0    0  0.10272365959E+02 -0.15635046566E+02 -0.83758935531E+00  0.72461608478E+02  0.70000049741E+02 0.  0.
        -12    1    1    2    0    0 -0.10272365959E+02  0.15635046566E+02  0.83758935531E+00  0.18726391522E+02  0.00000000000E+00 0.  1.
         11    1    3    3    0    0 -0.59262316594E+00  0.48398881164E+01  0.16364399788E+01  0.51433117017E+01  0.51100000000E-03 0. -1.
        -11    1    3    3    0    0 -0.11852846845E+02  0.10185543248E+02  0.18142460411E+02  0.23945440894E+02  0.51100000000E-03 0.  1.
         12    1    3    3    0    0  0.22717835970E+02 -0.30660477930E+02 -0.20616489745E+02  0.43372855883E+02  0.00000000000E+00 0. -1.
</event>
<event>
 7    1  0.2577508E-013  0.7246149E+02  0.7816164E-02  0.1226708E+00
        -11   -1    0    0    0    0  0.00000000000E+00  0.00000000000E+00  0.45593999997E+02  0.45594000000E+02  0.51100000000E-03 0.  1.
         11   -1    0    0    0    0 -0.00000000000E+00 -0.00000000000E+00 -0.45593999997E+02  0.45594000000E+02  0.51100000000E-03 0. -1.
    9900012    2    1    2    0    0 -0.72883563422E+01  0.77290710066E+01  0.15421532725E+02  0.72461485418E+02  0.69999889433E+02 0.  0.
        -12    1    1    2    0    0  0.72883563422E+01 -0.77290710066E+01 -0.15421532725E+02  0.18726514582E+02  0.00000000000E+00 0.  1.
         11    1    3    3    0    0 -0.10690903483E+02 -0.24523310833E+00  0.66119842899E+01  0.12572744055E+02  0.51100000000E-03 0. -1.
        -11    1    3    3    0    0 -0.24539703386E+02  0.59566734756E+01  0.17306383064E+02  0.30613557392E+02  0.51100000000E-03 0.  1.
         12    1    3    3    0    0  0.27942250526E+02  0.20176306394E+01 -0.84968346286E+01  0.29275183972E+02  0.00000000000E+00 0. -1.
</event>
<event>
 7    1  0.2577508E-013  0.7246165E+02  0.7816164E-02  0.1226708E+00
        -11   -1    0    0    0    0  0.00000000000E+00  0.00000000000E+00  0.45593999997E+02  0.45594000000E+02  0.51100000000E-03 0.  1.
         11   -1    0    0    0    0 -0.00000000000E+00 -0.00000000000E+00 -0.45593999997E+02  0.45594000000E+02  0.51100000000E-03 0. -1.
    9900012    2    1    2    0    0  0.15480456294E+01  0.53064943432E+01 -0.17891919275E+02  0.72461652176E+02  0.70000106666E+02 0.  0.
        -12    1    1    2    0    0 -0.15480456294E+01 -0.53064943432E+01  0.17891919275E+02  0.18726347824E+02  0.00000000000E+00 0.  1.
         11    1    3    3    0    0  0.33066027328E+01 -0.47402938662E+01 -0.17383609149E+01  0.60353878502E+01  0.51100000000E-03 0. -1.
        -11    1    3    3    0    0  0.23198246039E+02 -0.10904516302E+02  0.68578865509E+01  0.26534839424E+02  0.51100000000E-03 0.  1.
         12    1    3    3    0    0 -0.24956803142E+02  0.20951304511E+02 -0.23011444911E+02  0.39891424902E+02  0.00000000000E+00 0. -1.
</event>
<event>
 7    1  0.2577508E-013  0.7246159E+02  0.7816164E-02  0.1226708E+00
        -11   -1    0    0    0    0  0.00000000000E+00  0.00000000000E+00  0.45593999997E+02  0.45594000000E+02  0.51100000000E-03 0.  1.
         11   -1    0    0    0    0 -0.00000000000E+00 -0.00000000000E+00 -0.45593999997E+02  0.45594000000E+02  0.51100000000E-03 0. -1.
    9900012    2    1    2    0    0  0.10509649474E+01 -0.18619031198E+02  0.17046077431E+01  0.72461587166E+02  0.70000021979E+02 0.  0.
        -12    1    1    2    0    0 -0.10509649474E+01  0.18619031198E+02 -0.17046077431E+01  0.18726412834E+02  0.00000000000E+00 0.  1.
         11    1    3    3    0    0  0.65518477936E+01 -0.11643137378E+02  0.29401734205E+02  0.32294757036E+02  0.51100000000E-03 0. -1.
        -11    1    3    3    0    0 -0.79075654862E+01 -0.12263253958E+02 -0.31318531875E+01  0.14923990559E+02  0.51100000000E-03 0.  1.
        -12    1    3    3    0    0  0.24066826399E+01  0.52873601386E+01 -0.24565273274E+02  0.25242839571E+02  0.00000000000E+00 0.  1.
</event>
<event>
 7    1  0.2577508E-013  0.7246167E+02  0.7816164E-02  0.1226708E+00
        -11   -1    0    0    0    0  0.00000000000E+00  0.00000000000E+00  0.45593999997E+02  0.45594000000E+02  0.51100000000E-03 0.  1.
         11   -1    0    0    0    0 -0.00000000000E+00 -0.00000000000E+00 -0.45593999997E+02  0.45594000000E+02  0.51100000000E-03 0. -1.
    9900012    2    1    2    0    0 -0.10133036122E+02  0.59980074310E+01 -0.14560943136E+02  0.72461666157E+02  0.70000124878E+02 0.  0.
        -12    1    1    2    0    0  0.10133036122E+02 -0.59980074310E+01  0.14560943136E+02  0.18726333843E+02  0.00000000000E+00 0.  1.
         11    1    3    3    0    0 -0.33440514941E+01  0.62845240519E+01 -0.12313246033E+02  0.14223007807E+02  0.51100000000E-03 0. -1.
        -11    1    3    3    0    0 -0.90372121885E+01  0.14525666328E+02 -0.25422662508E+02  0.30642747196E+02  0.51100000000E-03 0.  1.
        -12    1    3    3    0    0  0.22482275603E+01 -0.14812182949E+02  0.23174965405E+02  0.27595911154E+02  0.00000000000E+00 0.  1.
</event>
<event>
 7    1  0.2577508E-013  0.7246157E+02  0.7816164E-02  0.1226708E+00
        -11   -1    0    0    0    0  0.00000000000E+00  0.00000000000E+00  0.45593999997E+02  0.45594000000E+02  0.51100000000E-03 0. -1.
         11   -1    0    0    0    0 -0.00000000000E+00 -0.00000000000E+00 -0.45593999997E+02  0.45594000000E+02  0.51100000000E-03 0.  1.
    9900012    2    1    2    0    0 -0.28399498240E+01 -0.18385786259E+02 -0.21393082917E+01  0.72461572382E+02  0.70000002720E+02 0.  0.
        -12    1    1    2    0    0  0.28399498240E+01  0.18385786259E+02  0.21393082917E+01  0.18726427618E+02  0.00000000000E+00 0.  1.
         11    1    3    3    0    0 -0.13480720363E+02 -0.14367411866E+02  0.23635327175E+02  0.30769807217E+02  0.51100000000E-03 0. -1.
        -11    1    3    3    0    0  0.75471280829E+01 -0.62714452524E+01  0.47683309813E+01  0.10909956391E+02  0.51100000000E-03 0.  1.
        -12    1    3    3    0    0  0.30936424556E+01  0.22530708601E+01 -0.30542966448E+02  0.30781808774E+02  0.00000000000E+00 0.  1.
</event>
<event>
 7    1  0.2577508E-013  0.7246152E+02  0.7816164E-02  0.1226708E+00
        -11   -1    0    0    0    0  0.00000000000E+00  0.00000000000E+00  0.45593999997E+02  0.45594000000E+02  0.51100000000E-03 0.  1.
         11   -1    0    0    0    0 -0.00000000000E+00 -0.00000000000E+00 -0.45593999997E+02  0.45594000000E+02  0.51100000000E-03 0. -1.
    9900012    2    1    2    0    0  0.11499632451E+02  0.14400740993E+02  0.33253987240E+01  0.72461517032E+02  0.69999930616E+02 0.  0.
        -12    1    1    2    0    0 -0.11499632451E+02 -0.14400740993E+02 -0.33253987240E+01  0.18726482968E+02  0.00000000000E+00 0.  1.
         11    1    3    3    0    0 -0.10043417683E+02 -0.98002411943E+00  0.52603148029E+01  0.11379876894E+02  0.51100000000E-03 0. -1.
        -11    1    3    3    0    0 -0.10541104789E+02 -0.13072616968E+02  0.52626313988E+01  0.17598394645E+02  0.51100000000E-03 0.  1.
         12    1    3    3    0    0  0.32084154923E+02  0.28453382081E+02 -0.71975474777E+01  0.43483245494E+02  0.00000000000E+00 0. -1.
</event>
<event>
 7    1  0.2577508E-013  0.7246158E+02  0.7816164E-02  0.1226708E+00
        -11   -1    0    0    0    0  0.00000000000E+00  0.00000000000E+00  0.45593999997E+02  0.45594000000E+02  0.51100000000E-03 0. -1.
         11   -1    0    0    0    0 -0.00000000000E+00 -0.00000000000E+00 -0.45593999997E+02  0.45594000000E+02  0.51100000000E-03 0.  1.
    9900012    2    1    2    0    0  0.16717999241E+02  0.71692449800E+01 -0.44484938777E+01  0.72461583632E+02  0.70000017375E+02 0.  0.
        -12    1    1    2    0    0 -0.16717999241E+02 -0.71692449800E+01  0.44484938777E+01  0.18726416368E+02  0.00000000000E+00 0.  1.
         11    1    3    3    0    0  0.21570571534E+02 -0.19227647683E+02  0.47216751157E+01  0.29279450266E+02  0.51100000000E-03 0. -1.
        -11    1    3    3    0    0  0.13934297971E+02  0.90510593285E+01 -0.31225318006E+01  0.16906701039E+02  0.51100000000E-03 0.  1.
         12    1    3    3    0    0 -0.18786870263E+02  0.17345833335E+02 -0.60476371928E+01  0.26275432327E+02  0.00000000000E+00 0. -1.
</event>
<event>
 7    1  0.2577508E-013  0.7246156E+02  0.7816164E-02  0.1226708E+00
        -11   -1    0    0    0    0  0.00000000000E+00  0.00000000000E+00  0.45593999997E+02  0.45594000000E+02  0.51100000000E-03 0.  1.
         11   -1    0    0    0    0 -0.00000000000E+00 -0.00000000000E+00 -0.45593999997E+02  0.45594000000E+02  0.51100000000E-03 0. -1.
    9900012    2    1    2    0    0  0.63243842813E+01  0.16777766563E+02 -0.54026155754E+01  0.72461560337E+02  0.69999987029E+02 0.  0.
        -12    1    1    2    0    0 -0.63243842813E+01 -0.16777766563E+02  0.54026155754E+01  0.18726439663E+02  0.00000000000E+00 0.  1.
         11    1    3    3    0    0  0.61024063411E+01 -0.16394222393E+02 -0.12169131877E+02  0.21309567380E+02  0.51100000000E-03 0. -1.
        -11    1    3    3    0    0  0.52326429281E+01  0.54452100001E+00  0.16026427069E+02  0.16867822029E+02  0.51100000000E-03 0.  1.
         12    1    3    3    0    0 -0.50106649879E+01  0.32627467956E+02 -0.92599107682E+01  0.34284170929E+02  0.00000000000E+00 0. -1.
</event>
<event>
 7    1  0.2577508E-013  0.7246162E+02  0.7816164E-02  0.1226708E+00
        -11   -1    0    0    0    0  0.00000000000E+00  0.00000000000E+00  0.45593999997E+02  0.45594000000E+02  0.51100000000E-03 0.  1.
         11   -1    0    0    0    0 -0.00000000000E+00 -0.00000000000E+00 -0.45593999997E+02  0.45594000000E+02  0.51100000000E-03 0. -1.
    9900012    2    1    2    0    0 -0.13336655745E+02  0.13027505333E+02 -0.17592837799E+01  0.72461618580E+02  0.70000062901E+02 0.  0.
        -12    1    1    2    0    0  0.13336655745E+02 -0.13027505333E+02  0.17592837799E+01  0.18726381420E+02  0.00000000000E+00 0.  1.
         11    1    3    3    0    0  0.21915030273E+01 -0.17613722289E+02 -0.16240231753E+02  0.24058076109E+02  0.51100000000E-03 0. -1.
        -11    1    3    3    0    0 -0.59759389878E+01 -0.59087332335E+01  0.23559660224E+01  0.87278606410E+01  0.51100000000E-03 0.  1.
        -12    1    3    3    0    0 -0.95522197845E+01  0.36549960856E+02  0.12124981951E+02  0.39675681830E+02  0.00000000000E+00 0.  1.
</event>
<event>
 7    1  0.2577508E-013  0.7246159E+02  0.7816164E-02  0.1226708E+00
        -11   -1    0    0    0    0  0.00000000000E+00  0.00000000000E+00  0.45593999997E+02  0.45594000000E+02  0.51100000000E-03 0.  1.
         11   -1    0    0    0    0 -0.00000000000E+00 -0.00000000000E+00 -0.45593999997E+02  0.45594000000E+02  0.51100000000E-03 0. -1.
    9900012    2    1    2    0    0  0.16275420298E+02  0.83820076169E+01 -0.39409289011E+01  0.72461594094E+02  0.70000031003E+02 0.  0.
        -12    1    1    2    0    0 -0.16275420298E+02 -0.83820076169E+01  0.39409289011E+01  0.18726405906E+02  0.00000000000E+00 0.  1.
         11    1    3    3    0    0 -0.69845955696E+01  0.44494893977E+00 -0.10531876247E+02  0.12645274705E+02  0.51100000000E-03 0. -1.
        -11    1    3    3    0    0 -0.10425191992E+02  0.13660089262E+02  0.16925589328E+02  0.24119665028E+02  0.51100000000E-03 0.  1.
        -12    1    3    3    0    0  0.33685207859E+02 -0.57230305847E+01 -0.10334641982E+02  0.35696654360E+02  0.00000000000E+00 0.  1.
</event>
<event>
 7    1  0.2577508E-013  0.7246159E+02  0.7816164E-02  0.1226708E+00
        -11   -1    0    0    0    0  0.00000000000E+00  0.00000000000E+00  0.45593999997E+02  0.45594000000E+02  0.51100000000E-03 0. -1.
         11   -1    0    0    0    0 -0.00000000000E+00 -0.00000000000E+00 -0.45593999997E+02  0.45594000000E+02  0.51100000000E-03 0.  1.
    9900012    2    1    2    0    0  0.87331542607E+01  0.15653632376E+02  0.54198049827E+01  0.72461588813E+02  0.70000024124E+02 0.  0.
        -12    1    1    2    0    0 -0.87331542607E+01 -0.15653632376E+02 -0.54198049827E+01  0.18726411187E+02  0.00000000000E+00 0.  1.
         11    1    3    3    0    0 -0.22486522724E+02  0.75188371570E+01  0.12414022259E+02  0.26763493145E+02  0.51100000000E-03 0. -1.
        -11    1    3    3    0    0  0.25673138732E+02 -0.61846471407E+01  0.41400941667E+01  0.26730138282E+02  0.51100000000E-03 0.  1.
        -12    1    3    3    0    0  0.55465382520E+01  0.14319442359E+02 -0.11134311443E+02  0.18967957386E+02  0.00000000000E+00 0.  1.
</event>
<event>
 7    1  0.2577508E-013  0.7246155E+02  0.7816164E-02  0.1226708E+00
        -11   -1    0    0    0    0  0.00000000000E+00  0.00000000000E+00  0.45593999997E+02  0.45594000000E+02  0.51100000000E-03 0.  1.
         11   -1    0    0    0    0 -0.00000000000E+00 -0.00000000000E+00 -0.45593999997E+02  0.45594000000E+02  0.51100000000E-03 0. -1.
    9900012    2    1    2    0    0 -0.94795956326E+01 -0.12113680073E+02 -0.10680633608E+02  0.72461550456E+02  0.69999974157E+02 0.  0.
        -12    1    1    2    0    0  0.94795956326E+01  0.12113680073E+02  0.10680633608E+02  0.18726449544E+02  0.00000000000E+00 0.  1.
         11    1    3    3    0    0  0.54959883806E+00  0.63127409909E+01 -0.83826422983E+00  0.63918264120E+01  0.51100000000E-03 0. -1.
        -11    1    3    3    0    0  0.15910273762E+02  0.15430529408E+02 -0.73291441742E+01  0.23344258472E+02  0.51100000000E-03 0.  1.
         12    1    3    3    0    0 -0.25939468233E+02 -0.33856950472E+02 -0.25132252035E+01  0.42725465572E+02  0.00000000000E+00 0. -1.
</event>
<event>
 7    1  0.2577508E-013  0.7246176E+02  0.7816164E-02  0.1226708E+00
        -11   -1    0    0    0    0  0.00000000000E+00  0.00000000000E+00  0.45593999997E+02  0.45594000000E+02  0.51100000000E-03 0.  1.
         11   -1    0    0    0    0 -0.00000000000E+00 -0.00000000000E+00 -0.45593999997E+02  0.45594000000E+02  0.51100000000E-03 0. -1.
    9900012    2    1    2    0    0  0.46362458285E+01  0.15913082950E+02 -0.87149862450E+01  0.72461762535E+02  0.70000250428E+02 0.  0.
        -12    1    1    2    0    0 -0.46362458285E+01 -0.15913082950E+02  0.87149862450E+01  0.18726237465E+02  0.00000000000E+00 0.  1.
         11    1    3    3    0    0 -0.86853895405E+01  0.12323792772E+02 -0.15987875880E+01  0.15161397751E+02  0.51100000000E-03 0. -1.
        -11    1    3    3    0    0  0.23186369823E+02 -0.82241057463E+01  0.16132198789E+02  0.29419236885E+02  0.51100000000E-03 0.  1.
         12    1    3    3    0    0 -0.98647344536E+01  0.11813395924E+02 -0.23248397446E+02  0.27881127899E+02  0.00000000000E+00 0. -1.
</event>
<event>
 7    1  0.2577508E-013  0.7246162E+02  0.7816164E-02  0.1226708E+00
        -11   -1    0    0    0    0  0.00000000000E+00  0.00000000000E+00  0.45593999997E+02  0.45594000000E+02  0.51100000000E-03 0.  1.
         11   -1    0    0    0    0 -0.00000000000E+00 -0.00000000000E+00 -0.45593999997E+02  0.45594000000E+02  0.51100000000E-03 0. -1.
    9900012    2    1    2    0    0  0.14547425698E+01  0.14194537642E+02 -0.12127495283E+02  0.72461619766E+02  0.70000064446E+02 0.  0.
        -12    1    1    2    0    0 -0.14547425698E+01 -0.14194537642E+02  0.12127495283E+02  0.18726380234E+02  0.00000000000E+00 0.  1.
         11    1    3    3    0    0 -0.86068808254E+01 -0.16724362452E+02 -0.71433207797E+01  0.20119883921E+02  0.51100000000E-03 0. -1.
        -11    1    3    3    0    0  0.97318461099E+01 -0.64994972528E+01  0.62563851299E+01  0.13270065878E+02  0.51100000000E-03 0.  1.
         12    1    3    3    0    0  0.32977728539E+00  0.37418397348E+02 -0.11240559633E+02  0.39071669967E+02  0.00000000000E+00 0. -1.
</event>
<event>
 7    1  0.2577508E-013  0.7246153E+02  0.7816164E-02  0.1226708E+00
        -11   -1    0    0    0    0  0.00000000000E+00  0.00000000000E+00  0.45593999997E+02  0.45594000000E+02  0.51100000000E-03 0.  1.
         11   -1    0    0    0    0 -0.00000000000E+00 -0.00000000000E+00 -0.45593999997E+02  0.45594000000E+02  0.51100000000E-03 0. -1.
    9900012    2    1    2    0    0 -0.16973441172E+02  0.55983512772E+01 -0.55893875197E+01  0.72461534902E+02  0.69999953894E+02 0.  0.
        -12    1    1    2    0    0  0.16973441172E+02 -0.55983512772E+01  0.55893875197E+01  0.18726465098E+02  0.00000000000E+00 0.  1.
         11    1    3    3    0    0 -0.12964018736E+02  0.97328432832E+01  0.12142488347E+02  0.20254235203E+02  0.51100000000E-03 0. -1.
        -11    1    3    3    0    0 -0.25128633510E+02 -0.63842574035E+01 -0.16907281425E+02  0.30952594885E+02  0.51100000000E-03 0.  1.
        -12    1    3    3    0    0  0.21119211074E+02  0.22497653975E+01 -0.82459444131E+00  0.21254704814E+02  0.00000000000E+00 0.  1.
</event>
<event>
 7    1  0.2577508E-013  0.7246159E+02  0.7816164E-02  0.1226708E+00
        -11   -1    0    0    0    0  0.00000000000E+00  0.00000000000E+00  0.45593999997E+02  0.45594000000E+02  0.51100000000E-03 0.  1.
         11   -1    0    0    0    0 -0.00000000000E+00 -0.00000000000E+00 -0.45593999997E+02  0.45594000000E+02  0.51100000000E-03 0. -1.
    9900012    2    1    2    0    0  0.15601049036E+02  0.10332661127E+02  0.72247315168E+00  0.72461585916E+02  0.70000020350E+02 0.  0.
        -12    1    1    2    0    0 -0.15601049036E+02 -0.10332661127E+02 -0.72247315168E+00  0.18726414084E+02  0.00000000000E+00 0.  1.
         11    1    3    3    0    0  0.17090013956E+02  0.23783187617E+02 -0.61793032330E+01  0.29931461357E+02  0.51100000000E-03 0. -1.
        -11    1    3    3    0    0  0.47217809605E+00  0.81397773526E+01  0.16818360293E+02  0.18690536930E+02  0.51100000000E-03 0.  1.
         12    1    3    3    0    0 -0.19611430160E+01 -0.21590303843E+02 -0.99165839087E+01  0.23839587630E+02  0.00000000000E+00 0. -1.
</event>
<event>
 7    1  0.2577508E-013  0.7246155E+02  0.7816164E-02  0.1226708E+00
        -11   -1    0    0    0    0  0.00000000000E+00  0.00000000000E+00  0.45593999997E+02  0.45594000000E+02  0.51100000000E-03 0. -1.
         11   -1    0    0    0    0 -0.00000000000E+00 -0.00000000000E+00 -0.45593999997E+02  0.45594000000E+02  0.51100000000E-03 0.  1.
    9900012    2    1    2    0    0  0.86016442366E+00  0.16538604105E+02  0.87415367163E+01  0.72461554189E+02  0.69999979019E+02 0.  0.
        -12    1    1    2    0    0 -0.86016442366E+00 -0.16538604105E+02 -0.87415367163E+01  0.18726445811E+02  0.00000000000E+00 0.  1.
         11    1    3    3    0    0  0.91648659081E+01  0.10995902421E+02  0.11533304808E+02  0.18382648265E+02  0.51100000000E-03 0. -1.
        -11    1    3    3    0    0  0.19904769523E+02  0.31470037643E+00 -0.12830166849E+02  0.23683582240E+02  0.51100000000E-03 0.  1.
         12    1    3    3    0    0 -0.28209471008E+02  0.52280013068E+01  0.10038398757E+02  0.30395323683E+02  0.00000000000E+00 0. -1.
</event>
<event>
 7    1  0.2577508E-013  0.7246148E+02  0.7816164E-02  0.1226708E+00
        -11   -1    0    0    0    0  0.00000000000E+00  0.00000000000E+00  0.45593999997E+02  0.45594000000E+02  0.51100000000E-03 0.  1.
         11   -1    0    0    0    0 -0.00000000000E+00 -0.00000000000E+00 -0.45593999997E+02  0.45594000000E+02  0.51100000000E-03 0. -1.
    9900012    2    1    2    0    0  0.11401567802E+02  0.89754462058E+01 -0.11837572544E+02  0.72461481192E+02  0.69999883927E+02 0.  0.
        -12    1    1    2    0    0 -0.11401567802E+02 -0.89754462058E+01  0.11837572544E+02  0.18726518808E+02  0.00000000000E+00 0.  1.
         11    1    3    3    0    0  0.46259349894E+01  0.58013674503E+01 -0.36652840155E+02  0.37396334453E+02  0.51100000000E-03 0. -1.
        -11    1    3    3    0    0 -0.47114371315E+01 -0.47959444350E+01  0.16389771545E+00  0.67249970699E+01  0.51100000000E-03 0.  1.
        -12    1    3    3    0    0  0.11487069944E+02  0.79700231904E+01  0.24651369895E+02  0.28340149669E+02  0.00000000000E+00 0.  1.
</event>
<event>
 7    1  0.2577508E-013  0.7246158E+02  0.7816164E-02  0.1226708E+00
        -11   -1    0    0    0    0  0.00000000000E+00  0.00000000000E+00  0.45593999997E+02  0.45594000000E+02  0.51100000000E-03 0.  1.
         11   -1    0    0    0    0 -0.00000000000E+00 -0.00000000000E+00 -0.45593999997E+02  0.45594000000E+02  0.51100000000E-03 0. -1.
    9900012    2    1    2    0    0  0.68842568336E+01  0.15369859409E+02  0.81886113735E+01  0.72461576779E+02  0.70000008448E+02 0.  0.
        -12    1    1    2    0    0 -0.68842568336E+01 -0.15369859409E+02 -0.81886113735E+01  0.18726423221E+02  0.00000000000E+00 0.  1.
         11    1    3    3    0    0 -0.78752606778E+01  0.56576726364E+00  0.56288805535E+01  0.96966035232E+01  0.51100000000E-03 0. -1.
        -11    1    3    3    0    0 -0.11461098777E+02 -0.10567662882E+02  0.17412427485E+02  0.23371455135E+02  0.51100000000E-03 0.  1.
         12    1    3    3    0    0  0.26220616288E+02  0.25371755028E+02 -0.14852696665E+02  0.39393518121E+02  0.00000000000E+00 0. -1.
</event>
<event>
 7    1  0.2577508E-013  0.7246160E+02  0.7816164E-02  0.1226708E+00
        -11   -1    0    0    0    0  0.00000000000E+00  0.00000000000E+00  0.45593999997E+02  0.45594000000E+02  0.51100000000E-03 0. -1.
         11   -1    0    0    0    0 -0.00000000000E+00 -0.00000000000E+00 -0.45593999997E+02  0.45594000000E+02  0.51100000000E-03 0.  1.
    9900012    2    1    2    0    0  0.17993428544E+02 -0.45148895896E+01  0.25554507567E+01  0.72461600791E+02  0.70000039727E+02 0.  0.
        -12    1    1    2    0    0 -0.17993428544E+02  0.45148895896E+01 -0.25554507567E+01  0.18726399209E+02  0.00000000000E+00 0.  1.
         11    1    3    3    0    0  0.13186055303E+02  0.37491430832E+01  0.35023850665E+01  0.14149022218E+02  0.51100000000E-03 0. -1.
        -11    1    3    3    0    0 -0.19088604167E+02  0.12525129974E+02 -0.10640810867E+02  0.25188897278E+02  0.51100000000E-03 0.  1.
         12    1    3    3    0    0  0.23895977407E+02 -0.20789162647E+02  0.96938765572E+01  0.33123681295E+02  0.00000000000E+00 0. -1.
</event>
<event>
 7    1  0.2577508E-013  0.7246156E+02  0.7816164E-02  0.1226708E+00
        -11   -1    0    0    0    0  0.00000000000E+00  0.00000000000E+00  0.45593999997E+02  0.45594000000E+02  0.51100000000E-03 0. -1.
         11   -1    0    0    0    0 -0.00000000000E+00 -0.00000000000E+00 -0.45593999997E+02  0.45594000000E+02  0.51100000000E-03 0.  1.
    9900012    2    1    2    0    0 -0.77614549127E+01 -0.14869747960E+02  0.83264676732E+01  0.72461557447E+02  0.69999983265E+02 0.  0.
        -12    1    1    2    0    0  0.77614549127E+01  0.14869747960E+02 -0.83264676732E+01  0.18726442553E+02  0.00000000000E+00 0.  1.
         11    1    3    3    0    0 -0.82852184752E+01  0.12436943972E+02 -0.20619934202E+02  0.25465743800E+02  0.51100000000E-03 0. -1.
        -11    1    3    3    0    0  0.98411637712E+01 -0.38606710105E+01  0.34335669931E+01  0.11114974925E+02  0.51100000000E-03 0.  1.
        -12    1    3    3    0    0 -0.93174002087E+01 -0.23446020922E+02  0.25512834882E+02  0.35880838722E+02  0.00000000000E+00 0.  1.
</event>
<event>
 7    1  0.2577508E-013  0.7246156E+02  0.7816164E-02  0.1226708E+00
        -11   -1    0    0    0    0  0.00000000000E+00  0.00000000000E+00  0.45593999997E+02  0.45594000000E+02  0.51100000000E-03 0.  1.
         11   -1    0    0    0    0 -0.00000000000E+00 -0.00000000000E+00 -0.45593999997E+02  0.45594000000E+02  0.51100000000E-03 0. -1.
    9900012    2    1    2    0    0 -0.10846780674E+02  0.15032694385E+02 -0.26542544863E+01  0.72461558311E+02  0.69999984390E+02 0.  0.
        -12    1    1    2    0    0  0.10846780674E+02 -0.15032694385E+02  0.26542544863E+01  0.18726441689E+02  0.00000000000E+00 0.  1.
         11    1    3    3    0    0  0.14379989095E+02 -0.11644925740E+01 -0.15384888233E+01  0.14508862031E+02  0.51100000000E-03 0. -1.
        -11    1    3    3    0    0  0.32025863911E+01 -0.11431484228E+02  0.11321315192E+02  0.16404498444E+02  0.51100000000E-03 0.  1.
        -12    1    3    3    0    0 -0.28429356160E+02  0.27628671187E+02 -0.12437080855E+02  0.41548197836E+02  0.00000000000E+00 0.  1.
</event>
<event>
 7    1  0.2577508E-013  0.7246157E+02  0.7816164E-02  0.1226708E+00
        -11   -1    0    0    0    0  0.00000000000E+00  0.00000000000E+00  0.45593999997E+02  0.45594000000E+02  0.51100000000E-03 0.  1.
         11   -1    0    0    0    0 -0.00000000000E+00 -0.00000000000E+00 -0.45593999997E+02  0.45594000000E+02  0.51100000000E-03 0. -1.
    9900012    2    1    2    0    0 -0.12120941766E+02  0.17796460237E+01 -0.14163152113E+02  0.72461568224E+02  0.69999997304E+02 0.  0.
        -12    1    1    2    0    0  0.12120941766E+02 -0.17796460237E+01  0.14163152113E+02  0.18726431776E+02  0.00000000000E+00 0.  1.
         11    1    3    3    0    0  0.23028495532E+01  0.65535399742E+01 -0.12772659933E+02  0.14539355016E+02  0.51100000000E-03 0. -1.
        -11    1    3    3    0    0  0.13171855376E+01  0.23769983919E+02  0.58862919766E+01  0.24523367362E+02  0.51100000000E-03 0.  1.
         12    1    3    3    0    0 -0.15740976857E+02 -0.28543877870E+02 -0.72767841573E+01  0.33398845847E+02  0.00000000000E+00 0. -1.
</event>
<event>
 7    1  0.2577508E-013  0.7246157E+02  0.7816164E-02  0.1226708E+00
        -11   -1    0    0    0    0  0.00000000000E+00  0.00000000000E+00  0.45593999997E+02  0.45594000000E+02  0.51100000000E-03 0.  1.
         11   -1    0    0    0    0 -0.00000000000E+00 -0.00000000000E+00 -0.45593999997E+02  0.45594000000E+02  0.51100000000E-03 0. -1.
    9900012    2    1    2    0    0  0.90808976098E+01  0.84533262228E+01 -0.14027038510E+02  0.72461568547E+02  0.69999997723E+02 0.  0.
        -12    1    1    2    0    0 -0.90808976098E+01 -0.84533262228E+01  0.14027038510E+02  0.18726431453E+02  0.00000000000E+00 0.  1.
         11    1    3    3    0    0 -0.18584215653E+02  0.47749727225E+01 -0.67097838135E+01  0.20327189550E+02  0.51100000000E-03 0. -1.
        -11    1    3    3    0    0  0.31173654675E+02 -0.95365135689E+01  0.58865557146E+01  0.33126928250E+02  0.51100000000E-03 0.  1.
         12    1    3    3    0    0 -0.35085414126E+01  0.13214867069E+02 -0.13203810411E+02  0.19007450746E+02  0.00000000000E+00 0. -1.
</event>
<event>
 7    1  0.2577508E-013  0.7246154E+02  0.7816164E-02  0.1226708E+00
        -11   -1    0    0    0    0  0.00000000000E+00  0.00000000000E+00  0.45593999997E+02  0.45594000000E+02  0.51100000000E-03 0.  1.
         11   -1    0    0    0    0 -0.00000000000E+00 -0.00000000000E+00 -0.45593999997E+02  0.45594000000E+02  0.51100000000E-03 0. -1.
    9900012    2    1    2    0    0  0.11461272004E+02  0.40792111056E+01 -0.14236552874E+02  0.72461543931E+02  0.69999965656E+02 0.  0.
        -12    1    1    2    0    0 -0.11461272004E+02 -0.40792111056E+01  0.14236552874E+02  0.18726456069E+02  0.00000000000E+00 0.  1.
         11    1    3    3    0    0 -0.20801205023E+02  0.10822612068E+02 -0.37198438983E+01  0.23741446908E+02  0.51100000000E-03 0. -1.
        -11    1    3    3    0    0 -0.50352467818E+01 -0.46711038388E+01 -0.90168526633E+01  0.11334749818E+02  0.51100000000E-03 0.  1.
        -12    1    3    3    0    0  0.37297723809E+02 -0.20722971240E+01 -0.14998563120E+01  0.37385347205E+02  0.00000000000E+00 0.  1.
</event>
<event>
 7    1  0.2577508E-013  0.7246154E+02  0.7816164E-02  0.1226708E+00
        -11   -1    0    0    0    0  0.00000000000E+00  0.00000000000E+00  0.45593999997E+02  0.45594000000E+02  0.51100000000E-03 0.  1.
         11   -1    0    0    0    0 -0.00000000000E+00 -0.00000000000E+00 -0.45593999997E+02  0.45594000000E+02  0.51100000000E-03 0. -1.
    9900012    2    1    2    0    0  0.85650475424E+01  0.10817975654E+02 -0.12660636970E+02  0.72461538371E+02  0.69999958413E+02 0.  0.
        -12    1    1    2    0    0 -0.85650475424E+01 -0.10817975654E+02  0.12660636970E+02  0.18726461629E+02  0.00000000000E+00 0.  1.
         11    1    3    3    0    0  0.22958527025E+01  0.24989503959E+02 -0.28094317018E+02  0.37670106142E+02  0.51100000000E-03 0. -1.
        -11    1    3    3    0    0  0.91891196894E+01 -0.36544934560E+01 -0.54031440662E+01  0.11268948893E+02  0.51100000000E-03 0.  1.
        -12    1    3    3    0    0 -0.29199248494E+01 -0.10517034849E+02  0.20836824114E+02  0.23522483336E+02  0.00000000000E+00 0.  1.
</event>
<event>
 7    1  0.2577508E-013  0.7246169E+02  0.7816164E-02  0.1226708E+00
        -11   -1    0    0    0    0  0.00000000000E+00  0.00000000000E+00  0.45593999997E+02  0.45594000000E+02  0.51100000000E-03 0. -1.
         11   -1    0    0    0    0 -0.00000000000E+00 -0.00000000000E+00 -0.45593999997E+02  0.45594000000E+02  0.51100000000E-03 0.  1.
    9900012    2    1    2    0    0 -0.10423380287E+02 -0.13134619704E+02  0.83372430873E+01  0.72461689267E+02  0.70000154983E+02 0.  0.
        -12    1    1    2    0    0  0.10423380287E+02  0.13134619704E+02 -0.83372430873E+01  0.18726310733E+02  0.00000000000E+00 0.  1.
         11    1    3    3    0    0 -0.54755872015E+01  0.69388698143E+01  0.47068808126E+01  0.10014224720E+02  0.51100000000E-03 0.  1.
        -11    1    3    3    0    0 -0.14002336094E+00 -0.40756535821E+02 -0.76003111780E+00  0.40763862258E+02  0.51100000000E-03 0. -1.
         12    1    3    3    0    0 -0.48077697247E+01  0.20683046302E+02  0.43903933925E+01  0.21683602288E+02  0.00000000000E+00 0. -1.
</event>
<event>
 7    1  0.2577508E-013  0.7246157E+02  0.7816164E-02  0.1226708E+00
        -11   -1    0    0    0    0  0.00000000000E+00  0.00000000000E+00  0.45593999997E+02  0.45594000000E+02  0.51100000000E-03 0. -1.
         11   -1    0    0    0    0 -0.00000000000E+00 -0.00000000000E+00 -0.45593999997E+02  0.45594000000E+02  0.51100000000E-03 0.  1.
    9900012    2    1    2    0    0 -0.15619704814E+02 -0.10329293501E+02 -0.99314937091E-01  0.72461565578E+02  0.69999993856E+02 0.  0.
        -12    1    1    2    0    0  0.15619704814E+02  0.10329293501E+02  0.99314937091E-01  0.18726434422E+02  0.00000000000E+00 0.  1.
         11    1    3    3    0    0 -0.41081075608E+01  0.40156764936E+00 -0.26214961319E+01  0.48897900302E+01  0.51100000000E-03 0. -1.
        -11    1    3    3    0    0 -0.35967219124E+02  0.40356771384E+01 -0.81083044181E+01  0.37090054493E+02  0.51100000000E-03 0.  1.
         12    1    3    3    0    0  0.24455621871E+02 -0.14766538289E+02  0.10630485613E+02  0.30481721055E+02  0.00000000000E+00 0. -1.
</event>
<event>
 7    1  0.2577508E-013  0.7246156E+02  0.7816164E-02  0.1226708E+00
        -11   -1    0    0    0    0  0.00000000000E+00  0.00000000000E+00  0.45593999997E+02  0.45594000000E+02  0.51100000000E-03 0.  1.
         11   -1    0    0    0    0 -0.00000000000E+00 -0.00000000000E+00 -0.45593999997E+02  0.45594000000E+02  0.51100000000E-03 0. -1.
    9900012    2    1    2    0    0  0.17199414674E+02  0.71306949698E+01 -0.20032386092E+01  0.72461557711E+02  0.69999983608E+02 0.  0.
        -12    1    1    2    0    0 -0.17199414674E+02 -0.71306949698E+01  0.20032386092E+01  0.18726442289E+02  0.00000000000E+00 0.  1.
         11    1    3    3    0    0  0.45262167712E+01 -0.58888828392E+01 -0.13768188703E+02  0.15643803878E+02  0.51100000000E-03 0. -1.
        -11    1    3    3    0    0 -0.44013814673E+00 -0.12475845472E+02 -0.13654979080E+02  0.18501321460E+02  0.51100000000E-03 0.  1.
        -12    1    3    3    0    0  0.13113336049E+02  0.25495423281E+02  0.25419929174E+02  0.38316432373E+02  0.00000000000E+00 0.  1.
</event>
<event>
 7    1  0.2577508E-013  0.7246159E+02  0.7816164E-02  0.1226708E+00
        -11   -1    0    0    0    0  0.00000000000E+00  0.00000000000E+00  0.45593999997E+02  0.45594000000E+02  0.51100000000E-03 0.  1.
         11   -1    0    0    0    0 -0.00000000000E+00 -0.00000000000E+00 -0.45593999997E+02  0.45594000000E+02  0.51100000000E-03 0. -1.
    9900012    2    1    2    0    0 -0.61511990140E+01 -0.12065708288E+02 -0.12932894856E+02  0.72461592572E+02  0.70000029020E+02 0.  0.
        -12    1    1    2    0    0  0.61511990140E+01  0.12065708288E+02  0.12932894856E+02  0.18726407428E+02  0.00000000000E+00 0.  1.
         11    1    3    3    0    0 -0.14913466973E+02 -0.29920840746E+02 -0.12139004225E+02  0.35567170705E+02  0.51100000000E-03 0.  1.
        -11    1    3    3    0    0 -0.91155073491E+01 -0.64354794472E+00 -0.56084370702E+01  0.10721995841E+02  0.51100000000E-03 0. -1.
        -12    1    3    3    0    0  0.17877775309E+02  0.18498680403E+02  0.48145464395E+01  0.26172426025E+02  0.00000000000E+00 0.  1.
</event>
<event>
 7    1  0.2577508E-013  0.7246167E+02  0.7816164E-02  0.1226708E+00
        -11   -1    0    0    0    0  0.00000000000E+00  0.00000000000E+00  0.45593999997E+02  0.45594000000E+02  0.51100000000E-03 0.  1.
         11   -1    0    0    0    0 -0.00000000000E+00 -0.00000000000E+00 -0.45593999997E+02  0.45594000000E+02  0.51100000000E-03 0. -1.
    9900012    2    1    2    0    0  0.15111083319E+02  0.88506153011E+01  0.66330469107E+01  0.72461667160E+02  0.70000126186E+02 0.  0.
        -12    1    1    2    0    0 -0.15111083319E+02 -0.88506153011E+01 -0.66330469107E+01  0.18726332840E+02  0.00000000000E+00 0.  1.
         11    1    3    3    0    0  0.39833289762E+01  0.78018256396E+01  0.97742897010E+01  0.13125247901E+02  0.51100000000E-03 0. -1.
        -11    1    3    3    0    0  0.71304164380E+01 -0.20525356416E+02  0.18485742624E+02  0.28528157585E+02  0.51100000000E-03 0.  1.
         12    1    3    3    0    0  0.39973379052E+01  0.21574146078E+02 -0.21626985414E+02  0.30808261674E+02  0.00000000000E+00 0. -1.
</event>
<event>
 7    1  0.2577508E-013  0.7246156E+02  0.7816164E-02  0.1226708E+00
        -11   -1    0    0    0    0  0.00000000000E+00  0.00000000000E+00  0.45593999997E+02  0.45594000000E+02  0.51100000000E-03 0.  1.
         11   -1    0    0    0    0 -0.00000000000E+00 -0.00000000000E+00 -0.45593999997E+02  0.45594000000E+02  0.51100000000E-03 0. -1.
    9900012    2    1    2    0    0 -0.20380878700E+01 -0.30225998649E+01 -0.18368170588E+02  0.72461558725E+02  0.69999984928E+02 0.  0.
        -12    1    1    2    0    0  0.20380878700E+01  0.30225998649E+01  0.18368170588E+02  0.18726441275E+02  0.00000000000E+00 0.  1.
         11    1    3    3    0    0 -0.16119913493E+02  0.15089018011E+02 -0.15387743937E+02  0.26913058899E+02  0.51100000000E-03 0. -1.
        -11    1    3    3    0    0 -0.10485582565E+02 -0.16884874490E+02  0.33327434030E+01  0.20153253016E+02  0.51100000000E-03 0.  1.
        -12    1    3    3    0    0  0.24567408188E+02 -0.12267433863E+01 -0.63131700537E+01  0.25395246810E+02  0.00000000000E+00 0.  1.
</event>
<event>
 7    1  0.2577508E-013  0.7246156E+02  0.7816164E-02  0.1226708E+00
        -11   -1    0    0    0    0  0.00000000000E+00  0.00000000000E+00  0.45593999997E+02  0.45594000000E+02  0.51100000000E-03 0. -1.
         11   -1    0    0    0    0 -0.00000000000E+00 -0.00000000000E+00 -0.45593999997E+02  0.45594000000E+02  0.51100000000E-03 0.  1.
    9900012    2    1    2    0    0  0.12035030407E+02 -0.85406541786E+01  0.11528001274E+02  0.72461560294E+02  0.69999986973E+02 0.  0.
        -12    1    1    2    0    0 -0.12035030407E+02  0.85406541786E+01 -0.11528001274E+02  0.18726439706E+02  0.00000000000E+00 0.  1.
         11    1    3    3    0    0  0.11418401332E+02  0.12598474180E+02  0.19458151947E+02  0.25840300271E+02  0.51100000000E-03 0. -1.
        -11    1    3    3    0    0  0.18692737649E+02 -0.86342729261E+01  0.49070732851E+01  0.21167155649E+02  0.51100000000E-03 0.  1.
        -12    1    3    3    0    0 -0.18076108573E+02 -0.12504855432E+02 -0.12837223959E+02  0.25454104375E+02  0.00000000000E+00 0.  1.
</event>
<event>
 7    1  0.2577508E-013  0.7246132E+02  0.7816164E-02  0.1226709E+00
        -11   -1    0    0    0    0  0.00000000000E+00  0.00000000000E+00  0.45593999997E+02  0.45594000000E+02  0.51100000000E-03 0.  1.
         11   -1    0    0    0    0 -0.00000000000E+00 -0.00000000000E+00 -0.45593999997E+02  0.45594000000E+02  0.51100000000E-03 0. -1.
    9900012    2    1    2    0    0 -0.90069467776E+01  0.12453880590E+02 -0.10698807003E+02  0.72461315742E+02  0.69999668397E+02 0.  0.
        -12    1    1    2    0    0  0.90069467776E+01 -0.12453880590E+02  0.10698807003E+02  0.18726684258E+02  0.00000000000E+00 0.  1.
         11    1    3    3    0    0  0.11537757385E+01  0.13416697726E+02  0.99161071985E+01  0.16723281931E+02  0.51100000000E-03 0. -1.
        -11    1    3    3    0    0  0.30485568129E+01  0.65846772321E+01  0.15190511132E+02  0.16834586470E+02  0.51100000000E-03 0.  1.
        -12    1    3    3    0    0 -0.13209279329E+02 -0.75474943676E+01 -0.35805425334E+02  0.38903447340E+02  0.00000000000E+00 0.  1.
</event>
<event>
 7    1  0.2577508E-013  0.7246151E+02  0.7816164E-02  0.1226708E+00
        -11   -1    0    0    0    0  0.00000000000E+00  0.00000000000E+00  0.45593999997E+02  0.45594000000E+02  0.51100000000E-03 0.  1.
         11   -1    0    0    0    0 -0.00000000000E+00 -0.00000000000E+00 -0.45593999997E+02  0.45594000000E+02  0.51100000000E-03 0. -1.
    9900012    2    1    2    0    0  0.13080231403E+00  0.13103694432E+02 -0.13377502973E+02  0.72461507995E+02  0.69999918843E+02 0.  0.
        -12    1    1    2    0    0 -0.13080231403E+00 -0.13103694432E+02  0.13377502973E+02  0.18726492005E+02  0.00000000000E+00 0.  1.
         11    1    3    3    0    0  0.17326618140E+02  0.82256482941E+01 -0.14525113760E+02  0.24059341554E+02  0.51100000000E-03 0.  1.
        -11    1    3    3    0    0  0.27820534983E+01  0.13150052249E+01  0.20279949844E+02  0.20512080010E+02  0.51100000000E-03 0. -1.
         12    1    3    3    0    0 -0.19977869324E+02  0.35630409134E+01 -0.19132339058E+02  0.27890086430E+02  0.00000000000E+00 0. -1.
</event>
<event>
 7    1  0.2577508E-013  0.7246161E+02  0.7816164E-02  0.1226708E+00
        -11   -1    0    0    0    0  0.00000000000E+00  0.00000000000E+00  0.45593999997E+02  0.45594000000E+02  0.51100000000E-03 0. -1.
         11   -1    0    0    0    0 -0.00000000000E+00 -0.00000000000E+00 -0.45593999997E+02  0.45594000000E+02  0.51100000000E-03 0.  1.
    9900012    2    1    2    0    0 -0.14598072810E+01  0.18510339685E+02  0.24318671799E+01  0.72461609783E+02  0.70000051442E+02 0.  0.
        -12    1    1    2    0    0  0.14598072810E+01 -0.18510339685E+02 -0.24318671799E+01  0.18726390217E+02  0.00000000000E+00 0.  1.
         11    1    3    3    0    0 -0.35534884186E+01  0.28780632057E+01  0.11102124177E+02  0.12006985019E+02  0.51100000000E-03 0. -1.
        -11    1    3    3    0    0 -0.19900116237E+02  0.37440509285E+00 -0.22734990142E+02  0.30216462110E+02  0.51100000000E-03 0.  1.
         12    1    3    3    0    0  0.21993797375E+02  0.15257871387E+02  0.14064733145E+02  0.30238162654E+02  0.00000000000E+00 0. -1.
</event>
<event>
 7    1  0.2577508E-013  0.7246158E+02  0.7816164E-02  0.1226708E+00
        -11   -1    0    0    0    0  0.00000000000E+00  0.00000000000E+00  0.45593999997E+02  0.45594000000E+02  0.51100000000E-03 0.  1.
         11   -1    0    0    0    0 -0.00000000000E+00 -0.00000000000E+00 -0.45593999997E+02  0.45594000000E+02  0.51100000000E-03 0. -1.
    9900012    2    1    2    0    0 -0.10459936791E+02 -0.13259664010E+02 -0.80901054809E+01  0.72461580854E+02  0.70000013756E+02 0.  0.
        -12    1    1    2    0    0  0.10459936791E+02  0.13259664010E+02  0.80901054809E+01  0.18726419146E+02  0.00000000000E+00 0.  1.
         11    1    3    3    0    0  0.10195733403E+02  0.74710637026E+01 -0.10659844164E+02  0.16534873762E+02  0.51100000000E-03 0. -1.
        -11    1    3    3    0    0 -0.10685795558E+02 -0.34031790113E+02 -0.75576399066E+01  0.36461855222E+02  0.51100000000E-03 0.  1.
         12    1    3    3    0    0 -0.99698746359E+01  0.13301062400E+02  0.10127378590E+02  0.19464851870E+02  0.00000000000E+00 0. -1.
</event>
<event>
 7    1  0.2577508E-013  0.7246159E+02  0.7816164E-02  0.1226708E+00
        -11   -1    0    0    0    0  0.00000000000E+00  0.00000000000E+00  0.45593999997E+02  0.45594000000E+02  0.51100000000E-03 0.  1.
         11   -1    0    0    0    0 -0.00000000000E+00 -0.00000000000E+00 -0.45593999997E+02  0.45594000000E+02  0.51100000000E-03 0. -1.
    9900012    2    1    2    0    0  0.15636862645E+02 -0.10040011176E+02 -0.23162362738E+01  0.72461594892E+02  0.70000032043E+02 0.  0.
        -12    1    1    2    0    0 -0.15636862645E+02  0.10040011176E+02  0.23162362738E+01  0.18726405108E+02  0.00000000000E+00 0.  1.
         11    1    3    3    0    0 -0.17508894863E+01  0.13428226473E+02 -0.27298164597E+01  0.13814296159E+02  0.51100000000E-03 0. -1.
        -11    1    3    3    0    0  0.19370509588E+02 -0.29090044991E+02 -0.17986259404E+02  0.39305888705E+02  0.51100000000E-03 0.  1.
         12    1    3    3    0    0 -0.19827574571E+01  0.56218073432E+01  0.18399839590E+02  0.19341410028E+02  0.00000000000E+00 0. -1.
</event>
<event>
 7    1  0.2577508E-013  0.7246155E+02  0.7816164E-02  0.1226708E+00
        -11   -1    0    0    0    0  0.00000000000E+00  0.00000000000E+00  0.45593999997E+02  0.45594000000E+02  0.51100000000E-03 0.  1.
         11   -1    0    0    0    0 -0.00000000000E+00 -0.00000000000E+00 -0.45593999997E+02  0.45594000000E+02  0.51100000000E-03 0. -1.
    9900012    2    1    2    0    0 -0.18602697907E+02 -0.21467719086E+01  0.10373338150E+00  0.72461554538E+02  0.69999979474E+02 0.  0.
        -12    1    1    2    0    0  0.18602697907E+02  0.21467719086E+01 -0.10373338150E+00  0.18726445462E+02  0.00000000000E+00 0.  1.
         11    1    3    3    0    0 -0.75240120705E+01  0.20707707580E+02  0.57227721885E+01  0.22763348450E+02  0.51100000000E-03 0. -1.
        -11    1    3    3    0    0 -0.73011458282E+01  0.11975764456E+02 -0.41745330171E+01  0.14633946525E+02  0.51100000000E-03 0.  1.
        -12    1    3    3    0    0 -0.37775400079E+01 -0.34830243945E+02 -0.14445057900E+01  0.35064259564E+02  0.00000000000E+00 0.  1.
</event>
<event>
 7    1  0.2577508E-013  0.7246162E+02  0.7816164E-02  0.1226708E+00
        -11   -1    0    0    0    0  0.00000000000E+00  0.00000000000E+00  0.45593999997E+02  0.45594000000E+02  0.51100000000E-03 0.  1.
         11   -1    0    0    0    0 -0.00000000000E+00 -0.00000000000E+00 -0.45593999997E+02  0.45594000000E+02  0.51100000000E-03 0. -1.
    9900012    2    1    2    0    0 -0.16777497657E+02  0.64488593865E+01  0.52540677839E+01  0.72461616385E+02  0.70000060041E+02 0.  0.
        -12    1    1    2    0    0  0.16777497657E+02 -0.64488593865E+01 -0.52540677839E+01  0.18726383615E+02  0.00000000000E+00 0.  1.
         11    1    3    3    0    0 -0.16495733877E+00 -0.41793849490E+01  0.22187439632E+01  0.47346905401E+01  0.51100000000E-03 0. -1.
        -11    1    3    3    0    0  0.98259434864E+01 -0.22331050373E+02  0.67422594526E+01  0.25311717424E+02  0.51100000000E-03 0.  1.
         12    1    3    3    0    0 -0.26438483805E+02  0.32959294709E+02 -0.37069356319E+01  0.42415208421E+02  0.00000000000E+00 0. -1.
</event>
<event>
 7    1  0.2577508E-013  0.7246156E+02  0.7816164E-02  0.1226708E+00
        -11   -1    0    0    0    0  0.00000000000E+00  0.00000000000E+00  0.45593999997E+02  0.45594000000E+02  0.51100000000E-03 0. -1.
         11   -1    0    0    0    0 -0.00000000000E+00 -0.00000000000E+00 -0.45593999997E+02  0.45594000000E+02  0.51100000000E-03 0.  1.
    9900012    2    1    2    0    0  0.11018235224E+02  0.13164199665E+02  0.74820986256E+01  0.72461562535E+02  0.69999989893E+02 0.  0.
        -12    1    1    2    0    0 -0.11018235224E+02 -0.13164199665E+02 -0.74820986256E+01  0.18726437465E+02  0.00000000000E+00 0.  1.
         11    1    3    3    0    0 -0.10658626043E+01  0.36486390169E+02 -0.65752904450E+01  0.37089448302E+02  0.51100000000E-03 0. -1.
        -11    1    3    3    0    0 -0.30385149423E+01 -0.48669171473E+01  0.94742094717E+01  0.11076104954E+02  0.51100000000E-03 0.  1.
        -12    1    3    3    0    0  0.15122612770E+02 -0.18455273357E+02  0.45831795989E+01  0.24296009280E+02  0.00000000000E+00 0.  1.
</event>
<event>
 7    1  0.2577508E-013  0.7246177E+02  0.7816164E-02  0.1226707E+00
        -11   -1    0    0    0    0  0.00000000000E+00  0.00000000000E+00  0.45593999997E+02  0.45594000000E+02  0.51100000000E-03 0.  1.
         11   -1    0    0    0    0 -0.00000000000E+00 -0.00000000000E+00 -0.45593999997E+02  0.45594000000E+02  0.51100000000E-03 0. -1.
    9900012    2    1    2    0    0 -0.92156059512E+00  0.11434425387E+02 -0.14801223829E+02  0.72461772812E+02  0.70000263816E+02 0.  0.
        -12    1    1    2    0    0  0.92156059512E+00 -0.11434425387E+02  0.14801223829E+02  0.18726227188E+02  0.00000000000E+00 0.  1.
         11    1    3    3    0    0 -0.93081079386E+01  0.10489025027E+02 -0.26488571942E+02  0.29971736072E+02  0.51100000000E-03 0. -1.
        -11    1    3    3    0    0 -0.13305012835E+02  0.10113296159E+02  0.84246849366E+01  0.18715700422E+02  0.51100000000E-03 0.  1.
        -12    1    3    3    0    0  0.21691560178E+02 -0.91678957992E+01  0.32626631757E+01  0.23774336318E+02  0.00000000000E+00 0.  1.
</event>
<event>
 7    1  0.2577508E-013  0.7246156E+02  0.7816164E-02  0.1226708E+00
        -11   -1    0    0    0    0  0.00000000000E+00  0.00000000000E+00  0.45593999997E+02  0.45594000000E+02  0.51100000000E-03 0.  1.
         11   -1    0    0    0    0 -0.00000000000E+00 -0.00000000000E+00 -0.45593999997E+02  0.45594000000E+02  0.51100000000E-03 0. -1.
    9900012    2    1    2    0    0 -0.17931515218E+02 -0.50224713874E+01 -0.19786252407E+01  0.72461563748E+02  0.69999991473E+02 0.  0.
        -12    1    1    2    0    0  0.17931515218E+02  0.50224713874E+01  0.19786252407E+01  0.18726436252E+02  0.00000000000E+00 0.  1.
         11    1    3    3    0    0 -0.82810836630E+00  0.18740784172E+00 -0.88528080596E+00  0.12266244462E+01  0.51100000000E-03 0. -1.
        -11    1    3    3    0    0  0.41065272074E+01  0.27380279419E+02 -0.12974880710E+02  0.30575983982E+02  0.51100000000E-03 0.  1.
         12    1    3    3    0    0 -0.21209934059E+02 -0.32590158648E+02  0.11881536275E+02  0.40658955320E+02  0.00000000000E+00 0. -1.
</event>
<event>
 7    1  0.2577508E-013  0.7246149E+02  0.7816164E-02  0.1226708E+00
        -11   -1    0    0    0    0  0.00000000000E+00  0.00000000000E+00  0.45593999997E+02  0.45594000000E+02  0.51100000000E-03 0.  1.
         11   -1    0    0    0    0 -0.00000000000E+00 -0.00000000000E+00 -0.45593999997E+02  0.45594000000E+02  0.51100000000E-03 0. -1.
    9900012    2    1    2    0    0  0.62209167280E+01  0.17558984764E+02  0.19142768576E+01  0.72461489199E+02  0.69999894359E+02 0.  0.
        -12    1    1    2    0    0 -0.62209167280E+01 -0.17558984764E+02 -0.19142768576E+01  0.18726510801E+02  0.00000000000E+00 0.  1.
         11    1    3    3    0    0  0.16617891080E+02  0.37810516158E+01 -0.21112413094E+02  0.27132722720E+02  0.51100000000E-03 0. -1.
        -11    1    3    3    0    0 -0.18688906625E+02  0.68311697746E+01  0.11528753896E-01  0.19898247272E+02  0.51100000000E-03 0.  1.
        -12    1    3    3    0    0  0.82919322729E+01  0.69467633736E+01  0.23015161198E+02  0.25430519207E+02  0.00000000000E+00 0.  1.
</event>
<event>
 7    1  0.2577508E-013  0.7246156E+02  0.7816164E-02  0.1226708E+00
        -11   -1    0    0    0    0  0.00000000000E+00  0.00000000000E+00  0.45593999997E+02  0.45594000000E+02  0.51100000000E-03 0.  1.
         11   -1    0    0    0    0 -0.00000000000E+00 -0.00000000000E+00 -0.45593999997E+02  0.45594000000E+02  0.51100000000E-03 0. -1.
    9900012    2    1    2    0    0 -0.14003563454E+02 -0.12249864880E+02 -0.21261851367E+01  0.72461557673E+02  0.69999983559E+02 0.  0.
        -12    1    1    2    0    0  0.14003563454E+02  0.12249864880E+02  0.21261851367E+01  0.18726442327E+02  0.00000000000E+00 0.  1.
         11    1    3    3    0    0 -0.11118907425E+02  0.20103078208E+02  0.64908496727E+01  0.23872473385E+02  0.51100000000E-03 0.  1.
        -11    1    3    3    0    0  0.10996056743E+02  0.91200599607E+00 -0.57191349375E+01  0.12427933196E+02  0.51100000000E-03 0. -1.
         12    1    3    3    0    0 -0.13880712772E+02 -0.33264949084E+02 -0.28978998719E+01  0.36161151092E+02  0.00000000000E+00 0. -1.
</event>
<event>
 7    1  0.2577508E-013  0.7246154E+02  0.7816164E-02  0.1226708E+00
        -11   -1    0    0    0    0  0.00000000000E+00  0.00000000000E+00  0.45593999997E+02  0.45594000000E+02  0.51100000000E-03 0.  1.
         11   -1    0    0    0    0 -0.00000000000E+00 -0.00000000000E+00 -0.45593999997E+02  0.45594000000E+02  0.51100000000E-03 0. -1.
    9900012    2    1    2    0    0 -0.78372989452E+01  0.89011899208E+01 -0.14492274317E+02  0.72461536062E+02  0.69999955406E+02 0.  0.
        -12    1    1    2    0    0  0.78372989452E+01 -0.89011899208E+01  0.14492274317E+02  0.18726463938E+02  0.00000000000E+00 0.  1.
         11    1    3    3    0    0 -0.24931317361E+02  0.98355107952E+01 -0.70470227604E+01  0.27712242566E+02  0.51100000000E-03 0. -1.
        -11    1    3    3    0    0  0.11765739959E+01  0.14716969619E+02  0.87572982730E+01  0.17165773925E+02  0.51100000000E-03 0.  1.
         12    1    3    3    0    0  0.15917444420E+02 -0.15651290493E+02 -0.16202549829E+02  0.27583519571E+02  0.00000000000E+00 0. -1.
</event>
<event>
 7    1  0.2577508E-013  0.7246158E+02  0.7816164E-02  0.1226708E+00
        -11   -1    0    0    0    0  0.00000000000E+00  0.00000000000E+00  0.45593999997E+02  0.45594000000E+02  0.51100000000E-03 0. -1.
         11   -1    0    0    0    0 -0.00000000000E+00 -0.00000000000E+00 -0.45593999997E+02  0.45594000000E+02  0.51100000000E-03 0.  1.
    9900012    2    1    2    0    0 -0.81243048662E+01  0.13450498648E+02  0.10186186311E+02  0.72461584566E+02  0.70000018592E+02 0.  0.
        -12    1    1    2    0    0  0.81243048662E+01 -0.13450498648E+02 -0.10186186311E+02  0.18726415434E+02  0.00000000000E+00 0.  1.
         11    1    3    3    0    0 -0.10941086062E+02  0.61169618694E+01 -0.60300241805E+01  0.13909916557E+02  0.51100000000E-03 0. -1.
        -11    1    3    3    0    0 -0.82761757732E+01  0.14343835140E+02 -0.16453915473E+02  0.23344635928E+02  0.51100000000E-03 0.  1.
         12    1    3    3    0    0  0.11092956969E+02 -0.70102983613E+01  0.32670125965E+02  0.35207032082E+02  0.00000000000E+00 0. -1.
</event>
<event>
 7    1  0.2577508E-013  0.7246214E+02  0.7816164E-02  0.1226706E+00
        -11   -1    0    0    0    0  0.00000000000E+00  0.00000000000E+00  0.45593999997E+02  0.45594000000E+02  0.51100000000E-03 0.  1.
         11   -1    0    0    0    0 -0.00000000000E+00 -0.00000000000E+00 -0.45593999997E+02  0.45594000000E+02  0.51100000000E-03 0. -1.
    9900012    2    1    2    0    0 -0.94554750223E+01 -0.94109846063E+01 -0.13140970095E+02  0.72462142631E+02  0.70000745571E+02 0.  0.
        -12    1    1    2    0    0  0.94554750223E+01  0.94109846063E+01  0.13140970095E+02  0.18725857369E+02  0.00000000000E+00 0.  1.
         11    1    3    3    0    0 -0.26017442179E+02 -0.76698269140E+01 -0.24644352222E+02  0.36648023672E+02  0.51100000000E-03 0. -1.
        -11    1    3    3    0    0 -0.20511609009E+01 -0.76193153536E+01  0.14065329280E+02  0.16127452233E+02  0.51100000000E-03 0.  1.
         12    1    3    3    0    0  0.18613128057E+02  0.58781576614E+01 -0.25619471533E+01  0.19686666726E+02  0.00000000000E+00 0. -1.
</event>
<event>
 7    1  0.2577508E-013  0.7246158E+02  0.7816164E-02  0.1226708E+00
        -11   -1    0    0    0    0  0.00000000000E+00  0.00000000000E+00  0.45593999997E+02  0.45594000000E+02  0.51100000000E-03 0. -1.
         11   -1    0    0    0    0 -0.00000000000E+00 -0.00000000000E+00 -0.45593999997E+02  0.45594000000E+02  0.51100000000E-03 0.  1.
    9900012    2    1    2    0    0 -0.52525059149E+01 -0.63220223769E+01  0.16826231285E+02  0.72461578970E+02  0.70000011302E+02 0.  0.
        -12    1    1    2    0    0  0.52525059149E+01  0.63220223769E+01 -0.16826231285E+02  0.18726421030E+02  0.00000000000E+00 0.  1.
         11    1    3    3    0    0 -0.78270139401E+01  0.20538809408E+02  0.19512502513E+02  0.29391199256E+02  0.51100000000E-03 0. -1.
        -11    1    3    3    0    0  0.14929493585E+02 -0.10486892743E+02  0.80231060185E+01  0.19930753336E+02  0.51100000000E-03 0.  1.
        -12    1    3    3    0    0 -0.12354985559E+02 -0.16373939042E+02 -0.10709377246E+02  0.23139626379E+02  0.00000000000E+00 0.  1.
</event>
<event>
 7    1  0.2577508E-013  0.7246154E+02  0.7816164E-02  0.1226708E+00
        -11   -1    0    0    0    0  0.00000000000E+00  0.00000000000E+00  0.45593999997E+02  0.45594000000E+02  0.51100000000E-03 0.  1.
         11   -1    0    0    0    0 -0.00000000000E+00 -0.00000000000E+00 -0.45593999997E+02  0.45594000000E+02  0.51100000000E-03 0. -1.
    9900012    2    1    2    0    0  0.13485750600E+02 -0.43181897055E+01  0.12254304133E+02  0.72461542744E+02  0.69999964111E+02 0.  0.
        -12    1    1    2    0    0 -0.13485750600E+02  0.43181897055E+01 -0.12254304133E+02  0.18726457256E+02  0.00000000000E+00 0.  1.
         11    1    3    3    0    0 -0.12376584184E+02 -0.38620196564E+01 -0.11852566813E+02  0.17566398954E+02  0.51100000000E-03 0. -1.
        -11    1    3    3    0    0 -0.11698423026E+02  0.12013108921E+00  0.46404609900E+01  0.12585762243E+02  0.51100000000E-03 0.  1.
        -12    1    3    3    0    0  0.37560757810E+02 -0.57630113832E+00  0.19466409957E+02  0.42309381547E+02  0.00000000000E+00 0.  1.
</event>
<event>
 7    1  0.2577508E-013  0.7246157E+02  0.7816164E-02  0.1226708E+00
        -11   -1    0    0    0    0  0.00000000000E+00  0.00000000000E+00  0.45593999997E+02  0.45594000000E+02  0.51100000000E-03 0.  1.
         11   -1    0    0    0    0 -0.00000000000E+00 -0.00000000000E+00 -0.45593999997E+02  0.45594000000E+02  0.51100000000E-03 0. -1.
    9900012    2    1    2    0    0  0.16073408499E+02  0.28257211899E+01 -0.91836807118E+01  0.72461570751E+02  0.70000000594E+02 0.  0.
        -12    1    1    2    0    0 -0.16073408499E+02 -0.28257211899E+01  0.91836807118E+01  0.18726429249E+02  0.00000000000E+00 0.  1.
         11    1    3    3    0    0 -0.77125464300E+01 -0.27595326818E+00 -0.44622518312E+01  0.89146628825E+01  0.51100000000E-03 0. -1.
        -11    1    3    3    0    0  0.25408596284E+02  0.28210138285E+02 -0.10480179392E+00  0.37966032856E+02  0.51100000000E-03 0.  1.
         12    1    3    3    0    0 -0.16226413550E+01 -0.25108463827E+02 -0.46166270867E+01  0.25580875012E+02  0.00000000000E+00 0. -1.
</event>
<event>
 7    1  0.2577508E-013  0.7246157E+02  0.7816164E-02  0.1226708E+00
        -11   -1    0    0    0    0  0.00000000000E+00  0.00000000000E+00  0.45593999997E+02  0.45594000000E+02  0.51100000000E-03 0. -1.
         11   -1    0    0    0    0 -0.00000000000E+00 -0.00000000000E+00 -0.45593999997E+02  0.45594000000E+02  0.51100000000E-03 0.  1.
    9900012    2    1    2    0    0  0.71330629757E+01 -0.17019378194E+02 -0.31842179975E+01  0.72461573064E+02  0.70000003608E+02 0.  0.
        -12    1    1    2    0    0 -0.71330629757E+01  0.17019378194E+02  0.31842179975E+01  0.18726426936E+02  0.00000000000E+00 0.  1.
         11    1    3    3    0    0 -0.53415860666E+01 -0.37156725426E+02  0.29405600077E+01  0.37653707381E+02  0.51100000000E-03 0. -1.
        -11    1    3    3    0    0 -0.26941338270E+01  0.15196643389E+01  0.68472395187E+01  0.75134829519E+01  0.51100000000E-03 0.  1.
        -12    1    3    3    0    0  0.15168782869E+02  0.18617682893E+02 -0.12972017524E+02  0.27294382731E+02  0.00000000000E+00 0.  1.
</event>
<event>
 7    1  0.2577508E-013  0.7246160E+02  0.7816164E-02  0.1226708E+00
        -11   -1    0    0    0    0  0.00000000000E+00  0.00000000000E+00  0.45593999997E+02  0.45594000000E+02  0.51100000000E-03 0.  1.
         11   -1    0    0    0    0 -0.00000000000E+00 -0.00000000000E+00 -0.45593999997E+02  0.45594000000E+02  0.51100000000E-03 0. -1.
    9900012    2    1    2    0    0  0.11972357110E+02  0.11437865032E+02 -0.87473506043E+01  0.72461595277E+02  0.70000032545E+02 0.  0.
        -12    1    1    2    0    0 -0.11972357110E+02 -0.11437865032E+02  0.87473506043E+01  0.18726404723E+02  0.00000000000E+00 0.  1.
         11    1    3    3    0    0  0.80548711488E+01 -0.38780077651E+01  0.20757874939E+00  0.89422023377E+01  0.51100000000E-03 0. -1.
        -11    1    3    3    0    0  0.13221826521E+02  0.52964014485E+01  0.23961992907E+02  0.27875538904E+02  0.51100000000E-03 0.  1.
         12    1    3    3    0    0 -0.93043405595E+01  0.10019471348E+02 -0.32916922261E+02  0.35643854035E+02  0.00000000000E+00 0. -1.
</event>
<event>
 7    1  0.2577508E-013  0.7246152E+02  0.7816164E-02  0.1226708E+00
        -11   -1    0    0    0    0  0.00000000000E+00  0.00000000000E+00  0.45593999997E+02  0.45594000000E+02  0.51100000000E-03 0.  1.
         11   -1    0    0    0    0 -0.00000000000E+00 -0.00000000000E+00 -0.45593999997E+02  0.45594000000E+02  0.51100000000E-03 0. -1.
    9900012    2    1    2    0    0  0.18645695333E+02  0.17331739493E+01  0.12397341844E+00  0.72461515658E+02  0.69999928826E+02 0.  0.
        -12    1    1    2    0    0 -0.18645695333E+02 -0.17331739493E+01 -0.12397341844E+00  0.18726484342E+02  0.00000000000E+00 0.  1.
         11    1    3    3    0    0 -0.11752315677E+02 -0.32797288381E+01  0.19563248758E+02  0.23056327706E+02  0.51100000000E-03 0. -1.
        -11    1    3    3    0    0  0.41879510100E+01  0.23671558488E+01  0.92683524342E+01  0.10442447873E+02  0.51100000000E-03 0.  1.
         12    1    3    3    0    0  0.26210060001E+02  0.26457469387E+01 -0.28707627774E+02  0.38962740080E+02  0.00000000000E+00 0. -1.
</event>
<event>
 7    1  0.2577508E-013  0.7246158E+02  0.7816164E-02  0.1226708E+00
        -11   -1    0    0    0    0  0.00000000000E+00  0.00000000000E+00  0.45593999997E+02  0.45594000000E+02  0.51100000000E-03 0.  1.
         11   -1    0    0    0    0 -0.00000000000E+00 -0.00000000000E+00 -0.45593999997E+02  0.45594000000E+02  0.51100000000E-03 0. -1.
    9900012    2    1    2    0    0 -0.14933622524E+02  0.30982144611E+01  0.10865852139E+02  0.72461581302E+02  0.70000014340E+02 0.  0.
        -12    1    1    2    0    0  0.14933622524E+02 -0.30982144611E+01 -0.10865852139E+02  0.18726418698E+02  0.00000000000E+00 0.  1.
         11    1    3    3    0    0 -0.13049732813E+02 -0.13116670196E+02 -0.15991666061E+02  0.24455591327E+02  0.51100000000E-03 0. -1.
        -11    1    3    3    0    0 -0.13329634426E+02  0.68906151071E+01  0.29416731927E+02  0.33022777715E+02  0.51100000000E-03 0.  1.
        -12    1    3    3    0    0  0.11445744715E+02  0.93242695500E+01 -0.25592137274E+01  0.14983212260E+02  0.00000000000E+00 0.  1.
</event>
<event>
 7    1  0.2577508E-013  0.7246155E+02  0.7816164E-02  0.1226708E+00
        -11   -1    0    0    0    0  0.00000000000E+00  0.00000000000E+00  0.45593999997E+02  0.45594000000E+02  0.51100000000E-03 0.  1.
         11   -1    0    0    0    0 -0.00000000000E+00 -0.00000000000E+00 -0.45593999997E+02  0.45594000000E+02  0.51100000000E-03 0. -1.
    9900012    2    1    2    0    0 -0.92449207427E+01 -0.14734748238E+02  0.69353034804E+01  0.72461553472E+02  0.69999978086E+02 0.  0.
        -12    1    1    2    0    0  0.92449207427E+01  0.14734748238E+02 -0.69353034804E+01  0.18726446528E+02  0.00000000000E+00 0.  1.
         11    1    3    3    0    0 -0.24290888092E+02 -0.86005331779E+01 -0.11118031515E+02  0.28064693839E+02  0.51100000000E-03 0. -1.
        -11    1    3    3    0    0 -0.81054730113E+01 -0.13936406512E+02  0.76002516786E+01  0.17823746661E+02  0.51100000000E-03 0.  1.
        -12    1    3    3    0    0  0.23151440360E+02  0.78021914518E+01  0.10453083317E+02  0.26573112972E+02  0.00000000000E+00 0.  1.
</event>
<event>
 7    1  0.2577508E-013  0.7246156E+02  0.7816164E-02  0.1226708E+00
        -11   -1    0    0    0    0  0.00000000000E+00  0.00000000000E+00  0.45593999997E+02  0.45594000000E+02  0.51100000000E-03 0. -1.
         11   -1    0    0    0    0 -0.00000000000E+00 -0.00000000000E+00 -0.45593999997E+02  0.45594000000E+02  0.51100000000E-03 0.  1.
    9900012    2    1    2    0    0 -0.48661105676E+01 -0.63586445624E+01  0.16928328146E+02  0.72461556489E+02  0.69999982016E+02 0.  0.
        -12    1    1    2    0    0  0.48661105676E+01  0.63586445624E+01 -0.16928328146E+02  0.18726443511E+02  0.00000000000E+00 0.  1.
         11    1    3    3    0    0  0.20012227975E+02 -0.33981245032E+01  0.72005994311E+01  0.21537993200E+02  0.51100000000E-03 0.  1.
        -11    1    3    3    0    0  0.29169220594E+01 -0.36828412885E+01  0.20555102476E+02  0.21085160477E+02  0.51100000000E-03 0. -1.
         12    1    3    3    0    0 -0.27795260602E+02  0.72232122939E+00 -0.10827373761E+02  0.29838402813E+02  0.00000000000E+00 0. -1.
</event>
<event>
 7    1  0.2577508E-013  0.7246157E+02  0.7816164E-02  0.1226708E+00
        -11   -1    0    0    0    0  0.00000000000E+00  0.00000000000E+00  0.45593999997E+02  0.45594000000E+02  0.51100000000E-03 0.  1.
         11   -1    0    0    0    0 -0.00000000000E+00 -0.00000000000E+00 -0.45593999997E+02  0.45594000000E+02  0.51100000000E-03 0. -1.
    9900012    2    1    2    0    0 -0.84374716517E+01 -0.82388748543E+01 -0.14546789275E+02  0.72461573087E+02  0.70000003637E+02 0.  0.
        -12    1    1    2    0    0  0.84374716517E+01  0.82388748543E+01  0.14546789275E+02  0.18726426913E+02  0.00000000000E+00 0.  1.
         11    1    3    3    0    0 -0.70011121460E+01  0.57668233663E+01  0.18370166333E+01  0.92545369085E+01  0.51100000000E-03 0. -1.
        -11    1    3    3    0    0 -0.15748766773E+02  0.42193925715E+01  0.16357141150E+02  0.23095085958E+02  0.51100000000E-03 0.  1.
         12    1    3    3    0    0  0.14312407267E+02 -0.18225090792E+02 -0.32740947058E+02  0.40111950220E+02  0.00000000000E+00 0. -1.
</event>
<event>
 7    1  0.2577508E-013  0.7246156E+02  0.7816164E-02  0.1226708E+00
        -11   -1    0    0    0    0  0.00000000000E+00  0.00000000000E+00  0.45593999997E+02  0.45594000000E+02  0.51100000000E-03 0. -1.
         11   -1    0    0    0    0 -0.00000000000E+00 -0.00000000000E+00 -0.45593999997E+02  0.45594000000E+02  0.51100000000E-03 0.  1.
    9900012    2    1    2    0    0 -0.14796247611E+02  0.11302934105E+02  0.19985403971E+01  0.72461563434E+02  0.69999991063E+02 0.  0.
        -12    1    1    2    0    0  0.14796247611E+02 -0.11302934105E+02 -0.19985403971E+01  0.18726436566E+02  0.00000000000E+00 0.  1.
         11    1    3    3    0    0 -0.23276885977E+01 -0.20847815646E+02 -0.18484536297E+01  0.21058640329E+02  0.51100000000E-03 0. -1.
        -11    1    3    3    0    0 -0.38042352601E+01 -0.86469950500E+01  0.19888290258E+01  0.96539199533E+01  0.51100000000E-03 0.  1.
        -12    1    3    3    0    0 -0.86643237530E+01  0.40797744801E+02  0.18581650011E+01  0.41749003152E+02  0.00000000000E+00 0.  1.
</event>
<event>
 7    1  0.2577508E-013  0.7246155E+02  0.7816164E-02  0.1226708E+00
        -11   -1    0    0    0    0  0.00000000000E+00  0.00000000000E+00  0.45593999997E+02  0.45594000000E+02  0.51100000000E-03 0. -1.
         11   -1    0    0    0    0 -0.00000000000E+00 -0.00000000000E+00 -0.45593999997E+02  0.45594000000E+02  0.51100000000E-03 0.  1.
    9900012    2    1    2    0    0 -0.22071284702E+01  0.16337318051E+02 -0.88826012170E+01  0.72461548613E+02  0.69999971756E+02 0.  0.
        -12    1    1    2    0    0  0.22071284702E+01 -0.16337318051E+02  0.88826012170E+01  0.18726451387E+02  0.00000000000E+00 0.  1.
         11    1    3    3    0    0 -0.62136879731E+00  0.31593107215E+02  0.11400730728E+02  0.33592963312E+02  0.51100000000E-03 0. -1.
        -11    1    3    3    0    0 -0.12155537314E+02  0.16927937900E+01 -0.12247146309E+02  0.17338259174E+02  0.51100000000E-03 0.  1.
        -12    1    3    3    0    0  0.10569777641E+02 -0.16948582955E+02 -0.80361856352E+01  0.21530326126E+02  0.00000000000E+00 0.  1.
</event>
<event>
 7    1  0.2577508E-013  0.7246158E+02  0.7816164E-02  0.1226708E+00
        -11   -1    0    0    0    0  0.00000000000E+00  0.00000000000E+00  0.45593999997E+02  0.45594000000E+02  0.51100000000E-03 0. -1.
         11   -1    0    0    0    0 -0.00000000000E+00 -0.00000000000E+00 -0.45593999997E+02  0.45594000000E+02  0.51100000000E-03 0.  1.
    9900012    2    1    2    0    0 -0.15158310217E+02 -0.29836528221E+01  0.10583105356E+02  0.72461583584E+02  0.70000017313E+02 0.  0.
        -12    1    1    2    0    0  0.15158310217E+02  0.29836528221E+01 -0.10583105356E+02  0.18726416416E+02  0.00000000000E+00 0.  1.
         11    1    3    3    0    0  0.64768985535E+01  0.12851451909E+01  0.10414310206E+02  0.12331247721E+02  0.51100000000E-03 0. -1.
        -11    1    3    3    0    0  0.94783238190E+01  0.47645260666E+01 -0.19521535819E+02  0.22217778738E+02  0.51100000000E-03 0.  1.
        -12    1    3    3    0    0 -0.31113532590E+02 -0.90333240795E+01  0.19690330969E+02  0.37912557126E+02  0.00000000000E+00 0.  1.
</event>
<event>
 7    1  0.2577508E-013  0.7246153E+02  0.7816164E-02  0.1226708E+00
        -11   -1    0    0    0    0  0.00000000000E+00  0.00000000000E+00  0.45593999997E+02  0.45594000000E+02  0.51100000000E-03 0. -1.
         11   -1    0    0    0    0 -0.00000000000E+00 -0.00000000000E+00 -0.45593999997E+02  0.45594000000E+02  0.51100000000E-03 0.  1.
    9900012    2    1    2    0    0 -0.13319103842E+02 -0.12976854327E+02 -0.22098294915E+01  0.72461531520E+02  0.69999949489E+02 0.  0.
        -12    1    1    2    0    0  0.13319103842E+02  0.12976854327E+02  0.22098294915E+01  0.18726468480E+02  0.00000000000E+00 0.  1.
         11    1    3    3    0    0 -0.71339908121E+00 -0.23579769397E+02  0.12769303816E+02  0.26824794189E+02  0.51100000000E-03 0. -1.
        -11    1    3    3    0    0 -0.23498191401E+02 -0.46915503538E+01 -0.11343106939E+02  0.26511162161E+02  0.51100000000E-03 0.  1.
        -12    1    3    3    0    0  0.10892486640E+02  0.15294465424E+02 -0.36360263685E+01  0.19125575170E+02  0.00000000000E+00 0.  1.
</event>
<event>
 7    1  0.2577508E-013  0.7246157E+02  0.7816164E-02  0.1226708E+00
        -11   -1    0    0    0    0  0.00000000000E+00  0.00000000000E+00  0.45593999997E+02  0.45594000000E+02  0.51100000000E-03 0.  1.
         11   -1    0    0    0    0 -0.00000000000E+00 -0.00000000000E+00 -0.45593999997E+02  0.45594000000E+02  0.51100000000E-03 0. -1.
    9900012    2    1    2    0    0  0.38126243297E+01 -0.17156152888E+02 -0.64660270672E+01  0.72461569688E+02  0.69999999210E+02 0.  0.
        -12    1    1    2    0    0 -0.38126243297E+01  0.17156152888E+02  0.64660270672E+01  0.18726430312E+02  0.00000000000E+00 0.  1.
         11    1    3    3    0    0 -0.25236441741E+02  0.86511567641E+01 -0.15222866086E+02  0.30715731429E+02  0.51100000000E-03 0. -1.
        -11    1    3    3    0    0  0.24146534738E+00  0.71181636845E+00  0.18355199128E+01  0.19834620409E+01  0.51100000000E-03 0.  1.
        -12    1    3    3    0    0  0.28807600723E+02 -0.26519126021E+02  0.69213191062E+01  0.39762376218E+02  0.00000000000E+00 0.  1.
</event>
<event>
 7    1  0.2577508E-013  0.7246156E+02  0.7816164E-02  0.1226708E+00
        -11   -1    0    0    0    0  0.00000000000E+00  0.00000000000E+00  0.45593999997E+02  0.45594000000E+02  0.51100000000E-03 0. -1.
         11   -1    0    0    0    0 -0.00000000000E+00 -0.00000000000E+00 -0.45593999997E+02  0.45594000000E+02  0.51100000000E-03 0.  1.
    9900012    2    1    2    0    0  0.25621835821E+00 -0.18283295470E+02 -0.40416372632E+01  0.72461564865E+02  0.69999992928E+02 0.  0.
        -12    1    1    2    0    0 -0.25621835821E+00  0.18283295470E+02  0.40416372632E+01  0.18726435135E+02  0.00000000000E+00 0.  1.
         11    1    3    3    0    0 -0.93186235827E+01  0.32470662790E+01  0.11194505951E+02  0.14923040865E+02  0.51100000000E-03 0. -1.
        -11    1    3    3    0    0 -0.32119460982E+00  0.14048476608E+02  0.56111664684E+01  0.15131029389E+02  0.51100000000E-03 0.  1.
        -12    1    3    3    0    0  0.98960365507E+01 -0.35578838356E+02 -0.20847309683E+02  0.42407494612E+02  0.00000000000E+00 0.  1.
</event>
<event>
 7    1  0.2577508E-013  0.7246148E+02  0.7816164E-02  0.1226708E+00
        -11   -1    0    0    0    0  0.00000000000E+00  0.00000000000E+00  0.45593999997E+02  0.45594000000E+02  0.51100000000E-03 0.  1.
         11   -1    0    0    0    0 -0.00000000000E+00 -0.00000000000E+00 -0.45593999997E+02  0.45594000000E+02  0.51100000000E-03 0. -1.
    9900012    2    1    2    0    0  0.93582439222E+01  0.73360688573E+01 -0.14466792765E+02  0.72461475269E+02  0.69999876212E+02 0.  0.
        -12    1    1    2    0    0 -0.93582439222E+01 -0.73360688573E+01  0.14466792765E+02  0.18726524731E+02  0.00000000000E+00 0.  1.
         11    1    3    3    0    0  0.10341589840E+02  0.89606235237E+01 -0.66666199918E+01  0.15221204838E+02  0.51100000000E-03 0. -1.
        -11    1    3    3    0    0 -0.28709351407E+02 -0.34705226609E+01 -0.38499893758E+01  0.29173512030E+02  0.51100000000E-03 0.  1.
         12    1    3    3    0    0  0.27726005489E+02  0.18459679946E+01 -0.39501833979E+01  0.28066758400E+02  0.00000000000E+00 0. -1.
</event>
<event>
 7    1  0.2577508E-013  0.7246157E+02  0.7816164E-02  0.1226708E+00
        -11   -1    0    0    0    0  0.00000000000E+00  0.00000000000E+00  0.45593999997E+02  0.45594000000E+02  0.51100000000E-03 0.  1.
         11   -1    0    0    0    0 -0.00000000000E+00 -0.00000000000E+00 -0.45593999997E+02  0.45594000000E+02  0.51100000000E-03 0. -1.
    9900012    2    1    2    0    0 -0.47331326405E+01 -0.50788496468E+01 -0.17392010832E+02  0.72461566835E+02  0.69999995493E+02 0.  0.
        -12    1    1    2    0    0  0.47331326405E+01  0.50788496468E+01  0.17392010832E+02  0.18726433165E+02  0.00000000000E+00 0.  1.
         11    1    3    3    0    0  0.23419995542E+01  0.93657655357E+01 -0.46511179874E+01  0.10716129188E+02  0.51100000000E-03 0. -1.
        -11    1    3    3    0    0 -0.11257748393E+02  0.20418397693E+02  0.25345754894E+01  0.23453612438E+02  0.51100000000E-03 0.  1.
         12    1    3    3    0    0  0.41826161984E+01 -0.34863012875E+02 -0.15275468334E+02  0.38291825209E+02  0.00000000000E+00 0. -1.
</event>
<event>
 7    1  0.2577508E-013  0.7246157E+02  0.7816164E-02  0.1226708E+00
        -11   -1    0    0    0    0  0.00000000000E+00  0.00000000000E+00  0.45593999997E+02  0.45594000000E+02  0.51100000000E-03 0.  1.
         11   -1    0    0    0    0 -0.00000000000E+00 -0.00000000000E+00 -0.45593999997E+02  0.45594000000E+02  0.51100000000E-03 0. -1.
    9900012    2    1    2    0    0 -0.16694869183E+01  0.14076321731E+02 -0.12237197837E+02  0.72461573994E+02  0.70000004820E+02 0.  0.
        -12    1    1    2    0    0  0.16694869183E+01 -0.14076321731E+02  0.12237197837E+02  0.18726426006E+02  0.00000000000E+00 0.  1.
         11    1    3    3    0    0  0.71651780957E+00 -0.84440432323E+00  0.55524767342E+01  0.56618384450E+01  0.51100000000E-03 0. -1.
        -11    1    3    3    0    0  0.29363435545E+02  0.12886779646E+02 -0.13108556807E+02  0.34642671642E+02  0.51100000000E-03 0.  1.
         12    1    3    3    0    0 -0.31749440273E+02  0.20339464090E+01 -0.46811177638E+01  0.32157063908E+02  0.00000000000E+00 0. -1.
</event>
<event>
 7    1  0.2577508E-013  0.7246157E+02  0.7816164E-02  0.1226708E+00
        -11   -1    0    0    0    0  0.00000000000E+00  0.00000000000E+00  0.45593999997E+02  0.45594000000E+02  0.51100000000E-03 0. -1.
         11   -1    0    0    0    0 -0.00000000000E+00 -0.00000000000E+00 -0.45593999997E+02  0.45594000000E+02  0.51100000000E-03 0.  1.
    9900012    2    1    2    0    0 -0.16594720916E+02 -0.49137242509E+01 -0.71519009172E+01  0.72461571215E+02  0.70000001200E+02 0.  0.
        -12    1    1    2    0    0  0.16594720916E+02  0.49137242509E+01  0.71519009172E+01  0.18726428785E+02  0.00000000000E+00 0.  1.
         11    1    3    3    0    0  0.30626210425E+01 -0.51794111265E+01 -0.39065495706E+01  0.71740558317E+01  0.51100000000E-03 0. -1.
        -11    1    3    3    0    0  0.46884928211E+00  0.29460396311E+02  0.15505829971E+01  0.29504899226E+02  0.51100000000E-03 0.  1.
         12    1    3    3    0    0 -0.20126191241E+02 -0.29194709435E+02 -0.47959343437E+01  0.35782616158E+02  0.00000000000E+00 0. -1.
</event>
<event>
 7    1  0.2577508E-013  0.7246155E+02  0.7816164E-02  0.1226708E+00
        -11   -1    0    0    0    0  0.00000000000E+00  0.00000000000E+00  0.45593999997E+02  0.45594000000E+02  0.51100000000E-03 0.  1.
         11   -1    0    0    0    0 -0.00000000000E+00 -0.00000000000E+00 -0.45593999997E+02  0.45594000000E+02  0.51100000000E-03 0. -1.
    9900012    2    1    2    0    0 -0.37584658454E+01 -0.47718330763E+01 -0.17713933639E+02  0.72461550754E+02  0.69999974545E+02 0.  0.
        -12    1    1    2    0    0  0.37584658454E+01  0.47718330763E+01  0.17713933639E+02  0.18726449246E+02  0.00000000000E+00 0.  1.
         11    1    3    3    0    0  0.47213138370E+01  0.12479251917E+02 -0.45805636049E+01  0.14106881156E+02  0.51100000000E-03 0. -1.
        -11    1    3    3    0    0  0.17673057174E+02 -0.12113789106E+02 -0.21565637131E+02  0.30399959564E+02  0.51100000000E-03 0.  1.
        -12    1    3    3    0    0 -0.26152836856E+02 -0.51372958869E+01  0.84322670974E+01  0.27954710033E+02  0.00000000000E+00 0.  1.
</event>
<event>
 7    1  0.2577508E-013  0.7246156E+02  0.7816164E-02  0.1226708E+00
        -11   -1    0    0    0    0  0.00000000000E+00  0.00000000000E+00  0.45593999997E+02  0.45594000000E+02  0.51100000000E-03 0.  1.
         11   -1    0    0    0    0 -0.00000000000E+00 -0.00000000000E+00 -0.45593999997E+02  0.45594000000E+02  0.51100000000E-03 0. -1.
    9900012    2    1    2    0    0 -0.16610575370E+02  0.70125958887E+01 -0.50588285583E+01  0.72461562496E+02  0.69999989841E+02 0.  0.
        -12    1    1    2    0    0  0.16610575370E+02 -0.70125958887E+01  0.50588285583E+01  0.18726437504E+02  0.00000000000E+00 0.  1.
         11    1    3    3    0    0 -0.25701577726E+01  0.30077089687E+02 -0.10750965552E+02  0.32044036817E+02  0.51100000000E-03 0. -1.
        -11    1    3    3    0    0 -0.15201117743E+02 -0.11620025376E+02 -0.94995040807E+01  0.21362105430E+02  0.51100000000E-03 0.  1.
        -12    1    3    3    0    0  0.11607001459E+01 -0.11444468422E+02  0.15191641074E+02  0.19055420248E+02  0.00000000000E+00 0.  1.
</event>
<event>
 7    1  0.2577508E-013  0.7246157E+02  0.7816164E-02  0.1226708E+00
        -11   -1    0    0    0    0  0.00000000000E+00  0.00000000000E+00  0.45593999997E+02  0.45594000000E+02  0.51100000000E-03 0.  1.
         11   -1    0    0    0    0 -0.00000000000E+00 -0.00000000000E+00 -0.45593999997E+02  0.45594000000E+02  0.51100000000E-03 0. -1.
    9900012    2    1    2    0    0  0.16272204806E+02  0.78634259531E+01 -0.49052017561E+01  0.72461571584E+02  0.70000001680E+02 0.  0.
        -12    1    1    2    0    0 -0.16272204806E+02 -0.78634259531E+01  0.49052017561E+01  0.18726428416E+02  0.00000000000E+00 0.  1.
         11    1    3    3    0    0 -0.78693293195E+01 -0.18234660392E+02  0.26534803906E+01  0.20036719841E+02  0.51100000000E-03 0. -1.
        -11    1    3    3    0    0  0.49048058175E+01 -0.78730535922E+01  0.60578032806E+01  0.11078766801E+02  0.51100000000E-03 0.  1.
        -12    1    3    3    0    0  0.19236728308E+02  0.33971139937E+02 -0.13616485427E+02  0.41346084942E+02  0.00000000000E+00 0.  1.
</event>
<event>
 7    1  0.2577508E-013  0.7246158E+02  0.7816164E-02  0.1226708E+00
        -11   -1    0    0    0    0  0.00000000000E+00  0.00000000000E+00  0.45593999997E+02  0.45594000000E+02  0.51100000000E-03 0.  1.
         11   -1    0    0    0    0 -0.00000000000E+00 -0.00000000000E+00 -0.45593999997E+02  0.45594000000E+02  0.51100000000E-03 0. -1.
    9900012    2    1    2    0    0  0.12553210325E+02  0.13807572338E+02 -0.15642115312E+01  0.72461577463E+02  0.70000009338E+02 0.  0.
        -12    1    1    2    0    0 -0.12553210325E+02 -0.13807572338E+02  0.15642115312E+01  0.18726422537E+02  0.00000000000E+00 0.  1.
         11    1    3    3    0    0  0.28972004595E+00  0.35929065535E+01  0.84167678377E+01  0.91561398145E+01  0.51100000000E-03 0. -1.
        -11    1    3    3    0    0  0.22609618918E+01 -0.21924279139E+02  0.99556305656E+01  0.24184717172E+02  0.51100000000E-03 0.  1.
         12    1    3    3    0    0  0.10002528387E+02  0.32138944924E+02 -0.19936609934E+02  0.39120720477E+02  0.00000000000E+00 0. -1.
</event>
<event>
 7    1  0.2577508E-013  0.7246170E+02  0.7816164E-02  0.1226708E+00
        -11   -1    0    0    0    0  0.00000000000E+00  0.00000000000E+00  0.45593999997E+02  0.45594000000E+02  0.51100000000E-03 0. -1.
         11   -1    0    0    0    0 -0.00000000000E+00 -0.00000000000E+00 -0.45593999997E+02  0.45594000000E+02  0.51100000000E-03 0.  1.
    9900012    2    1    2    0    0 -0.32167172355E+00  0.73234740696E+01  0.17231873753E+02  0.72461702497E+02  0.70000172218E+02 0.  0.
        -12    1    1    2    0    0  0.32167172355E+00 -0.73234740696E+01 -0.17231873753E+02  0.18726297503E+02  0.00000000000E+00 0.  1.
         11    1    3    3    0    0 -0.32355127272E+01 -0.48037957997E+01 -0.10111348805E+02  0.11652655131E+02  0.51100000000E-03 0. -1.
        -11    1    3    3    0    0 -0.56591842645E+01 -0.14187993626E+02 -0.69155606171E+01  0.16767543308E+02  0.51100000000E-03 0.  1.
         12    1    3    3    0    0  0.85730252681E+01  0.26315263495E+02  0.34258783175E+02  0.44041504058E+02  0.00000000000E+00 0. -1.
</event>
<event>
 7    1  0.2577508E-013  0.7246127E+02  0.7816164E-02  0.1226709E+00
        -11   -1    0    0    0    0  0.00000000000E+00  0.00000000000E+00  0.45593999997E+02  0.45594000000E+02  0.51100000000E-03 0.  1.
         11   -1    0    0    0    0 -0.00000000000E+00 -0.00000000000E+00 -0.45593999997E+02  0.45594000000E+02  0.51100000000E-03 0. -1.
    9900012    2    1    2    0    0 -0.12560570903E+02  0.12505574502E+02  0.60442646930E+01  0.72461268552E+02  0.69999606924E+02 0.  0.
        -12    1    1    2    0    0  0.12560570903E+02 -0.12505574502E+02 -0.60442646930E+01  0.18726731448E+02  0.00000000000E+00 0.  1.
         11    1    3    3    0    0 -0.30172184173E+01  0.13779558755E+02 -0.19275574963E+02  0.23885720355E+02  0.51100000000E-03 0. -1.
        -11    1    3    3    0    0  0.15069667112E+02 -0.40187351930E+01  0.45308790266E+01  0.16241119556E+02  0.51100000000E-03 0.  1.
         12    1    3    3    0    0 -0.24613019598E+02  0.27447509400E+01  0.20788960630E+02  0.32334428641E+02  0.00000000000E+00 0. -1.
</event>
<event>
 7    1  0.2577508E-013  0.7246154E+02  0.7816164E-02  0.1226708E+00
        -11   -1    0    0    0    0  0.00000000000E+00  0.00000000000E+00  0.45593999997E+02  0.45594000000E+02  0.51100000000E-03 0.  1.
         11   -1    0    0    0    0 -0.00000000000E+00 -0.00000000000E+00 -0.45593999997E+02  0.45594000000E+02  0.51100000000E-03 0. -1.
    9900012    2    1    2    0    0  0.15838537363E+02  0.39248748539E+01 -0.91878473845E+01  0.72461536159E+02  0.69999955533E+02 0.  0.
        -12    1    1    2    0    0 -0.15838537363E+02 -0.39248748539E+01  0.91878473845E+01  0.18726463841E+02  0.00000000000E+00 0.  1.
         11    1    3    3    0    0 -0.18424653304E+02 -0.15014393974E+02 -0.14977495607E+02  0.28093153093E+02  0.51100000000E-03 0.  1.
        -11    1    3    3    0    0  0.93714559336E+01  0.10566680516E+02 -0.62904039666E+01  0.15461180607E+02  0.51100000000E-03 0. -1.
        -12    1    3    3    0    0  0.24891734734E+02  0.83725883121E+01  0.12080052189E+02  0.28907202459E+02  0.00000000000E+00 0.  1.
</event>
<event>
 7    1  0.2577508E-013  0.7246160E+02  0.7816164E-02  0.1226708E+00
        -11   -1    0    0    0    0  0.00000000000E+00  0.00000000000E+00  0.45593999997E+02  0.45594000000E+02  0.51100000000E-03 0.  1.
         11   -1    0    0    0    0 -0.00000000000E+00 -0.00000000000E+00 -0.45593999997E+02  0.45594000000E+02  0.51100000000E-03 0. -1.
    9900012    2    1    2    0    0 -0.79356008866E+01 -0.15342394720E+02 -0.72329304630E+01  0.72461598310E+02  0.70000036495E+02 0.  0.
        -12    1    1    2    0    0  0.79356008866E+01  0.15342394720E+02  0.72329304630E+01  0.18726401690E+02  0.00000000000E+00 0.  1.
         11    1    3    3    0    0 -0.10939275132E+02  0.69198104745E+01  0.14124329815E+02  0.19158502301E+02  0.51100000000E-03 0. -1.
        -11    1    3    3    0    0 -0.15429633620E+02 -0.57798040264E+01  0.49446399830E+01  0.17202592626E+02  0.51100000000E-03 0.  1.
         12    1    3    3    0    0  0.18433307866E+02 -0.16482401168E+02 -0.26301900261E+02  0.36100503383E+02  0.00000000000E+00 0. -1.
</event>
<event>
 7    1  0.2577508E-013  0.7246162E+02  0.7816164E-02  0.1226708E+00
        -11   -1    0    0    0    0  0.00000000000E+00  0.00000000000E+00  0.45593999997E+02  0.45594000000E+02  0.51100000000E-03 0.  1.
         11   -1    0    0    0    0 -0.00000000000E+00 -0.00000000000E+00 -0.45593999997E+02  0.45594000000E+02  0.51100000000E-03 0. -1.
    9900012    2    1    2    0    0  0.64695820304E+01  0.10973403055E+02 -0.13726113984E+02  0.72461620976E+02  0.70000066022E+02 0.  0.
        -12    1    1    2    0    0 -0.64695820304E+01 -0.10973403055E+02  0.13726113984E+02  0.18726379024E+02  0.00000000000E+00 0.  1.
         11    1    3    3    0    0 -0.12066558238E+02 -0.83095475236E+01  0.10135712751E+02  0.17815248553E+02  0.51100000000E-03 0. -1.
        -11    1    3    3    0    0  0.19209625142E+02 -0.76598934417E+01 -0.37490191932E+01  0.21017583372E+02  0.51100000000E-03 0.  1.
         12    1    3    3    0    0 -0.67348487364E+00  0.26942844020E+02 -0.20112807542E+02  0.33628789050E+02  0.00000000000E+00 0. -1.
</event>
<event>
 7    1  0.2577508E-013  0.7246161E+02  0.7816164E-02  0.1226708E+00
        -11   -1    0    0    0    0  0.00000000000E+00  0.00000000000E+00  0.45593999997E+02  0.45594000000E+02  0.51100000000E-03 0.  1.
         11   -1    0    0    0    0 -0.00000000000E+00 -0.00000000000E+00 -0.45593999997E+02  0.45594000000E+02  0.51100000000E-03 0. -1.
    9900012    2    1    2    0    0 -0.14927432634E+00 -0.18627039307E+02  0.19206746638E+01  0.72461605063E+02  0.70000045293E+02 0.  0.
        -12    1    1    2    0    0  0.14927432634E+00  0.18627039307E+02 -0.19206746638E+01  0.18726394937E+02  0.00000000000E+00 0.  1.
         11    1    3    3    0    0 -0.17477067629E+02 -0.76930099215E+01 -0.17611458068E+02  0.25976792530E+02  0.51100000000E-03 0. -1.
        -11    1    3    3    0    0  0.51019115854E+01  0.13079969939E+02  0.16321296949E+01  0.14134318626E+02  0.51100000000E-03 0.  1.
         12    1    3    3    0    0  0.12225881718E+02 -0.24013999324E+02  0.17900003037E+02  0.32350493907E+02  0.00000000000E+00 0. -1.
</event>
<event>
 7    1  0.2577508E-013  0.7246118E+02  0.7816164E-02  0.1226709E+00
        -11   -1    0    0    0    0  0.00000000000E+00  0.00000000000E+00  0.45593999997E+02  0.45594000000E+02  0.51100000000E-03 0.  1.
         11   -1    0    0    0    0 -0.00000000000E+00 -0.00000000000E+00 -0.45593999997E+02  0.45594000000E+02  0.51100000000E-03 0. -1.
    9900012    2    1    2    0    0 -0.12917788296E+02  0.63480215756E+01 -0.11980278719E+02  0.72461182049E+02  0.69999494236E+02 0.  0.
        -12    1    1    2    0    0  0.12917788296E+02 -0.63480215756E+01  0.11980278719E+02  0.18726817951E+02  0.00000000000E+00 0.  1.
         11    1    3    3    0    0 -0.50102153671E+01  0.85261125594E+01  0.33885076113E+01  0.10453651874E+02  0.51100000000E-03 0. -1.
        -11    1    3    3    0    0 -0.21151449371E+02 -0.15123088933E+02  0.12259152533E+02  0.28746798960E+02  0.51100000000E-03 0.  1.
         12    1    3    3    0    0  0.13243876442E+02  0.12944997949E+02 -0.27627938864E+02  0.33260731215E+02  0.00000000000E+00 0. -1.
</event>
<event>
 7    1  0.2577508E-013  0.7246158E+02  0.7816164E-02  0.1226708E+00
        -11   -1    0    0    0    0  0.00000000000E+00  0.00000000000E+00  0.45593999997E+02  0.45594000000E+02  0.51100000000E-03 0.  1.
         11   -1    0    0    0    0 -0.00000000000E+00 -0.00000000000E+00 -0.45593999997E+02  0.45594000000E+02  0.51100000000E-03 0. -1.
    9900012    2    1    2    0    0 -0.14448187757E+02 -0.74700500566E+01 -0.92804632450E+01  0.72461580819E+02  0.70000013710E+02 0.  0.
        -12    1    1    2    0    0  0.14448187757E+02  0.74700500566E+01  0.92804632450E+01  0.18726419181E+02  0.00000000000E+00 0.  1.
         11    1    3    3    0    0 -0.33475046957E+01 -0.18962058791E+02  0.58747071429E+01  0.20131508775E+02  0.51100000000E-03 0. -1.
        -11    1    3    3    0    0 -0.19173094846E+02  0.32589479302E+01  0.11983432279E+02  0.22843619613E+02  0.51100000000E-03 0.  1.
         12    1    3    3    0    0  0.80724117854E+01  0.82330608046E+01 -0.27138602666E+02  0.29486452430E+02  0.00000000000E+00 0. -1.
</event>
<event>
 7    1  0.2577508E-013  0.7246179E+02  0.7816164E-02  0.1226707E+00
        -11   -1    0    0    0    0  0.00000000000E+00  0.00000000000E+00  0.45593999997E+02  0.45594000000E+02  0.51100000000E-03 0. -1.
         11   -1    0    0    0    0 -0.00000000000E+00 -0.00000000000E+00 -0.45593999997E+02  0.45594000000E+02  0.51100000000E-03 0.  1.
    9900012    2    1    2    0    0  0.10485340294E+02  0.72278608233E+01  0.13729046522E+02  0.72461787047E+02  0.70000282360E+02 0.  0.
        -12    1    1    2    0    0 -0.10485340294E+02 -0.72278608233E+01 -0.13729046522E+02  0.18726212953E+02  0.00000000000E+00 0.  1.
         11    1    3    3    0    0 -0.43813899511E+01  0.13729378604E+02 -0.37002997238E+01  0.14878999734E+02  0.51100000000E-03 0. -1.
        -11    1    3    3    0    0  0.13528895223E+02 -0.12200794463E+02 -0.15633182765E+02  0.24005974155E+02  0.51100000000E-03 0.  1.
         12    1    3    3    0    0  0.13378350221E+01  0.56992766825E+01  0.33062529011E+02  0.33576813158E+02  0.00000000000E+00 0. -1.
</event>
<event>
 7    1  0.2577508E-013  0.7246135E+02  0.7816164E-02  0.1226709E+00
        -11   -1    0    0    0    0  0.00000000000E+00  0.00000000000E+00  0.45593999997E+02  0.45594000000E+02  0.51100000000E-03 0.  1.
         11   -1    0    0    0    0 -0.00000000000E+00 -0.00000000000E+00 -0.45593999997E+02  0.45594000000E+02  0.51100000000E-03 0. -1.
    9900012    2    1    2    0    0  0.75754035773E+01  0.17122596683E+02 -0.34253613361E+00  0.72461350873E+02  0.69999714162E+02 0.  0.
        -12    1    1    2    0    0 -0.75754035773E+01 -0.17122596683E+02  0.34253613361E+00  0.18726649127E+02  0.00000000000E+00 0.  1.
         11    1    3    3    0    0  0.26947776357E+01  0.24644690089E+02 -0.19961118101E+02  0.31828741920E+02  0.51100000000E-03 0. -1.
        -11    1    3    3    0    0 -0.21796713816E+01 -0.12166110043E+01 -0.95998239906E+01  0.99190589564E+01  0.51100000000E-03 0.  1.
        -12    1    3    3    0    0  0.70602973231E+01 -0.63054824019E+01  0.29218405958E+02  0.30713549996E+02  0.00000000000E+00 0.  1.
</event>
<event>
 7    1  0.2577508E-013  0.7246159E+02  0.7816164E-02  0.1226708E+00
        -11   -1    0    0    0    0  0.00000000000E+00  0.00000000000E+00  0.45593999997E+02  0.45594000000E+02  0.51100000000E-03 0. -1.
         11   -1    0    0    0    0 -0.00000000000E+00 -0.00000000000E+00 -0.45593999997E+02  0.45594000000E+02  0.51100000000E-03 0.  1.
    9900012    2    1    2    0    0 -0.85655010900E+01 -0.80476357351E+01  0.14578970026E+02  0.72461585050E+02  0.70000019222E+02 0.  0.
        -12    1    1    2    0    0  0.85655010900E+01  0.80476357351E+01 -0.14578970026E+02  0.18726414950E+02  0.00000000000E+00 0.  1.
         11    1    3    3    0    0  0.12514542654E+02  0.19739926963E+02  0.15863391674E+02  0.28247578480E+02  0.51100000000E-03 0. -1.
        -11    1    3    3    0    0  0.40764895643E+01  0.13448533593E+00  0.46278285971E+01  0.61686831057E+01  0.51100000000E-03 0.  1.
        -12    1    3    3    0    0 -0.25156533308E+02 -0.27922048034E+02 -0.59122502442E+01  0.38045323464E+02  0.00000000000E+00 0.  1.
</event>
<event>
 7    1  0.2577508E-013  0.7246156E+02  0.7816164E-02  0.1226708E+00
        -11   -1    0    0    0    0  0.00000000000E+00  0.00000000000E+00  0.45593999997E+02  0.45594000000E+02  0.51100000000E-03 0. -1.
         11   -1    0    0    0    0 -0.00000000000E+00 -0.00000000000E+00 -0.45593999997E+02  0.45594000000E+02  0.51100000000E-03 0.  1.
    9900012    2    1    2    0    0  0.58935274614E+01  0.28224836720E+01  0.17549345906E+02  0.72461558220E+02  0.69999984270E+02 0.  0.
        -12    1    1    2    0    0 -0.58935274614E+01 -0.28224836720E+01 -0.17549345906E+02  0.18726441780E+02  0.00000000000E+00 0.  1.
         11    1    3    3    0    0  0.15932317548E+01  0.14715768977E+02  0.13410545865E+02  0.19973356870E+02  0.51100000000E-03 0. -1.
        -11    1    3    3    0    0 -0.19499236070E+02  0.81384212374E+01  0.31659050929E+01  0.21365323842E+02  0.51100000000E-03 0.  1.
        -12    1    3    3    0    0  0.23799531776E+02 -0.20031706543E+02  0.97289494860E+00  0.31122877508E+02  0.00000000000E+00 0.  1.
</event>
<event>
 7    1  0.2577508E-013  0.7246153E+02  0.7816164E-02  0.1226708E+00
        -11   -1    0    0    0    0  0.00000000000E+00  0.00000000000E+00  0.45593999997E+02  0.45594000000E+02  0.51100000000E-03 0.  1.
         11   -1    0    0    0    0 -0.00000000000E+00 -0.00000000000E+00 -0.45593999997E+02  0.45594000000E+02  0.51100000000E-03 0. -1.
    9900012    2    1    2    0    0  0.12865343108E+02 -0.18274474808E+01 -0.13484210211E+02  0.72461533633E+02  0.69999952241E+02 0.  0.
        -12    1    1    2    0    0 -0.12865343108E+02  0.18274474808E+01  0.13484210211E+02  0.18726466367E+02  0.00000000000E+00 0.  1.
         11    1    3    3    0    0  0.61006570037E+01 -0.29856695149E+01  0.63440654180E+00  0.68216354528E+01  0.51100000000E-03 0. -1.
        -11    1    3    3    0    0  0.15498386551E+02  0.21163090131E+02  0.14244791892E+02  0.29849463410E+02  0.51100000000E-03 0.  1.
         12    1    3    3    0    0 -0.87337004462E+01 -0.20004868097E+02 -0.28363408645E+02  0.35790434770E+02  0.00000000000E+00 0. -1.
</event>
<event>
 7    1  0.2577508E-013  0.7246156E+02  0.7816164E-02  0.1226708E+00
        -11   -1    0    0    0    0  0.00000000000E+00  0.00000000000E+00  0.45593999997E+02  0.45594000000E+02  0.51100000000E-03 0.  1.
         11   -1    0    0    0    0 -0.00000000000E+00 -0.00000000000E+00 -0.45593999997E+02  0.45594000000E+02  0.51100000000E-03 0. -1.
    9900012    2    1    2    0    0 -0.17523974285E+02 -0.83387331496E+00  0.65493810444E+01  0.72461563833E+02  0.69999991583E+02 0.  0.
        -12    1    1    2    0    0  0.17523974285E+02  0.83387331496E+00 -0.65493810444E+01  0.18726436167E+02  0.00000000000E+00 0.  1.
         11    1    3    3    0    0 -0.33789528138E+01  0.65482181125E+01  0.16595728565E+02  0.18158047512E+02  0.51100000000E-03 0. -1.
        -11    1    3    3    0    0 -0.26642793193E+02  0.97462973284E+01  0.43131246915E+01  0.28695501139E+02  0.51100000000E-03 0.  1.
         12    1    3    3    0    0  0.12497771722E+02 -0.17128388756E+02 -0.14359472212E+02  0.25608015183E+02  0.00000000000E+00 0. -1.
</event>
<event>
 7    1  0.2577508E-013  0.7246158E+02  0.7816164E-02  0.1226708E+00
        -11   -1    0    0    0    0  0.00000000000E+00  0.00000000000E+00  0.45593999997E+02  0.45594000000E+02  0.51100000000E-03 0.  1.
         11   -1    0    0    0    0 -0.00000000000E+00 -0.00000000000E+00 -0.45593999997E+02  0.45594000000E+02  0.51100000000E-03 0. -1.
    9900012    2    1    2    0    0  0.35297126675E+01 -0.18321755303E+02 -0.15916445292E+01  0.72461576925E+02  0.70000008637E+02 0.  0.
        -12    1    1    2    0    0 -0.35297126675E+01  0.18321755303E+02  0.15916445292E+01  0.18726423075E+02  0.00000000000E+00 0.  1.
         11    1    3    3    0    0  0.19324283624E+02 -0.11274214819E+02 -0.22095731538E+02  0.31444510011E+02  0.51100000000E-03 0. -1.
        -11    1    3    3    0    0 -0.55446472073E+01  0.83700569095E+01 -0.35624372824E+01  0.10653258890E+02  0.51100000000E-03 0.  1.
        -12    1    3    3    0    0 -0.10249923749E+02 -0.15417597393E+02  0.24066524291E+02  0.30363808024E+02  0.00000000000E+00 0.  1.
</event>
<event>
 7    1  0.2577508E-013  0.7246157E+02  0.7816164E-02  0.1226708E+00
        -11   -1    0    0    0    0  0.00000000000E+00  0.00000000000E+00  0.45593999997E+02  0.45594000000E+02  0.51100000000E-03 0. -1.
         11   -1    0    0    0    0 -0.00000000000E+00 -0.00000000000E+00 -0.45593999997E+02  0.45594000000E+02  0.51100000000E-03 0.  1.
    9900012    2    1    2    0    0  0.15750805714E+02  0.23523046110E+01  0.98517991774E+01  0.72461570424E+02  0.70000000169E+02 0.  0.
        -12    1    1    2    0    0 -0.15750805714E+02 -0.23523046110E+01 -0.98517991774E+01  0.18726429576E+02  0.00000000000E+00 0.  1.
         11    1    3    3    0    0  0.14288984723E+02 -0.20533042998E+01 -0.10091356999E+02  0.17613251525E+02  0.51100000000E-03 0. -1.
        -11    1    3    3    0    0 -0.30654248866E+01 -0.21191107372E+02 -0.10475399876E+01  0.21437285315E+02  0.51100000000E-03 0.  1.
        -12    1    3    3    0    0  0.45272458782E+01  0.25596716283E+02  0.20990696164E+02  0.33411033584E+02  0.00000000000E+00 0.  1.
</event>
<event>
 7    1  0.2577508E-013  0.7246160E+02  0.7816164E-02  0.1226708E+00
        -11   -1    0    0    0    0  0.00000000000E+00  0.00000000000E+00  0.45593999997E+02  0.45594000000E+02  0.51100000000E-03 0.  1.
         11   -1    0    0    0    0 -0.00000000000E+00 -0.00000000000E+00 -0.45593999997E+02  0.45594000000E+02  0.51100000000E-03 0. -1.
    9900012    2    1    2    0    0  0.63917931318E+01 -0.92624153695E+01 -0.14967655078E+02  0.72461600014E+02  0.70000038715E+02 0.  0.
        -12    1    1    2    0    0 -0.63917931318E+01  0.92624153695E+01  0.14967655078E+02  0.18726399986E+02  0.00000000000E+00 0.  1.
         11    1    3    3    0    0  0.57452360700E+01 -0.28324267805E+02  0.78208073103E+01  0.29940556298E+02  0.51100000000E-03 0. -1.
        -11    1    3    3    0    0 -0.31867513771E+01 -0.68027841534E+01  0.46922670737E+00  0.75268473175E+01  0.51100000000E-03 0.  1.
        -12    1    3    3    0    0  0.38333084389E+01  0.25864636589E+02 -0.23257689096E+02  0.34994196398E+02  0.00000000000E+00 0.  1.
</event>
<event>
 7    1  0.2577508E-013  0.7246158E+02  0.7816164E-02  0.1226708E+00
        -11   -1    0    0    0    0  0.00000000000E+00  0.00000000000E+00  0.45593999997E+02  0.45594000000E+02  0.51100000000E-03 0. -1.
         11   -1    0    0    0    0 -0.00000000000E+00 -0.00000000000E+00 -0.45593999997E+02  0.45594000000E+02  0.51100000000E-03 0.  1.
    9900012    2    1    2    0    0  0.17074602209E+02 -0.53258212170E+01  0.55472839879E+01  0.72461580911E+02  0.70000013831E+02 0.  0.
        -12    1    1    2    0    0 -0.17074602209E+02  0.53258212170E+01 -0.55472839879E+01  0.18726419089E+02  0.00000000000E+00 0.  1.
         11    1    3    3    0    0 -0.77729926981E+01 -0.33975909241E+01 -0.76423657062E+01  0.11417915459E+02  0.51100000000E-03 0. -1.
        -11    1    3    3    0    0 -0.59955884811E+01 -0.56534775183E+01 -0.16264687730E+02  0.18233182840E+02  0.51100000000E-03 0.  1.
         12    1    3    3    0    0  0.30843183388E+02  0.37252472254E+01  0.29454337424E+02  0.42810482612E+02  0.00000000000E+00 0. -1.
</event>
<event>
 7    1  0.2577508E-013  0.7246096E+02  0.7816164E-02  0.1226710E+00
        -11   -1    0    0    0    0  0.00000000000E+00  0.00000000000E+00  0.45593999997E+02  0.45594000000E+02  0.51100000000E-03 0. -1.
         11   -1    0    0    0    0 -0.00000000000E+00 -0.00000000000E+00 -0.45593999997E+02  0.45594000000E+02  0.51100000000E-03 0.  1.
    9900012    2    1    2    0    0 -0.14873123288E+02  0.93357825884E+01 -0.65065665927E+01  0.72460959612E+02  0.69999204468E+02 0.  0.
        -12    1    1    2    0    0  0.14873123288E+02 -0.93357825884E+01  0.65065665927E+01  0.18727040388E+02  0.00000000000E+00 0.  1.
         11    1    3    3    0    0 -0.44813745411E+01  0.16969155397E+02  0.44630369134E+00  0.17556598187E+02  0.51100000000E-03 0. -1.
        -11    1    3    3    0    0 -0.50064079686E+01  0.22282478138E+02 -0.87446318118E+01  0.24454887824E+02  0.51100000000E-03 0.  1.
         12    1    3    3    0    0 -0.53853407785E+01 -0.29915850946E+02  0.17917615278E+01  0.30449473600E+02  0.00000000000E+00 0. -1.
</event>
<event>
 7    1  0.2577508E-013  0.7246168E+02  0.7816164E-02  0.1226708E+00
        -11   -1    0    0    0    0  0.00000000000E+00  0.00000000000E+00  0.45593999997E+02  0.45594000000E+02  0.51100000000E-03 0.  1.
         11   -1    0    0    0    0 -0.00000000000E+00 -0.00000000000E+00 -0.45593999997E+02  0.45594000000E+02  0.51100000000E-03 0. -1.
    9900012    2    1    2    0    0 -0.16676308516E+01 -0.18650985524E+02  0.18686696613E+00  0.72461677004E+02  0.70000139009E+02 0.  0.
        -12    1    1    2    0    0  0.16676308516E+01  0.18650985524E+02 -0.18686696613E+00  0.18726322996E+02  0.00000000000E+00 0.  1.
         11    1    3    3    0    0 -0.85239635137E+01 -0.17522998453E+02 -0.11364342073E+02  0.22557963112E+02  0.51100000000E-03 0. -1.
        -11    1    3    3    0    0  0.16418858386E+02 -0.11151278305E+02 -0.11552580494E+02  0.22965017633E+02  0.51100000000E-03 0.  1.
         12    1    3    3    0    0 -0.95625257240E+01  0.10023291233E+02  0.23103789533E+02  0.26938696259E+02  0.00000000000E+00 0. -1.
</event>
<event>
 7    1  0.2577508E-013  0.7246157E+02  0.7816164E-02  0.1226708E+00
        -11   -1    0    0    0    0  0.00000000000E+00  0.00000000000E+00  0.45593999997E+02  0.45594000000E+02  0.51100000000E-03 0. -1.
         11   -1    0    0    0    0 -0.00000000000E+00 -0.00000000000E+00 -0.45593999997E+02  0.45594000000E+02  0.51100000000E-03 0.  1.
    9900012    2    1    2    0    0  0.14799948283E+02  0.91334912215E+01 -0.69440677106E+01  0.72461569282E+02  0.69999998681E+02 0.  0.
        -12    1    1    2    0    0 -0.14799948283E+02 -0.91334912215E+01  0.69440677106E+01  0.18726430718E+02  0.00000000000E+00 0.  1.
         11    1    3    3    0    0 -0.13305195924E+02  0.10401670649E+02  0.13057694981E+02  0.21347749046E+02  0.51100000000E-03 0. -1.
        -11    1    3    3    0    0  0.31337975484E+01 -0.16973418957E+02 -0.10092661403E+02  0.19994485555E+02  0.51100000000E-03 0.  1.
        -12    1    3    3    0    0  0.24971346658E+02  0.15705239529E+02 -0.99091012891E+01  0.31119334680E+02  0.00000000000E+00 0.  1.
</event>
<event>
 7    1  0.2577508E-013  0.7246154E+02  0.7816164E-02  0.1226708E+00
        -11   -1    0    0    0    0  0.00000000000E+00  0.00000000000E+00  0.45593999997E+02  0.45594000000E+02  0.51100000000E-03 0.  1.
         11   -1    0    0    0    0 -0.00000000000E+00 -0.00000000000E+00 -0.45593999997E+02  0.45594000000E+02  0.51100000000E-03 0. -1.
    9900012    2    1    2    0    0  0.13653656801E+02  0.81287330161E+00 -0.12790517198E+02  0.72461536446E+02  0.69999955906E+02 0.  0.
        -12    1    1    2    0    0 -0.13653656801E+02 -0.81287330161E+00  0.12790517198E+02  0.18726463554E+02  0.00000000000E+00 0.  1.
         11    1    3    3    0    0  0.39820011186E+01 -0.12368045777E+02 -0.23010217436E+01  0.13195438249E+02  0.51100000000E-03 0. -1.
        -11    1    3    3    0    0  0.22609429843E+02  0.13850343988E+02  0.15151412171E+02  0.30538232390E+02  0.51100000000E-03 0.  1.
         12    1    3    3    0    0 -0.12937774161E+02 -0.66942490892E+00 -0.25640907626E+02  0.28727865807E+02  0.00000000000E+00 0. -1.
</event>
<event>
 7    1  0.2577508E-013  0.7246148E+02  0.7816164E-02  0.1226708E+00
        -11   -1    0    0    0    0  0.00000000000E+00  0.00000000000E+00  0.45593999997E+02  0.45594000000E+02  0.51100000000E-03 0.  1.
         11   -1    0    0    0    0 -0.00000000000E+00 -0.00000000000E+00 -0.45593999997E+02  0.45594000000E+02  0.51100000000E-03 0. -1.
    9900012    2    1    2    0    0 -0.89170911866E+01 -0.10070824591E+02 -0.13028684990E+02  0.72461477212E+02  0.69999878742E+02 0.  0.
        -12    1    1    2    0    0  0.89170911866E+01  0.10070824591E+02  0.13028684990E+02  0.18726522788E+02  0.00000000000E+00 0.  1.
         11    1    3    3    0    0 -0.14925146763E+02  0.27542594943E+01 -0.39170316170E+01  0.15674472502E+02  0.51100000000E-03 0. -1.
        -11    1    3    3    0    0 -0.17506394114E+02 -0.24237841237E+02 -0.55075627049E+01  0.30401974112E+02  0.51100000000E-03 0.  1.
        -12    1    3    3    0    0  0.23514449691E+02  0.11412757152E+02 -0.36040906683E+01  0.26385030597E+02  0.00000000000E+00 0.  1.
</event>
<event>
 7    1  0.2577508E-013  0.7246159E+02  0.7816164E-02  0.1226708E+00
        -11   -1    0    0    0    0  0.00000000000E+00  0.00000000000E+00  0.45593999997E+02  0.45594000000E+02  0.51100000000E-03 0. -1.
         11   -1    0    0    0    0 -0.00000000000E+00 -0.00000000000E+00 -0.45593999997E+02  0.45594000000E+02  0.51100000000E-03 0.  1.
    9900012    2    1    2    0    0 -0.22409991366E+01  0.68862421405E+01  0.17269514468E+02  0.72461587158E+02  0.70000021968E+02 0.  0.
        -12    1    1    2    0    0  0.22409991366E+01 -0.68862421405E+01 -0.17269514468E+02  0.18726412842E+02  0.00000000000E+00 0.  1.
         11    1    3    3    0    0  0.57475840675E+01  0.10662685130E+02  0.38580984831E+01  0.12712690547E+02  0.51100000000E-03 0. -1.
        -11    1    3    3    0    0  0.12199935548E+02 -0.24764014916E+02 -0.19240743900E+00  0.27606736189E+02  0.51100000000E-03 0.  1.
         12    1    3    3    0    0 -0.20188518752E+02  0.20987571927E+02  0.13603823424E+02  0.32142160421E+02  0.00000000000E+00 0. -1.
</event>
<event>
 7    1  0.2577508E-013  0.7246165E+02  0.7816164E-02  0.1226708E+00
        -11   -1    0    0    0    0  0.00000000000E+00  0.00000000000E+00  0.45593999997E+02  0.45594000000E+02  0.51100000000E-03 0. -1.
         11   -1    0    0    0    0 -0.00000000000E+00 -0.00000000000E+00 -0.45593999997E+02  0.45594000000E+02  0.51100000000E-03 0.  1.
    9900012    2    1    2    0    0  0.15822606588E+02 -0.97996535303E+01  0.20707966490E+01  0.72461647250E+02  0.70000100250E+02 0.  0.
        -12    1    1    2    0    0 -0.15822606588E+02  0.97996535303E+01 -0.20707966490E+01  0.18726352750E+02  0.00000000000E+00 0.  1.
         11    1    3    3    0    0 -0.53763060256E+01  0.22945250160E+02  0.97461216634E+01  0.25502471628E+02  0.51100000000E-03 0. -1.
        -11    1    3    3    0    0  0.19411701241E+02 -0.11081077836E+02  0.33234415288E+01  0.22597559490E+02  0.51100000000E-03 0.  1.
        -12    1    3    3    0    0  0.17872113726E+01 -0.21663825854E+02 -0.10998766543E+02  0.24361616132E+02  0.00000000000E+00 0.  1.
</event>
<event>
 7    1  0.2577508E-013  0.7246158E+02  0.7816164E-02  0.1226708E+00
        -11   -1    0    0    0    0  0.00000000000E+00  0.00000000000E+00  0.45593999997E+02  0.45594000000E+02  0.51100000000E-03 0.  1.
         11   -1    0    0    0    0 -0.00000000000E+00 -0.00000000000E+00 -0.45593999997E+02  0.45594000000E+02  0.51100000000E-03 0. -1.
    9900012    2    1    2    0    0 -0.95387324486E+01 -0.32056314109E+00 -0.16111748852E+02  0.72461584739E+02  0.70000018817E+02 0.  0.
        -12    1    1    2    0    0  0.95387324486E+01  0.32056314109E+00  0.16111748852E+02  0.18726415261E+02  0.00000000000E+00 0.  1.
         11    1    3    3    0    0 -0.35419283100E+01 -0.23699388820E+02 -0.16405091875E+02  0.29040201898E+02  0.51100000000E-03 0. -1.
        -11    1    3    3    0    0 -0.23673425840E+01 -0.72557062737E+01 -0.84213926058E+01  0.11365273341E+02  0.51100000000E-03 0.  1.
        -12    1    3    3    0    0 -0.36294615546E+01  0.30634531953E+02  0.87147356290E+01  0.32056109499E+02  0.00000000000E+00 0.  1.
</event>
<event>
 7    1  0.2577508E-013  0.7246158E+02  0.7816164E-02  0.1226708E+00
        -11   -1    0    0    0    0  0.00000000000E+00  0.00000000000E+00  0.45593999997E+02  0.45594000000E+02  0.51100000000E-03 0. -1.
         11   -1    0    0    0    0 -0.00000000000E+00 -0.00000000000E+00 -0.45593999997E+02  0.45594000000E+02  0.51100000000E-03 0.  1.
    9900012    2    1    2    0    0  0.18663787523E+02  0.12712650241E+01  0.85185330977E+00  0.72461581936E+02  0.70000015165E+02 0.  0.
        -12    1    1    2    0    0 -0.18663787523E+02 -0.12712650241E+01 -0.85185330977E+00  0.18726418064E+02  0.00000000000E+00 0.  1.
         11    1    3    3    0    0  0.26273198498E+02 -0.11801631561E+00  0.13570900764E+02  0.29571341447E+02  0.51100000000E-03 0. -1.
        -11    1    3    3    0    0  0.28980444454E+01  0.17922437916E+01  0.13877914013E+02  0.14290111862E+02  0.51100000000E-03 0.  1.
        -12    1    3    3    0    0 -0.10507455420E+02 -0.40296245188E+00 -0.26596961467E+02  0.28600128626E+02  0.00000000000E+00 0.  1.
</event>
<event>
 7    1  0.2577508E-013  0.7246157E+02  0.7816164E-02  0.1226708E+00
        -11   -1    0    0    0    0  0.00000000000E+00  0.00000000000E+00  0.45593999997E+02  0.45594000000E+02  0.51100000000E-03 0. -1.
         11   -1    0    0    0    0 -0.00000000000E+00 -0.00000000000E+00 -0.45593999997E+02  0.45594000000E+02  0.51100000000E-03 0.  1.
    9900012    2    1    2    0    0  0.35078752025E+01 -0.18138700551E+02 -0.30596773672E+01  0.72461567566E+02  0.69999996445E+02 0.  0.
        -12    1    1    2    0    0 -0.35078752025E+01  0.18138700551E+02  0.30596773672E+01  0.18726432434E+02  0.00000000000E+00 0.  1.
         11    1    3    3    0    0  0.16270421752E+02 -0.21660665383E+02  0.65446643723E+01  0.27870121651E+02  0.51100000000E-03 0. -1.
        -11    1    3    3    0    0  0.74253797997E+01  0.15174939413E+02  0.43221327532E+01  0.17438345195E+02  0.51100000000E-03 0.  1.
         12    1    3    3    0    0 -0.20187926350E+02 -0.11652974581E+02 -0.13926474493E+02  0.27153100720E+02  0.00000000000E+00 0. -1.
</event>
<event>
 7    1  0.2577508E-013  0.7246157E+02  0.7816164E-02  0.1226708E+00
        -11   -1    0    0    0    0  0.00000000000E+00  0.00000000000E+00  0.45593999997E+02  0.45594000000E+02  0.51100000000E-03 0.  1.
         11   -1    0    0    0    0 -0.00000000000E+00 -0.00000000000E+00 -0.45593999997E+02  0.45594000000E+02  0.51100000000E-03 0. -1.
    9900012    2    1    2    0    0 -0.21326872918E+01 -0.83395532619E+01 -0.16630772676E+02  0.72461572058E+02  0.70000002297E+02 0.  0.
        -12    1    1    2    0    0  0.21326872918E+01  0.83395532619E+01  0.16630772676E+02  0.18726427942E+02  0.00000000000E+00 0.  1.
         11    1    3    3    0    0 -0.22703089724E+02  0.12182888908E+02 -0.12540064808E+02  0.28654952291E+02  0.51100000000E-03 0. -1.
        -11    1    3    3    0    0  0.64898170034E+01  0.21691573809E+01  0.11132322909E+02  0.13067194882E+02  0.51100000000E-03 0.  1.
         12    1    3    3    0    0  0.14080585429E+02 -0.22691599550E+02 -0.15223030776E+02  0.30739424884E+02  0.00000000000E+00 0. -1.
</event>
<event>
 7    1  0.2577508E-013  0.7246158E+02  0.7816164E-02  0.1226708E+00
        -11   -1    0    0    0    0  0.00000000000E+00  0.00000000000E+00  0.45593999997E+02  0.45594000000E+02  0.51100000000E-03 0. -1.
         11   -1    0    0    0    0 -0.00000000000E+00 -0.00000000000E+00 -0.45593999997E+02  0.45594000000E+02  0.51100000000E-03 0.  1.
    9900012    2    1    2    0    0 -0.15645334226E+02 -0.53997626972E+01  0.87604171514E+01  0.72461579389E+02  0.70000011848E+02 0.  0.
        -12    1    1    2    0    0  0.15645334226E+02  0.53997626972E+01 -0.87604171514E+01  0.18726420611E+02  0.00000000000E+00 0.  1.
         11    1    3    3    0    0  0.19095113308E+01 -0.16807876367E+01 -0.10725106449E+02  0.11022667064E+02  0.51100000000E-03 0. -1.
        -11    1    3    3    0    0  0.11122151493E+02  0.11733665631E+02  0.23597971480E+02  0.28604989446E+02  0.51100000000E-03 0.  1.
         12    1    3    3    0    0 -0.28676997050E+02 -0.15452640691E+02 -0.41124478794E+01  0.32833922880E+02  0.00000000000E+00 0. -1.
</event>
<event>
 7    1  0.2577508E-013  0.7246152E+02  0.7816164E-02  0.1226708E+00
        -11   -1    0    0    0    0  0.00000000000E+00  0.00000000000E+00  0.45593999997E+02  0.45594000000E+02  0.51100000000E-03 0. -1.
         11   -1    0    0    0    0 -0.00000000000E+00 -0.00000000000E+00 -0.45593999997E+02  0.45594000000E+02  0.51100000000E-03 0.  1.
    9900012    2    1    2    0    0  0.14328523132E+02  0.10399079466E+02  0.61019420485E+01  0.72461518065E+02  0.69999931962E+02 0.  0.
        -12    1    1    2    0    0 -0.14328523132E+02 -0.10399079466E+02 -0.61019420485E+01  0.18726481935E+02  0.00000000000E+00 0.  1.
         11    1    3    3    0    0  0.96283316165E+01  0.12623633936E+02 -0.30074370051E+00  0.15879274243E+02  0.51100000000E-03 0. -1.
        -11    1    3    3    0    0 -0.13093293493E+02  0.14038529364E+02 -0.14987425998E+02  0.24354416016E+02  0.51100000000E-03 0.  1.
         12    1    3    3    0    0  0.17793485008E+02 -0.16263083834E+02  0.21390111747E+02  0.32227827806E+02  0.00000000000E+00 0. -1.
</event>
<event>
 7    1  0.2577508E-013  0.7246148E+02  0.7816164E-02  0.1226708E+00
        -11   -1    0    0    0    0  0.00000000000E+00  0.00000000000E+00  0.45593999997E+02  0.45594000000E+02  0.51100000000E-03 0.  1.
         11   -1    0    0    0    0 -0.00000000000E+00 -0.00000000000E+00 -0.45593999997E+02  0.45594000000E+02  0.51100000000E-03 0. -1.
    9900012    2    1    2    0    0 -0.37815550544E+00 -0.13371487855E+02 -0.13105072229E+02  0.72461478509E+02  0.69999880432E+02 0.  0.
        -12    1    1    2    0    0  0.37815550544E+00  0.13371487855E+02  0.13105072229E+02  0.18726521491E+02  0.00000000000E+00 0.  1.
         11    1    3    3    0    0 -0.99743995899E+01 -0.15881993692E+02 -0.10419751901E+01  0.18783292665E+02  0.51100000000E-03 0. -1.
        -11    1    3    3    0    0  0.73176383233E+01 -0.23086432610E+02  0.21460841451E+01  0.24313306618E+02  0.51100000000E-03 0.  1.
         12    1    3    3    0    0  0.22786057612E+01  0.25596938446E+02 -0.14209181184E+02  0.29364879225E+02  0.00000000000E+00 0. -1.
</event>
<event>
 7    1  0.2577508E-013  0.7246157E+02  0.7816164E-02  0.1226708E+00
        -11   -1    0    0    0    0  0.00000000000E+00  0.00000000000E+00  0.45593999997E+02  0.45594000000E+02  0.51100000000E-03 0.  1.
         11   -1    0    0    0    0 -0.00000000000E+00 -0.00000000000E+00 -0.45593999997E+02  0.45594000000E+02  0.51100000000E-03 0. -1.
    9900012    2    1    2    0    0 -0.13421222057E+02  0.12958359828E+02 -0.16220134180E+01  0.72461568987E+02  0.69999998297E+02 0.  0.
        -12    1    1    2    0    0  0.13421222057E+02 -0.12958359828E+02  0.16220134180E+01  0.18726431013E+02  0.00000000000E+00 0.  1.
         11    1    3    3    0    0 -0.15315186949E+02  0.43535249037E+00  0.50546246065E+01  0.16133620587E+02  0.51100000000E-03 0. -1.
        -11    1    3    3    0    0 -0.15806621908E+02  0.11317347896E+02 -0.24435454536E+02  0.31225359857E+02  0.51100000000E-03 0.  1.
         12    1    3    3    0    0  0.17700586799E+02  0.12056594413E+01  0.17758816511E+02  0.25102588544E+02  0.00000000000E+00 0. -1.
</event>
<event>
 7    1  0.2577508E-013  0.7246158E+02  0.7816164E-02  0.1226708E+00
        -11   -1    0    0    0    0  0.00000000000E+00  0.00000000000E+00  0.45593999997E+02  0.45594000000E+02  0.51100000000E-03 0.  1.
         11   -1    0    0    0    0 -0.00000000000E+00 -0.00000000000E+00 -0.45593999997E+02  0.45594000000E+02  0.51100000000E-03 0. -1.
    9900012    2    1    2    0    0 -0.16695799387E+02  0.43774031149E+01 -0.72641150680E+01  0.72461581684E+02  0.70000014838E+02 0.  0.
        -12    1    1    2    0    0  0.16695799387E+02 -0.43774031149E+01  0.72641150680E+01  0.18726418316E+02  0.00000000000E+00 0.  1.
         11    1    3    3    0    0  0.12459228523E+02  0.14006372408E+02  0.48214902052E+01  0.19356074279E+02  0.51100000000E-03 0. -1.
        -11    1    3    3    0    0  0.92512735847E+01 -0.95291793869E+01 -0.38203035874E+01  0.13819769987E+02  0.51100000000E-03 0.  1.
         12    1    3    3    0    0 -0.38406301495E+02 -0.99789906225E-01 -0.82653016858E+01  0.39285737419E+02  0.00000000000E+00 0. -1.
</event>
<event>
 7    1  0.2577508E-013  0.7246150E+02  0.7816164E-02  0.1226708E+00
        -11   -1    0    0    0    0  0.00000000000E+00  0.00000000000E+00  0.45593999997E+02  0.45594000000E+02  0.51100000000E-03 0.  1.
         11   -1    0    0    0    0 -0.00000000000E+00 -0.00000000000E+00 -0.45593999997E+02  0.45594000000E+02  0.51100000000E-03 0. -1.
    9900012    2    1    2    0    0  0.17231389703E+02  0.57759065913E+01  0.45166369053E+01  0.72461497471E+02  0.69999905134E+02 0.  0.
        -12    1    1    2    0    0 -0.17231389703E+02 -0.57759065913E+01 -0.45166369053E+01  0.18726502529E+02  0.00000000000E+00 0.  1.
         11    1    3    3    0    0 -0.21100804710E+01  0.41715120612E+01  0.35204164920E+01  0.58521179934E+01  0.51100000000E-03 0. -1.
        -11    1    3    3    0    0 -0.17888145566E+02 -0.17218755620E+02 -0.94329988176E+00  0.24846752540E+02  0.51100000000E-03 0.  1.
         12    1    3    3    0    0  0.37229615740E+02  0.18823150150E+02  0.19395202951E+01  0.41762626937E+02  0.00000000000E+00 0. -1.
</event>
<event>
 7    1  0.3671215E-013  0.7246161E+02  0.7816164E-02  0.1226708E+00
        -11   -1    0    0    0    0  0.00000000000E+00  0.00000000000E+00  0.45593999997E+02  0.45594000000E+02  0.51100000000E-03 0. -1.
         11   -1    0    0    0    0 -0.00000000000E+00 -0.00000000000E+00 -0.45593999997E+02  0.45594000000E+02  0.51100000000E-03 0.  1.
    9900012    2    1    2    0    0 -0.41211221426E+01  0.55937110437E+01  0.17389774630E+02  0.72461614534E+02  0.70000057630E+02 0.  0.
        -12    1    1    2    0    0  0.41211221426E+01 -0.55937110437E+01 -0.17389774630E+02  0.18726385466E+02  0.00000000000E+00 0.  1.
         11    1    3    3    0    0  0.11298847383E+02 -0.92530569327E+01  0.14073587935E+02  0.20281737904E+02  0.51100000000E-03 0. -1.
        -11    1    3    3    0    0  0.11792157179E+02 -0.46070837751E+01 -0.10043271201E+02  0.16160058432E+02  0.51100000000E-03 0.  1.
         12    1    3    3    0    0 -0.27212126704E+02  0.19453851751E+02  0.13359457896E+02  0.36019818198E+02  0.00000000000E+00 0. -1.
</event>
<event>
 7    1  0.2577508E-013  0.7246157E+02  0.7816164E-02  0.1226708E+00
        -11   -1    0    0    0    0  0.00000000000E+00  0.00000000000E+00  0.45593999997E+02  0.45594000000E+02  0.51100000000E-03 0. -1.
         11   -1    0    0    0    0 -0.00000000000E+00 -0.00000000000E+00 -0.45593999997E+02  0.45594000000E+02  0.51100000000E-03 0.  1.
    9900012    2    1    2    0    0  0.16609247998E+02  0.41395421319E+01  0.75944766943E+01  0.72461574703E+02  0.70000005743E+02 0.  0.
        -12    1    1    2    0    0 -0.16609247998E+02 -0.41395421319E+01 -0.75944766943E+01  0.18726425297E+02  0.00000000000E+00 0.  1.
         11    1    3    3    0    0  0.24555822693E+02 -0.55998049547E+01 -0.18901057334E+01  0.25257053344E+02  0.51100000000E-03 0. -1.
        -11    1    3    3    0    0  0.89716011873E+01  0.20376348859E+02 -0.46275191153E+01  0.22739814293E+02  0.51100000000E-03 0.  1.
        -12    1    3    3    0    0 -0.16918175882E+02 -0.10637001772E+02  0.14112101543E+02  0.24464707066E+02  0.00000000000E+00 0.  1.
</event>
<event>
 7    1  0.2577508E-013  0.7246086E+02  0.7816164E-02  0.1226710E+00
        -11   -1    0    0    0    0  0.00000000000E+00  0.00000000000E+00  0.45593999997E+02  0.45594000000E+02  0.51100000000E-03 0. -1.
         11   -1    0    0    0    0 -0.00000000000E+00 -0.00000000000E+00 -0.45593999997E+02  0.45594000000E+02  0.51100000000E-03 0.  1.
    9900012    2    1    2    0    0 -0.45632456818E+01  0.55390936805E+01  0.17297430886E+02  0.72460856993E+02  0.69999070787E+02 0.  0.
        -12    1    1    2    0    0  0.45632456818E+01 -0.55390936805E+01 -0.17297430886E+02  0.18727143007E+02  0.00000000000E+00 0.  1.
         11    1    3    3    0    0 -0.77069643206E+01 -0.16379650915E+02 -0.20290844153E+01  0.18215582531E+02  0.51100000000E-03 0.  1.
        -11    1    3    3    0    0  0.15577544866E+02 -0.29887442078E+00  0.23749218537E+02  0.28403778118E+02  0.51100000000E-03 0. -1.
        -12    1    3    3    0    0 -0.12433826227E+02  0.22217619016E+02 -0.44227032364E+01  0.25841496344E+02  0.00000000000E+00 0.  1.
</event>
<event>
 7    1  0.2577508E-013  0.7246152E+02  0.7816164E-02  0.1226708E+00
        -11   -1    0    0    0    0  0.00000000000E+00  0.00000000000E+00  0.45593999997E+02  0.45594000000E+02  0.51100000000E-03 0.  1.
         11   -1    0    0    0    0 -0.00000000000E+00 -0.00000000000E+00 -0.45593999997E+02  0.45594000000E+02  0.51100000000E-03 0. -1.
    9900012    2    1    2    0    0 -0.14942621803E+02  0.97552885255E+00 -0.11244880853E+02  0.72461522801E+02  0.69999938131E+02 0.  0.
        -12    1    1    2    0    0  0.14942621803E+02 -0.97552885255E+00  0.11244880853E+02  0.18726477199E+02  0.00000000000E+00 0.  1.
         11    1    3    3    0    0 -0.18695606481E+01 -0.13612733580E+02 -0.78645872232E+01  0.15832040456E+02  0.51100000000E-03 0. -1.
        -11    1    3    3    0    0  0.19380891291E+02  0.12326008516E+02  0.38868304475E+01  0.23294996982E+02  0.51100000000E-03 0.  1.
         12    1    3    3    0    0 -0.32453952445E+02  0.22622539165E+01 -0.72671240772E+01  0.33334485364E+02  0.00000000000E+00 0. -1.
</event>
<event>
 7    1  0.2577508E-013  0.7246164E+02  0.7816164E-02  0.1226708E+00
        -11   -1    0    0    0    0  0.00000000000E+00  0.00000000000E+00  0.45593999997E+02  0.45594000000E+02  0.51100000000E-03 0.  1.
         11   -1    0    0    0    0 -0.00000000000E+00 -0.00000000000E+00 -0.45593999997E+02  0.45594000000E+02  0.51100000000E-03 0. -1.
    9900012    2    1    2    0    0 -0.18536052314E+02  0.11153181522E+01  0.24181750771E+01  0.72461635146E+02  0.70000084481E+02 0.  0.
        -12    1    1    2    0    0  0.18536052314E+02 -0.11153181522E+01 -0.24181750771E+01  0.18726364854E+02  0.00000000000E+00 0.  1.
         11    1    3    3    0    0 -0.38028440768E+01 -0.82026637463E+01  0.17192211647E+02  0.19424661057E+02  0.51100000000E-03 0. -1.
        -11    1    3    3    0    0 -0.23248649802E+02 -0.10231871501E+02  0.25971199565E+01  0.25533036333E+02  0.51100000000E-03 0.  1.
         12    1    3    3    0    0  0.85154415655E+01  0.19549853399E+02 -0.17371156527E+02  0.27503937755E+02  0.00000000000E+00 0. -1.
</event>
<event>
 7    1  0.2577508E-013  0.7246155E+02  0.7816164E-02  0.1226708E+00
        -11   -1    0    0    0    0  0.00000000000E+00  0.00000000000E+00  0.45593999997E+02  0.45594000000E+02  0.51100000000E-03 0. -1.
         11   -1    0    0    0    0 -0.00000000000E+00 -0.00000000000E+00 -0.45593999997E+02  0.45594000000E+02  0.51100000000E-03 0.  1.
    9900012    2    1    2    0    0  0.34841245384E+01 -0.18380441941E+02  0.83676075943E+00  0.72461549767E+02  0.69999973260E+02 0.  0.
        -12    1    1    2    0    0 -0.34841245384E+01  0.18380441941E+02 -0.83676075943E+00  0.18726450233E+02  0.00000000000E+00 0.  1.
         11    1    3    3    0    0  0.50199841107E+01 -0.24386814782E+02  0.19817325588E+02  0.31822057907E+02  0.51100000000E-03 0. -1.
        -11    1    3    3    0    0 -0.65000957575E+01 -0.13779806818E+02 -0.10728254601E+02  0.18634102282E+02  0.51100000000E-03 0.  1.
        -12    1    3    3    0    0  0.49642361852E+01  0.19786179659E+02 -0.82523102276E+01  0.22005389578E+02  0.00000000000E+00 0.  1.
</event>
<event>
 7    1  0.2577508E-013  0.7246156E+02  0.7816164E-02  0.1226708E+00
        -11   -1    0    0    0    0  0.00000000000E+00  0.00000000000E+00  0.45593999997E+02  0.45594000000E+02  0.51100000000E-03 0.  1.
         11   -1    0    0    0    0 -0.00000000000E+00 -0.00000000000E+00 -0.45593999997E+02  0.45594000000E+02  0.51100000000E-03 0. -1.
    9900012    2    1    2    0    0  0.44016144325E+01  0.13682694945E+02  0.12003708494E+02  0.72461564990E+02  0.69999993091E+02 0.  0.
        -12    1    1    2    0    0 -0.44016144325E+01 -0.13682694945E+02 -0.12003708494E+02  0.18726435010E+02  0.00000000000E+00 0.  1.
         11    1    3    3    0    0 -0.24233749414E+02 -0.84541222085E+01 -0.14217584908E+01  0.25705411695E+02  0.51100000000E-03 0. -1.
        -11    1    3    3    0    0 -0.31883708867E+01 -0.19778982482E+01 -0.16205532419E+01  0.40870507047E+01  0.51100000000E-03 0.  1.
        -12    1    3    3    0    0  0.31823734733E+02  0.24114715401E+02  0.15046020227E+02  0.42669102591E+02  0.00000000000E+00 0.  1.
</event>
<event>
 7    1  0.2577508E-013  0.7246157E+02  0.7816164E-02  0.1226708E+00
        -11   -1    0    0    0    0  0.00000000000E+00  0.00000000000E+00  0.45593999997E+02  0.45594000000E+02  0.51100000000E-03 0.  1.
         11   -1    0    0    0    0 -0.00000000000E+00 -0.00000000000E+00 -0.45593999997E+02  0.45594000000E+02  0.51100000000E-03 0. -1.
    9900012    2    1    2    0    0  0.39979198352E+01  0.87092263043E+01 -0.16088671086E+02  0.72461566193E+02  0.69999994657E+02 0.  0.
        -12    1    1    2    0    0 -0.39979198352E+01 -0.87092263043E+01  0.16088671086E+02  0.18726433807E+02  0.00000000000E+00 0.  1.
         11    1    3    3    0    0 -0.31711584941E+02 -0.82892827791E+00 -0.14767288351E+02  0.34991206711E+02  0.51100000000E-03 0.  1.
        -11    1    3    3    0    0  0.15904130737E+02  0.30267950586E+01  0.21612152828E+01  0.16333208950E+02  0.51100000000E-03 0. -1.
        -12    1    3    3    0    0  0.19805374039E+02  0.65113595236E+01 -0.34825980180E+01  0.21137150532E+02  0.00000000000E+00 0.  1.
</event>
<event>
 7    1  0.2577508E-013  0.7246156E+02  0.7816164E-02  0.1226708E+00
        -11   -1    0    0    0    0  0.00000000000E+00  0.00000000000E+00  0.45593999997E+02  0.45594000000E+02  0.51100000000E-03 0. -1.
         11   -1    0    0    0    0 -0.00000000000E+00 -0.00000000000E+00 -0.45593999997E+02  0.45594000000E+02  0.51100000000E-03 0.  1.
    9900012    2    1    2    0    0  0.75420211124E+01  0.83902360857E+00  0.17119974028E+02  0.72461560035E+02  0.69999986635E+02 0.  0.
        -12    1    1    2    0    0 -0.75420211124E+01 -0.83902360857E+00 -0.17119974028E+02  0.18726439965E+02  0.00000000000E+00 0.  1.
         11    1    3    3    0    0 -0.28080540027E+01 -0.11208445713E+02  0.67194089527E+01  0.13366558253E+02  0.51100000000E-03 0.  1.
        -11    1    3    3    0    0 -0.82928542509E+01  0.24826086584E+02  0.21539035598E+02  0.33897434438E+02  0.51100000000E-03 0. -1.
        -12    1    3    3    0    0  0.18642929366E+02 -0.12778617262E+02 -0.11138470523E+02  0.25197567344E+02  0.00000000000E+00 0.  1.
</event>
<event>
 7    1  0.2577508E-013  0.7246158E+02  0.7816164E-02  0.1226708E+00
        -11   -1    0    0    0    0  0.00000000000E+00  0.00000000000E+00  0.45593999997E+02  0.45594000000E+02  0.51100000000E-03 0. -1.
         11   -1    0    0    0    0 -0.00000000000E+00 -0.00000000000E+00 -0.45593999997E+02  0.45594000000E+02  0.51100000000E-03 0.  1.
    9900012    2    1    2    0    0 -0.10627262754E+02 -0.14226289725E+02  0.59458263276E+01  0.72461577926E+02  0.70000009941E+02 0.  0.
        -12    1    1    2    0    0  0.10627262754E+02  0.14226289725E+02 -0.59458263276E+01  0.18726422074E+02  0.00000000000E+00 0.  1.
         11    1    3    3    0    0  0.16537817683E+02 -0.16360059001E+02 -0.13250132322E+02  0.26771569827E+02  0.51100000000E-03 0.  1.
        -11    1    3    3    0    0  0.43267814524E+01 -0.67235210579E+01  0.50071117439E+00  0.80110851383E+01  0.51100000000E-03 0. -1.
        -12    1    3    3    0    0 -0.31491861889E+02  0.88572903332E+01  0.18695247475E+02  0.37678922960E+02  0.00000000000E+00 0.  1.
</event>
<event>
 7    1  0.2577508E-013  0.7246163E+02  0.7816164E-02  0.1226708E+00
        -11   -1    0    0    0    0  0.00000000000E+00  0.00000000000E+00  0.45593999997E+02  0.45594000000E+02  0.51100000000E-03 0. -1.
         11   -1    0    0    0    0 -0.00000000000E+00 -0.00000000000E+00 -0.45593999997E+02  0.45594000000E+02  0.51100000000E-03 0.  1.
    9900012    2    1    2    0    0  0.18535205575E+01  0.83459664427E+01  0.16660924161E+02  0.72461625866E+02  0.70000072392E+02 0.  0.
        -12    1    1    2    0    0 -0.18535205575E+01 -0.83459664427E+01 -0.16660924161E+02  0.18726374134E+02  0.00000000000E+00 0.  1.
         11    1    3    3    0    0  0.68854017373E+01  0.89939786111E+01  0.25001097944E+02  0.27447318758E+02  0.51100000000E-03 0. -1.
        -11    1    3    3    0    0 -0.23366129255E+02  0.16502580273E+01 -0.11779229188E+02  0.26219259876E+02  0.51100000000E-03 0.  1.
         12    1    3    3    0    0  0.18334248075E+02 -0.22982701958E+01  0.34390554049E+01  0.18795047232E+02  0.00000000000E+00 0. -1.
</event>
<event>
 7    1  0.2577508E-013  0.7246153E+02  0.7816164E-02  0.1226708E+00
        -11   -1    0    0    0    0  0.00000000000E+00  0.00000000000E+00  0.45593999997E+02  0.45594000000E+02  0.51100000000E-03 0. -1.
         11   -1    0    0    0    0 -0.00000000000E+00 -0.00000000000E+00 -0.45593999997E+02  0.45594000000E+02  0.51100000000E-03 0.  1.
    9900012    2    1    2    0    0 -0.12275944806E+02  0.11049878017E+02  0.88250914080E+01  0.72461525067E+02  0.69999941083E+02 0.  0.
        -12    1    1    2    0    0  0.12275944806E+02 -0.11049878017E+02 -0.88250914080E+01  0.18726474933E+02  0.00000000000E+00 0.  1.
         11    1    3    3    0    0 -0.58799337072E+01 -0.24644485215E+01 -0.64304597975E+01  0.90552714142E+01  0.51100000000E-03 0. -1.
        -11    1    3    3    0    0 -0.19277834769E+02 -0.15548678484E+02 -0.55918892570E+01  0.25390264703E+02  0.51100000000E-03 0.  1.
         12    1    3    3    0    0  0.12881823670E+02  0.29063005022E+02  0.20847440463E+02  0.38015988949E+02  0.00000000000E+00 0. -1.
</event>
<event>
 7    1  0.2577508E-013  0.7246154E+02  0.7816164E-02  0.1226708E+00
        -11   -1    0    0    0    0  0.00000000000E+00  0.00000000000E+00  0.45593999997E+02  0.45594000000E+02  0.51100000000E-03 0. -1.
         11   -1    0    0    0    0 -0.00000000000E+00 -0.00000000000E+00 -0.45593999997E+02  0.45594000000E+02  0.51100000000E-03 0.  1.
    9900012    2    1    2    0    0  0.15770370517E+02  0.53275086502E+01  0.85786636237E+01  0.72461537327E+02  0.69999957054E+02 0.  0.
        -12    1    1    2    0    0 -0.15770370517E+02 -0.53275086502E+01 -0.85786636237E+01  0.18726462673E+02  0.00000000000E+00 0.  1.
         11    1    3    3    0    0  0.20083051197E+02 -0.12439161037E+02  0.92077123146E+01  0.25354361342E+02  0.51100000000E-03 0. -1.
        -11    1    3    3    0    0  0.80719523276E+01  0.76871385921E+01 -0.19454577440E+02  0.22421621211E+02  0.51100000000E-03 0.  1.
         12    1    3    3    0    0 -0.12384633008E+02  0.10079531095E+02  0.18825528749E+02  0.24685554774E+02  0.00000000000E+00 0. -1.
</event>
<event>
 7    1  0.2577508E-013  0.7246155E+02  0.7816164E-02  0.1226708E+00
        -11   -1    0    0    0    0  0.00000000000E+00  0.00000000000E+00  0.45593999997E+02  0.45594000000E+02  0.51100000000E-03 0.  1.
         11   -1    0    0    0    0 -0.00000000000E+00 -0.00000000000E+00 -0.45593999997E+02  0.45594000000E+02  0.51100000000E-03 0. -1.
    9900012    2    1    2    0    0 -0.15634023277E+02 -0.10163070662E+02 -0.17231059514E+01  0.72461553908E+02  0.69999978654E+02 0.  0.
        -12    1    1    2    0    0  0.15634023277E+02  0.10163070662E+02  0.17231059514E+01  0.18726446092E+02  0.00000000000E+00 0.  1.
         11    1    3    3    0    0 -0.10923100454E+02 -0.15582159115E+02  0.47465240542E+01  0.19612427109E+02  0.51100000000E-03 0. -1.
        -11    1    3    3    0    0 -0.83513994325E+01 -0.15933320908E+02  0.14192753443E+02  0.22913987828E+02  0.51100000000E-03 0.  1.
         12    1    3    3    0    0  0.36404766093E+01  0.21352409361E+02 -0.20662383448E+02  0.29935138971E+02  0.00000000000E+00 0. -1.
</event>
<event>
 7    1  0.2577508E-013  0.7246160E+02  0.7816164E-02  0.1226708E+00
        -11   -1    0    0    0    0  0.00000000000E+00  0.00000000000E+00  0.45593999997E+02  0.45594000000E+02  0.51100000000E-03 0. -1.
         11   -1    0    0    0    0 -0.00000000000E+00 -0.00000000000E+00 -0.45593999997E+02  0.45594000000E+02  0.51100000000E-03 0.  1.
    9900012    2    1    2    0    0  0.17879051250E+02  0.34150717667E+01 -0.43994154791E+01  0.72461600311E+02  0.70000039102E+02 0.  0.
        -12    1    1    2    0    0 -0.17879051250E+02 -0.34150717667E+01  0.43994154791E+01  0.18726399689E+02  0.00000000000E+00 0.  1.
         11    1    3    3    0    0  0.31235580005E+02 -0.76582237983E+01 -0.32348919646E+00  0.32162314834E+02  0.51100000000E-03 0. -1.
        -11    1    3    3    0    0  0.48297059946E+01  0.15329102993E+02  0.81057653218E+01  0.18000302505E+02  0.51100000000E-03 0.  1.
         12    1    3    3    0    0 -0.18186234749E+02 -0.42558074276E+01 -0.12181691604E+02  0.22298982972E+02  0.00000000000E+00 0. -1.
</event>
<event>
 7    1  0.2577508E-013  0.7246159E+02  0.7816164E-02  0.1226708E+00
        -11   -1    0    0    0    0  0.00000000000E+00  0.00000000000E+00  0.45593999997E+02  0.45594000000E+02  0.51100000000E-03 0. -1.
         11   -1    0    0    0    0 -0.00000000000E+00 -0.00000000000E+00 -0.45593999997E+02  0.45594000000E+02  0.51100000000E-03 0.  1.
    9900012    2    1    2    0    0  0.13882190266E+02 -0.82107809098E+01 -0.95155893031E+01  0.72461586314E+02  0.70000020869E+02 0.  0.
        -12    1    1    2    0    0 -0.13882190266E+02  0.82107809098E+01  0.95155893031E+01  0.18726413686E+02  0.00000000000E+00 0.  1.
         11    1    3    3    0    0 -0.21202708137E+02 -0.35205519186E+01  0.14432523130E+02  0.25889125947E+02  0.51100000000E-03 0. -1.
        -11    1    3    3    0    0  0.41996101509E+01 -0.68608263277E+01 -0.11565759993E+01  0.81268278942E+01  0.51100000000E-03 0.  1.
        -12    1    3    3    0    0  0.30885288252E+02  0.21705973364E+01 -0.22791536434E+02  0.38445632473E+02  0.00000000000E+00 0.  1.
</event>
<event>
 7    1  0.2577508E-013  0.7246165E+02  0.7816164E-02  0.1226708E+00
        -11   -1    0    0    0    0  0.00000000000E+00  0.00000000000E+00  0.45593999997E+02  0.45594000000E+02  0.51100000000E-03 0. -1.
         11   -1    0    0    0    0 -0.00000000000E+00 -0.00000000000E+00 -0.45593999997E+02  0.45594000000E+02  0.51100000000E-03 0.  1.
    9900012    2    1    2    0    0  0.62437786300E+01 -0.15156539721E+02  0.90537752818E+01  0.72461646518E+02  0.70000099295E+02 0.  0.
        -12    1    1    2    0    0 -0.62437786300E+01  0.15156539721E+02 -0.90537752818E+01  0.18726353482E+02  0.00000000000E+00 0.  1.
         11    1    3    3    0    0  0.11806250145E+02 -0.11125451363E+01  0.20351781029E+02  0.23554623548E+02  0.51100000000E-03 0. -1.
        -11    1    3    3    0    0 -0.13504364287E+02  0.11820140720E+02 -0.12424182587E+02  0.21827594798E+02  0.51100000000E-03 0.  1.
        -12    1    3    3    0    0  0.79418927724E+01 -0.25864135305E+02  0.11261768403E+01  0.27079428172E+02  0.00000000000E+00 0.  1.
</event>
<event>
 7    1  0.2577508E-013  0.7246134E+02  0.7816164E-02  0.1226709E+00
        -11   -1    0    0    0    0  0.00000000000E+00  0.00000000000E+00  0.45593999997E+02  0.45594000000E+02  0.51100000000E-03 0.  1.
         11   -1    0    0    0    0 -0.00000000000E+00 -0.00000000000E+00 -0.45593999997E+02  0.45594000000E+02  0.51100000000E-03 0. -1.
    9900012    2    1    2    0    0 -0.10498142894E+02 -0.29177456684E+01 -0.15230355455E+02  0.72461335286E+02  0.69999693858E+02 0.  0.
        -12    1    1    2    0    0  0.10498142894E+02  0.29177456684E+01  0.15230355455E+02  0.18726664714E+02  0.00000000000E+00 0.  1.
         11    1    3    3    0    0  0.37882764505E+01  0.21325025726E+02 -0.75221689109E+01  0.22927947707E+02  0.51100000000E-03 0. -1.
        -11    1    3    3    0    0  0.44111754490E+01  0.88069752717E+01  0.25992460059E+01  0.10187117470E+02  0.51100000000E-03 0.  1.
        -12    1    3    3    0    0 -0.18697594794E+02 -0.33049746666E+02 -0.10307432550E+02  0.39346270110E+02  0.00000000000E+00 0.  1.
</event>
<event>
 7    1  0.2577508E-013  0.7246126E+02  0.7816164E-02  0.1226709E+00
        -11   -1    0    0    0    0  0.00000000000E+00  0.00000000000E+00  0.45593999997E+02  0.45594000000E+02  0.51100000000E-03 0.  1.
         11   -1    0    0    0    0 -0.00000000000E+00 -0.00000000000E+00 -0.45593999997E+02  0.45594000000E+02  0.51100000000E-03 0. -1.
    9900012    2    1    2    0    0  0.17939460792E+02  0.53248537884E+01 -0.71596278812E+00  0.72461256448E+02  0.69999591155E+02 0.  0.
        -12    1    1    2    0    0 -0.17939460792E+02 -0.53248537884E+01  0.71596278812E+00  0.18726743552E+02  0.00000000000E+00 0.  1.
         11    1    3    3    0    0  0.35249172423E+02  0.13828638942E+02 -0.14763536622E+02  0.40641080514E+02  0.51100000000E-03 0. -1.
        -11    1    3    3    0    0  0.26985667459E+01 -0.37088785831E+01 -0.26722526220E+01  0.53083874353E+01  0.51100000000E-03 0.  1.
        -12    1    3    3    0    0 -0.20008278378E+02 -0.47949065702E+01  0.16719826456E+02  0.26511788498E+02  0.00000000000E+00 0.  1.
</event>
<event>
 7    1  0.2577508E-013  0.7246157E+02  0.7816164E-02  0.1226708E+00
        -11   -1    0    0    0    0  0.00000000000E+00  0.00000000000E+00  0.45593999997E+02  0.45594000000E+02  0.51100000000E-03 0.  1.
         11   -1    0    0    0    0 -0.00000000000E+00 -0.00000000000E+00 -0.45593999997E+02  0.45594000000E+02  0.51100000000E-03 0. -1.
    9900012    2    1    2    0    0  0.62508114618E+00 -0.11525298119E+02  0.14746389837E+02  0.72461568508E+02  0.69999997674E+02 0.  0.
        -12    1    1    2    0    0 -0.62508114618E+00  0.11525298119E+02 -0.14746389837E+02  0.18726431492E+02  0.00000000000E+00 0.  1.
         11    1    3    3    0    0  0.76845855440E+00 -0.18927327274E+02 -0.14919597450E+01  0.19001583892E+02  0.51100000000E-03 0. -1.
        -11    1    3    3    0    0 -0.24355197079E+01 -0.82691055723E+01  0.30776669716E+02  0.31961121105E+02  0.51100000000E-03 0.  1.
         12    1    3    3    0    0  0.22921422996E+01  0.15671134727E+02 -0.14538320134E+02  0.21498863511E+02  0.00000000000E+00 0. -1.
</event>
<event>
 7    1  0.2577508E-013  0.7246151E+02  0.7816164E-02  0.1226708E+00
        -11   -1    0    0    0    0  0.00000000000E+00  0.00000000000E+00  0.45593999997E+02  0.45594000000E+02  0.51100000000E-03 0.  1.
         11   -1    0    0    0    0 -0.00000000000E+00 -0.00000000000E+00 -0.45593999997E+02  0.45594000000E+02  0.51100000000E-03 0. -1.
    9900012    2    1    2    0    0 -0.19886750447E+01  0.83283305767E+01 -0.16654292167E+02  0.72461511642E+02  0.69999923595E+02 0.  0.
        -12    1    1    2    0    0  0.19886750447E+01 -0.83283305767E+01  0.16654292167E+02  0.18726488358E+02  0.00000000000E+00 0.  1.
         11    1    3    3    0    0  0.38775648872E+01  0.27559611835E+00 -0.27938709824E+01  0.47871889457E+01  0.51100000000E-03 0. -1.
        -11    1    3    3    0    0 -0.80516378624E+01 -0.11515029961E+02  0.22383173533E+02  0.26427849798E+02  0.51100000000E-03 0.  1.
         12    1    3    3    0    0  0.21853979304E+01  0.19567764420E+02 -0.36243594718E+02  0.41246472898E+02  0.00000000000E+00 0. -1.
</event>
<event>
 7    1  0.2577508E-013  0.7246159E+02  0.7816164E-02  0.1226708E+00
        -11   -1    0    0    0    0  0.00000000000E+00  0.00000000000E+00  0.45593999997E+02  0.45594000000E+02  0.51100000000E-03 0.  1.
         11   -1    0    0    0    0 -0.00000000000E+00 -0.00000000000E+00 -0.45593999997E+02  0.45594000000E+02  0.51100000000E-03 0. -1.
    9900012    2    1    2    0    0  0.41406241156E+01  0.14627067124E+02  0.10935373778E+02  0.72461594569E+02  0.70000031622E+02 0.  0.
        -12    1    1    2    0    0 -0.41406241156E+01 -0.14627067124E+02 -0.10935373778E+02  0.18726405431E+02  0.00000000000E+00 0.  1.
         11    1    3    3    0    0 -0.11528607845E+02  0.20763071836E+02  0.10904873410E+02  0.26132933538E+02  0.51100000000E-03 0. -1.
        -11    1    3    3    0    0  0.13384175823E+02  0.10239436618E+02  0.16075207113E+02  0.23289364712E+02  0.51100000000E-03 0.  1.
         12    1    3    3    0    0  0.22850561378E+01 -0.16375441330E+02 -0.16044706746E+02  0.23039296319E+02  0.00000000000E+00 0. -1.
</event>
<event>
 7    1  0.2577508E-013  0.7246156E+02  0.7816164E-02  0.1226708E+00
        -11   -1    0    0    0    0  0.00000000000E+00  0.00000000000E+00  0.45593999997E+02  0.45594000000E+02  0.51100000000E-03 0. -1.
         11   -1    0    0    0    0 -0.00000000000E+00 -0.00000000000E+00 -0.45593999997E+02  0.45594000000E+02  0.51100000000E-03 0.  1.
    9900012    2    1    2    0    0  0.19374374831E+01  0.17709808048E+02  0.57696222024E+01  0.72461561324E+02  0.69999988315E+02 0.  0.
        -12    1    1    2    0    0 -0.19374374831E+01 -0.17709808048E+02 -0.57696222024E+01  0.18726438676E+02  0.00000000000E+00 0.  1.
         11    1    3    3    0    0  0.69900907423E+01 -0.22254914095E+01  0.13277261675E+00  0.73370163846E+01  0.51100000000E-03 0. -1.
        -11    1    3    3    0    0  0.24621245333E+02  0.28951120599E+01 -0.10945650305E+02  0.27099716908E+02  0.51100000000E-03 0.  1.
         12    1    3    3    0    0 -0.29673898593E+02  0.17040187398E+02  0.16582499891E+02  0.38024828032E+02  0.00000000000E+00 0. -1.
</event>
<event>
 7    1  0.2577508E-013  0.7246209E+02  0.7816164E-02  0.1226707E+00
        -11   -1    0    0    0    0  0.00000000000E+00  0.00000000000E+00  0.45593999997E+02  0.45594000000E+02  0.51100000000E-03 0. -1.
         11   -1    0    0    0    0 -0.00000000000E+00 -0.00000000000E+00 -0.45593999997E+02  0.45594000000E+02  0.51100000000E-03 0.  1.
    9900012    2    1    2    0    0  0.73779090098E+01 -0.63412001064E+01  0.16000474682E+02  0.72462094142E+02  0.70000682406E+02 0.  0.
        -12    1    1    2    0    0 -0.73779090098E+01  0.63412001064E+01 -0.16000474682E+02  0.18725905858E+02  0.00000000000E+00 0.  1.
         11    1    3    3    0    0 -0.17836834367E+02  0.22436306820E+02 -0.25355550511E+01  0.28774460267E+02  0.51100000000E-03 0.  1.
        -11    1    3    3    0    0  0.28693628962E+01 -0.16395103434E+01 -0.10224366868E+01  0.34592794966E+01  0.51100000000E-03 0. -1.
        -12    1    3    3    0    0  0.22345380481E+02 -0.27137996583E+02  0.19558466420E+02  0.40228354379E+02  0.00000000000E+00 0.  1.
</event>
<event>
 7    1  0.2577508E-013  0.7246163E+02  0.7816164E-02  0.1226708E+00
        -11   -1    0    0    0    0  0.00000000000E+00  0.00000000000E+00  0.45593999997E+02  0.45594000000E+02  0.51100000000E-03 0. -1.
         11   -1    0    0    0    0 -0.00000000000E+00 -0.00000000000E+00 -0.45593999997E+02  0.45594000000E+02  0.51100000000E-03 0.  1.
    9900012    2    1    2    0    0 -0.66556105565E+01 -0.42913037042E+01  0.16969519941E+02  0.72461626983E+02  0.70000073847E+02 0.  0.
        -12    1    1    2    0    0  0.66556105565E+01  0.42913037042E+01 -0.16969519941E+02  0.18726373017E+02  0.00000000000E+00 0.  1.
         11    1    3    3    0    0  0.97587670732E+01 -0.24914326390E+02  0.79026878813E+01  0.27899994091E+02  0.51100000000E-03 0. -1.
        -11    1    3    3    0    0 -0.19893828632E+01  0.13385669855E+02 -0.11956523735E+02  0.18058024857E+02  0.51100000000E-03 0.  1.
         12    1    3    3    0    0 -0.14424994767E+02  0.72373528314E+01  0.21023355795E+02  0.26503608035E+02  0.00000000000E+00 0. -1.
</event>
<event>
 7    1  0.2577508E-013  0.7246153E+02  0.7816164E-02  0.1226708E+00
        -11   -1    0    0    0    0  0.00000000000E+00  0.00000000000E+00  0.45593999997E+02  0.45594000000E+02  0.51100000000E-03 0. -1.
         11   -1    0    0    0    0 -0.00000000000E+00 -0.00000000000E+00 -0.45593999997E+02  0.45594000000E+02  0.51100000000E-03 0.  1.
    9900012    2    1    2    0    0 -0.13184845679E+02 -0.13298105359E+02 -0.29051103500E-01  0.72461531948E+02  0.69999950047E+02 0.  0.
        -12    1    1    2    0    0  0.13184845679E+02  0.13298105359E+02  0.29051103500E-01  0.18726468052E+02  0.00000000000E+00 0.  1.
         11    1    3    3    0    0  0.17685967351E+02 -0.60303414053E+01  0.64251715304E+01  0.19759587244E+02  0.51100000000E-03 0. -1.
        -11    1    3    3    0    0  0.26988154267E+01 -0.15953738283E+02 -0.78805798048E+01  0.17997469495E+02  0.51100000000E-03 0.  1.
        -12    1    3    3    0    0 -0.33569628457E+02  0.86859743291E+01  0.14263571709E+01  0.34704475209E+02  0.00000000000E+00 0.  1.
</event>
<event>
 7    1  0.2577508E-013  0.7246156E+02  0.7816164E-02  0.1226708E+00
        -11   -1    0    0    0    0  0.00000000000E+00  0.00000000000E+00  0.45593999997E+02  0.45594000000E+02  0.51100000000E-03 0. -1.
         11   -1    0    0    0    0 -0.00000000000E+00 -0.00000000000E+00 -0.45593999997E+02  0.45594000000E+02  0.51100000000E-03 0.  1.
    9900012    2    1    2    0    0  0.13038797126E+02  0.12185988626E+02 -0.56719346372E+01  0.72461564359E+02  0.69999992268E+02 0.  0.
        -12    1    1    2    0    0 -0.13038797126E+02 -0.12185988626E+02  0.56719346372E+01  0.18726435641E+02  0.00000000000E+00 0.  1.
         11    1    3    3    0    0  0.12836249505E+02 -0.88845916550E+01 -0.19813809360E+02  0.25224835219E+02  0.51100000000E-03 0. -1.
        -11    1    3    3    0    0 -0.11684741548E+02  0.13374113302E+02 -0.91497311389E+01  0.19977929619E+02  0.51100000000E-03 0.  1.
         12    1    3    3    0    0  0.11887289170E+02  0.76964669784E+01  0.23291605861E+02  0.27258799522E+02  0.00000000000E+00 0. -1.
</event>
<event>
 7    1  0.2577508E-013  0.7246177E+02  0.7816164E-02  0.1226707E+00
        -11   -1    0    0    0    0  0.00000000000E+00  0.00000000000E+00  0.45593999997E+02  0.45594000000E+02  0.51100000000E-03 0. -1.
         11   -1    0    0    0    0 -0.00000000000E+00 -0.00000000000E+00 -0.45593999997E+02  0.45594000000E+02  0.51100000000E-03 0.  1.
    9900012    2    1    2    0    0  0.76372957116E+01  0.16879503447E+02 -0.27250230464E+01  0.72461770454E+02  0.70000260745E+02 0.  0.
        -12    1    1    2    0    0 -0.76372957116E+01 -0.16879503447E+02  0.27250230464E+01  0.18726229546E+02  0.00000000000E+00 0.  1.
         11    1    3    3    0    0 -0.10606629394E+02 -0.12668286824E+01  0.16624409059E+02  0.19760476179E+02  0.51100000000E-03 0. -1.
        -11    1    3    3    0    0 -0.50312922458E+01 -0.32384634768E+01  0.86215491275E+01  0.10494410749E+02  0.51100000000E-03 0.  1.
        -12    1    3    3    0    0  0.23275217351E+02  0.21384795606E+02 -0.27970981233E+02  0.42206883526E+02  0.00000000000E+00 0.  1.
</event>
<event>
 7    1  0.2577508E-013  0.7246153E+02  0.7816164E-02  0.1226708E+00
        -11   -1    0    0    0    0  0.00000000000E+00  0.00000000000E+00  0.45593999997E+02  0.45594000000E+02  0.51100000000E-03 0.  1.
         11   -1    0    0    0    0 -0.00000000000E+00 -0.00000000000E+00 -0.45593999997E+02  0.45594000000E+02  0.51100000000E-03 0. -1.
    9900012    2    1    2    0    0  0.95176415072E+01  0.23448131277E+00 -0.16125757914E+02  0.72461533444E+02  0.69999951996E+02 0.  0.
        -12    1    1    2    0    0 -0.95176415072E+01 -0.23448131277E+00  0.16125757914E+02  0.18726466556E+02  0.00000000000E+00 0.  1.
         11    1    3    3    0    0 -0.14980827790E+02 -0.77557458159E+01 -0.26083223478E+01  0.17069860578E+02  0.51100000000E-03 0. -1.
        -11    1    3    3    0    0  0.75471486634E+00 -0.16038639457E+02 -0.14445259422E+02  0.21597987642E+02  0.51100000000E-03 0.  1.
        -12    1    3    3    0    0  0.23743754431E+02  0.24028866586E+02  0.92782385534E+00  0.33793685224E+02  0.00000000000E+00 0.  1.
</event>
<event>
 7    1  0.2577508E-013  0.7246158E+02  0.7816164E-02  0.1226708E+00
        -11   -1    0    0    0    0  0.00000000000E+00  0.00000000000E+00  0.45593999997E+02  0.45594000000E+02  0.51100000000E-03 0. -1.
         11   -1    0    0    0    0 -0.00000000000E+00 -0.00000000000E+00 -0.45593999997E+02  0.45594000000E+02  0.51100000000E-03 0.  1.
    9900012    2    1    2    0    0 -0.55970189291E+01  0.14005296694E+02  0.11099722264E+02  0.72461580409E+02  0.70000013176E+02 0.  0.
        -12    1    1    2    0    0  0.55970189291E+01 -0.14005296694E+02 -0.11099722264E+02  0.18726419591E+02  0.00000000000E+00 0.  1.
         11    1    3    3    0    0  0.43534522229E+01  0.11549670050E+02  0.97012881685E+01  0.15699121533E+02  0.51100000000E-03 0. -1.
        -11    1    3    3    0    0  0.72673812489E+01  0.60994766371E+00 -0.24525563672E+02  0.25586913453E+02  0.51100000000E-03 0.  1.
        -12    1    3    3    0    0 -0.17217852401E+02  0.18456789795E+01  0.25923997767E+02  0.31175545423E+02  0.00000000000E+00 0.  1.
</event>
<event>
 7    1  0.2577508E-013  0.7246157E+02  0.7816164E-02  0.1226708E+00
        -11   -1    0    0    0    0  0.00000000000E+00  0.00000000000E+00  0.45593999997E+02  0.45594000000E+02  0.51100000000E-03 0.  1.
         11   -1    0    0    0    0 -0.00000000000E+00 -0.00000000000E+00 -0.45593999997E+02  0.45594000000E+02  0.51100000000E-03 0. -1.
    9900012    2    1    2    0    0 -0.17472252978E+02  0.63044876277E+01 -0.23775872899E+01  0.72461571892E+02  0.70000002081E+02 0.  0.
        -12    1    1    2    0    0  0.17472252978E+02 -0.63044876277E+01  0.23775872899E+01  0.18726428108E+02  0.00000000000E+00 0.  1.
         11    1    3    3    0    0 -0.82686023779E+01  0.30687501722E+02  0.87627142062E+01  0.32967828375E+02  0.51100000000E-03 0. -1.
        -11    1    3    3    0    0  0.93498858810E+00 -0.59843494562E+01  0.86984228383E+01  0.10599490658E+02  0.51100000000E-03 0.  1.
        -12    1    3    3    0    0 -0.10138639188E+02 -0.18398664638E+02 -0.19838724334E+02  0.28894252859E+02  0.00000000000E+00 0.  1.
</event>
<event>
 7    1  0.2577508E-013  0.7246157E+02  0.7816164E-02  0.1226708E+00
        -11   -1    0    0    0    0  0.00000000000E+00  0.00000000000E+00  0.45593999997E+02  0.45594000000E+02  0.51100000000E-03 0.  1.
         11   -1    0    0    0    0 -0.00000000000E+00 -0.00000000000E+00 -0.45593999997E+02  0.45594000000E+02  0.51100000000E-03 0. -1.
    9900012    2    1    2    0    0  0.58555015283E-01 -0.18614528722E+02 -0.20433314610E+01  0.72461566499E+02  0.69999995055E+02 0.  0.
        -12    1    1    2    0    0 -0.58555015283E-01  0.18614528722E+02  0.20433314610E+01  0.18726433501E+02  0.00000000000E+00 0.  1.
         11    1    3    3    0    0 -0.29108263393E+00  0.83546188862E+01  0.49296100815E+01  0.97049184257E+01  0.51100000000E-03 0. -1.
        -11    1    3    3    0    0  0.53922238161E+01  0.10626812552E+02 -0.19462391150E+02  0.22820821463E+02  0.51100000000E-03 0.  1.
         12    1    3    3    0    0 -0.50425861668E+01 -0.37595960159E+02  0.12489449608E+02  0.39935826610E+02  0.00000000000E+00 0. -1.
</event>
<event>
 7    1  0.2577508E-013  0.7246143E+02  0.7816164E-02  0.1226708E+00
        -11   -1    0    0    0    0  0.00000000000E+00  0.00000000000E+00  0.45593999997E+02  0.45594000000E+02  0.51100000000E-03 0.  1.
         11   -1    0    0    0    0 -0.00000000000E+00 -0.00000000000E+00 -0.45593999997E+02  0.45594000000E+02  0.51100000000E-03 0. -1.
    9900012    2    1    2    0    0  0.94185811986E+01  0.11581324108E+02 -0.11306967649E+02  0.72461434450E+02  0.69999823038E+02 0.  0.
        -12    1    1    2    0    0 -0.94185811986E+01 -0.11581324108E+02  0.11306967649E+02  0.18726565550E+02  0.00000000000E+00 0.  1.
         11    1    3    3    0    0  0.39073955337E+01 -0.13234644761E+01  0.11866837588E+00  0.41271516232E+01  0.51100000000E-03 0. -1.
        -11    1    3    3    0    0 -0.81403283899E+01 -0.18118996930E+02  0.15379371395E+02  0.25121466136E+02  0.51100000000E-03 0.  1.
         12    1    3    3    0    0  0.13651514055E+02  0.31023785514E+02 -0.26805007420E+02  0.43212816691E+02  0.00000000000E+00 0. -1.
</event>
<event>
 7    1  0.2577508E-013  0.7246159E+02  0.7816164E-02  0.1226708E+00
        -11   -1    0    0    0    0  0.00000000000E+00  0.00000000000E+00  0.45593999997E+02  0.45594000000E+02  0.51100000000E-03 0. -1.
         11   -1    0    0    0    0 -0.00000000000E+00 -0.00000000000E+00 -0.45593999997E+02  0.45594000000E+02  0.51100000000E-03 0.  1.
    9900012    2    1    2    0    0 -0.93363485748E+01 -0.40303468762E+01 -0.15724738493E+02  0.72461588135E+02  0.70000023241E+02 0.  0.
        -12    1    1    2    0    0  0.93363485748E+01  0.40303468762E+01  0.15724738493E+02  0.18726411865E+02  0.00000000000E+00 0.  1.
         11    1    3    3    0    0 -0.15678988206E+02 -0.14901070951E+02  0.14857018639E+02  0.26241257397E+02  0.51100000000E-03 0. -1.
        -11    1    3    3    0    0  0.12652057572E+02 -0.65051877836E+01 -0.59433508615E+01  0.15418023500E+02  0.51100000000E-03 0.  1.
        -12    1    3    3    0    0 -0.63094179414E+01  0.17375911859E+02 -0.24638406270E+02  0.30802307239E+02  0.00000000000E+00 0.  1.
</event>
<event>
 7    1  0.2577508E-013  0.7246162E+02  0.7816164E-02  0.1226708E+00
        -11   -1    0    0    0    0  0.00000000000E+00  0.00000000000E+00  0.45593999997E+02  0.45594000000E+02  0.51100000000E-03 0.  1.
         11   -1    0    0    0    0 -0.00000000000E+00 -0.00000000000E+00 -0.45593999997E+02  0.45594000000E+02  0.51100000000E-03 0. -1.
    9900012    2    1    2    0    0  0.62586805105E+01  0.16963632148E+02 -0.48725021927E+01  0.72461623548E+02  0.70000069373E+02 0.  0.
        -12    1    1    2    0    0 -0.62586805105E+01 -0.16963632148E+02  0.48725021927E+01  0.18726376452E+02  0.00000000000E+00 0.  1.
         11    1    3    3    0    0 -0.12290741290E+02 -0.15392369869E+02 -0.17489057736E+02  0.26341118283E+02  0.51100000000E-03 0. -1.
        -11    1    3    3    0    0  0.39263344634E+01 -0.58311381945E+00  0.90782086844E+01  0.99080773727E+01  0.51100000000E-03 0.  1.
        -12    1    3    3    0    0  0.14623087337E+02  0.32939115837E+02  0.35383468591E+01  0.36212427893E+02  0.00000000000E+00 0.  1.
</event>
<event>
 7    1  0.2577508E-013  0.7246161E+02  0.7816164E-02  0.1226708E+00
        -11   -1    0    0    0    0  0.00000000000E+00  0.00000000000E+00  0.45593999997E+02  0.45594000000E+02  0.51100000000E-03 0. -1.
         11   -1    0    0    0    0 -0.00000000000E+00 -0.00000000000E+00 -0.45593999997E+02  0.45594000000E+02  0.51100000000E-03 0.  1.
    9900012    2    1    2    0    0 -0.17365755377E+02 -0.60973106061E+01  0.34541395719E+01  0.72461608553E+02  0.70000049839E+02 0.  0.
        -12    1    1    2    0    0  0.17365755377E+02  0.60973106061E+01 -0.34541395719E+01  0.18726391447E+02  0.00000000000E+00 0.  1.
         11    1    3    3    0    0  0.10710788712E+02  0.93703265914E+01  0.60020669996E+01  0.15445025859E+02  0.51100000000E-03 0. -1.
        -11    1    3    3    0    0 -0.38596079757E+01 -0.80284568622E+01 -0.22867082482E+02  0.24540907783E+02  0.51100000000E-03 0.  1.
         12    1    3    3    0    0 -0.24216936113E+02 -0.74391803354E+01  0.20319155055E+02  0.32475674911E+02  0.00000000000E+00 0. -1.
</event>
<event>
 7    1  0.2577508E-013  0.7246158E+02  0.7816164E-02  0.1226708E+00
        -11   -1    0    0    0    0  0.00000000000E+00  0.00000000000E+00  0.45593999997E+02  0.45594000000E+02  0.51100000000E-03 0.  1.
         11   -1    0    0    0    0 -0.00000000000E+00 -0.00000000000E+00 -0.45593999997E+02  0.45594000000E+02  0.51100000000E-03 0. -1.
    9900012    2    1    2    0    0 -0.15060710147E+01 -0.56002398030E+01 -0.17805839705E+02  0.72461578469E+02  0.70000010649E+02 0.  0.
        -12    1    1    2    0    0  0.15060710147E+01  0.56002398030E+01  0.17805839705E+02  0.18726421531E+02  0.00000000000E+00 0.  1.
         11    1    3    3    0    0 -0.23874725667E+01 -0.15535652628E+02 -0.69050842955E+01  0.17167897869E+02  0.51100000000E-03 0. -1.
        -11    1    3    3    0    0  0.21637795449E+01 -0.21612033459E+02  0.49741716420E+00  0.21725776310E+02  0.51100000000E-03 0.  1.
         12    1    3    3    0    0 -0.12823779929E+01  0.31547446285E+02 -0.11398172574E+02  0.33567904290E+02  0.00000000000E+00 0. -1.
</event>
<event>
 7    1  0.2577508E-013  0.7246158E+02  0.7816164E-02  0.1226708E+00
        -11   -1    0    0    0    0  0.00000000000E+00  0.00000000000E+00  0.45593999997E+02  0.45594000000E+02  0.51100000000E-03 0. -1.
         11   -1    0    0    0    0 -0.00000000000E+00 -0.00000000000E+00 -0.45593999997E+02  0.45594000000E+02  0.51100000000E-03 0.  1.
    9900012    2    1    2    0    0  0.51993544382E+01  0.16419324399E+02 -0.73519560672E+01  0.72461581274E+02  0.70000014303E+02 0.  0.
        -12    1    1    2    0    0 -0.51993544382E+01 -0.16419324399E+02  0.73519560672E+01  0.18726418726E+02  0.00000000000E+00 0.  1.
         11    1    3    3    0    0 -0.37310364953E+01  0.10428551232E+02 -0.20877018104E+02  0.23633137737E+02  0.51100000000E-03 0.  1.
        -11    1    3    3    0    0  0.90337473784E+01  0.64248287620E+01 -0.15909390605E+02  0.19390609222E+02  0.51100000000E-03 0. -1.
         12    1    3    3    0    0 -0.10335644489E+00 -0.43405559478E+00  0.29434452642E+02  0.29437834315E+02  0.00000000000E+00 0. -1.
</event>
<event>
 7    1  0.2577508E-013  0.7246147E+02  0.7816164E-02  0.1226708E+00
        -11   -1    0    0    0    0  0.00000000000E+00  0.00000000000E+00  0.45593999997E+02  0.45594000000E+02  0.51100000000E-03 0.  1.
         11   -1    0    0    0    0 -0.00000000000E+00 -0.00000000000E+00 -0.45593999997E+02  0.45594000000E+02  0.51100000000E-03 0. -1.
    9900012    2    1    2    0    0  0.36678280032E+01  0.13169518833E+02 -0.12798197663E+02  0.72461466632E+02  0.69999864961E+02 0.  0.
        -12    1    1    2    0    0 -0.36678280032E+01 -0.13169518833E+02  0.12798197663E+02  0.18726533368E+02  0.00000000000E+00 0.  1.
         11    1    3    3    0    0 -0.77101324681E+01 -0.85511715007E+01 -0.23353682530E+02  0.26037725797E+02  0.51100000000E-03 0. -1.
        -11    1    3    3    0    0 -0.38136496434E+01 -0.55040157089E+01 -0.77724342307E+01  0.10259086054E+02  0.51100000000E-03 0.  1.
        -12    1    3    3    0    0  0.15191610115E+02  0.27224706043E+02  0.18327919098E+02  0.36164654781E+02  0.00000000000E+00 0.  1.
</event>
<event>
 7    1  0.2577508E-013  0.7246160E+02  0.7816164E-02  0.1226708E+00
        -11   -1    0    0    0    0  0.00000000000E+00  0.00000000000E+00  0.45593999997E+02  0.45594000000E+02  0.51100000000E-03 0. -1.
         11   -1    0    0    0    0 -0.00000000000E+00 -0.00000000000E+00 -0.45593999997E+02  0.45594000000E+02  0.51100000000E-03 0.  1.
    9900012    2    1    2    0    0 -0.43677093223E+00  0.16905522610E+02  0.80430489426E+01  0.72461598854E+02  0.70000037205E+02 0.  0.
        -12    1    1    2    0    0  0.43677093223E+00 -0.16905522610E+02 -0.80430489426E+01  0.18726401146E+02  0.00000000000E+00 0.  1.
         11    1    3    3    0    0  0.92421112301E+01 -0.86969359059E+01  0.19109879601E+02  0.22939939250E+02  0.51100000000E-03 0. -1.
        -11    1    3    3    0    0 -0.11160132954E+02 -0.81441507560E+01  0.47834321188E+00  0.13824057710E+02  0.51100000000E-03 0.  1.
        -12    1    3    3    0    0  0.14812507919E+01  0.33746609272E+02 -0.11545173871E+02  0.35697601894E+02  0.00000000000E+00 0.  1.
</event>
<event>
 7    1  0.2577508E-013  0.7246155E+02  0.7816164E-02  0.1226708E+00
        -11   -1    0    0    0    0  0.00000000000E+00  0.00000000000E+00  0.45593999997E+02  0.45594000000E+02  0.51100000000E-03 0.  1.
         11   -1    0    0    0    0 -0.00000000000E+00 -0.00000000000E+00 -0.45593999997E+02  0.45594000000E+02  0.51100000000E-03 0. -1.
    9900012    2    1    2    0    0 -0.36670364000E+01  0.16399247161E+02 -0.82642169201E+01  0.72461554937E+02  0.69999979994E+02 0.  0.
        -12    1    1    2    0    0  0.36670364000E+01 -0.16399247161E+02  0.82642169201E+01  0.18726445063E+02  0.00000000000E+00 0.  1.
         11    1    3    3    0    0 -0.17767799712E+02 -0.46389719641E+01 -0.55936084179E+00  0.18371925656E+02  0.51100000000E-03 0. -1.
        -11    1    3    3    0    0 -0.93553819891E+00  0.30393477286E+02 -0.16193763189E+02  0.34451076321E+02  0.51100000000E-03 0.  1.
        -12    1    3    3    0    0  0.15036301511E+02 -0.93552581605E+01  0.84889071103E+01  0.19638552959E+02  0.00000000000E+00 0.  1.
</event>
<event>
 7    1  0.2577508E-013  0.7246156E+02  0.7816164E-02  0.1226708E+00
        -11   -1    0    0    0    0  0.00000000000E+00  0.00000000000E+00  0.45593999997E+02  0.45594000000E+02  0.51100000000E-03 0. -1.
         11   -1    0    0    0    0 -0.00000000000E+00 -0.00000000000E+00 -0.45593999997E+02  0.45594000000E+02  0.51100000000E-03 0.  1.
    9900012    2    1    2    0    0  0.66718134218E+01  0.58888418648E+01  0.16476893143E+02  0.72461559855E+02  0.69999986401E+02 0.  0.
        -12    1    1    2    0    0 -0.66718134218E+01 -0.58888418648E+01 -0.16476893143E+02  0.18726440145E+02  0.00000000000E+00 0.  1.
         11    1    3    3    0    0  0.34138156319E+01  0.26760896373E+02  0.86977391137E+01  0.28345200260E+02  0.51100000000E-03 0. -1.
        -11    1    3    3    0    0  0.15224202986E+02  0.71734826800E-01 -0.59685235441E+01  0.16352515892E+02  0.51100000000E-03 0.  1.
        -12    1    3    3    0    0 -0.11966205196E+02 -0.20943789335E+02  0.13747677574E+02  0.27763843703E+02  0.00000000000E+00 0.  1.
</event>
<event>
 7    1  0.2577508E-013  0.7246156E+02  0.7816164E-02  0.1226708E+00
        -11   -1    0    0    0    0  0.00000000000E+00  0.00000000000E+00  0.45593999997E+02  0.45594000000E+02  0.51100000000E-03 0.  1.
         11   -1    0    0    0    0 -0.00000000000E+00 -0.00000000000E+00 -0.45593999997E+02  0.45594000000E+02  0.51100000000E-03 0. -1.
    9900012    2    1    2    0    0 -0.93851543202E+01  0.85823670779E+01 -0.13745589757E+02  0.72461564567E+02  0.69999992539E+02 0.  0.
        -12    1    1    2    0    0  0.93851543202E+01 -0.85823670779E+01  0.13745589757E+02  0.18726435433E+02  0.00000000000E+00 0.  1.
         11    1    3    3    0    0 -0.10417766790E+02 -0.91210686582E+01 -0.27710272502E+02  0.30977136096E+02  0.51100000000E-03 0. -1.
        -11    1    3    3    0    0 -0.44402910049E+01 -0.42239751953E+01 -0.79271700673E+01  0.10019889031E+02  0.51100000000E-03 0.  1.
        -12    1    3    3    0    0  0.54729034742E+01  0.21927410931E+02  0.21891852812E+02  0.31464539439E+02  0.00000000000E+00 0.  1.
</event>
<event>
 7    1  0.2577508E-013  0.7246161E+02  0.7816164E-02  0.1226708E+00
        -11   -1    0    0    0    0  0.00000000000E+00  0.00000000000E+00  0.45593999997E+02  0.45594000000E+02  0.51100000000E-03 0. -1.
         11   -1    0    0    0    0 -0.00000000000E+00 -0.00000000000E+00 -0.45593999997E+02  0.45594000000E+02  0.51100000000E-03 0.  1.
    9900012    2    1    2    0    0  0.16887538719E+02 -0.75724928957E+01 -0.28541550991E+01  0.72461606488E+02  0.70000047149E+02 0.  0.
        -12    1    1    2    0    0 -0.16887538719E+02  0.75724928957E+01  0.28541550991E+01  0.18726393512E+02  0.00000000000E+00 0.  1.
         11    1    3    3    0    0 -0.28818199212E+01 -0.10156795558E+02 -0.76086775916E+01  0.13013737242E+02  0.51100000000E-03 0. -1.
        -11    1    3    3    0    0 -0.19164555273E+02  0.35875559608E+01  0.62431068126E+01  0.20472594352E+02  0.51100000000E-03 0.  1.
         12    1    3    3    0    0  0.38933913913E+02 -0.10032532988E+01 -0.14885843201E+01  0.38975274893E+02  0.00000000000E+00 0. -1.
</event>
<event>
 7    1  0.2577508E-013  0.7246159E+02  0.7816164E-02  0.1226708E+00
        -11   -1    0    0    0    0  0.00000000000E+00  0.00000000000E+00  0.45593999997E+02  0.45594000000E+02  0.51100000000E-03 0. -1.
         11   -1    0    0    0    0 -0.00000000000E+00 -0.00000000000E+00 -0.45593999997E+02  0.45594000000E+02  0.51100000000E-03 0.  1.
    9900012    2    1    2    0    0  0.13210450233E+02  0.13271681900E+02  0.15745687395E+00  0.72461592750E+02  0.70000029253E+02 0.  0.
        -12    1    1    2    0    0 -0.13210450233E+02 -0.13271681900E+02 -0.15745687395E+00  0.18726407250E+02  0.00000000000E+00 0.  1.
         11    1    3    3    0    0  0.17262174598E+01  0.14673727087E+01  0.59084804118E+01  0.63279657412E+01  0.51100000000E-03 0. -1.
        -11    1    3    3    0    0  0.32095329215E+01  0.11749947831E+02  0.28448951460E+02  0.30946812680E+02  0.51100000000E-03 0.  1.
        -12    1    3    3    0    0  0.82746998520E+01  0.54361360498E-01 -0.34199974998E+02  0.35186814329E+02  0.00000000000E+00 0.  1.
</event>
<event>
 7    1  0.2577508E-013  0.7246136E+02  0.7816164E-02  0.1226709E+00
        -11   -1    0    0    0    0  0.00000000000E+00  0.00000000000E+00  0.45593999997E+02  0.45594000000E+02  0.51100000000E-03 0. -1.
         11   -1    0    0    0    0 -0.00000000000E+00 -0.00000000000E+00 -0.45593999997E+02  0.45594000000E+02  0.51100000000E-03 0.  1.
    9900012    2    1    2    0    0 -0.77434450061E+01  0.13553594609E+02 -0.10345344971E+02  0.72461360420E+02  0.69999726599E+02 0.  0.
        -12    1    1    2    0    0  0.77434450061E+01 -0.13553594609E+02  0.10345344971E+02  0.18726639580E+02  0.00000000000E+00 0.  1.
         11    1    3    3    0    0  0.81988605977E+01 -0.57833196422E+01 -0.24499943801E+01  0.10328144747E+02  0.51100000000E-03 0. -1.
        -11    1    3    3    0    0  0.10673835051E+02  0.27846183971E+02 -0.14883247515E+02  0.33329443039E+02  0.51100000000E-03 0.  1.
         12    1    3    3    0    0 -0.26616140655E+02 -0.85092697198E+01  0.69878969248E+01  0.28803772634E+02  0.00000000000E+00 0. -1.
</event>
<event>
 7    1  0.2577508E-013  0.7246158E+02  0.7816164E-02  0.1226708E+00
        -11   -1    0    0    0    0  0.00000000000E+00  0.00000000000E+00  0.45593999997E+02  0.45594000000E+02  0.51100000000E-03 0. -1.
         11   -1    0    0    0    0 -0.00000000000E+00 -0.00000000000E+00 -0.45593999997E+02  0.45594000000E+02  0.51100000000E-03 0.  1.
    9900012    2    1    2    0    0 -0.65363362527E+01 -0.10220731748E+02 -0.14265049938E+02  0.72461582862E+02  0.70000016372E+02 0.  0.
        -12    1    1    2    0    0  0.65363362527E+01  0.10220731748E+02  0.14265049938E+02  0.18726417138E+02  0.00000000000E+00 0.  1.
         11    1    3    3    0    0 -0.21859872833E+02 -0.19985368735E+00  0.64158970368E+01  0.22782838208E+02  0.51100000000E-03 0. -1.
        -11    1    3    3    0    0 -0.11164224045E+02  0.73345142242E+01 -0.79757883880E+01  0.15557898255E+02  0.51100000000E-03 0.  1.
        -12    1    3    3    0    0  0.26487760625E+02 -0.17355392285E+02 -0.12705158587E+02  0.34120846400E+02  0.00000000000E+00 0.  1.
</event>
<event>
 7    1  0.2577508E-013  0.7246162E+02  0.7816164E-02  0.1226708E+00
        -11   -1    0    0    0    0  0.00000000000E+00  0.00000000000E+00  0.45593999997E+02  0.45594000000E+02  0.51100000000E-03 0.  1.
         11   -1    0    0    0    0 -0.00000000000E+00 -0.00000000000E+00 -0.45593999997E+02  0.45594000000E+02  0.51100000000E-03 0. -1.
    9900012    2    1    2    0    0  0.75081269832E+01  0.14289615489E+02 -0.94927361860E+01  0.72461624966E+02  0.70000071220E+02 0.  0.
        -12    1    1    2    0    0 -0.75081269832E+01 -0.14289615489E+02  0.94927361860E+01  0.18726375034E+02  0.00000000000E+00 0.  1.
         11    1    3    3    0    0 -0.37114693921E+01 -0.25184311012E+02 -0.30326527889E+01  0.25636331824E+02  0.51100000000E-03 0. -1.
        -11    1    3    3    0    0  0.71847404555E+01  0.14045688575E+01 -0.42813614362E+01  0.84807644171E+01  0.51100000000E-03 0.  1.
        -12    1    3    3    0    0  0.40348559197E+01  0.38069357644E+02 -0.21787219609E+01  0.38344528724E+02  0.00000000000E+00 0.  1.
</event>
<event>
 7    1  0.2577508E-013  0.7246157E+02  0.7816164E-02  0.1226708E+00
        -11   -1    0    0    0    0  0.00000000000E+00  0.00000000000E+00  0.45593999997E+02  0.45594000000E+02  0.51100000000E-03 0. -1.
         11   -1    0    0    0    0 -0.00000000000E+00 -0.00000000000E+00 -0.45593999997E+02  0.45594000000E+02  0.51100000000E-03 0.  1.
    9900012    2    1    2    0    0 -0.80954130476E+01 -0.35725759259E+01  0.16503945980E+02  0.72461568304E+02  0.69999997408E+02 0.  0.
        -12    1    1    2    0    0  0.80954130476E+01  0.35725759259E+01 -0.16503945980E+02  0.18726431696E+02  0.00000000000E+00 0.  1.
         11    1    3    3    0    0 -0.16932391193E+02 -0.67821225791E+01 -0.13176520730E+02  0.22501638985E+02  0.51100000000E-03 0. -1.
        -11    1    3    3    0    0  0.14932467242E+02  0.32026646645E+01 -0.39556058903E+01  0.15776008909E+02  0.51100000000E-03 0.  1.
         12    1    3    3    0    0 -0.60954890969E+01  0.68819886808E-02  0.33636072600E+02  0.34183920410E+02  0.00000000000E+00 0. -1.
</event>
<event>
 7    1  0.2577508E-013  0.7246154E+02  0.7816164E-02  0.1226708E+00
        -11   -1    0    0    0    0  0.00000000000E+00  0.00000000000E+00  0.45593999997E+02  0.45594000000E+02  0.51100000000E-03 0. -1.
         11   -1    0    0    0    0 -0.00000000000E+00 -0.00000000000E+00 -0.45593999997E+02  0.45594000000E+02  0.51100000000E-03 0.  1.
    9900012    2    1    2    0    0 -0.67370706620E+01 -0.15362531631E+02 -0.83237591890E+01  0.72461535671E+02  0.69999954897E+02 0.  0.
        -12    1    1    2    0    0  0.67370706620E+01  0.15362531631E+02  0.83237591890E+01  0.18726464329E+02  0.00000000000E+00 0.  1.
         11    1    3    3    0    0 -0.65093738801E+01 -0.28845829628E+02 -0.43121638575E+00  0.29574309511E+02  0.51100000000E-03 0. -1.
        -11    1    3    3    0    0  0.76065551847E+01 -0.12067198664E+02 -0.75961108859E+01  0.16160998305E+02  0.51100000000E-03 0.  1.
         12    1    3    3    0    0 -0.78342519667E+01  0.25550496661E+02 -0.29643191740E+00  0.26726227855E+02  0.00000000000E+00 0. -1.
</event>
<event>
 7    1  0.2577508E-013  0.7246146E+02  0.7816164E-02  0.1226708E+00
        -11   -1    0    0    0    0  0.00000000000E+00  0.00000000000E+00  0.45593999997E+02  0.45594000000E+02  0.51100000000E-03 0.  1.
         11   -1    0    0    0    0 -0.00000000000E+00 -0.00000000000E+00 -0.45593999997E+02  0.45594000000E+02  0.51100000000E-03 0. -1.
    9900012    2    1    2    0    0 -0.96092030885E+01  0.63865788170E+01 -0.14749850600E+02  0.72461460925E+02  0.69999857526E+02 0.  0.
        -12    1    1    2    0    0  0.96092030885E+01 -0.63865788170E+01  0.14749850600E+02  0.18726539075E+02  0.00000000000E+00 0.  1.
         11    1    3    3    0    0  0.18332213133E+02 -0.16351367392E+02 -0.17998656735E+02  0.30453060576E+02  0.51100000000E-03 0. -1.
        -11    1    3    3    0    0  0.33161457927E+01  0.29685742378E+01  0.23038747196E+01  0.50116958116E+01  0.51100000000E-03 0.  1.
        -12    1    3    3    0    0 -0.31257562015E+02  0.19769371971E+02  0.94493141459E+00  0.36996704537E+02  0.00000000000E+00 0.  1.
</event>
<event>
 7    1  0.2577508E-013  0.7246160E+02  0.7816164E-02  0.1226708E+00
        -11   -1    0    0    0    0  0.00000000000E+00  0.00000000000E+00  0.45593999997E+02  0.45594000000E+02  0.51100000000E-03 0.  1.
         11   -1    0    0    0    0 -0.00000000000E+00 -0.00000000000E+00 -0.45593999997E+02  0.45594000000E+02  0.51100000000E-03 0. -1.
    9900012    2    1    2    0    0  0.61551213977E+01 -0.10747133520E+02 -0.14046061309E+02  0.72461595203E+02  0.70000032448E+02 0.  0.
        -12    1    1    2    0    0 -0.61551213977E+01  0.10747133520E+02  0.14046061309E+02  0.18726404797E+02  0.00000000000E+00 0.  1.
         11    1    3    3    0    0 -0.15434901864E+02 -0.14771537658E+02 -0.12227045543E+02  0.24615750310E+02  0.51100000000E-03 0.  1.
        -11    1    3    3    0    0  0.11992809850E+02 -0.62047578798E+01 -0.20461897051E+02  0.24515622359E+02  0.51100000000E-03 0. -1.
        -12    1    3    3    0    0  0.95972134123E+01  0.10229162019E+02  0.18642881285E+02  0.23330222534E+02  0.00000000000E+00 0.  1.
</event>
<event>
 7    1  0.2577508E-013  0.7246154E+02  0.7816164E-02  0.1226708E+00
        -11   -1    0    0    0    0  0.00000000000E+00  0.00000000000E+00  0.45593999997E+02  0.45594000000E+02  0.51100000000E-03 0. -1.
         11   -1    0    0    0    0 -0.00000000000E+00 -0.00000000000E+00 -0.45593999997E+02  0.45594000000E+02  0.51100000000E-03 0.  1.
    9900012    2    1    2    0    0  0.15955809131E+02  0.41725957558E+01  0.88702741085E+01  0.72461543765E+02  0.69999965441E+02 0.  0.
        -12    1    1    2    0    0 -0.15955809131E+02 -0.41725957558E+01 -0.88702741085E+01  0.18726456235E+02  0.00000000000E+00 0.  1.
         11    1    3    3    0    0 -0.14704051051E+02  0.77437735053E+01  0.19072268031E+02  0.25296769626E+02  0.51100000000E-03 0. -1.
        -11    1    3    3    0    0 -0.44257964846E+01  0.54712542707E+01  0.41772275903E+01  0.81836134085E+01  0.51100000000E-03 0.  1.
        -12    1    3    3    0    0  0.35085656666E+02 -0.90424320202E+01 -0.14379221513E+02  0.38981160730E+02  0.00000000000E+00 0.  1.
</event>
<event>
 7    1  0.2577508E-013  0.7246154E+02  0.7816164E-02  0.1226708E+00
        -11   -1    0    0    0    0  0.00000000000E+00  0.00000000000E+00  0.45593999997E+02  0.45594000000E+02  0.51100000000E-03 0.  1.
         11   -1    0    0    0    0 -0.00000000000E+00 -0.00000000000E+00 -0.45593999997E+02  0.45594000000E+02  0.51100000000E-03 0. -1.
    9900012    2    1    2    0    0 -0.18132858025E+02 -0.62341483492E-01  0.46771643862E+01  0.72461540289E+02  0.69999960912E+02 0.  0.
        -12    1    1    2    0    0  0.18132858025E+02  0.62341483492E-01 -0.46771643862E+01  0.18726459711E+02  0.00000000000E+00 0.  1.
         11    1    3    3    0    0 -0.23456892524E+01  0.49899128035E+01 -0.18729801685E+01  0.58231900903E+01  0.51100000000E-03 0. -1.
        -11    1    3    3    0    0  0.35349540647E+01 -0.24523444754E+02 -0.17356672524E+02  0.30251435077E+02  0.51100000000E-03 0.  1.
        -12    1    3    3    0    0 -0.19322122838E+02  0.19471190468E+02  0.23906817079E+02  0.36386915121E+02  0.00000000000E+00 0.  1.
</event>
<event>
 7    1  0.2577508E-013  0.7246157E+02  0.7816164E-02  0.1226708E+00
        -11   -1    0    0    0    0  0.00000000000E+00  0.00000000000E+00  0.45593999997E+02  0.45594000000E+02  0.51100000000E-03 0.  1.
         11   -1    0    0    0    0 -0.00000000000E+00 -0.00000000000E+00 -0.45593999997E+02  0.45594000000E+02  0.51100000000E-03 0. -1.
    9900012    2    1    2    0    0  0.10949417948E+02 -0.26582374129E+01 -0.14957385109E+02  0.72461565506E+02  0.69999993763E+02 0.  0.
        -12    1    1    2    0    0 -0.10949417948E+02  0.26582374129E+01  0.14957385109E+02  0.18726434494E+02  0.00000000000E+00 0.  1.
         11    1    3    3    0    0 -0.12580353680E+01  0.13608133878E+02 -0.13261041775E+02  0.19042562587E+02  0.51100000000E-03 0. -1.
        -11    1    3    3    0    0 -0.18900198315E+02 -0.71399280936E+01 -0.50551481223E+01  0.20826679820E+02  0.51100000000E-03 0.  1.
        -12    1    3    3    0    0  0.31107651631E+02 -0.91264431978E+01  0.33588047886E+01  0.32592323100E+02  0.00000000000E+00 0.  1.
</event>
<event>
 7    1  0.2577508E-013  0.7246157E+02  0.7816164E-02  0.1226708E+00
        -11   -1    0    0    0    0  0.00000000000E+00  0.00000000000E+00  0.45593999997E+02  0.45594000000E+02  0.51100000000E-03 0.  1.
         11   -1    0    0    0    0 -0.00000000000E+00 -0.00000000000E+00 -0.45593999997E+02  0.45594000000E+02  0.51100000000E-03 0. -1.
    9900012    2    1    2    0    0  0.29723893666E+01 -0.17111501642E+02  0.70029039123E+01  0.72461568141E+02  0.69999997194E+02 0.  0.
        -12    1    1    2    0    0 -0.29723893666E+01  0.17111501642E+02 -0.70029039123E+01  0.18726431859E+02  0.00000000000E+00 0.  1.
         11    1    3    3    0    0 -0.87818475075E+00 -0.68301589937E+01  0.72929306990E+01  0.10030409701E+02  0.51100000000E-03 0. -1.
        -11    1    3    3    0    0  0.30453087793E+02 -0.17117266296E+02  0.79207526905E+00  0.34943078643E+02  0.51100000000E-03 0.  1.
         12    1    3    3    0    0 -0.26602513676E+02  0.68359236480E+01 -0.10821020558E+01  0.27488079796E+02  0.00000000000E+00 0. -1.
</event>
<event>
 7    1  0.2577508E-013  0.7246157E+02  0.7816164E-02  0.1226708E+00
        -11   -1    0    0    0    0  0.00000000000E+00  0.00000000000E+00  0.45593999997E+02  0.45594000000E+02  0.51100000000E-03 0. -1.
         11   -1    0    0    0    0 -0.00000000000E+00 -0.00000000000E+00 -0.45593999997E+02  0.45594000000E+02  0.51100000000E-03 0.  1.
    9900012    2    1    2    0    0  0.12979191018E+02 -0.10528232113E+02  0.84484419741E+01  0.72461568341E+02  0.69999997455E+02 0.  0.
        -12    1    1    2    0    0 -0.12979191018E+02  0.10528232113E+02 -0.84484419741E+01  0.18726431659E+02  0.00000000000E+00 0.  1.
         11    1    3    3    0    0  0.81297809887E+01 -0.15556827603E+02 -0.46523890205E+01  0.18159100965E+02  0.51100000000E-03 0. -1.
        -11    1    3    3    0    0 -0.16012882726E+02 -0.43665145907E+00 -0.12867277665E+02  0.20546773773E+02  0.51100000000E-03 0.  1.
         12    1    3    3    0    0  0.20862292755E+02  0.54652469494E+01  0.25968108660E+02  0.33755693603E+02  0.00000000000E+00 0. -1.
</event>
<event>
 7    1  0.2577508E-013  0.7246165E+02  0.7816164E-02  0.1226708E+00
        -11   -1    0    0    0    0  0.00000000000E+00  0.00000000000E+00  0.45593999997E+02  0.45594000000E+02  0.51100000000E-03 0. -1.
         11   -1    0    0    0    0 -0.00000000000E+00 -0.00000000000E+00 -0.45593999997E+02  0.45594000000E+02  0.51100000000E-03 0.  1.
    9900012    2    1    2    0    0  0.17588894799E+02  0.33200196756E+01  0.55031174991E+01  0.72461653504E+02  0.70000108396E+02 0.  0.
        -12    1    1    2    0    0 -0.17588894799E+02 -0.33200196756E+01 -0.55031174991E+01  0.18726346496E+02  0.00000000000E+00 0.  1.
         11    1    3    3    0    0 -0.37328451228E+00  0.12333410703E+02 -0.46274908373E+01  0.13178240877E+02  0.51100000000E-03 0. -1.
        -11    1    3    3    0    0  0.30685944860E+02 -0.74914752578E+01 -0.11934974051E+02  0.33766744281E+02  0.51100000000E-03 0.  1.
         12    1    3    3    0    0 -0.12723765549E+02 -0.15219157695E+01  0.22065582388E+02  0.25516668346E+02  0.00000000000E+00 0. -1.
</event>
<event>
 7    1  0.2577508E-013  0.7246156E+02  0.7816164E-02  0.1226708E+00
        -11   -1    0    0    0    0  0.00000000000E+00  0.00000000000E+00  0.45593999997E+02  0.45594000000E+02  0.51100000000E-03 0.  1.
         11   -1    0    0    0    0 -0.00000000000E+00 -0.00000000000E+00 -0.45593999997E+02  0.45594000000E+02  0.51100000000E-03 0. -1.
    9900012    2    1    2    0    0  0.14210244280E+02  0.16317257938E+01 -0.12086598685E+02  0.72461563090E+02  0.69999990615E+02 0.  0.
        -12    1    1    2    0    0 -0.14210244280E+02 -0.16317257938E+01  0.12086598685E+02  0.18726436910E+02  0.00000000000E+00 0.  1.
         11    1    3    3    0    0 -0.30016203921E+01  0.11509905298E+02 -0.18318150408E+02  0.21841297570E+02  0.51100000000E-03 0. -1.
        -11    1    3    3    0    0  0.46270220216E+00  0.99357259280E+01 -0.14379997704E+02  0.17484767007E+02  0.51100000000E-03 0.  1.
        -12    1    3    3    0    0  0.16749162470E+02 -0.19813905432E+02  0.20611549427E+02  0.33135498513E+02  0.00000000000E+00 0.  1.
</event>
<event>
 7    1  0.2577508E-013  0.7246158E+02  0.7816164E-02  0.1226708E+00
        -11   -1    0    0    0    0  0.00000000000E+00  0.00000000000E+00  0.45593999997E+02  0.45594000000E+02  0.51100000000E-03 0. -1.
         11   -1    0    0    0    0 -0.00000000000E+00 -0.00000000000E+00 -0.45593999997E+02  0.45594000000E+02  0.51100000000E-03 0.  1.
    9900012    2    1    2    0    0  0.76264654071E+01  0.16375473035E+01  0.17024515820E+02  0.72461583507E+02  0.70000017212E+02 0.  0.
        -12    1    1    2    0    0 -0.76264654071E+01 -0.16375473035E+01 -0.17024515820E+02  0.18726416493E+02  0.00000000000E+00 0.  1.
         11    1    3    3    0    0  0.93309043342E+00  0.10200349814E+02  0.79717264926E+01  0.12979453672E+02  0.51100000000E-03 0. -1.
        -11    1    3    3    0    0  0.54382579083E+01  0.23178860575E+02 -0.56632291988E+01  0.24472564063E+02  0.51100000000E-03 0.  1.
        -12    1    3    3    0    0  0.12551170654E+01 -0.31741663085E+02  0.14716018526E+02  0.35009565772E+02  0.00000000000E+00 0.  1.
</event>
<event>
 7    1  0.2577508E-013  0.7246148E+02  0.7816164E-02  0.1226708E+00
        -11   -1    0    0    0    0  0.00000000000E+00  0.00000000000E+00  0.45593999997E+02  0.45594000000E+02  0.51100000000E-03 0. -1.
         11   -1    0    0    0    0 -0.00000000000E+00 -0.00000000000E+00 -0.45593999997E+02  0.45594000000E+02  0.51100000000E-03 0.  1.
    9900012    2    1    2    0    0  0.16803401565E+02 -0.78362666358E+01 -0.26308453228E+01  0.72461475335E+02  0.69999876297E+02 0.  0.
        -12    1    1    2    0    0 -0.16803401565E+02  0.78362666358E+01  0.26308453228E+01  0.18726524665E+02  0.00000000000E+00 0.  1.
         11    1    3    3    0    0  0.17906905057E+01 -0.41136190386E+00  0.14240955324E+02  0.14358990212E+02  0.51100000000E-03 0. -1.
        -11    1    3    3    0    0  0.10946317230E+02  0.19260734941E+02 -0.21318095986E+02  0.30745064451E+02  0.51100000000E-03 0.  1.
        -12    1    3    3    0    0  0.40663938293E+01 -0.26685639673E+02  0.44462953391E+01  0.27357420671E+02  0.00000000000E+00 0.  1.
</event>
<event>
 7    1  0.2577508E-013  0.7246155E+02  0.7816164E-02  0.1226708E+00
        -11   -1    0    0    0    0  0.00000000000E+00  0.00000000000E+00  0.45593999997E+02  0.45594000000E+02  0.51100000000E-03 0. -1.
         11   -1    0    0    0    0 -0.00000000000E+00 -0.00000000000E+00 -0.45593999997E+02  0.45594000000E+02  0.51100000000E-03 0.  1.
    9900012    2    1    2    0    0 -0.17043026853E+02  0.70787300894E+01 -0.31790904153E+01  0.72461553464E+02  0.69999978075E+02 0.  0.
        -12    1    1    2    0    0  0.17043026853E+02 -0.70787300894E+01  0.31790904153E+01  0.18726446536E+02  0.00000000000E+00 0.  1.
         11    1    3    3    0    0  0.37905557512E+01  0.52127193502E+01 -0.79172953908E+01  0.10209031418E+02  0.51100000000E-03 0. -1.
        -11    1    3    3    0    0 -0.34768616106E+02 -0.14449229514E+02 -0.62168736063E+01  0.38161320957E+02  0.51100000000E-03 0.  1.
         12    1    3    3    0    0  0.13935033501E+02  0.16315240253E+02  0.10955078582E+02  0.24091201089E+02  0.00000000000E+00 0. -1.
</event>
<event>
 7    1  0.2577508E-013  0.7246104E+02  0.7816164E-02  0.1226709E+00
        -11   -1    0    0    0    0  0.00000000000E+00  0.00000000000E+00  0.45593999997E+02  0.45594000000E+02  0.51100000000E-03 0. -1.
         11   -1    0    0    0    0 -0.00000000000E+00 -0.00000000000E+00 -0.45593999997E+02  0.45594000000E+02  0.51100000000E-03 0.  1.
    9900012    2    1    2    0    0 -0.85663823604E+01 -0.80861953973E+01  0.14557804629E+02  0.72461037129E+02  0.69999305450E+02 0.  0.
        -12    1    1    2    0    0  0.85663823604E+01  0.80861953973E+01 -0.14557804629E+02  0.18726962871E+02  0.00000000000E+00 0.  1.
         11    1    3    3    0    0  0.20774618093E+00 -0.92434019919E+01 -0.69365210869E+01  0.11558501802E+02  0.51100000000E-03 0. -1.
        -11    1    3    3    0    0  0.20204396867E+02 -0.11975527004E+02  0.19594106461E+01  0.23568415096E+02  0.51100000000E-03 0.  1.
         12    1    3    3    0    0 -0.28978525409E+02  0.13132733599E+02  0.19534915070E+02  0.37334120231E+02  0.00000000000E+00 0. -1.
</event>
<event>
 7    1  0.2577508E-013  0.7246163E+02  0.7816164E-02  0.1226708E+00
        -11   -1    0    0    0    0  0.00000000000E+00  0.00000000000E+00  0.45593999997E+02  0.45594000000E+02  0.51100000000E-03 0.  1.
         11   -1    0    0    0    0 -0.00000000000E+00 -0.00000000000E+00 -0.45593999997E+02  0.45594000000E+02  0.51100000000E-03 0. -1.
    9900012    2    1    2    0    0  0.42273364826E+01  0.11685612312E+02 -0.14009037734E+02  0.72461626964E+02  0.70000073823E+02 0.  0.
        -12    1    1    2    0    0 -0.42273364826E+01 -0.11685612312E+02  0.14009037734E+02  0.18726373036E+02  0.00000000000E+00 0.  1.
         11    1    3    3    0    0  0.27128602498E+01  0.14689275578E+02  0.94257796461E+01  0.17662948506E+02  0.51100000000E-03 0. -1.
        -11    1    3    3    0    0 -0.39763575063E+01  0.29663757290E+01  0.14853805776E+02  0.15660343236E+02  0.51100000000E-03 0.  1.
         12    1    3    3    0    0  0.54908337391E+01 -0.59700389946E+01 -0.38288623156E+02  0.39138335222E+02  0.00000000000E+00 0. -1.
</event>
<event>
 7    1  0.2577508E-013  0.7246154E+02  0.7816164E-02  0.1226708E+00
        -11   -1    0    0    0    0  0.00000000000E+00  0.00000000000E+00  0.45593999997E+02  0.45594000000E+02  0.51100000000E-03 0. -1.
         11   -1    0    0    0    0 -0.00000000000E+00 -0.00000000000E+00 -0.45593999997E+02  0.45594000000E+02  0.51100000000E-03 0.  1.
    9900012    2    1    2    0    0  0.11188836794E+02 -0.11601216758E+02  0.95342537397E+01  0.72461540285E+02  0.69999960908E+02 0.  0.
        -12    1    1    2    0    0 -0.11188836794E+02  0.11601216758E+02 -0.95342537397E+01  0.18726459715E+02  0.00000000000E+00 0.  1.
         11    1    3    3    0    0  0.86169319950E+01 -0.75723611589E+01  0.14372201096E+02  0.18388918814E+02  0.51100000000E-03 0. -1.
        -11    1    3    3    0    0  0.27920657464E+00 -0.26319833795E+02 -0.14059345630E+02  0.29840858015E+02  0.51100000000E-03 0.  1.
         12    1    3    3    0    0  0.22926982246E+01  0.22290978196E+02  0.92213982734E+01  0.24231763456E+02  0.00000000000E+00 0. -1.
</event>
<event>
 7    1  0.2577508E-013  0.7246161E+02  0.7816164E-02  0.1226708E+00
        -11   -1    0    0    0    0  0.00000000000E+00  0.00000000000E+00  0.45593999997E+02  0.45594000000E+02  0.51100000000E-03 0.  1.
         11   -1    0    0    0    0 -0.00000000000E+00 -0.00000000000E+00 -0.45593999997E+02  0.45594000000E+02  0.51100000000E-03 0. -1.
    9900012    2    1    2    0    0 -0.32067136460E+01 -0.18597401767E+01 -0.18355814170E+02  0.72461613275E+02  0.70000055990E+02 0.  0.
        -12    1    1    2    0    0  0.32067136460E+01  0.18597401767E+01  0.18355814170E+02  0.18726386725E+02  0.00000000000E+00 0.  1.
         11    1    3    3    0    0 -0.96150618678E+01 -0.21902926426E+01  0.12457264328E+01  0.99397500566E+01  0.51100000000E-03 0. -1.
        -11    1    3    3    0    0 -0.17254468818E+02 -0.19977619366E+02 -0.14414967769E+01  0.26436714678E+02  0.51100000000E-03 0.  1.
         12    1    3    3    0    0  0.23662817040E+02  0.20308171832E+02 -0.18160043826E+02  0.36085148540E+02  0.00000000000E+00 0. -1.
</event>
<event>
 7    1  0.2577508E-013  0.7246158E+02  0.7816164E-02  0.1226708E+00
        -11   -1    0    0    0    0  0.00000000000E+00  0.00000000000E+00  0.45593999997E+02  0.45594000000E+02  0.51100000000E-03 0.  1.
         11   -1    0    0    0    0 -0.00000000000E+00 -0.00000000000E+00 -0.45593999997E+02  0.45594000000E+02  0.51100000000E-03 0. -1.
    9900012    2    1    2    0    0  0.96070328257E+01 -0.78887866536E+01 -0.14005381314E+02  0.72461581754E+02  0.70000014928E+02 0.  0.
        -12    1    1    2    0    0 -0.96070328257E+01  0.78887866536E+01  0.14005381314E+02  0.18726418246E+02  0.00000000000E+00 0.  1.
         11    1    3    3    0    0  0.75996250107E+01 -0.32904811223E+02  0.68356465250E+01  0.34455869828E+02  0.51100000000E-03 0. -1.
        -11    1    3    3    0    0  0.32377801737E+01 -0.24645647829E+01 -0.13308099169E+01  0.42811628465E+01  0.51100000000E-03 0.  1.
        -12    1    3    3    0    0 -0.12303723587E+01  0.27480589352E+02 -0.19510217922E+02  0.33724549080E+02  0.00000000000E+00 0.  1.
</event>
<event>
 7    1  0.2577508E-013  0.7246137E+02  0.7816164E-02  0.1226709E+00
        -11   -1    0    0    0    0  0.00000000000E+00  0.00000000000E+00  0.45593999997E+02  0.45594000000E+02  0.51100000000E-03 0. -1.
         11   -1    0    0    0    0 -0.00000000000E+00 -0.00000000000E+00 -0.45593999997E+02  0.45594000000E+02  0.51100000000E-03 0.  1.
    9900012    2    1    2    0    0 -0.11730904327E+02  0.13584173298E+02  0.53425587884E+01  0.72461366161E+02  0.69999734078E+02 0.  0.
        -12    1    1    2    0    0  0.11730904327E+02 -0.13584173298E+02 -0.53425587884E+01  0.18726633839E+02  0.00000000000E+00 0.  1.
         11    1    3    3    0    0 -0.56168976843E+01 -0.50337603459E+01  0.11908902845E+02  0.14096462324E+02  0.51100000000E-03 0. -1.
        -11    1    3    3    0    0 -0.89147330050E+01 -0.11114082316E+02 -0.20856409070E+02  0.25258366729E+02  0.51100000000E-03 0.  1.
         12    1    3    3    0    0  0.28007263621E+01  0.29732015960E+02  0.14290065013E+02  0.33106537108E+02  0.00000000000E+00 0. -1.
</event>
<event>
 7    1  0.2577508E-013  0.7246159E+02  0.7816164E-02  0.1226708E+00
        -11   -1    0    0    0    0  0.00000000000E+00  0.00000000000E+00  0.45593999997E+02  0.45594000000E+02  0.51100000000E-03 0.  1.
         11   -1    0    0    0    0 -0.00000000000E+00 -0.00000000000E+00 -0.45593999997E+02  0.45594000000E+02  0.51100000000E-03 0. -1.
    9900012    2    1    2    0    0  0.30444292892E+00  0.61698561482E+01 -0.17678200428E+02  0.72461586015E+02  0.70000020478E+02 0.  0.
        -12    1    1    2    0    0 -0.30444292892E+00 -0.61698561482E+01  0.17678200428E+02  0.18726413985E+02  0.00000000000E+00 0.  1.
         11    1    3    3    0    0  0.59493216734E+01  0.54615146207E+01 -0.32207532622E+02  0.33204634137E+02  0.51100000000E-03 0. -1.
        -11    1    3    3    0    0 -0.18110314426E+02  0.85072614822E+01  0.23166970176E+01  0.20142593475E+02  0.51100000000E-03 0.  1.
        -12    1    3    3    0    0  0.12465435682E+02 -0.77989199547E+01  0.12212635176E+02  0.19114358403E+02  0.00000000000E+00 0.  1.
</event>
<event>
 7    1  0.2577508E-013  0.7246159E+02  0.7816164E-02  0.1226708E+00
        -11   -1    0    0    0    0  0.00000000000E+00  0.00000000000E+00  0.45593999997E+02  0.45594000000E+02  0.51100000000E-03 0.  1.
         11   -1    0    0    0    0 -0.00000000000E+00 -0.00000000000E+00 -0.45593999997E+02  0.45594000000E+02  0.51100000000E-03 0. -1.
    9900012    2    1    2    0    0 -0.10129338652E+01 -0.67081364928E+01 -0.17454317113E+02  0.72461593081E+02  0.70000029684E+02 0.  0.
        -12    1    1    2    0    0  0.10129338652E+01  0.67081364928E+01  0.17454317113E+02  0.18726406919E+02  0.00000000000E+00 0.  1.
         11    1    3    3    0    0 -0.78723146110E+01 -0.17340316985E+02 -0.16929374915E+02  0.25480652773E+02  0.51100000000E-03 0. -1.
        -11    1    3    3    0    0 -0.79962389457E+01  0.25608461212E+01 -0.19701356660E+02  0.21415910549E+02  0.51100000000E-03 0.  1.
        -12    1    3    3    0    0  0.14855619691E+02  0.80713343711E+01  0.19176414462E+02  0.25565029759E+02  0.00000000000E+00 0.  1.
</event>
<event>
 7    1  0.2577508E-013  0.7246156E+02  0.7816164E-02  0.1226708E+00
        -11   -1    0    0    0    0  0.00000000000E+00  0.00000000000E+00  0.45593999997E+02  0.45594000000E+02  0.51100000000E-03 0.  1.
         11   -1    0    0    0    0 -0.00000000000E+00 -0.00000000000E+00 -0.45593999997E+02  0.45594000000E+02  0.51100000000E-03 0. -1.
    9900012    2    1    2    0    0 -0.93431126036E+01 -0.16217966079E+02  0.60293953402E+00  0.72461555785E+02  0.69999981099E+02 0.  0.
        -12    1    1    2    0    0  0.93431126036E+01  0.16217966079E+02 -0.60293953402E+00  0.18726444215E+02  0.00000000000E+00 0.  1.
         11    1    3    3    0    0  0.99953731364E+00 -0.17625182721E+02  0.19178130326E+02  0.26066200794E+02  0.51100000000E-03 0. -1.
        -11    1    3    3    0    0 -0.11093760152E+02  0.18260841659E+01  0.11631118830E+02  0.16176805098E+02  0.51100000000E-03 0.  1.
         12    1    3    3    0    0  0.75111023425E+00 -0.41886752415E+00 -0.30206309622E+02  0.30218549892E+02  0.00000000000E+00 0. -1.
</event>
<event>
 7    1  0.2577508E-013  0.7246141E+02  0.7816164E-02  0.1226708E+00
        -11   -1    0    0    0    0  0.00000000000E+00  0.00000000000E+00  0.45593999997E+02  0.45594000000E+02  0.51100000000E-03 0. -1.
         11   -1    0    0    0    0 -0.00000000000E+00 -0.00000000000E+00 -0.45593999997E+02  0.45594000000E+02  0.51100000000E-03 0.  1.
    9900012    2    1    2    0    0  0.15133921345E+02 -0.10030840268E+02 -0.45860501676E+01  0.72461409603E+02  0.69999790669E+02 0.  0.
        -12    1    1    2    0    0 -0.15133921345E+02  0.10030840268E+02  0.45860501676E+01  0.18726590397E+02  0.00000000000E+00 0.  1.
         11    1    3    3    0    0  0.10085067459E+02 -0.35524625396E+01  0.18206143974E+02  0.21113792990E+02  0.51100000000E-03 0. -1.
        -11    1    3    3    0    0  0.22938160792E+02  0.34139420897E+00 -0.19141298897E+01  0.23020418415E+02  0.51100000000E-03 0.  1.
        -12    1    3    3    0    0 -0.17889306905E+02 -0.68197719373E+01 -0.20878064252E+02  0.28327198198E+02  0.00000000000E+00 0.  1.
</event>
<event>
 7    1  0.2577508E-013  0.7246159E+02  0.7816164E-02  0.1226708E+00
        -11   -1    0    0    0    0  0.00000000000E+00  0.00000000000E+00  0.45593999997E+02  0.45594000000E+02  0.51100000000E-03 0. -1.
         11   -1    0    0    0    0 -0.00000000000E+00 -0.00000000000E+00 -0.45593999997E+02  0.45594000000E+02  0.51100000000E-03 0.  1.
    9900012    2    1    2    0    0  0.58953582215E+01 -0.16250888219E+02  0.71994330145E+01  0.72461589447E+02  0.70000024950E+02 0.  0.
        -12    1    1    2    0    0 -0.58953582215E+01  0.16250888219E+02 -0.71994330145E+01  0.18726410553E+02  0.00000000000E+00 0.  1.
         11    1    3    3    0    0  0.11579361118E+01 -0.12932182914E+01 -0.60610760007E+01  0.63047499662E+01  0.51100000000E-03 0. -1.
        -11    1    3    3    0    0  0.12076684636E+02 -0.40371893772E+01 -0.23710972183E+02  0.26913851675E+02  0.51100000000E-03 0.  1.
         12    1    3    3    0    0 -0.73392625259E+01 -0.10920480551E+02  0.36971481199E+02  0.39242987805E+02  0.00000000000E+00 0. -1.
</event>
<event>
 7    1  0.2577508E-013  0.7246158E+02  0.7816164E-02  0.1226708E+00
        -11   -1    0    0    0    0  0.00000000000E+00  0.00000000000E+00  0.45593999997E+02  0.45594000000E+02  0.51100000000E-03 0. -1.
         11   -1    0    0    0    0 -0.00000000000E+00 -0.00000000000E+00 -0.45593999997E+02  0.45594000000E+02  0.51100000000E-03 0.  1.
    9900012    2    1    2    0    0 -0.16835006772E+02 -0.20529909630E+01  0.79401836961E+01  0.72461581708E+02  0.70000014869E+02 0.  0.
        -12    1    1    2    0    0  0.16835006772E+02  0.20529909630E+01 -0.79401836961E+01  0.18726418292E+02  0.00000000000E+00 0.  1.
         11    1    3    3    0    0  0.29142904247E+01  0.54814693138E+00  0.18139341372E+02  0.18380132193E+02  0.51100000000E-03 0. -1.
        -11    1    3    3    0    0 -0.23772618900E+02  0.18749134191E+02 -0.11327434302E+02  0.32326122725E+02  0.51100000000E-03 0.  1.
         12    1    3    3    0    0  0.40233217036E+01 -0.21350272085E+02  0.11282766261E+01  0.21755326791E+02  0.00000000000E+00 0. -1.
</event>
<event>
 7    1  0.2577508E-013  0.7246153E+02  0.7816164E-02  0.1226708E+00
        -11   -1    0    0    0    0  0.00000000000E+00  0.00000000000E+00  0.45593999997E+02  0.45594000000E+02  0.51100000000E-03 0.  1.
         11   -1    0    0    0    0 -0.00000000000E+00 -0.00000000000E+00 -0.45593999997E+02  0.45594000000E+02  0.51100000000E-03 0. -1.
    9900012    2    1    2    0    0 -0.67771352142E+01 -0.86498917612E+01 -0.15163463779E+02  0.72461526147E+02  0.69999942489E+02 0.  0.
        -12    1    1    2    0    0  0.67771352142E+01  0.86498917612E+01  0.15163463779E+02  0.18726473853E+02  0.00000000000E+00 0.  1.
         11    1    3    3    0    0  0.17902035817E+02 -0.71478295323E+01 -0.22791048118E+02  0.29849727436E+02  0.51100000000E-03 0. -1.
        -11    1    3    3    0    0  0.39723396294E+01 -0.98897407073E+01  0.70004708814E+01  0.12751197834E+02  0.51100000000E-03 0.  1.
        -12    1    3    3    0    0 -0.28651510661E+02  0.83876784785E+01  0.62711345771E+00  0.29860600876E+02  0.00000000000E+00 0.  1.
</event>
<event>
 7    1  0.2577508E-013  0.7246157E+02  0.7816164E-02  0.1226708E+00
        -11   -1    0    0    0    0  0.00000000000E+00  0.00000000000E+00  0.45593999997E+02  0.45594000000E+02  0.51100000000E-03 0.  1.
         11   -1    0    0    0    0 -0.00000000000E+00 -0.00000000000E+00 -0.45593999997E+02  0.45594000000E+02  0.51100000000E-03 0. -1.
    9900012    2    1    2    0    0 -0.15358425972E+02  0.40998630010E+01 -0.98989381586E+01  0.72461572107E+02  0.70000002362E+02 0.  0.
        -12    1    1    2    0    0  0.15358425972E+02 -0.40998630010E+01  0.98989381586E+01  0.18726427893E+02  0.00000000000E+00 0.  1.
         11    1    3    3    0    0 -0.23936152164E+02  0.11829267022E+02  0.56607199792E+01  0.27293125319E+02  0.51100000000E-03 0. -1.
        -11    1    3    3    0    0  0.28487412018E-01  0.13357440557E+02  0.52321742871E+01  0.14345650135E+02  0.51100000000E-03 0.  1.
        -12    1    3    3    0    0  0.85492387805E+01 -0.21086844578E+02 -0.20791832425E+02  0.30822796654E+02  0.00000000000E+00 0.  1.
</event>
<event>
 7    1  0.2577508E-013  0.7246140E+02  0.7816164E-02  0.1226708E+00
        -11   -1    0    0    0    0  0.00000000000E+00  0.00000000000E+00  0.45593999997E+02  0.45594000000E+02  0.51100000000E-03 0.  1.
         11   -1    0    0    0    0 -0.00000000000E+00 -0.00000000000E+00 -0.45593999997E+02  0.45594000000E+02  0.51100000000E-03 0. -1.
    9900012    2    1    2    0    0 -0.99194794537E+01 -0.31335232982E+00 -0.15880529743E+02  0.72461401610E+02  0.69999780257E+02 0.  0.
        -12    1    1    2    0    0  0.99194794537E+01  0.31335232982E+00  0.15880529743E+02  0.18726598390E+02  0.00000000000E+00 0.  1.
         11    1    3    3    0    0 -0.24675165825E+01 -0.69019385528E+00  0.57101967866E+01  0.62587022014E+01  0.51100000000E-03 0.  1.
        -11    1    3    3    0    0 -0.74735541198E+01 -0.15948202727E+02  0.16890008834E+02  0.24402286370E+02  0.51100000000E-03 0. -1.
         12    1    3    3    0    0  0.21591248670E-01  0.16325044253E+02 -0.38480735364E+02  0.41800413039E+02  0.00000000000E+00 0. -1.
</event>
<event>
 7    1  0.2577508E-013  0.7246160E+02  0.7816164E-02  0.1226708E+00
        -11   -1    0    0    0    0  0.00000000000E+00  0.00000000000E+00  0.45593999997E+02  0.45594000000E+02  0.51100000000E-03 0.  1.
         11   -1    0    0    0    0 -0.00000000000E+00 -0.00000000000E+00 -0.45593999997E+02  0.45594000000E+02  0.51100000000E-03 0. -1.
    9900012    2    1    2    0    0 -0.17964879177E+02  0.48974997523E+01 -0.19888454254E+01  0.72461604357E+02  0.70000044373E+02 0.  0.
        -12    1    1    2    0    0  0.17964879177E+02 -0.48974997523E+01  0.19888454254E+01  0.18726395643E+02  0.00000000000E+00 0.  1.
         11    1    3    3    0    0  0.14282867902E+02  0.65520322001E+01 -0.12785054381E+02  0.20258012174E+02  0.51100000000E-03 0. -1.
        -11    1    3    3    0    0 -0.15099696332E+02 -0.17626217800E+02  0.16011033223E+02  0.28196410559E+02  0.51100000000E-03 0.  1.
         12    1    3    3    0    0 -0.17148050747E+02  0.15971685352E+02 -0.52148242676E+01  0.24007181624E+02  0.00000000000E+00 0. -1.
</event>
<event>
 7    1  0.2577508E-013  0.7246159E+02  0.7816164E-02  0.1226708E+00
        -11   -1    0    0    0    0  0.00000000000E+00  0.00000000000E+00  0.45593999997E+02  0.45594000000E+02  0.51100000000E-03 0.  1.
         11   -1    0    0    0    0 -0.00000000000E+00 -0.00000000000E+00 -0.45593999997E+02  0.45594000000E+02  0.51100000000E-03 0. -1.
    9900012    2    1    2    0    0  0.47130024102E+01  0.12484487872E+02 -0.13137867311E+02  0.72461591198E+02  0.70000027231E+02 0.  0.
        -12    1    1    2    0    0 -0.47130024102E+01 -0.12484487872E+02  0.13137867311E+02  0.18726408802E+02  0.00000000000E+00 0.  1.
         11    1    3    3    0    0  0.18591310984E+02  0.65474590088E+00 -0.62453850311E+01  0.19623210001E+02  0.51100000000E-03 0. -1.
        -11    1    3    3    0    0  0.17389269885E+02  0.45951651109E+01 -0.10026568278E+02  0.20592093658E+02  0.51100000000E-03 0.  1.
        -12    1    3    3    0    0 -0.31267578458E+02  0.72345768599E+01  0.31340859983E+01  0.32246287539E+02  0.00000000000E+00 0.  1.
</event>
<event>
 7    1  0.2577508E-013  0.7246142E+02  0.7816164E-02  0.1226708E+00
        -11   -1    0    0    0    0  0.00000000000E+00  0.00000000000E+00  0.45593999997E+02  0.45594000000E+02  0.51100000000E-03 0.  1.
         11   -1    0    0    0    0 -0.00000000000E+00 -0.00000000000E+00 -0.45593999997E+02  0.45594000000E+02  0.51100000000E-03 0. -1.
    9900012    2    1    2    0    0 -0.65591157666E+01 -0.88375739574E+00 -0.17518044364E+02  0.72461417154E+02  0.69999800506E+02 0.  0.
        -12    1    1    2    0    0  0.65591157666E+01  0.88375739574E+00  0.17518044364E+02  0.18726582846E+02  0.00000000000E+00 0.  1.
         11    1    3    3    0    0  0.87650459058E+01 -0.19068118319E+02  0.84985566319E+00  0.21003366894E+02  0.51100000000E-03 0. -1.
        -11    1    3    3    0    0  0.83163546987E+01  0.22415624573E+02 -0.71776816963E+01  0.24962794220E+02  0.51100000000E-03 0.  1.
        -12    1    3    3    0    0 -0.23640516371E+02 -0.42312636491E+01 -0.11190218330E+02  0.26495256040E+02  0.00000000000E+00 0.  1.
</event>
<event>
 7    1  0.2577508E-013  0.7246159E+02  0.7816164E-02  0.1226708E+00
        -11   -1    0    0    0    0  0.00000000000E+00  0.00000000000E+00  0.45593999997E+02  0.45594000000E+02  0.51100000000E-03 0.  1.
         11   -1    0    0    0    0 -0.00000000000E+00 -0.00000000000E+00 -0.45593999997E+02  0.45594000000E+02  0.51100000000E-03 0. -1.
    9900012    2    1    2    0    0 -0.26038564900E+00  0.44636214936E+01 -0.18184796396E+02  0.72461587170E+02  0.70000021983E+02 0.  0.
        -12    1    1    2    0    0  0.26038564900E+00 -0.44636214936E+01  0.18184796396E+02  0.18726412830E+02  0.00000000000E+00 0.  1.
         11    1    3    3    0    0 -0.19881198689E+02  0.91138499098E+01 -0.23611700583E+02  0.32184417443E+02  0.51100000000E-03 0. -1.
        -11    1    3    3    0    0 -0.50271675179E+01 -0.78432910355E+00 -0.98044151832E+01  0.11046001210E+02  0.51100000000E-03 0.  1.
        -12    1    3    3    0    0  0.24647980558E+02 -0.38658993127E+01  0.15231319370E+02  0.29231168516E+02  0.00000000000E+00 0.  1.
</event>
<event>
 7    1  0.2587604E-013  0.7246150E+02  0.7816164E-02  0.1226708E+00
        -11   -1    0    0    0    0  0.00000000000E+00  0.00000000000E+00  0.45593999997E+02  0.45594000000E+02  0.51100000000E-03 0. -1.
         11   -1    0    0    0    0 -0.00000000000E+00 -0.00000000000E+00 -0.45593999997E+02  0.45594000000E+02  0.51100000000E-03 0.  1.
    9900012    2    1    2    0    0  0.98629134186E+01  0.99437891691E+00  0.15887606206E+02  0.72461497884E+02  0.69999905672E+02 0.  0.
        -12    1    1    2    0    0 -0.98629134186E+01 -0.99437891691E+00 -0.15887606206E+02  0.18726502116E+02  0.00000000000E+00 0.  1.
         11    1    3    3    0    0  0.69681809222E+01 -0.46730823536E+01  0.59634755674E+01  0.10293506941E+02  0.51100000000E-03 0. -1.
        -11    1    3    3    0    0  0.15388662830E+02 -0.24309267702E+02  0.66337248881E+01  0.29525543959E+02  0.51100000000E-03 0.  1.
         12    1    3    3    0    0 -0.12493930333E+02  0.29976728973E+02  0.32904057507E+01  0.32642446984E+02  0.00000000000E+00 0. -1.
</event>
<event>
 7    1  0.2577508E-013  0.7246155E+02  0.7816164E-02  0.1226708E+00
        -11   -1    0    0    0    0  0.00000000000E+00  0.00000000000E+00  0.45593999997E+02  0.45594000000E+02  0.51100000000E-03 0. -1.
         11   -1    0    0    0    0 -0.00000000000E+00 -0.00000000000E+00 -0.45593999997E+02  0.45594000000E+02  0.51100000000E-03 0.  1.
    9900012    2    1    2    0    0 -0.50292934553E+01  0.15650008695E+02  0.89701389903E+01  0.72461549233E+02  0.69999972564E+02 0.  0.
        -12    1    1    2    0    0  0.50292934553E+01 -0.15650008695E+02 -0.89701389903E+01  0.18726450767E+02  0.00000000000E+00 0.  1.
         11    1    3    3    0    0 -0.22776700125E+02  0.17309267213E+02  0.42654727632E+01  0.28923745577E+02  0.51100000000E-03 0. -1.
        -11    1    3    3    0    0 -0.38801908980E+01 -0.13878313713E+02 -0.70658063762E+01  0.16049582329E+02  0.51100000000E-03 0.  1.
        -12    1    3    3    0    0  0.21627597568E+02  0.12219055196E+02  0.11770472603E+02  0.27488221327E+02  0.00000000000E+00 0.  1.
</event>
<event>
 7    1  0.2577508E-013  0.7246152E+02  0.7816164E-02  0.1226708E+00
        -11   -1    0    0    0    0  0.00000000000E+00  0.00000000000E+00  0.45593999997E+02  0.45594000000E+02  0.51100000000E-03 0.  1.
         11   -1    0    0    0    0 -0.00000000000E+00 -0.00000000000E+00 -0.45593999997E+02  0.45594000000E+02  0.51100000000E-03 0. -1.
    9900012    2    1    2    0    0  0.16765773404E+02 -0.58522854124E+01  0.59448128005E+01  0.72461516037E+02  0.69999929320E+02 0.  0.
        -12    1    1    2    0    0 -0.16765773404E+02  0.58522854124E+01 -0.59448128005E+01  0.18726483963E+02  0.00000000000E+00 0.  1.
         11    1    3    3    0    0  0.28821893722E+02  0.34243654897E+01  0.20156511378E+02  0.35337130443E+02  0.51100000000E-03 0. -1.
        -11    1    3    3    0    0 -0.78983293006E+01  0.61893936931E+01  0.57241852709E+01  0.11552423871E+02  0.51100000000E-03 0.  1.
         12    1    3    3    0    0 -0.41577910176E+01 -0.15466044595E+02 -0.19935883848E+02  0.25571961723E+02  0.00000000000E+00 0. -1.
</event>
<event>
 7    1  0.2577508E-013  0.7246146E+02  0.7816164E-02  0.1226708E+00
        -11   -1    0    0    0    0  0.00000000000E+00  0.00000000000E+00  0.45593999997E+02  0.45594000000E+02  0.51100000000E-03 0. -1.
         11   -1    0    0    0    0 -0.00000000000E+00 -0.00000000000E+00 -0.45593999997E+02  0.45594000000E+02  0.51100000000E-03 0.  1.
    9900012    2    1    2    0    0 -0.55504433787E+01  0.52581533947E+01  0.17094666894E+02  0.72461461744E+02  0.69999858593E+02 0.  0.
        -12    1    1    2    0    0  0.55504433787E+01 -0.52581533947E+01 -0.17094666894E+02  0.18726538256E+02  0.00000000000E+00 0.  1.
         11    1    3    3    0    0 -0.13452517606E+02 -0.10349972245E+02 -0.90282300052E+01  0.19225012164E+02  0.51100000000E-03 0. -1.
        -11    1    3    3    0    0 -0.17081853279E+02  0.35233013288E+01  0.43870908730E+01  0.17984713795E+02  0.51100000000E-03 0.  1.
         12    1    3    3    0    0  0.24983927506E+02  0.12084824311E+02  0.21735806026E+02  0.35251735785E+02  0.00000000000E+00 0. -1.
</event>
<event>
 7    1  0.2577508E-013  0.7246158E+02  0.7816164E-02  0.1226708E+00
        -11   -1    0    0    0    0  0.00000000000E+00  0.00000000000E+00  0.45593999997E+02  0.45594000000E+02  0.51100000000E-03 0.  1.
         11   -1    0    0    0    0 -0.00000000000E+00 -0.00000000000E+00 -0.45593999997E+02  0.45594000000E+02  0.51100000000E-03 0. -1.
    9900012    2    1    2    0    0  0.11898929882E+02 -0.13643639016E+02 -0.47901411930E+01  0.72461578276E+02  0.70000010398E+02 0.  0.
        -12    1    1    2    0    0 -0.11898929882E+02  0.13643639016E+02  0.47901411930E+01  0.18726421724E+02  0.00000000000E+00 0.  1.
         11    1    3    3    0    0  0.10571438968E+02 -0.11977270897E+02 -0.50645456776E+01  0.16758877145E+02  0.51100000000E-03 0. -1.
        -11    1    3    3    0    0 -0.19254001122E+01 -0.26681154468E+02  0.10152283219E+02  0.28612235568E+02  0.51100000000E-03 0.  1.
        -12    1    3    3    0    0  0.32528910263E+01  0.25014786350E+02 -0.98778787341E+01  0.27090465563E+02  0.00000000000E+00 0.  1.
</event>
<event>
 7    1  0.2577508E-013  0.7246155E+02  0.7816164E-02  0.1226708E+00
        -11   -1    0    0    0    0  0.00000000000E+00  0.00000000000E+00  0.45593999997E+02  0.45594000000E+02  0.51100000000E-03 0. -1.
         11   -1    0    0    0    0 -0.00000000000E+00 -0.00000000000E+00 -0.45593999997E+02  0.45594000000E+02  0.51100000000E-03 0.  1.
    9900012    2    1    2    0    0 -0.77385583516E+01 -0.15344768809E+02  0.74386059948E+01  0.72461546136E+02  0.69999968530E+02 0.  0.
        -12    1    1    2    0    0  0.77385583516E+01  0.15344768809E+02 -0.74386059948E+01  0.18726453864E+02  0.00000000000E+00 0.  1.
         11    1    3    3    0    0 -0.56643568900E+01 -0.10258787862E+02 -0.10734288794E+02  0.15891904340E+02  0.51100000000E-03 0. -1.
        -11    1    3    3    0    0  0.18879714196E+02 -0.39296272826E+01 -0.97746550995E+01  0.21620117050E+02  0.51100000000E-03 0.  1.
         12    1    3    3    0    0 -0.20953915658E+02 -0.11563536637E+01  0.27947549889E+02  0.34949524746E+02  0.00000000000E+00 0. -1.
</event>
<event>
 7    1  0.2577508E-013  0.7246158E+02  0.7816164E-02  0.1226708E+00
        -11   -1    0    0    0    0  0.00000000000E+00  0.00000000000E+00  0.45593999997E+02  0.45594000000E+02  0.51100000000E-03 0.  1.
         11   -1    0    0    0    0 -0.00000000000E+00 -0.00000000000E+00 -0.45593999997E+02  0.45594000000E+02  0.51100000000E-03 0. -1.
    9900012    2    1    2    0    0  0.14600330273E+02  0.10898300597E+02 -0.43285361731E+01  0.72461579483E+02  0.70000011970E+02 0.  0.
        -12    1    1    2    0    0 -0.14600330273E+02 -0.10898300597E+02  0.43285361731E+01  0.18726420517E+02  0.00000000000E+00 0.  1.
         11    1    3    3    0    0  0.23626999546E+02 -0.14250078523E+01 -0.15664106702E+02  0.28383621931E+02  0.51100000000E-03 0. -1.
        -11    1    3    3    0    0  0.73867691181E+01 -0.11482693559E+02  0.29175540435E+01  0.13961687979E+02  0.51100000000E-03 0.  1.
        -12    1    3    3    0    0 -0.16413438391E+02  0.23806002008E+02  0.84180164854E+01  0.30116269572E+02  0.00000000000E+00 0.  1.
</event>
<event>
 7    1  0.2577508E-013  0.7246160E+02  0.7816164E-02  0.1226708E+00
        -11   -1    0    0    0    0  0.00000000000E+00  0.00000000000E+00  0.45593999997E+02  0.45594000000E+02  0.51100000000E-03 0.  1.
         11   -1    0    0    0    0 -0.00000000000E+00 -0.00000000000E+00 -0.45593999997E+02  0.45594000000E+02  0.51100000000E-03 0. -1.
    9900012    2    1    2    0    0 -0.12774001885E+02  0.45252266093E+01  0.12923830389E+02  0.72461596396E+02  0.70000034002E+02 0.  0.
        -12    1    1    2    0    0  0.12774001885E+02 -0.45252266093E+01 -0.12923830389E+02  0.18726403604E+02  0.00000000000E+00 0.  1.
         11    1    3    3    0    0  0.59376896715E+01  0.16543437319E+00 -0.17239433412E+02  0.18234077761E+02  0.51100000000E-03 0. -1.
        -11    1    3    3    0    0 -0.80908041052E+01  0.19630591471E+02  0.28517522109E+02  0.35553766328E+02  0.51100000000E-03 0.  1.
         12    1    3    3    0    0 -0.10620887451E+02 -0.15270799235E+02  0.16457416918E+01  0.18673752308E+02  0.00000000000E+00 0. -1.
</event>
<event>
 7    1  0.2577508E-013  0.7246158E+02  0.7816164E-02  0.1226708E+00
        -11   -1    0    0    0    0  0.00000000000E+00  0.00000000000E+00  0.45593999997E+02  0.45594000000E+02  0.51100000000E-03 0.  1.
         11   -1    0    0    0    0 -0.00000000000E+00 -0.00000000000E+00 -0.45593999997E+02  0.45594000000E+02  0.51100000000E-03 0. -1.
    9900012    2    1    2    0    0  0.10093454166E+02  0.96636845115E+01 -0.12466519722E+02  0.72461582048E+02  0.70000015311E+02 0.  0.
        -12    1    1    2    0    0 -0.10093454166E+02 -0.96636845115E+01  0.12466519722E+02  0.18726417952E+02  0.00000000000E+00 0.  1.
         11    1    3    3    0    0  0.25336363577E+02  0.84870922769E+01 -0.66716439609E+00  0.26728396196E+02  0.51100000000E-03 0. -1.
        -11    1    3    3    0    0  0.45611670979E+01  0.17560679608E+02 -0.76816568418E+01  0.19702526886E+02  0.51100000000E-03 0.  1.
        -12    1    3    3    0    0 -0.19804076508E+02 -0.16384087373E+02 -0.41176984841E+01  0.26030658966E+02  0.00000000000E+00 0.  1.
</event>
<event>
 7    1  0.2577508E-013  0.7246155E+02  0.7816164E-02  0.1226708E+00
        -11   -1    0    0    0    0  0.00000000000E+00  0.00000000000E+00  0.45593999997E+02  0.45594000000E+02  0.51100000000E-03 0. -1.
         11   -1    0    0    0    0 -0.00000000000E+00 -0.00000000000E+00 -0.45593999997E+02  0.45594000000E+02  0.51100000000E-03 0.  1.
    9900012    2    1    2    0    0 -0.14557476955E+02  0.41353337776E+01  0.11029911445E+02  0.72461546325E+02  0.69999968776E+02 0.  0.
        -12    1    1    2    0    0  0.14557476955E+02 -0.41353337776E+01 -0.11029911445E+02  0.18726453675E+02  0.00000000000E+00 0.  1.
         11    1    3    3    0    0 -0.15406452125E+02  0.50674709837E+01  0.23523232283E+01  0.16388149807E+02  0.51100000000E-03 0. -1.
        -11    1    3    3    0    0  0.18160719131E+01 -0.57369951199E+01 -0.23125117549E+02  0.23895235762E+02  0.51100000000E-03 0.  1.
         12    1    3    3    0    0 -0.96709674272E+00  0.48048579139E+01  0.31802705766E+02  0.32178160757E+02  0.00000000000E+00 0. -1.
</event>
<event>
 7    1  0.2577508E-013  0.7246174E+02  0.7816164E-02  0.1226708E+00
        -11   -1    0    0    0    0  0.00000000000E+00  0.00000000000E+00  0.45593999997E+02  0.45594000000E+02  0.51100000000E-03 0.  1.
         11   -1    0    0    0    0 -0.00000000000E+00 -0.00000000000E+00 -0.45593999997E+02  0.45594000000E+02  0.51100000000E-03 0. -1.
    9900012    2    1    2    0    0  0.10372273421E+02 -0.79920218854E+01 -0.13387166075E+02  0.72461743426E+02  0.70000225536E+02 0.  0.
        -12    1    1    2    0    0 -0.10372273421E+02  0.79920218854E+01  0.13387166075E+02  0.18726256574E+02  0.00000000000E+00 0.  1.
         11    1    3    3    0    0  0.25568708133E+02  0.74677008909E+01 -0.11608986900E+02  0.29056737072E+02  0.51100000000E-03 0. -1.
        -11    1    3    3    0    0 -0.12442240493E+02  0.10920145402E+02  0.17548625688E+01  0.16647476295E+02  0.51100000000E-03 0.  1.
        -12    1    3    3    0    0 -0.27541942188E+01 -0.26379868178E+02 -0.35330417439E+01  0.26757530059E+02  0.00000000000E+00 0.  1.
</event>
<event>
 7    1  0.2577508E-013  0.7246158E+02  0.7816164E-02  0.1226708E+00
        -11   -1    0    0    0    0  0.00000000000E+00  0.00000000000E+00  0.45593999997E+02  0.45594000000E+02  0.51100000000E-03 0.  1.
         11   -1    0    0    0    0 -0.00000000000E+00 -0.00000000000E+00 -0.45593999997E+02  0.45594000000E+02  0.51100000000E-03 0. -1.
    9900012    2    1    2    0    0  0.17516603353E+01  0.61973946635E+01 -0.17584166958E+02  0.72461576365E+02  0.70000007908E+02 0.  0.
        -12    1    1    2    0    0 -0.17516603353E+01 -0.61973946635E+01  0.17584166958E+02  0.18726423635E+02  0.00000000000E+00 0.  1.
         11    1    3    3    0    0  0.14063085178E+02 -0.20847397259E+02 -0.22676835755E+02  0.33861825369E+02  0.51100000000E-03 0. -1.
        -11    1    3    3    0    0 -0.55686116768E+00  0.82492671575E+01 -0.90860202240E+01  0.12284798198E+02  0.51100000000E-03 0.  1.
        -12    1    3    3    0    0 -0.11754563675E+02  0.18795524765E+02  0.14178689021E+02  0.26314952798E+02  0.00000000000E+00 0.  1.
</event>
<event>
 7    1  0.2577508E-013  0.7246159E+02  0.7816164E-02  0.1226708E+00
        -11   -1    0    0    0    0  0.00000000000E+00  0.00000000000E+00  0.45593999997E+02  0.45594000000E+02  0.51100000000E-03 0.  1.
         11   -1    0    0    0    0 -0.00000000000E+00 -0.00000000000E+00 -0.45593999997E+02  0.45594000000E+02  0.51100000000E-03 0. -1.
    9900012    2    1    2    0    0 -0.14842925317E+02  0.10038368419E+02 -0.54403435019E+01  0.72461585236E+02  0.70000019465E+02 0.  0.
        -12    1    1    2    0    0  0.14842925317E+02 -0.10038368419E+02  0.54403435019E+01  0.18726414764E+02  0.00000000000E+00 0.  1.
         11    1    3    3    0    0 -0.19790732210E+02 -0.83443937144E+01 -0.12949332514E+02  0.25079617236E+02  0.51100000000E-03 0. -1.
        -11    1    3    3    0    0 -0.13797721947E+02  0.71078821493E+01  0.17450173776E+02  0.23353965074E+02  0.51100000000E-03 0.  1.
         12    1    3    3    0    0  0.18745528840E+02  0.11274879984E+02 -0.99411847646E+01  0.24028002927E+02  0.00000000000E+00 0. -1.
</event>
<event>
 7    1  0.2577508E-013  0.7246082E+02  0.7816164E-02  0.1226710E+00
        -11   -1    0    0    0    0  0.00000000000E+00  0.00000000000E+00  0.45593999997E+02  0.45594000000E+02  0.51100000000E-03 0.  1.
         11   -1    0    0    0    0 -0.00000000000E+00 -0.00000000000E+00 -0.45593999997E+02  0.45594000000E+02  0.51100000000E-03 0. -1.
    9900012    2    1    2    0    0 -0.11601207704E+02 -0.92840117426E+01 -0.11398522407E+02  0.72460821694E+02  0.69999024803E+02 0.  0.
        -12    1    1    2    0    0  0.11601207704E+02  0.92840117426E+01  0.11398522407E+02  0.18727178306E+02  0.00000000000E+00 0.  1.
         11    1    3    3    0    0 -0.20331737069E+02  0.72796861942E+00 -0.22068092892E+02  0.30015166078E+02  0.51100000000E-03 0. -1.
        -11    1    3    3    0    0 -0.41296706679E+01  0.42989116936E+01 -0.11584018226E+02  0.13027827912E+02  0.51100000000E-03 0.  1.
        -12    1    3    3    0    0  0.12860200033E+02 -0.14310892056E+02  0.22253588711E+02  0.29417827704E+02  0.00000000000E+00 0.  1.
</event>
<event>
 7    1  0.2577508E-013  0.7246155E+02  0.7816164E-02  0.1226708E+00
        -11   -1    0    0    0    0  0.00000000000E+00  0.00000000000E+00  0.45593999997E+02  0.45594000000E+02  0.51100000000E-03 0.  1.
         11   -1    0    0    0    0 -0.00000000000E+00 -0.00000000000E+00 -0.45593999997E+02  0.45594000000E+02  0.51100000000E-03 0. -1.
    9900012    2    1    2    0    0  0.64210149971E+01 -0.11475439392E+01 -0.17553740476E+02  0.72461545573E+02  0.69999967796E+02 0.  0.
        -12    1    1    2    0    0 -0.64210149971E+01  0.11475439392E+01  0.17553740476E+02  0.18726454427E+02  0.00000000000E+00 0.  1.
         11    1    3    3    0    0  0.19463624844E+01 -0.88652658526E+01 -0.13543681408E+02  0.16303759441E+02  0.51100000000E-03 0. -1.
        -11    1    3    3    0    0  0.14080397124E+02 -0.16451602444E+02 -0.16578483865E+02  0.27271944076E+02  0.51100000000E-03 0.  1.
        -12    1    3    3    0    0 -0.96057446115E+01  0.24169324358E+02  0.12568424797E+02  0.28885842057E+02  0.00000000000E+00 0.  1.
</event>
<event>
 7    1  0.2577508E-013  0.7246155E+02  0.7816164E-02  0.1226708E+00
        -11   -1    0    0    0    0  0.00000000000E+00  0.00000000000E+00  0.45593999997E+02  0.45594000000E+02  0.51100000000E-03 0. -1.
         11   -1    0    0    0    0 -0.00000000000E+00 -0.00000000000E+00 -0.45593999997E+02  0.45594000000E+02  0.51100000000E-03 0.  1.
    9900012    2    1    2    0    0  0.68892904317E+00  0.12195797695E+02  0.14193934183E+02  0.72461551532E+02  0.69999975559E+02 0.  0.
        -12    1    1    2    0    0 -0.68892904317E+00 -0.12195797695E+02 -0.14193934183E+02  0.18726448468E+02  0.00000000000E+00 0.  1.
         11    1    3    3    0    0  0.24170711026E+02 -0.80101934576E+01 -0.81379827063E+01  0.26732250813E+02  0.51100000000E-03 0. -1.
        -11    1    3    3    0    0  0.29677209751E+01  0.46186305279E+01  0.12235835717E+02  0.13410995179E+02  0.51100000000E-03 0.  1.
        -12    1    3    3    0    0 -0.26449502958E+02  0.15587360624E+02  0.10096081172E+02  0.32318305540E+02  0.00000000000E+00 0.  1.
</event>
<event>
 7    1  0.2577508E-013  0.7246163E+02  0.7816164E-02  0.1226708E+00
        -11   -1    0    0    0    0  0.00000000000E+00  0.00000000000E+00  0.45593999997E+02  0.45594000000E+02  0.51100000000E-03 0.  1.
         11   -1    0    0    0    0 -0.00000000000E+00 -0.00000000000E+00 -0.45593999997E+02  0.45594000000E+02  0.51100000000E-03 0. -1.
    9900012    2    1    2    0    0  0.65308982922E+01 -0.15473869573E+02 -0.82815149231E+01  0.72461634589E+02  0.70000083756E+02 0.  0.
        -12    1    1    2    0    0 -0.65308982922E+01  0.15473869573E+02  0.82815149231E+01  0.18726365411E+02  0.00000000000E+00 0.  1.
         11    1    3    3    0    0 -0.35039106789E+01 -0.45749808957E+01  0.13598104980E+01  0.59208888770E+01  0.51100000000E-03 0. -1.
        -11    1    3    3    0    0 -0.17833362842E+02 -0.15656032925E+02  0.15798542346E+02  0.28508492379E+02  0.51100000000E-03 0.  1.
         12    1    3    3    0    0  0.27868171813E+02  0.47571442480E+01 -0.25439867767E+02  0.38032253333E+02  0.00000000000E+00 0. -1.
</event>
<event>
 7    1  0.2577508E-013  0.7246157E+02  0.7816164E-02  0.1226708E+00
        -11   -1    0    0    0    0  0.00000000000E+00  0.00000000000E+00  0.45593999997E+02  0.45594000000E+02  0.51100000000E-03 0.  1.
         11   -1    0    0    0    0 -0.00000000000E+00 -0.00000000000E+00 -0.45593999997E+02  0.45594000000E+02  0.51100000000E-03 0. -1.
    9900012    2    1    2    0    0  0.97673689724E+01  0.29570210829E+01 -0.15701389214E+02  0.72461572322E+02  0.70000002641E+02 0.  0.
        -12    1    1    2    0    0 -0.97673689724E+01 -0.29570210829E+01  0.15701389214E+02  0.18726427678E+02  0.00000000000E+00 0.  1.
         11    1    3    3    0    0  0.40179517885E+00 -0.65138750039E+01  0.17349199320E+01  0.67529219131E+01  0.51100000000E-03 0. -1.
        -11    1    3    3    0    0  0.32436429000E+02  0.14497181367E+02 -0.21818564099E+02  0.41693403956E+02  0.51100000000E-03 0.  1.
         12    1    3    3    0    0 -0.23070855207E+02 -0.50262852796E+01  0.43822549528E+01  0.24015246452E+02  0.00000000000E+00 0. -1.
</event>
<event>
 7    1  0.2577508E-013  0.7246156E+02  0.7816164E-02  0.1226708E+00
        -11   -1    0    0    0    0  0.00000000000E+00  0.00000000000E+00  0.45593999997E+02  0.45594000000E+02  0.51100000000E-03 0.  1.
         11   -1    0    0    0    0 -0.00000000000E+00 -0.00000000000E+00 -0.45593999997E+02  0.45594000000E+02  0.51100000000E-03 0. -1.
    9900012    2    1    2    0    0 -0.15123079092E+02  0.10648889761E+02 -0.29280023709E+01  0.72461559541E+02  0.69999985992E+02 0.  0.
        -12    1    1    2    0    0  0.15123079092E+02 -0.10648889761E+02  0.29280023709E+01  0.18726440459E+02  0.00000000000E+00 0.  1.
         11    1    3    3    0    0 -0.52806281897E+01  0.68546226405E+01  0.93957161843E+01  0.12773032862E+02  0.51100000000E-03 0. -1.
        -11    1    3    3    0    0 -0.48967343435E+01  0.39728880999E+01  0.23087516345E+02  0.23933141422E+02  0.51100000000E-03 0.  1.
         12    1    3    3    0    0 -0.49457165587E+01 -0.17862097929E+00 -0.35411234900E+02  0.35755385257E+02  0.00000000000E+00 0. -1.
</event>
<event>
 7    1  0.2577508E-013  0.7246153E+02  0.7816164E-02  0.1226708E+00
        -11   -1    0    0    0    0  0.00000000000E+00  0.00000000000E+00  0.45593999997E+02  0.45594000000E+02  0.51100000000E-03 0. -1.
         11   -1    0    0    0    0 -0.00000000000E+00 -0.00000000000E+00 -0.45593999997E+02  0.45594000000E+02  0.51100000000E-03 0.  1.
    9900012    2    1    2    0    0 -0.35898558204E+00 -0.13092077882E+02  0.13384673203E+02  0.72461525407E+02  0.69999941526E+02 0.  0.
        -12    1    1    2    0    0  0.35898558204E+00  0.13092077882E+02 -0.13384673203E+02  0.18726474593E+02  0.00000000000E+00 0.  1.
         11    1    3    3    0    0  0.30048787849E+00  0.27616140689E+01 -0.14483405224E+00  0.27816869691E+01  0.51100000000E-03 0. -1.
        -11    1    3    3    0    0  0.21217464555E+02 -0.16888457924E+02 -0.17074868245E+02  0.32046090854E+02  0.51100000000E-03 0.  1.
         12    1    3    3    0    0 -0.21876938015E+02  0.10347659726E+01  0.30604375500E+02  0.37633747585E+02  0.00000000000E+00 0. -1.
</event>
<event>
 7    1  0.2577508E-013  0.7246167E+02  0.7816164E-02  0.1226708E+00
        -11   -1    0    0    0    0  0.00000000000E+00  0.00000000000E+00  0.45593999997E+02  0.45594000000E+02  0.51100000000E-03 0.  1.
         11   -1    0    0    0    0 -0.00000000000E+00 -0.00000000000E+00 -0.45593999997E+02  0.45594000000E+02  0.51100000000E-03 0. -1.
    9900012    2    1    2    0    0  0.14554594917E+02 -0.44333422223E+00  0.11774660720E+02  0.72461670581E+02  0.70000130642E+02 0.  0.
        -12    1    1    2    0    0 -0.14554594917E+02  0.44333422223E+00 -0.11774660720E+02  0.18726329419E+02  0.00000000000E+00 0.  1.
         11    1    3    3    0    0  0.48260183780E+01 -0.23138518078E+00 -0.13911286080E+02  0.14726434502E+02  0.51100000000E-03 0. -1.
        -11    1    3    3    0    0  0.16131878678E+02 -0.76006898786E+01 -0.10198210354E+02  0.20542918269E+02  0.51100000000E-03 0.  1.
        -12    1    3    3    0    0 -0.64033021382E+01  0.73887408371E+01  0.35884157154E+02  0.37192317810E+02  0.00000000000E+00 0.  1.
</event>
<event>
 7    1  0.2577508E-013  0.7246161E+02  0.7816164E-02  0.1226708E+00
        -11   -1    0    0    0    0  0.00000000000E+00  0.00000000000E+00  0.45593999997E+02  0.45594000000E+02  0.51100000000E-03 0.  1.
         11   -1    0    0    0    0 -0.00000000000E+00 -0.00000000000E+00 -0.45593999997E+02  0.45594000000E+02  0.51100000000E-03 0. -1.
    9900012    2    1    2    0    0 -0.15178520576E+01  0.50517080849E+01 -0.17968139290E+02  0.72461610626E+02  0.70000052540E+02 0.  0.
        -12    1    1    2    0    0  0.15178520576E+01 -0.50517080849E+01  0.17968139290E+02  0.18726389374E+02  0.00000000000E+00 0.  1.
         11    1    3    3    0    0 -0.60579526445E+01  0.10430753868E+01 -0.13775657610E+02  0.15084944128E+02  0.51100000000E-03 0. -1.
        -11    1    3    3    0    0 -0.11439877177E+02 -0.22632393172E+02 -0.66401664969E+01  0.26214267525E+02  0.51100000000E-03 0.  1.
         12    1    3    3    0    0  0.15979977764E+02  0.26641025870E+02  0.24476848169E+01  0.31162398972E+02  0.00000000000E+00 0. -1.
</event>
<event>
 7    1  0.2577508E-013  0.7246168E+02  0.7816164E-02  0.1226708E+00
        -11   -1    0    0    0    0  0.00000000000E+00  0.00000000000E+00  0.45593999997E+02  0.45594000000E+02  0.51100000000E-03 0.  1.
         11   -1    0    0    0    0 -0.00000000000E+00 -0.00000000000E+00 -0.45593999997E+02  0.45594000000E+02  0.51100000000E-03 0. -1.
    9900012    2    1    2    0    0 -0.82366862152E+01 -0.14324672976E+02  0.88111232283E+01  0.72461677664E+02  0.70000139869E+02 0.  0.
        -12    1    1    2    0    0  0.82366862152E+01  0.14324672976E+02 -0.88111232283E+01  0.18726322336E+02  0.00000000000E+00 0.  1.
         11    1    3    3    0    0 -0.20404471557E+02 -0.14308910788E+02 -0.14530376547E+01  0.24963948128E+02  0.51100000000E-03 0.  1.
        -11    1    3    3    0    0  0.26356262416E+02  0.10391793944E+02  0.31042086284E+01  0.28500492300E+02  0.51100000000E-03 0. -1.
         12    1    3    3    0    0 -0.14188477074E+02 -0.10407556132E+02  0.71599522546E+01  0.18997237237E+02  0.00000000000E+00 0. -1.
</event>
<event>
 7    1  0.2577508E-013  0.7246164E+02  0.7816164E-02  0.1226708E+00
        -11   -1    0    0    0    0  0.00000000000E+00  0.00000000000E+00  0.45593999997E+02  0.45594000000E+02  0.51100000000E-03 0.  1.
         11   -1    0    0    0    0 -0.00000000000E+00 -0.00000000000E+00 -0.45593999997E+02  0.45594000000E+02  0.51100000000E-03 0. -1.
    9900012    2    1    2    0    0 -0.94934559850E+01  0.12615001745E+02 -0.10070382063E+02  0.72461639690E+02  0.70000090401E+02 0.  0.
        -12    1    1    2    0    0  0.94934559850E+01 -0.12615001745E+02  0.10070382063E+02  0.18726360310E+02  0.00000000000E+00 0.  1.
         11    1    3    3    0    0  0.48158686339E+00  0.67545371792E+01 -0.23196302677E+02  0.24164522684E+02  0.51100000000E-03 0. -1.
        -11    1    3    3    0    0  0.61578169446E+00 -0.11124521461E+02 -0.11866471156E+02  0.16277201934E+02  0.51100000000E-03 0.  1.
        -12    1    3    3    0    0 -0.10590824543E+02  0.16984986027E+02  0.24992391770E+02  0.32019915072E+02  0.00000000000E+00 0.  1.
</event>
<event>
 7    1  0.2577508E-013  0.7246158E+02  0.7816164E-02  0.1226708E+00
        -11   -1    0    0    0    0  0.00000000000E+00  0.00000000000E+00  0.45593999997E+02  0.45594000000E+02  0.51100000000E-03 0.  1.
         11   -1    0    0    0    0 -0.00000000000E+00 -0.00000000000E+00 -0.45593999997E+02  0.45594000000E+02  0.51100000000E-03 0. -1.
    9900012    2    1    2    0    0 -0.12513136915E+02  0.13631879476E+02  0.28761323715E+01  0.72461578267E+02  0.70000010386E+02 0.  0.
        -12    1    1    2    0    0  0.12513136915E+02 -0.13631879476E+02 -0.28761323715E+01  0.18726421733E+02  0.00000000000E+00 0.  1.
         11    1    3    3    0    0 -0.21650700652E+02  0.15458812637E+02 -0.96636663352E+01  0.28303960398E+02  0.51100000000E-03 0. -1.
        -11    1    3    3    0    0 -0.27769590432E+01  0.18223482009E+02  0.91813523722E+01  0.20593786191E+02  0.51100000000E-03 0.  1.
        -12    1    3    3    0    0  0.11914522780E+02 -0.20050415170E+02  0.33584463345E+01  0.23563831678E+02  0.00000000000E+00 0.  1.
</event>
<event>
 7    1  0.2577508E-013  0.7246160E+02  0.7816164E-02  0.1226708E+00
        -11   -1    0    0    0    0  0.00000000000E+00  0.00000000000E+00  0.45593999997E+02  0.45594000000E+02  0.51100000000E-03 0.  1.
         11   -1    0    0    0    0 -0.00000000000E+00 -0.00000000000E+00 -0.45593999997E+02  0.45594000000E+02  0.51100000000E-03 0. -1.
    9900012    2    1    2    0    0  0.17804026302E+02 -0.12124478265E+01 -0.56766848651E+01  0.72461597961E+02  0.70000036041E+02 0.  0.
        -12    1    1    2    0    0 -0.17804026302E+02  0.12124478265E+01  0.56766848651E+01  0.18726402039E+02  0.00000000000E+00 0.  1.
         11    1    3    3    0    0  0.65108611807E+00  0.21575555715E+02  0.83336438231E+01  0.23138239716E+02  0.51100000000E-03 0.  1.
        -11    1    3    3    0    0 -0.12055581883E+02 -0.81243148111E+01 -0.30707822545E+01  0.14858373047E+02  0.51100000000E-03 0. -1.
         12    1    3    3    0    0  0.29208522067E+02 -0.14663688730E+02 -0.10939546434E+02  0.34464985197E+02  0.00000000000E+00 0. -1.
</event>
<event>
 7    1  0.2577508E-013  0.7246162E+02  0.7816164E-02  0.1226708E+00
        -11   -1    0    0    0    0  0.00000000000E+00  0.00000000000E+00  0.45593999997E+02  0.45594000000E+02  0.51100000000E-03 0.  1.
         11   -1    0    0    0    0 -0.00000000000E+00 -0.00000000000E+00 -0.45593999997E+02  0.45594000000E+02  0.51100000000E-03 0. -1.
    9900012    2    1    2    0    0  0.45611584429E+01 -0.12985614390E+02 -0.12698298243E+02  0.72461624865E+02  0.70000071089E+02 0.  0.
        -12    1    1    2    0    0 -0.45611584429E+01  0.12985614390E+02  0.12698298243E+02  0.18726375135E+02  0.00000000000E+00 0.  1.
         11    1    3    3    0    0  0.29260029357E+01  0.19146706681E+02 -0.28301962058E+02  0.34295173516E+02  0.51100000000E-03 0. -1.
        -11    1    3    3    0    0 -0.37005763531E+01 -0.93878599958E+01  0.32752384559E-01  0.10090949094E+02  0.51100000000E-03 0.  1.
        -12    1    3    3    0    0  0.53357318602E+01 -0.22744461075E+02  0.15570911431E+02  0.28075502255E+02  0.00000000000E+00 0.  1.
</event>
<event>
 7    1  0.2577508E-013  0.7246168E+02  0.7816164E-02  0.1226708E+00
        -11   -1    0    0    0    0  0.00000000000E+00  0.00000000000E+00  0.45593999997E+02  0.45594000000E+02  0.51100000000E-03 0.  1.
         11   -1    0    0    0    0 -0.00000000000E+00 -0.00000000000E+00 -0.45593999997E+02  0.45594000000E+02  0.51100000000E-03 0. -1.
    9900012    2    1    2    0    0  0.91259863681E+01 -0.14307214909E+01 -0.16289401510E+02  0.72461676476E+02  0.70000138321E+02 0.  0.
        -12    1    1    2    0    0 -0.91259863681E+01  0.14307214909E+01  0.16289401510E+02  0.18726323524E+02  0.00000000000E+00 0.  1.
         11    1    3    3    0    0 -0.59210156589E+01  0.43535002477E+01 -0.18808291411E+00  0.73516505822E+01  0.51100000000E-03 0. -1.
        -11    1    3    3    0    0 -0.88048615935E+01 -0.14392022365E+01  0.19841351007E+02  0.21754909809E+02  0.51100000000E-03 0.  1.
         12    1    3    3    0    0  0.23851863620E+02 -0.43450195021E+01 -0.35942669602E+02  0.43355116085E+02  0.00000000000E+00 0. -1.
</event>
<event>
 7    1  0.2577508E-013  0.7246158E+02  0.7816164E-02  0.1226708E+00
        -11   -1    0    0    0    0  0.00000000000E+00  0.00000000000E+00  0.45593999997E+02  0.45594000000E+02  0.51100000000E-03 0. -1.
         11   -1    0    0    0    0 -0.00000000000E+00 -0.00000000000E+00 -0.45593999997E+02  0.45594000000E+02  0.51100000000E-03 0.  1.
    9900012    2    1    2    0    0 -0.16950926578E+02 -0.72578390033E+01 -0.32662705728E+01  0.72461583837E+02  0.70000017641E+02 0.  0.
        -12    1    1    2    0    0  0.16950926578E+02  0.72578390033E+01  0.32662705728E+01  0.18726416163E+02  0.00000000000E+00 0.  1.
         11    1    3    3    0    0  0.89767008067E+01  0.13639804065E+02 -0.16874895278E+02  0.23481641834E+02  0.51100000000E-03 0.  1.
        -11    1    3    3    0    0 -0.15169353871E+00 -0.13397558375E+02  0.17300795001E+02  0.21882300822E+02  0.51100000000E-03 0. -1.
         12    1    3    3    0    0 -0.25775933846E+02 -0.75000846938E+01 -0.36921702956E+01  0.27097641181E+02  0.00000000000E+00 0. -1.
</event>
<event>
 7    1  0.2577508E-013  0.7246154E+02  0.7816164E-02  0.1226708E+00
        -11   -1    0    0    0    0  0.00000000000E+00  0.00000000000E+00  0.45593999997E+02  0.45594000000E+02  0.51100000000E-03 0.  1.
         11   -1    0    0    0    0 -0.00000000000E+00 -0.00000000000E+00 -0.45593999997E+02  0.45594000000E+02  0.51100000000E-03 0. -1.
    9900012    2    1    2    0    0  0.18491225901E+02 -0.29585278770E+01 -0.43072275444E-01  0.72461543375E+02  0.69999964932E+02 0.  0.
        -12    1    1    2    0    0 -0.18491225901E+02  0.29585278770E+01  0.43072275444E-01  0.18726456625E+02  0.00000000000E+00 0.  1.
         11    1    3    3    0    0  0.83485157740E+01  0.55851981221E+01 -0.15822893788E+02  0.18741828133E+02  0.51100000000E-03 0. -1.
        -11    1    3    3    0    0 -0.88405303484E+01 -0.21643533992E+02 -0.35234010466E+01  0.23643432401E+02  0.51100000000E-03 0.  1.
         12    1    3    3    0    0  0.18983240475E+02  0.13099807993E+02  0.19303222559E+02  0.30076282841E+02  0.00000000000E+00 0. -1.
</event>
<event>
 7    1  0.2577508E-013  0.7246156E+02  0.7816164E-02  0.1226708E+00
        -11   -1    0    0    0    0  0.00000000000E+00  0.00000000000E+00  0.45593999997E+02  0.45594000000E+02  0.51100000000E-03 0. -1.
         11   -1    0    0    0    0 -0.00000000000E+00 -0.00000000000E+00 -0.45593999997E+02  0.45594000000E+02  0.51100000000E-03 0.  1.
    9900012    2    1    2    0    0 -0.41753173384E+01  0.18247743030E+02 -0.51585376366E+00  0.72461561319E+02  0.69999988308E+02 0.  0.
        -12    1    1    2    0    0  0.41753173384E+01 -0.18247743030E+02  0.51585376366E+00  0.18726438681E+02  0.00000000000E+00 0.  1.
         11    1    3    3    0    0  0.17498281850E+02  0.31655248804E+01  0.14010310538E+02  0.22638445554E+02  0.51100000000E-03 0. -1.
        -11    1    3    3    0    0 -0.56971082067E+01 -0.10614632220E+02 -0.15399798087E+02  0.19552013719E+02  0.51100000000E-03 0.  1.
         12    1    3    3    0    0 -0.15976490982E+02  0.25696850370E+02  0.87363378519E+00  0.30271102045E+02  0.00000000000E+00 0. -1.
</event>
<event>
 7    1  0.2577508E-013  0.7246162E+02  0.7816164E-02  0.1226708E+00
        -11   -1    0    0    0    0  0.00000000000E+00  0.00000000000E+00  0.45593999997E+02  0.45594000000E+02  0.51100000000E-03 0.  1.
         11   -1    0    0    0    0 -0.00000000000E+00 -0.00000000000E+00 -0.45593999997E+02  0.45594000000E+02  0.51100000000E-03 0. -1.
    9900012    2    1    2    0    0 -0.10729693279E+02  0.13677920511E+02 -0.69617247842E+01  0.72461616491E+02  0.70000060180E+02 0.  0.
        -12    1    1    2    0    0  0.10729693279E+02 -0.13677920511E+02  0.69617247842E+01  0.18726383509E+02  0.00000000000E+00 0.  1.
         11    1    3    3    0    0 -0.17232993766E+02  0.34140621061E+01 -0.19891537229E+02  0.26538748045E+02  0.51100000000E-03 0. -1.
        -11    1    3    3    0    0 -0.10755997168E+02  0.17944656174E+02  0.16564814378E+02  0.26685112627E+02  0.51100000000E-03 0.  1.
        -12    1    3    3    0    0  0.17259297655E+02 -0.76807977694E+01 -0.36350019332E+01  0.19237755820E+02  0.00000000000E+00 0.  1.
</event>
<event>
 7    1  0.2577508E-013  0.7246153E+02  0.7816164E-02  0.1226708E+00
        -11   -1    0    0    0    0  0.00000000000E+00  0.00000000000E+00  0.45593999997E+02  0.45594000000E+02  0.51100000000E-03 0. -1.
         11   -1    0    0    0    0 -0.00000000000E+00 -0.00000000000E+00 -0.45593999997E+02  0.45594000000E+02  0.51100000000E-03 0.  1.
    9900012    2    1    2    0    0  0.70034770015E+01 -0.17276828247E+02  0.17729340594E+01  0.72461527306E+02  0.69999944000E+02 0.  0.
        -12    1    1    2    0    0 -0.70034770015E+01  0.17276828247E+02 -0.17729340594E+01  0.18726472694E+02  0.00000000000E+00 0.  1.
         11    1    3    3    0    0  0.50693517959E+01  0.61112462501E+01  0.60516526377E+01  0.99833941257E+01  0.51100000000E-03 0. -1.
        -11    1    3    3    0    0  0.88329838039E+01  0.12190614678E+02 -0.18231531071E+02  0.23643633701E+02  0.51100000000E-03 0.  1.
         12    1    3    3    0    0 -0.68988585983E+01 -0.35578689175E+02  0.13952812493E+02  0.38834499480E+02  0.00000000000E+00 0. -1.
</event>
<event>
 7    1  0.2577508E-013  0.7246158E+02  0.7816164E-02  0.1226708E+00
        -11   -1    0    0    0    0  0.00000000000E+00  0.00000000000E+00  0.45593999997E+02  0.45594000000E+02  0.51100000000E-03 0.  1.
         11   -1    0    0    0    0 -0.00000000000E+00 -0.00000000000E+00 -0.45593999997E+02  0.45594000000E+02  0.51100000000E-03 0. -1.
    9900012    2    1    2    0    0 -0.17046299635E+02  0.53076713053E+01  0.56507528463E+01  0.72461582466E+02  0.70000015856E+02 0.  0.
        -12    1    1    2    0    0  0.17046299635E+02 -0.53076713053E+01 -0.56507528463E+01  0.18726417534E+02  0.00000000000E+00 0.  1.
         11    1    3    3    0    0 -0.51392360426E+01  0.36550030008E+01  0.63465386906E+01  0.89470301022E+01  0.51100000000E-03 0. -1.
        -11    1    3    3    0    0 -0.14962363201E+02  0.11952033170E+01  0.29532888952E+02  0.33128422142E+02  0.51100000000E-03 0.  1.
         12    1    3    3    0    0  0.30552996091E+01  0.45746498758E+00 -0.30228674796E+02  0.30386130222E+02  0.00000000000E+00 0. -1.
</event>
<event>
 7    1  0.2577508E-013  0.7246155E+02  0.7816164E-02  0.1226708E+00
        -11   -1    0    0    0    0  0.00000000000E+00  0.00000000000E+00  0.45593999997E+02  0.45594000000E+02  0.51100000000E-03 0.  1.
         11   -1    0    0    0    0 -0.00000000000E+00 -0.00000000000E+00 -0.45593999997E+02  0.45594000000E+02  0.51100000000E-03 0. -1.
    9900012    2    1    2    0    0 -0.77744969702E+01  0.64125912294E+01 -0.15783407256E+02  0.72461546144E+02  0.69999968540E+02 0.  0.
        -12    1    1    2    0    0  0.77744969702E+01 -0.64125912294E+01  0.15783407256E+02  0.18726453856E+02  0.00000000000E+00 0.  1.
         11    1    3    3    0    0 -0.56020784813E+01  0.28707975572E+02 -0.14229477373E+02  0.32527052915E+02  0.51100000000E-03 0. -1.
        -11    1    3    3    0    0 -0.14483068408E+02 -0.10194419235E+02 -0.10398701606E+02  0.20538219236E+02  0.51100000000E-03 0.  1.
        -12    1    3    3    0    0  0.12310649919E+02 -0.12100965108E+02  0.88447717227E+01  0.19396273992E+02  0.00000000000E+00 0.  1.
</event>
<event>
 7    1  0.2577508E-013  0.7246158E+02  0.7816164E-02  0.1226708E+00
        -11   -1    0    0    0    0  0.00000000000E+00  0.00000000000E+00  0.45593999997E+02  0.45594000000E+02  0.51100000000E-03 0.  1.
         11   -1    0    0    0    0 -0.00000000000E+00 -0.00000000000E+00 -0.45593999997E+02  0.45594000000E+02  0.51100000000E-03 0. -1.
    9900012    2    1    2    0    0 -0.24508376383E+00 -0.12115270414E+02 -0.14277215932E+02  0.72461581816E+02  0.70000015009E+02 0.  0.
        -12    1    1    2    0    0  0.24508376383E+00  0.12115270414E+02  0.14277215932E+02  0.18726418184E+02  0.00000000000E+00 0.  1.
         11    1    3    3    0    0  0.51373144520E+01  0.59232072824E+01 -0.11374026516E+02  0.13814661188E+02  0.51100000000E-03 0. -1.
        -11    1    3    3    0    0  0.97463156466E+01 -0.19839668497E+02 -0.23997181487E+02  0.32626183263E+02  0.51100000000E-03 0.  1.
        -12    1    3    3    0    0 -0.15128713862E+02  0.18011908005E+01  0.21093992072E+02  0.26020737364E+02  0.00000000000E+00 0.  1.
</event>
<event>
 7    1  0.2577508E-013  0.7246158E+02  0.7816164E-02  0.1226708E+00
        -11   -1    0    0    0    0  0.00000000000E+00  0.00000000000E+00  0.45593999997E+02  0.45594000000E+02  0.51100000000E-03 0. -1.
         11   -1    0    0    0    0 -0.00000000000E+00 -0.00000000000E+00 -0.45593999997E+02  0.45594000000E+02  0.51100000000E-03 0.  1.
    9900012    2    1    2    0    0 -0.81349090571E+01  0.94937489214E+01  0.13941692931E+02  0.72461579740E+02  0.70000012305E+02 0.  0.
        -12    1    1    2    0    0  0.81349090571E+01 -0.94937489214E+01 -0.13941692931E+02  0.18726420260E+02  0.00000000000E+00 0.  1.
         11    1    3    3    0    0  0.18580428491E+02  0.74530274785E+01  0.36545742012E+01  0.20350328115E+02  0.51100000000E-03 0. -1.
        -11    1    3    3    0    0 -0.10722566063E+02  0.22367776762E+02  0.83574869174E+01  0.26175149438E+02  0.51100000000E-03 0.  1.
         12    1    3    3    0    0 -0.15992771485E+02 -0.20327055320E+02  0.19296318128E+01  0.25936102188E+02  0.00000000000E+00 0. -1.
</event>
<event>
 7    1  0.2577508E-013  0.7246159E+02  0.7816164E-02  0.1226708E+00
        -11   -1    0    0    0    0  0.00000000000E+00  0.00000000000E+00  0.45593999997E+02  0.45594000000E+02  0.51100000000E-03 0.  1.
         11   -1    0    0    0    0 -0.00000000000E+00 -0.00000000000E+00 -0.45593999997E+02  0.45594000000E+02  0.51100000000E-03 0. -1.
    9900012    2    1    2    0    0 -0.17257421894E+02  0.72430713413E+01  0.63076980588E+00  0.72461586477E+02  0.70000021081E+02 0.  0.
        -12    1    1    2    0    0  0.17257421894E+02 -0.72430713413E+01 -0.63076980588E+00  0.18726413523E+02  0.00000000000E+00 0.  1.
         11    1    3    3    0    0 -0.28799813429E+01  0.68170866393E+01 -0.87910621749E+01  0.11491289623E+02  0.51100000000E-03 0. -1.
        -11    1    3    3    0    0  0.11432883598E+02 -0.22804073364E+02  0.43206259314E+01  0.25872850598E+02  0.51100000000E-03 0.  1.
         12    1    3    3    0    0 -0.25810324150E+02  0.23230058066E+02  0.51012060493E+01  0.35097446255E+02  0.00000000000E+00 0. -1.
</event>
<event>
 7    1  0.2577508E-013  0.7246156E+02  0.7816164E-02  0.1226708E+00
        -11   -1    0    0    0    0  0.00000000000E+00  0.00000000000E+00  0.45593999997E+02  0.45594000000E+02  0.51100000000E-03 0. -1.
         11   -1    0    0    0    0 -0.00000000000E+00 -0.00000000000E+00 -0.45593999997E+02  0.45594000000E+02  0.51100000000E-03 0.  1.
    9900012    2    1    2    0    0 -0.10713526677E+02  0.14441744393E+02  0.52283679847E+01  0.72461562358E+02  0.69999989661E+02 0.  0.
        -12    1    1    2    0    0  0.10713526677E+02 -0.14441744393E+02 -0.52283679847E+01  0.18726437642E+02  0.00000000000E+00 0.  1.
         11    1    3    3    0    0 -0.39369335007E+01  0.29809984710E+01  0.11091901972E+02  0.12141502662E+02  0.51100000000E-03 0. -1.
        -11    1    3    3    0    0 -0.72070782520E+01 -0.15518249745E+02 -0.22767338396E+02  0.28479988588E+02  0.51100000000E-03 0.  1.
         12    1    3    3    0    0  0.43048507537E+00  0.26978995668E+02  0.16903804409E+02  0.31840071108E+02  0.00000000000E+00 0. -1.
</event>
<event>
 7    1  0.2577508E-013  0.7246171E+02  0.7816164E-02  0.1226708E+00
        -11   -1    0    0    0    0  0.00000000000E+00  0.00000000000E+00  0.45593999997E+02  0.45594000000E+02  0.51100000000E-03 0.  1.
         11   -1    0    0    0    0 -0.00000000000E+00 -0.00000000000E+00 -0.45593999997E+02  0.45594000000E+02  0.51100000000E-03 0. -1.
    9900012    2    1    2    0    0 -0.15602460247E+01 -0.18098787329E+02 -0.45467987775E+01  0.72461712339E+02  0.70000185040E+02 0.  0.
        -12    1    1    2    0    0  0.15602460247E+01  0.18098787329E+02  0.45467987775E+01  0.18726287661E+02  0.00000000000E+00 0.  1.
         11    1    3    3    0    0  0.58570407754E+01  0.18237372706E+02  0.97528422253E+01  0.21494758003E+02  0.51100000000E-03 0.  1.
        -11    1    3    3    0    0  0.80474278972E+00  0.26931109145E+01  0.56943668862E+01  0.63502969892E+01  0.51100000000E-03 0. -1.
         12    1    3    3    0    0 -0.82220295898E+01 -0.39029270949E+02 -0.19994007889E+02  0.44616657347E+02  0.00000000000E+00 0. -1.
</event>
<event>
 7    1  0.2577508E-013  0.7246163E+02  0.7816164E-02  0.1226708E+00
        -11   -1    0    0    0    0  0.00000000000E+00  0.00000000000E+00  0.45593999997E+02  0.45594000000E+02  0.51100000000E-03 0. -1.
         11   -1    0    0    0    0 -0.00000000000E+00 -0.00000000000E+00 -0.45593999997E+02  0.45594000000E+02  0.51100000000E-03 0.  1.
    9900012    2    1    2    0    0 -0.10751791364E+02 -0.10620018216E+02  0.11058528381E+02  0.72461632109E+02  0.70000080525E+02 0.  0.
        -12    1    1    2    0    0  0.10751791364E+02  0.10620018216E+02 -0.11058528381E+02  0.18726367891E+02  0.00000000000E+00 0.  1.
         11    1    3    3    0    0  0.11765122681E+01 -0.10089865829E+02  0.11413729643E+02  0.15279489461E+02  0.51100000000E-03 0. -1.
        -11    1    3    3    0    0  0.16969879190E+02 -0.16018408055E+02 -0.55480917180E+01  0.23986402780E+02  0.51100000000E-03 0.  1.
         12    1    3    3    0    0 -0.28898182822E+02  0.15488255669E+02  0.51928904555E+01  0.33195739868E+02  0.00000000000E+00 0. -1.
</event>
<event>
 7    1  0.2577508E-013  0.7246155E+02  0.7816164E-02  0.1226708E+00
        -11   -1    0    0    0    0  0.00000000000E+00  0.00000000000E+00  0.45593999997E+02  0.45594000000E+02  0.51100000000E-03 0. -1.
         11   -1    0    0    0    0 -0.00000000000E+00 -0.00000000000E+00 -0.45593999997E+02  0.45594000000E+02  0.51100000000E-03 0.  1.
    9900012    2    1    2    0    0 -0.11600906257E+02 -0.12078316567E+02  0.83793276307E+01  0.72461551094E+02  0.69999974988E+02 0.  0.
        -12    1    1    2    0    0  0.11600906257E+02  0.12078316567E+02 -0.83793276307E+01  0.18726448906E+02  0.00000000000E+00 0.  1.
         11    1    3    3    0    0  0.18943590272E+02  0.35402747560E+01 -0.12016059571E+01  0.19308987930E+02  0.51100000000E-03 0. -1.
        -11    1    3    3    0    0 -0.20901371207E+01  0.77298463668E+01 -0.88948292246E+01  0.11968173847E+02  0.51100000000E-03 0.  1.
        -12    1    3    3    0    0 -0.28454359408E+02 -0.23348437690E+02  0.18475762812E+02  0.41184389317E+02  0.00000000000E+00 0.  1.
</event>
<event>
 7    1  0.2577508E-013  0.7246159E+02  0.7816164E-02  0.1226708E+00
        -11   -1    0    0    0    0  0.00000000000E+00  0.00000000000E+00  0.45593999997E+02  0.45594000000E+02  0.51100000000E-03 0.  1.
         11   -1    0    0    0    0 -0.00000000000E+00 -0.00000000000E+00 -0.45593999997E+02  0.45594000000E+02  0.51100000000E-03 0. -1.
    9900012    2    1    2    0    0 -0.51886617198E+01 -0.16333459854E+02 -0.75481309789E+01  0.72461590774E+02  0.70000026678E+02 0.  0.
        -12    1    1    2    0    0  0.51886617198E+01  0.16333459854E+02  0.75481309789E+01  0.18726409226E+02  0.00000000000E+00 0.  1.
         11    1    3    3    0    0  0.47457566687E+01 -0.27075947824E+01 -0.43215004978E+01  0.69662502595E+01  0.51100000000E-03 0. -1.
        -11    1    3    3    0    0  0.21192539416E+02 -0.21319857986E+02  0.86851356137E+01  0.31290440271E+02  0.51100000000E-03 0.  1.
         12    1    3    3    0    0 -0.31126957805E+02  0.76939929143E+01 -0.11911766095E+02  0.34204900243E+02  0.00000000000E+00 0. -1.
</event>
<event>
 7    1  0.2577508E-013  0.7246158E+02  0.7816164E-02  0.1226708E+00
        -11   -1    0    0    0    0  0.00000000000E+00  0.00000000000E+00  0.45593999997E+02  0.45594000000E+02  0.51100000000E-03 0. -1.
         11   -1    0    0    0    0 -0.00000000000E+00 -0.00000000000E+00 -0.45593999997E+02  0.45594000000E+02  0.51100000000E-03 0.  1.
    9900012    2    1    2    0    0 -0.12237029253E+02 -0.13359743912E+02 -0.47382714513E+01  0.72461578594E+02  0.70000010812E+02 0.  0.
        -12    1    1    2    0    0  0.12237029253E+02  0.13359743912E+02  0.47382714513E+01  0.18726421406E+02  0.00000000000E+00 0.  1.
         11    1    3    3    0    0  0.68980695057E+01 -0.29077148988E+01  0.48279087439E+01  0.89076861159E+01  0.51100000000E-03 0. -1.
        -11    1    3    3    0    0 -0.24875409579E+02 -0.30086408854E+01  0.20297179918E+02  0.32246138289E+02  0.51100000000E-03 0.  1.
         12    1    3    3    0    0  0.57403108205E+01 -0.74433881277E+01 -0.29863360113E+02  0.31307754189E+02  0.00000000000E+00 0. -1.
</event>
<event>
 7    1  0.2577508E-013  0.7246173E+02  0.7816164E-02  0.1226708E+00
        -11   -1    0    0    0    0  0.00000000000E+00  0.00000000000E+00  0.45593999997E+02  0.45594000000E+02  0.51100000000E-03 0. -1.
         11   -1    0    0    0    0 -0.00000000000E+00 -0.00000000000E+00 -0.45593999997E+02  0.45594000000E+02  0.51100000000E-03 0.  1.
    9900012    2    1    2    0    0 -0.17959429396E+02  0.53028624333E+01  0.10849234487E+00  0.72461729020E+02  0.70000206770E+02 0.  0.
        -12    1    1    2    0    0  0.17959429396E+02 -0.53028624333E+01 -0.10849234487E+00  0.18726270980E+02  0.00000000000E+00 0.  1.
         11    1    3    3    0    0 -0.93129597694E+01  0.11084009565E+02 -0.55267203708E+01  0.15496164881E+02  0.51100000000E-03 0. -1.
        -11    1    3    3    0    0  0.15412231041E+02 -0.11508746391E+01 -0.17444803098E+02  0.23306276697E+02  0.51100000000E-03 0.  1.
         12    1    3    3    0    0 -0.24058700667E+02 -0.46302724924E+01  0.23080015814E+02  0.33659287442E+02  0.00000000000E+00 0. -1.
</event>
<event>
 7    1  0.2577508E-013  0.7246154E+02  0.7816164E-02  0.1226708E+00
        -11   -1    0    0    0    0  0.00000000000E+00  0.00000000000E+00  0.45593999997E+02  0.45594000000E+02  0.51100000000E-03 0. -1.
         11   -1    0    0    0    0 -0.00000000000E+00 -0.00000000000E+00 -0.45593999997E+02  0.45594000000E+02  0.51100000000E-03 0.  1.
    9900012    2    1    2    0    0 -0.94216437925E+01 -0.63720266706E+01  0.14876495553E+02  0.72461542364E+02  0.69999963615E+02 0.  0.
        -12    1    1    2    0    0  0.94216437925E+01  0.63720266706E+01 -0.14876495553E+02  0.18726457636E+02  0.00000000000E+00 0.  1.
         11    1    3    3    0    0 -0.28071130297E+01  0.24487141099E+02  0.13889664288E+01  0.24686619671E+02  0.51100000000E-03 0. -1.
        -11    1    3    3    0    0  0.38034895764E+01  0.28209192838E+01  0.11531743208E+02  0.12466163012E+02  0.51100000000E-03 0.  1.
        -12    1    3    3    0    0 -0.10418020339E+02 -0.33680087053E+02  0.19557859170E+01  0.35308759682E+02  0.00000000000E+00 0.  1.
</event>
<event>
 7    1  0.2577508E-013  0.7246158E+02  0.7816164E-02  0.1226708E+00
        -11   -1    0    0    0    0  0.00000000000E+00  0.00000000000E+00  0.45593999997E+02  0.45594000000E+02  0.51100000000E-03 0.  1.
         11   -1    0    0    0    0 -0.00000000000E+00 -0.00000000000E+00 -0.45593999997E+02  0.45594000000E+02  0.51100000000E-03 0. -1.
    9900012    2    1    2    0    0 -0.71279936899E+00 -0.15025621223E+02 -0.11153547105E+02  0.72461575111E+02  0.70000006275E+02 0.  0.
        -12    1    1    2    0    0  0.71279936899E+00  0.15025621223E+02  0.11153547105E+02  0.18726424889E+02  0.00000000000E+00 0.  1.
         11    1    3    3    0    0 -0.74219592024E+01 -0.42992741922E+01  0.74278798475E+01  0.11346481229E+02  0.51100000000E-03 0. -1.
        -11    1    3    3    0    0 -0.22039955167E+02 -0.32019086471E+01  0.54134118685E+01  0.22919792125E+02  0.51100000000E-03 0.  1.
         12    1    3    3    0    0  0.28749115000E+02 -0.75244383841E+01 -0.23994838821E+02  0.38195301757E+02  0.00000000000E+00 0. -1.
</event>
<event>
 7    1  0.2577508E-013  0.7246159E+02  0.7816164E-02  0.1226708E+00
        -11   -1    0    0    0    0  0.00000000000E+00  0.00000000000E+00  0.45593999997E+02  0.45594000000E+02  0.51100000000E-03 0.  1.
         11   -1    0    0    0    0 -0.00000000000E+00 -0.00000000000E+00 -0.45593999997E+02  0.45594000000E+02  0.51100000000E-03 0. -1.
    9900012    2    1    2    0    0  0.11064734939E+02 -0.82089709814E+01 -0.12683165528E+02  0.72461594801E+02  0.70000031925E+02 0.  0.
        -12    1    1    2    0    0 -0.11064734939E+02  0.82089709814E+01  0.12683165528E+02  0.18726405199E+02  0.00000000000E+00 0.  1.
         11    1    3    3    0    0  0.12386786328E+02 -0.14817924973E+02 -0.10170314685E+02  0.21827475280E+02  0.51100000000E-03 0. -1.
        -11    1    3    3    0    0  0.22850089174E+02  0.11922009036E+02 -0.23993253041E+01  0.25884698895E+02  0.51100000000E-03 0.  1.
        -12    1    3    3    0    0 -0.24172140562E+02 -0.53130550448E+01 -0.11352553883E+00  0.24749420626E+02  0.00000000000E+00 0.  1.
</event>
<event>
 7    1  0.2577508E-013  0.7246156E+02  0.7816164E-02  0.1226708E+00
        -11   -1    0    0    0    0  0.00000000000E+00  0.00000000000E+00  0.45593999997E+02  0.45594000000E+02  0.51100000000E-03 0. -1.
         11   -1    0    0    0    0 -0.00000000000E+00 -0.00000000000E+00 -0.45593999997E+02  0.45594000000E+02  0.51100000000E-03 0.  1.
    9900012    2    1    2    0    0  0.17791445984E+02  0.61837364050E+00  0.58104684661E+01  0.72461562006E+02  0.69999989203E+02 0.  0.
        -12    1    1    2    0    0 -0.17791445984E+02 -0.61837364050E+00 -0.58104684661E+01  0.18726437994E+02  0.00000000000E+00 0.  1.
         11    1    3    3    0    0  0.73022433720E+01  0.21865536385E+02 -0.25901168079E+01  0.23197696976E+02  0.51100000000E-03 0. -1.
        -11    1    3    3    0    0  0.28443948470E+01  0.10944427949E+02 -0.64266075202E+01  0.13006627913E+02  0.51100000000E-03 0.  1.
         12    1    3    3    0    0  0.76448077649E+01 -0.32191590694E+02  0.14827192794E+02  0.36257237116E+02  0.00000000000E+00 0. -1.
</event>
<event>
 7    1  0.2577508E-013  0.7246159E+02  0.7816164E-02  0.1226708E+00
        -11   -1    0    0    0    0  0.00000000000E+00  0.00000000000E+00  0.45593999997E+02  0.45594000000E+02  0.51100000000E-03 0. -1.
         11   -1    0    0    0    0 -0.00000000000E+00 -0.00000000000E+00 -0.45593999997E+02  0.45594000000E+02  0.51100000000E-03 0.  1.
    9900012    2    1    2    0    0  0.11348246930E+02  0.25660115265E+01  0.14673496056E+02  0.72461585233E+02  0.70000019460E+02 0.  0.
        -12    1    1    2    0    0 -0.11348246930E+02 -0.25660115265E+01 -0.14673496056E+02  0.18726414767E+02  0.00000000000E+00 0.  1.
         11    1    3    3    0    0 -0.15132258835E+02 -0.32748625332E+01 -0.20463794052E+02  0.25660803754E+02  0.51100000000E-03 0.  1.
        -11    1    3    3    0    0  0.78261293219E+01 -0.46187285992E+01  0.70688625903E+01  0.11513026215E+02  0.51100000000E-03 0. -1.
        -12    1    3    3    0    0  0.18654376443E+02  0.10459602659E+02  0.28068427518E+02  0.35287755264E+02  0.00000000000E+00 0.  1.
</event>
<event>
 7    1  0.2577508E-013  0.7246161E+02  0.7816164E-02  0.1226708E+00
        -11   -1    0    0    0    0  0.00000000000E+00  0.00000000000E+00  0.45593999997E+02  0.45594000000E+02  0.51100000000E-03 0. -1.
         11   -1    0    0    0    0 -0.00000000000E+00 -0.00000000000E+00 -0.45593999997E+02  0.45594000000E+02  0.51100000000E-03 0.  1.
    9900012    2    1    2    0    0 -0.11627786910E+01 -0.12150524550E+02  0.14201779094E+02  0.72461606045E+02  0.70000046572E+02 0.  0.
        -12    1    1    2    0    0  0.11627786910E+01  0.12150524550E+02 -0.14201779094E+02  0.18726393955E+02  0.00000000000E+00 0.  1.
         11    1    3    3    0    0  0.52591547419E+01 -0.17852408849E+01  0.96198362952E+01  0.11107972102E+02  0.51100000000E-03 0. -1.
        -11    1    3    3    0    0  0.23063951917E+02 -0.10855909137E+02  0.15584935368E+02  0.29877865585E+02  0.51100000000E-03 0.  1.
        -12    1    3    3    0    0 -0.29485885350E+02  0.49062547137E+00 -0.11002992570E+02  0.31475768358E+02  0.00000000000E+00 0.  1.
</event>
<event>
 7    1  0.2577508E-013  0.7246157E+02  0.7816164E-02  0.1226708E+00
        -11   -1    0    0    0    0  0.00000000000E+00  0.00000000000E+00  0.45593999997E+02  0.45594000000E+02  0.51100000000E-03 0. -1.
         11   -1    0    0    0    0 -0.00000000000E+00 -0.00000000000E+00 -0.45593999997E+02  0.45594000000E+02  0.51100000000E-03 0.  1.
    9900012    2    1    2    0    0  0.39147223771E+01 -0.62142835309E+01  0.17226050586E+02  0.72461569750E+02  0.69999999291E+02 0.  0.
        -12    1    1    2    0    0 -0.39147223771E+01  0.62142835309E+01 -0.17226050586E+02  0.18726430250E+02  0.00000000000E+00 0.  1.
         11    1    3    3    0    0 -0.11104173347E+02  0.13347963809E+01  0.89882923063E+01  0.14348301151E+02  0.51100000000E-03 0. -1.
        -11    1    3    3    0    0 -0.69648581050E+01  0.14675672887E+02 -0.12587874522E+02  0.20550893128E+02  0.51100000000E-03 0.  1.
        -12    1    3    3    0    0  0.21983753829E+02 -0.22224752799E+02  0.20825632802E+02  0.37562375471E+02  0.00000000000E+00 0.  1.
</event>
<event>
 7    1  0.2577508E-013  0.7246155E+02  0.7816164E-02  0.1226708E+00
        -11   -1    0    0    0    0  0.00000000000E+00  0.00000000000E+00  0.45593999997E+02  0.45594000000E+02  0.51100000000E-03 0.  1.
         11   -1    0    0    0    0 -0.00000000000E+00 -0.00000000000E+00 -0.45593999997E+02  0.45594000000E+02  0.51100000000E-03 0. -1.
    9900012    2    1    2    0    0 -0.11836743716E+02  0.69045440511E+01 -0.12763182031E+02  0.72461546895E+02  0.69999969518E+02 0.  0.
        -12    1    1    2    0    0  0.11836743716E+02 -0.69045440511E+01  0.12763182031E+02  0.18726453105E+02  0.00000000000E+00 0.  1.
         11    1    3    3    0    0 -0.23351667025E+02 -0.20649223424E+02 -0.26905463366E+00  0.31173116167E+02  0.51100000000E-03 0. -1.
        -11    1    3    3    0    0 -0.79705513340E+01  0.65299327649E+01 -0.59044224491E+01  0.11875685883E+02  0.51100000000E-03 0.  1.
        -12    1    3    3    0    0  0.19485474643E+02  0.21023834710E+02 -0.65897049479E+01  0.29412744845E+02  0.00000000000E+00 0.  1.
</event>
<event>
 7    1  0.2577508E-013  0.7246158E+02  0.7816164E-02  0.1226708E+00
        -11   -1    0    0    0    0  0.00000000000E+00  0.00000000000E+00  0.45593999997E+02  0.45594000000E+02  0.51100000000E-03 0.  1.
         11   -1    0    0    0    0 -0.00000000000E+00 -0.00000000000E+00 -0.45593999997E+02  0.45594000000E+02  0.51100000000E-03 0. -1.
    9900012    2    1    2    0    0 -0.14262951499E+02  0.21540638023E+01 -0.11941822459E+02  0.72461577492E+02  0.70000009376E+02 0.  0.
        -12    1    1    2    0    0  0.14262951499E+02 -0.21540638023E+01  0.11941822459E+02  0.18726422508E+02  0.00000000000E+00 0.  1.
         11    1    3    3    0    0 -0.16136805213E+02 -0.37895677986E+00 -0.29638190870E+02  0.33748517731E+02  0.51100000000E-03 0. -1.
        -11    1    3    3    0    0 -0.12642545846E+02  0.11256933002E+02  0.53457155071E+01  0.17751878228E+02  0.51100000000E-03 0.  1.
         12    1    3    3    0    0  0.14516399560E+02 -0.87239124201E+01  0.12350652904E+02  0.20961181533E+02  0.00000000000E+00 0. -1.
</event>
<event>
 7    1  0.2577508E-013  0.7246111E+02  0.7816164E-02  0.1226709E+00
        -11   -1    0    0    0    0  0.00000000000E+00  0.00000000000E+00  0.45593999997E+02  0.45594000000E+02  0.51100000000E-03 0. -1.
         11   -1    0    0    0    0 -0.00000000000E+00 -0.00000000000E+00 -0.45593999997E+02  0.45594000000E+02  0.51100000000E-03 0.  1.
    9900012    2    1    2    0    0  0.69269115275E+01  0.16387202072E+02 -0.58458493957E+01  0.72461108902E+02  0.69999398948E+02 0.  0.
        -12    1    1    2    0    0 -0.69269115275E+01 -0.16387202072E+02  0.58458493957E+01  0.18726891098E+02  0.00000000000E+00 0.  1.
         11    1    3    3    0    0  0.82251550910E+01  0.90933716507E+01  0.24017040270E+02  0.26965919376E+02  0.51100000000E-03 0. -1.
        -11    1    3    3    0    0 -0.55045147083E+01  0.12312502074E+02  0.13948838432E+01  0.13558874979E+02  0.51100000000E-03 0.  1.
        -12    1    3    3    0    0  0.42062711448E+01 -0.50186716532E+01 -0.31257773508E+02  0.31936314547E+02  0.00000000000E+00 0.  1.
</event>
<event>
 7    1  0.2577508E-013  0.7246161E+02  0.7816164E-02  0.1226708E+00
        -11   -1    0    0    0    0  0.00000000000E+00  0.00000000000E+00  0.45593999997E+02  0.45594000000E+02  0.51100000000E-03 0.  1.
         11   -1    0    0    0    0 -0.00000000000E+00 -0.00000000000E+00 -0.45593999997E+02  0.45594000000E+02  0.51100000000E-03 0. -1.
    9900012    2    1    2    0    0  0.18013674380E+02  0.30074274157E+01  0.41401132661E+01  0.72461611609E+02  0.70000053820E+02 0.  0.
        -12    1    1    2    0    0 -0.18013674380E+02 -0.30074274157E+01 -0.41401132661E+01  0.18726388391E+02  0.00000000000E+00 0.  1.
         11    1    3    3    0    0 -0.29083898785E+01  0.10720157750E+02  0.25647638560E+01  0.11399935429E+02  0.51100000000E-03 0. -1.
        -11    1    3    3    0    0  0.13318741884E+02 -0.25941008827E+01  0.29069252182E+02  0.32080206786E+02  0.51100000000E-03 0.  1.
         12    1    3    3    0    0  0.76033223738E+01 -0.51186294519E+01 -0.27493902772E+02  0.28981469394E+02  0.00000000000E+00 0. -1.
</event>
<event>
 7    1  0.2577508E-013  0.7246159E+02  0.7816164E-02  0.1226708E+00
        -11   -1    0    0    0    0  0.00000000000E+00  0.00000000000E+00  0.45593999997E+02  0.45594000000E+02  0.51100000000E-03 0.  1.
         11   -1    0    0    0    0 -0.00000000000E+00 -0.00000000000E+00 -0.45593999997E+02  0.45594000000E+02  0.51100000000E-03 0. -1.
    9900012    2    1    2    0    0  0.53981706827E+01 -0.96654708767E+01 -0.15103543223E+02  0.72461585717E+02  0.70000020091E+02 0.  0.
        -12    1    1    2    0    0 -0.53981706827E+01  0.96654708767E+01  0.15103543223E+02  0.18726414283E+02  0.00000000000E+00 0.  1.
         11    1    3    3    0    0  0.46076009018E+01 -0.21357440667E+02 -0.12826519794E+01  0.21886421687E+02  0.51100000000E-03 0. -1.
        -11    1    3    3    0    0 -0.30131885663E+01 -0.17665702091E+02 -0.38255584387E-01  0.17920876080E+02  0.51100000000E-03 0.  1.
        -12    1    3    3    0    0  0.38037583472E+01  0.29357671881E+02 -0.13782635659E+02  0.32654287951E+02  0.00000000000E+00 0.  1.
</event>
<event>
 7    1  0.2577508E-013  0.7246157E+02  0.7816164E-02  0.1226708E+00
        -11   -1    0    0    0    0  0.00000000000E+00  0.00000000000E+00  0.45593999997E+02  0.45594000000E+02  0.51100000000E-03 0.  1.
         11   -1    0    0    0    0 -0.00000000000E+00 -0.00000000000E+00 -0.45593999997E+02  0.45594000000E+02  0.51100000000E-03 0. -1.
    9900012    2    1    2    0    0  0.14014637440E+02 -0.85558302435E+01 -0.90037090646E+01  0.72461572934E+02  0.70000003439E+02 0.  0.
        -12    1    1    2    0    0 -0.14014637440E+02  0.85558302435E+01  0.90037090646E+01  0.18726427066E+02  0.00000000000E+00 0.  1.
         11    1    3    3    0    0  0.12446790999E+02  0.11535830440E+02 -0.27123325067E+02  0.31994886359E+02  0.51100000000E-03 0. -1.
        -11    1    3    3    0    0 -0.47075467491E+00  0.79974695798E+01  0.43899732022E+01  0.91352610593E+01  0.51100000000E-03 0.  1.
        -12    1    3    3    0    0  0.20386011156E+01 -0.28089130263E+02  0.13729642801E+02  0.31331425516E+02  0.00000000000E+00 0.  1.
</event>
<event>
 7    1  0.2577508E-013  0.7246161E+02  0.7816164E-02  0.1226708E+00
        -11   -1    0    0    0    0  0.00000000000E+00  0.00000000000E+00  0.45593999997E+02  0.45594000000E+02  0.51100000000E-03 0.  1.
         11   -1    0    0    0    0 -0.00000000000E+00 -0.00000000000E+00 -0.45593999997E+02  0.45594000000E+02  0.51100000000E-03 0. -1.
    9900012    2    1    2    0    0  0.85188638698E+01  0.16587455582E+02  0.17212966978E+01  0.72461612557E+02  0.70000055055E+02 0.  0.
        -12    1    1    2    0    0 -0.85188638698E+01 -0.16587455582E+02 -0.17212966978E+01  0.18726387443E+02  0.00000000000E+00 0.  1.
         11    1    3    3    0    0 -0.51382149208E+01 -0.84103302081E+00  0.23928458979E+02  0.24488359244E+02  0.51100000000E-03 0.  1.
        -11    1    3    3    0    0  0.15221147302E+02  0.23259416812E+02 -0.31409411548E+01  0.27974082777E+02  0.51100000000E-03 0. -1.
        -12    1    3    3    0    0 -0.15640685113E+01 -0.58309282092E+01 -0.19066221126E+02  0.19999170536E+02  0.00000000000E+00 0.  1.
</event>
<event>
 7    1  0.2577508E-013  0.7246143E+02  0.7816164E-02  0.1226708E+00
        -11   -1    0    0    0    0  0.00000000000E+00  0.00000000000E+00  0.45593999997E+02  0.45594000000E+02  0.51100000000E-03 0.  1.
         11   -1    0    0    0    0 -0.00000000000E+00 -0.00000000000E+00 -0.45593999997E+02  0.45594000000E+02  0.51100000000E-03 0. -1.
    9900012    2    1    2    0    0  0.25798555161E+01  0.11761922505E+02 -0.14341749636E+02  0.72461434428E+02  0.69999823008E+02 0.  0.
        -12    1    1    2    0    0 -0.25798555161E+01 -0.11761922505E+02  0.14341749636E+02  0.18726565572E+02  0.00000000000E+00 0.  1.
         11    1    3    3    0    0  0.17971473882E+01  0.22121336235E+02 -0.37197448071E+02  0.43315509910E+02  0.51100000000E-03 0. -1.
        -11    1    3    3    0    0 -0.16188709734E+01 -0.31737104971E+01 -0.13287705685E+01  0.38024745933E+01  0.51100000000E-03 0.  1.
        -12    1    3    3    0    0  0.24015791014E+01 -0.71857032324E+01  0.24184469003E+02  0.25343449925E+02  0.00000000000E+00 0.  1.
</event>
<event>
 7    1  0.2577508E-013  0.7246159E+02  0.7816164E-02  0.1226708E+00
        -11   -1    0    0    0    0  0.00000000000E+00  0.00000000000E+00  0.45593999997E+02  0.45594000000E+02  0.51100000000E-03 0.  1.
         11   -1    0    0    0    0 -0.00000000000E+00 -0.00000000000E+00 -0.45593999997E+02  0.45594000000E+02  0.51100000000E-03 0. -1.
    9900012    2    1    2    0    0  0.10362659171E+02 -0.14807769815E+02 -0.49013929551E+01  0.72461590710E+02  0.70000026595E+02 0.  0.
        -12    1    1    2    0    0 -0.10362659171E+02  0.14807769815E+02  0.49013929551E+01  0.18726409290E+02  0.00000000000E+00 0.  1.
         11    1    3    3    0    0  0.14166406971E+02 -0.24703147849E+02  0.10474419764E+02  0.30342150052E+02  0.51100000000E-03 0. -1.
        -11    1    3    3    0    0 -0.22010862052E+01 -0.11411289461E+02 -0.17108511333E+02  0.20682443471E+02  0.51100000000E-03 0.  1.
        -12    1    3    3    0    0 -0.16026615940E+01  0.21306667494E+02  0.17326986137E+01  0.21436997187E+02  0.00000000000E+00 0.  1.
</event>
<event>
 7    1  0.2577508E-013  0.7246157E+02  0.7816164E-02  0.1226708E+00
        -11   -1    0    0    0    0  0.00000000000E+00  0.00000000000E+00  0.45593999997E+02  0.45594000000E+02  0.51100000000E-03 0.  1.
         11   -1    0    0    0    0 -0.00000000000E+00 -0.00000000000E+00 -0.45593999997E+02  0.45594000000E+02  0.51100000000E-03 0. -1.
    9900012    2    1    2    0    0 -0.51936997668E+01 -0.11098768657E+01 -0.17957526164E+02  0.72461572421E+02  0.70000002771E+02 0.  0.
        -12    1    1    2    0    0  0.51936997668E+01  0.11098768657E+01  0.17957526164E+02  0.18726427579E+02  0.00000000000E+00 0.  1.
         11    1    3    3    0    0  0.34668703716E+00 -0.14857491073E+02  0.60823252110E+01  0.16058017098E+02  0.51100000000E-03 0. -1.
        -11    1    3    3    0    0  0.44838685662E+01 -0.15395450017E+02  0.18654958868E+01  0.16143265894E+02  0.51100000000E-03 0.  1.
        -12    1    3    3    0    0 -0.10024255370E+02  0.29143064225E+02 -0.25905347262E+02  0.40260289429E+02  0.00000000000E+00 0.  1.
</event>
<event>
 7    1  0.2577508E-013  0.7246146E+02  0.7816164E-02  0.1226708E+00
        -11   -1    0    0    0    0  0.00000000000E+00  0.00000000000E+00  0.45593999997E+02  0.45594000000E+02  0.51100000000E-03 0.  1.
         11   -1    0    0    0    0 -0.00000000000E+00 -0.00000000000E+00 -0.45593999997E+02  0.45594000000E+02  0.51100000000E-03 0. -1.
    9900012    2    1    2    0    0 -0.31551188642E+01 -0.18451238850E+02 -0.52946309263E+00  0.72461459441E+02  0.69999855593E+02 0.  0.
        -12    1    1    2    0    0  0.31551188642E+01  0.18451238850E+02  0.52946309263E+00  0.18726540559E+02  0.00000000000E+00 0.  1.
         11    1    3    3    0    0 -0.11992765409E+01 -0.71118309286E+01  0.30831960002E+01  0.78436280646E+01  0.51100000000E-03 0. -1.
        -11    1    3    3    0    0 -0.17078733913E+02 -0.33339760684E+02  0.12563916827E+01  0.37480679220E+02  0.51100000000E-03 0.  1.
         12    1    3    3    0    0  0.15122891589E+02  0.22000352762E+02 -0.48690507755E+01  0.27137152156E+02  0.00000000000E+00 0. -1.
</event>
<event>
 7    1  0.2577508E-013  0.7246158E+02  0.7816164E-02  0.1226708E+00
        -11   -1    0    0    0    0  0.00000000000E+00  0.00000000000E+00  0.45593999997E+02  0.45594000000E+02  0.51100000000E-03 0. -1.
         11   -1    0    0    0    0 -0.00000000000E+00 -0.00000000000E+00 -0.45593999997E+02  0.45594000000E+02  0.51100000000E-03 0.  1.
    9900012    2    1    2    0    0  0.87829433138E+01  0.14491307370E+02  0.79712401335E+01  0.72461581447E+02  0.70000014528E+02 0.  0.
        -12    1    1    2    0    0 -0.87829433138E+01 -0.14491307370E+02 -0.79712401335E+01  0.18726418553E+02  0.00000000000E+00 0.  1.
         11    1    3    3    0    0 -0.65801791060E+01 -0.11883478797E+02 -0.28231401313E+01  0.13873930440E+02  0.51100000000E-03 0. -1.
        -11    1    3    3    0    0 -0.77155414724E+01  0.10431045363E+02  0.24230329701E+02  0.27485362745E+02  0.51100000000E-03 0.  1.
         12    1    3    3    0    0  0.23078663892E+02  0.15943740804E+02 -0.13435949436E+02  0.31102288262E+02  0.00000000000E+00 0. -1.
</event>
<event>
 7    1  0.2577508E-013  0.7246161E+02  0.7816164E-02  0.1226708E+00
        -11   -1    0    0    0    0  0.00000000000E+00  0.00000000000E+00  0.45593999997E+02  0.45594000000E+02  0.51100000000E-03 0.  1.
         11   -1    0    0    0    0 -0.00000000000E+00 -0.00000000000E+00 -0.45593999997E+02  0.45594000000E+02  0.51100000000E-03 0. -1.
    9900012    2    1    2    0    0 -0.30420834505E+01 -0.51885842604E+01 -0.17734208954E+02  0.72461605644E+02  0.70000046049E+02 0.  0.
        -12    1    1    2    0    0  0.30420834505E+01  0.51885842604E+01  0.17734208954E+02  0.18726394356E+02  0.00000000000E+00 0.  1.
         11    1    3    3    0    0  0.13490901318E+02  0.19298602994E+02 -0.94876391232E+01  0.25386133859E+02  0.51100000000E-03 0. -1.
        -11    1    3    3    0    0 -0.82816830280E+01 -0.21731699537E+01 -0.19095993826E+02  0.20927635363E+02  0.51100000000E-03 0.  1.
        -12    1    3    3    0    0 -0.82513017407E+01 -0.22314017301E+02  0.10849423995E+02  0.26147836422E+02  0.00000000000E+00 0.  1.
</event>
<event>
 7    1  0.2577508E-013  0.7246162E+02  0.7816164E-02  0.1226708E+00
        -11   -1    0    0    0    0  0.00000000000E+00  0.00000000000E+00  0.45593999997E+02  0.45594000000E+02  0.51100000000E-03 0. -1.
         11   -1    0    0    0    0 -0.00000000000E+00 -0.00000000000E+00 -0.45593999997E+02  0.45594000000E+02  0.51100000000E-03 0.  1.
    9900012    2    1    2    0    0 -0.40900255791E+01 -0.93448142939E+00  0.18250362606E+02  0.72461620210E+02  0.70000065025E+02 0.  0.
        -12    1    1    2    0    0  0.40900255791E+01  0.93448142939E+00 -0.18250362606E+02  0.18726379790E+02  0.00000000000E+00 0.  1.
         11    1    3    3    0    0 -0.86577741691E+01  0.10823927092E+02 -0.49603115635E+01  0.14721383846E+02  0.51100000000E-03 0. -1.
        -11    1    3    3    0    0 -0.22776452254E+02 -0.33334696898E-01  0.13329797906E+02  0.26390365684E+02  0.51100000000E-03 0.  1.
         12    1    3    3    0    0  0.27344200844E+02 -0.11725073825E+02  0.98808762632E+01  0.31349870681E+02  0.00000000000E+00 0. -1.
</event>
<event>
 7    1  0.2577508E-013  0.7246152E+02  0.7816164E-02  0.1226708E+00
        -11   -1    0    0    0    0  0.00000000000E+00  0.00000000000E+00  0.45593999997E+02  0.45594000000E+02  0.51100000000E-03 0.  1.
         11   -1    0    0    0    0 -0.00000000000E+00 -0.00000000000E+00 -0.45593999997E+02  0.45594000000E+02  0.51100000000E-03 0. -1.
    9900012    2    1    2    0    0  0.21995518566E+01  0.18595253110E+02  0.24432475234E+00  0.72461517117E+02  0.69999930726E+02 0.  0.
        -12    1    1    2    0    0 -0.21995518566E+01 -0.18595253110E+02 -0.24432475234E+00  0.18726482883E+02  0.00000000000E+00 0.  1.
         11    1    3    3    0    0  0.91140901270E+01  0.11617441233E+02 -0.18611606913E+02  0.23757598611E+02  0.51100000000E-03 0. -1.
        -11    1    3    3    0    0  0.10387540264E+02  0.19573372500E+02  0.36663521808E+01  0.22460187941E+02  0.51100000000E-03 0.  1.
        -12    1    3    3    0    0 -0.17302078535E+02 -0.12595560623E+02  0.15189579484E+02  0.26243730564E+02  0.00000000000E+00 0.  1.
</event>
<event>
 7    1  0.2577508E-013  0.7246156E+02  0.7816164E-02  0.1226708E+00
        -11   -1    0    0    0    0  0.00000000000E+00  0.00000000000E+00  0.45593999997E+02  0.45594000000E+02  0.51100000000E-03 0. -1.
         11   -1    0    0    0    0 -0.00000000000E+00 -0.00000000000E+00 -0.45593999997E+02  0.45594000000E+02  0.51100000000E-03 0.  1.
    9900012    2    1    2    0    0  0.75095684055E+01  0.70940674368E+01  0.15619226273E+02  0.72461557738E+02  0.69999983642E+02 0.  0.
        -12    1    1    2    0    0 -0.75095684055E+01 -0.70940674368E+01 -0.15619226273E+02  0.18726442262E+02  0.00000000000E+00 0.  1.
         11    1    3    3    0    0 -0.12965667420E+02  0.97302193270E+01  0.73711352546E+01  0.17807844760E+02  0.51100000000E-03 0. -1.
        -11    1    3    3    0    0  0.91732169435E+01  0.21860011903E+01 -0.20950459225E+02  0.22974948363E+02  0.51100000000E-03 0.  1.
        -12    1    3    3    0    0  0.11302018882E+02 -0.48221530805E+01  0.29198550243E+02  0.31678764614E+02  0.00000000000E+00 0.  1.
</event>
<event>
 7    1  0.2577508E-013  0.7246160E+02  0.7816164E-02  0.1226708E+00
        -11   -1    0    0    0    0  0.00000000000E+00  0.00000000000E+00  0.45593999997E+02  0.45594000000E+02  0.51100000000E-03 0.  1.
         11   -1    0    0    0    0 -0.00000000000E+00 -0.00000000000E+00 -0.45593999997E+02  0.45594000000E+02  0.51100000000E-03 0. -1.
    9900012    2    1    2    0    0  0.65458910384E+01 -0.55415710317E+00 -0.17536309806E+02  0.72461603091E+02  0.70000042723E+02 0.  0.
        -12    1    1    2    0    0 -0.65458910384E+01  0.55415710317E+00  0.17536309806E+02  0.18726396909E+02  0.00000000000E+00 0.  1.
         11    1    3    3    0    0  0.32107791743E+02 -0.50023202457E+00  0.70221848235E+01  0.32870527873E+02  0.51100000000E-03 0. -1.
        -11    1    3    3    0    0  0.13207985105E+01  0.24792621288E+00  0.15939041923E+01  0.20848277981E+01  0.51100000000E-03 0.  1.
        -12    1    3    3    0    0 -0.26882699216E+02 -0.30185129148E+00 -0.26152398822E+02  0.37506247419E+02  0.00000000000E+00 0.  1.
</event>
<event>
 7    1  0.2577508E-013  0.7246153E+02  0.7816164E-02  0.1226708E+00
        -11   -1    0    0    0    0  0.00000000000E+00  0.00000000000E+00  0.45593999997E+02  0.45594000000E+02  0.51100000000E-03 0.  1.
         11   -1    0    0    0    0 -0.00000000000E+00 -0.00000000000E+00 -0.45593999997E+02  0.45594000000E+02  0.51100000000E-03 0. -1.
    9900012    2    1    2    0    0 -0.15326153314E+02 -0.44250321003E+01 -0.98086042088E+01  0.72461532073E+02  0.69999950209E+02 0.  0.
        -12    1    1    2    0    0  0.15326153314E+02  0.44250321003E+01  0.98086042088E+01  0.18726467927E+02  0.00000000000E+00 0.  1.
         11    1    3    3    0    0  0.10521863453E+02 -0.16992884307E+02 -0.10044909264E+02  0.22368905426E+02  0.51100000000E-03 0. -1.
        -11    1    3    3    0    0 -0.19092859016E+02 -0.10295062216E+02 -0.10318343636E+02  0.24020694975E+02  0.51100000000E-03 0.  1.
        -12    1    3    3    0    0 -0.67551577516E+01  0.22862914422E+02  0.10554648691E+02  0.26071931672E+02  0.00000000000E+00 0.  1.
</event>
<event>
 7    1  0.2577508E-013  0.7246164E+02  0.7816164E-02  0.1226708E+00
        -11   -1    0    0    0    0  0.00000000000E+00  0.00000000000E+00  0.45593999997E+02  0.45594000000E+02  0.51100000000E-03 0. -1.
         11   -1    0    0    0    0 -0.00000000000E+00 -0.00000000000E+00 -0.45593999997E+02  0.45594000000E+02  0.51100000000E-03 0.  1.
    9900012    2    1    2    0    0  0.56293395355E+01  0.11670029769E+02  0.13520264566E+02  0.72461638572E+02  0.70000088944E+02 0.  0.
        -12    1    1    2    0    0 -0.56293395355E+01 -0.11670029769E+02 -0.13520264566E+02  0.18726361428E+02  0.00000000000E+00 0.  1.
         11    1    3    3    0    0 -0.95804925986E+01  0.11107309715E+02  0.32695686821E+02  0.35835263422E+02  0.51100000000E-03 0. -1.
        -11    1    3    3    0    0  0.68638553144E+01  0.36901098174E+01  0.60545174574E+01  0.98684650349E+01  0.51100000000E-03 0.  1.
        -12    1    3    3    0    0  0.83459768197E+01 -0.31273897639E+01 -0.25229939713E+02  0.26757910115E+02  0.00000000000E+00 0.  1.
</event>
<event>
 7    1  0.2577508E-013  0.7246158E+02  0.7816164E-02  0.1226708E+00
        -11   -1    0    0    0    0  0.00000000000E+00  0.00000000000E+00  0.45593999997E+02  0.45594000000E+02  0.51100000000E-03 0. -1.
         11   -1    0    0    0    0 -0.00000000000E+00 -0.00000000000E+00 -0.45593999997E+02  0.45594000000E+02  0.51100000000E-03 0.  1.
    9900012    2    1    2    0    0 -0.68887970009E+01  0.11163281057E+02  0.13364293991E+02  0.72461582245E+02  0.70000015567E+02 0.  0.
        -12    1    1    2    0    0  0.68887970009E+01 -0.11163281057E+02 -0.13364293991E+02  0.18726417755E+02  0.00000000000E+00 0.  1.
         11    1    3    3    0    0  0.18630542452E+02  0.18985074710E+01 -0.81538612396E+01  0.20425153514E+02  0.51100000000E-03 0. -1.
        -11    1    3    3    0    0  0.54870777356E+01  0.14702373313E+02  0.49026515186E+01  0.16440918322E+02  0.51100000000E-03 0.  1.
         12    1    3    3    0    0 -0.31006417188E+02 -0.54375997270E+01  0.16615503712E+02  0.35595510409E+02  0.00000000000E+00 0. -1.
</event>
<event>
 7    1  0.2577508E-013  0.7246157E+02  0.7816164E-02  0.1226708E+00
        -11   -1    0    0    0    0  0.00000000000E+00  0.00000000000E+00  0.45593999997E+02  0.45594000000E+02  0.51100000000E-03 0.  1.
         11   -1    0    0    0    0 -0.00000000000E+00 -0.00000000000E+00 -0.45593999997E+02  0.45594000000E+02  0.51100000000E-03 0. -1.
    9900012    2    1    2    0    0  0.17451990944E+02  0.18259327220E+01 -0.65401116856E+01  0.72461572710E+02  0.70000003146E+02 0.  0.
        -12    1    1    2    0    0 -0.17451990944E+02 -0.18259327220E+01  0.65401116856E+01  0.18726427290E+02  0.00000000000E+00 0.  1.
         11    1    3    3    0    0  0.16630361386E+02 -0.10562977629E+02 -0.18869340308E+02  0.27279982041E+02  0.51100000000E-03 0. -1.
        -11    1    3    3    0    0 -0.15563544580E+02 -0.78426768695E+01  0.52636781748E+01  0.18205433490E+02  0.51100000000E-03 0.  1.
         12    1    3    3    0    0  0.16385174138E+02  0.20231587221E+02  0.70655504479E+01  0.26976157179E+02  0.00000000000E+00 0. -1.
</event>
<event>
 7    1  0.2577508E-013  0.7246154E+02  0.7816164E-02  0.1226708E+00
        -11   -1    0    0    0    0  0.00000000000E+00  0.00000000000E+00  0.45593999997E+02  0.45594000000E+02  0.51100000000E-03 0.  1.
         11   -1    0    0    0    0 -0.00000000000E+00 -0.00000000000E+00 -0.45593999997E+02  0.45594000000E+02  0.51100000000E-03 0. -1.
    9900012    2    1    2    0    0 -0.81997673972E+01 -0.15019265435E+02 -0.76069515826E+01  0.72461541927E+02  0.69999963047E+02 0.  0.
        -12    1    1    2    0    0  0.81997673972E+01  0.15019265435E+02  0.76069515826E+01  0.18726458073E+02  0.00000000000E+00 0.  1.
         11    1    3    3    0    0 -0.52383698408E+01 -0.36439989931E+01  0.13985586641E+01  0.65326268720E+01  0.51100000000E-03 0. -1.
        -11    1    3    3    0    0 -0.25080675064E+02 -0.27425909797E+02 -0.33941377561E-01  0.37164794391E+02  0.51100000000E-03 0.  1.
         12    1    3    3    0    0  0.22119277508E+02  0.16050643355E+02 -0.89715688691E+01  0.28764120664E+02  0.00000000000E+00 0. -1.
</event>
<event>
 7    1  0.2577508E-013  0.7246159E+02  0.7816164E-02  0.1226708E+00
        -11   -1    0    0    0    0  0.00000000000E+00  0.00000000000E+00  0.45593999997E+02  0.45594000000E+02  0.51100000000E-03 0. -1.
         11   -1    0    0    0    0 -0.00000000000E+00 -0.00000000000E+00 -0.45593999997E+02  0.45594000000E+02  0.51100000000E-03 0.  1.
    9900012    2    1    2    0    0  0.73427542396E+01 -0.34345361568E+01  0.16880943899E+02  0.72461592300E+02  0.70000028666E+02 0.  0.
        -12    1    1    2    0    0 -0.73427542396E+01  0.34345361568E+01 -0.16880943899E+02  0.18726407700E+02  0.00000000000E+00 0.  1.
         11    1    3    3    0    0 -0.27516369309E+01  0.89956617098E+01 -0.85389456418E+01  0.12704606579E+02  0.51100000000E-03 0. -1.
        -11    1    3    3    0    0 -0.12013335382E+02 -0.96695863431E+01 -0.96621672840E+01  0.18198313216E+02  0.51100000000E-03 0.  1.
         12    1    3    3    0    0  0.22107726552E+02 -0.27606115235E+01  0.35082056824E+02  0.41558672504E+02  0.00000000000E+00 0. -1.
</event>
<event>
 7    1  0.2577508E-013  0.7246156E+02  0.7816164E-02  0.1226708E+00
        -11   -1    0    0    0    0  0.00000000000E+00  0.00000000000E+00  0.45593999997E+02  0.45594000000E+02  0.51100000000E-03 0.  1.
         11   -1    0    0    0    0 -0.00000000000E+00 -0.00000000000E+00 -0.45593999997E+02  0.45594000000E+02  0.51100000000E-03 0. -1.
    9900012    2    1    2    0    0  0.60601223868E+01 -0.12463005998E+02 -0.12594756302E+02  0.72461561787E+02  0.69999988917E+02 0.  0.
        -12    1    1    2    0    0 -0.60601223868E+01  0.12463005998E+02  0.12594756302E+02  0.18726438213E+02  0.00000000000E+00 0.  1.
         11    1    3    3    0    0  0.18367226118E+02 -0.74111280303E+01  0.12421674911E+02  0.23379003867E+02  0.51100000000E-03 0. -1.
        -11    1    3    3    0    0 -0.82223646743E+01 -0.57523355937E+01  0.97964819916E+01  0.14023826343E+02  0.51100000000E-03 0.  1.
         12    1    3    3    0    0 -0.40847390566E+01  0.70045762593E+00 -0.34812913204E+02  0.35058731577E+02  0.00000000000E+00 0. -1.
</event>
<event>
 7    1  0.2577508E-013  0.7246155E+02  0.7816164E-02  0.1226708E+00
        -11   -1    0    0    0    0  0.00000000000E+00  0.00000000000E+00  0.45593999997E+02  0.45594000000E+02  0.51100000000E-03 0.  1.
         11   -1    0    0    0    0 -0.00000000000E+00 -0.00000000000E+00 -0.45593999997E+02  0.45594000000E+02  0.51100000000E-03 0. -1.
    9900012    2    1    2    0    0 -0.77680513789E+01 -0.16997822176E+02  0.11880628584E+01  0.72461546137E+02  0.69999968530E+02 0.  0.
        -12    1    1    2    0    0  0.77680513789E+01  0.16997822176E+02 -0.11880628584E+01  0.18726453863E+02  0.00000000000E+00 0.  1.
         11    1    3    3    0    0 -0.15287963197E+01  0.44567236045E+01  0.48062493097E+01  0.67305004392E+01  0.51100000000E-03 0. -1.
        -11    1    3    3    0    0  0.10674622906E+02  0.17496064741E+02  0.75179035071E+01  0.21830683201E+02  0.51100000000E-03 0.  1.
         12    1    3    3    0    0 -0.16913877965E+02 -0.38950610521E+02 -0.11136089958E+02  0.43900362497E+02  0.00000000000E+00 0. -1.
</event>
<event>
 7    1  0.2577508E-013  0.7246151E+02  0.7816164E-02  0.1226708E+00
        -11   -1    0    0    0    0  0.00000000000E+00  0.00000000000E+00  0.45593999997E+02  0.45594000000E+02  0.51100000000E-03 0.  1.
         11   -1    0    0    0    0 -0.00000000000E+00 -0.00000000000E+00 -0.45593999997E+02  0.45594000000E+02  0.51100000000E-03 0. -1.
    9900012    2    1    2    0    0 -0.63751389346E+01  0.16047640693E+02 -0.72465391270E+01  0.72461508135E+02  0.69999919026E+02 0.  0.
        -12    1    1    2    0    0  0.63751389346E+01 -0.16047640693E+02  0.72465391270E+01  0.18726491865E+02  0.00000000000E+00 0.  1.
         11    1    3    3    0    0  0.72772598787E+01 -0.78228176105E+01  0.13554980846E+02  0.17259562356E+02  0.51100000000E-03 0.  1.
        -11    1    3    3    0    0 -0.15152925517E+01 -0.63218793718E+01  0.89828854876E+01  0.11088485120E+02  0.51100000000E-03 0. -1.
         12    1    3    3    0    0 -0.12137106262E+02  0.30192337675E+02 -0.29784405461E+02  0.44113460660E+02  0.00000000000E+00 0. -1.
</event>
<event>
 7    1  0.2577508E-013  0.7246159E+02  0.7816164E-02  0.1226708E+00
        -11   -1    0    0    0    0  0.00000000000E+00  0.00000000000E+00  0.45593999997E+02  0.45594000000E+02  0.51100000000E-03 0.  1.
         11   -1    0    0    0    0 -0.00000000000E+00 -0.00000000000E+00 -0.45593999997E+02  0.45594000000E+02  0.51100000000E-03 0. -1.
    9900012    2    1    2    0    0 -0.61548815568E+01  0.83589764704E+01 -0.15586001863E+02  0.72461587939E+02  0.70000022985E+02 0.  0.
        -12    1    1    2    0    0  0.61548815568E+01 -0.83589764704E+01  0.15586001863E+02  0.18726412061E+02  0.00000000000E+00 0.  1.
         11    1    3    3    0    0  0.76574561478E+01 -0.37040136622E+01 -0.61463088158E+01  0.10494449208E+02  0.51100000000E-03 0. -1.
        -11    1    3    3    0    0  0.13791887196E+02 -0.13900304516E+02 -0.13603979920E+02  0.23843298597E+02  0.51100000000E-03 0.  1.
        -12    1    3    3    0    0 -0.27604224900E+02  0.25963294649E+02  0.41642868729E+01  0.38123840133E+02  0.00000000000E+00 0.  1.
</event>
<event>
 7    1  0.2577508E-013  0.7246156E+02  0.7816164E-02  0.1226708E+00
        -11   -1    0    0    0    0  0.00000000000E+00  0.00000000000E+00  0.45593999997E+02  0.45594000000E+02  0.51100000000E-03 0.  1.
         11   -1    0    0    0    0 -0.00000000000E+00 -0.00000000000E+00 -0.45593999997E+02  0.45594000000E+02  0.51100000000E-03 0. -1.
    9900012    2    1    2    0    0 -0.72626272991E+01  0.39378396635E+01 -0.16805566483E+02  0.72461564105E+02  0.69999991938E+02 0.  0.
        -12    1    1    2    0    0  0.72626272991E+01 -0.39378396635E+01  0.16805566483E+02  0.18726435895E+02  0.00000000000E+00 0.  1.
         11    1    3    3    0    0 -0.19201924515E+02  0.10861351065E+02  0.93963931074E+01  0.23978637487E+02  0.51100000000E-03 0. -1.
        -11    1    3    3    0    0 -0.53404248299E+01  0.13017177480E+02 -0.12141540350E+02  0.18584511003E+02  0.51100000000E-03 0.  1.
         12    1    3    3    0    0  0.17279722046E+02 -0.19940688881E+02 -0.14060419240E+02  0.29898415615E+02  0.00000000000E+00 0. -1.
</event>
<event>
 7    1  0.2577508E-013  0.7246151E+02  0.7816164E-02  0.1226708E+00
        -11   -1    0    0    0    0  0.00000000000E+00  0.00000000000E+00  0.45593999997E+02  0.45594000000E+02  0.51100000000E-03 0. -1.
         11   -1    0    0    0    0 -0.00000000000E+00 -0.00000000000E+00 -0.45593999997E+02  0.45594000000E+02  0.51100000000E-03 0.  1.
    9900012    2    1    2    0    0  0.16481070584E+02 -0.85687032864E+01  0.23734118917E+01  0.72461509469E+02  0.69999920763E+02 0.  0.
        -12    1    1    2    0    0 -0.16481070584E+02  0.85687032864E+01 -0.23734118917E+01  0.18726490531E+02  0.00000000000E+00 0.  1.
         11    1    3    3    0    0  0.45065847794E+01 -0.11924788184E+02 -0.16085898224E+02  0.20524765566E+02  0.51100000000E-03 0. -1.
        -11    1    3    3    0    0  0.71301937656E+01 -0.10003586528E+02 -0.12712656806E+02  0.17678321467E+02  0.51100000000E-03 0.  1.
         12    1    3    3    0    0  0.48442920390E+01  0.13359671426E+02  0.31171966922E+02  0.34258422435E+02  0.00000000000E+00 0. -1.
</event>
<event>
 7    1  0.2577508E-013  0.7246156E+02  0.7816164E-02  0.1226708E+00
        -11   -1    0    0    0    0  0.00000000000E+00  0.00000000000E+00  0.45593999997E+02  0.45594000000E+02  0.51100000000E-03 0. -1.
         11   -1    0    0    0    0 -0.00000000000E+00 -0.00000000000E+00 -0.45593999997E+02  0.45594000000E+02  0.51100000000E-03 0.  1.
    9900012    2    1    2    0    0 -0.14009294088E+02  0.73209485281E+01  0.10041063931E+02  0.72461559520E+02  0.69999985965E+02 0.  0.
        -12    1    1    2    0    0  0.14009294088E+02 -0.73209485281E+01 -0.10041063931E+02  0.18726440480E+02  0.00000000000E+00 0.  1.
         11    1    3    3    0    0 -0.66478477706E+01 -0.91515514115E+01 -0.44487309685E+01  0.12154669091E+02  0.51100000000E-03 0. -1.
        -11    1    3    3    0    0 -0.27422710411E+02  0.15905595970E+02 -0.52768852472E+01  0.32137805581E+02  0.51100000000E-03 0.  1.
         12    1    3    3    0    0  0.20061264094E+02  0.56690396997E+00  0.19766680146E+02  0.28169084848E+02  0.00000000000E+00 0. -1.
</event>
<event>
 7    1  0.2577508E-013  0.7246154E+02  0.7816164E-02  0.1226708E+00
        -11   -1    0    0    0    0  0.00000000000E+00  0.00000000000E+00  0.45593999997E+02  0.45594000000E+02  0.51100000000E-03 0.  1.
         11   -1    0    0    0    0 -0.00000000000E+00 -0.00000000000E+00 -0.45593999997E+02  0.45594000000E+02  0.51100000000E-03 0. -1.
    9900012    2    1    2    0    0 -0.36033690667E+01 -0.12709907336E+02 -0.13272308623E+02  0.72461543066E+02  0.69999964530E+02 0.  0.
        -12    1    1    2    0    0  0.36033690667E+01  0.12709907336E+02  0.13272308623E+02  0.18726456934E+02  0.00000000000E+00 0.  1.
         11    1    3    3    0    0 -0.97697099789E+01  0.37310793127E+01  0.39611025566E+01  0.11182956659E+02  0.51100000000E-03 0. -1.
        -11    1    3    3    0    0 -0.24476710074E+02 -0.31576791508E+01 -0.12106757951E+02  0.27489158990E+02  0.51100000000E-03 0.  1.
        -12    1    3    3    0    0  0.30643050986E+02 -0.13283307498E+02 -0.51266532288E+01  0.33789427416E+02  0.00000000000E+00 0.  1.
</event>
<event>
 7    1  0.2577508E-013  0.7246157E+02  0.7816164E-02  0.1226708E+00
        -11   -1    0    0    0    0  0.00000000000E+00  0.00000000000E+00  0.45593999997E+02  0.45594000000E+02  0.51100000000E-03 0. -1.
         11   -1    0    0    0    0 -0.00000000000E+00 -0.00000000000E+00 -0.45593999997E+02  0.45594000000E+02  0.51100000000E-03 0.  1.
    9900012    2    1    2    0    0  0.10049764569E+02 -0.14859468180E+02  0.53737910301E+01  0.72461569680E+02  0.69999999200E+02 0.  0.
        -12    1    1    2    0    0 -0.10049764569E+02  0.14859468180E+02 -0.53737910301E+01  0.18726430320E+02  0.00000000000E+00 0.  1.
         11    1    3    3    0    0 -0.27236109263E+02 -0.67922363434E+01  0.20195198427E+01  0.28142824716E+02  0.51100000000E-03 0. -1.
        -11    1    3    3    0    0 -0.26089134757E+01 -0.14937696257E+01  0.24462883174E+01  0.38758359113E+01  0.51100000000E-03 0.  1.
        -12    1    3    3    0    0  0.39894787308E+02 -0.65734622109E+01  0.90798286999E+00  0.40442909053E+02  0.00000000000E+00 0.  1.
</event>
<event>
 7    1  0.2577508E-013  0.7246157E+02  0.7816164E-02  0.1226708E+00
        -11   -1    0    0    0    0  0.00000000000E+00  0.00000000000E+00  0.45593999997E+02  0.45594000000E+02  0.51100000000E-03 0. -1.
         11   -1    0    0    0    0 -0.00000000000E+00 -0.00000000000E+00 -0.45593999997E+02  0.45594000000E+02  0.51100000000E-03 0.  1.
    9900012    2    1    2    0    0  0.27064654855E+00 -0.13381681407E+02  0.13097190407E+02  0.72461573662E+02  0.70000004387E+02 0.  0.
        -12    1    1    2    0    0 -0.27064654855E+00  0.13381681407E+02 -0.13097190407E+02  0.18726426338E+02  0.00000000000E+00 0.  1.
         11    1    3    3    0    0 -0.82484284293E+01  0.41931406215E+01  0.12299134689E+02  0.15391157012E+02  0.51100000000E-03 0. -1.
        -11    1    3    3    0    0 -0.11805015898E+02  0.13094078054E+02 -0.78139415715E+01  0.19283956118E+02  0.51100000000E-03 0.  1.
         12    1    3    3    0    0  0.20324090876E+02 -0.30668900082E+02  0.86119972892E+01  0.37786460532E+02  0.00000000000E+00 0. -1.
</event>
<event>
 7    1  0.2577508E-013  0.7246160E+02  0.7816164E-02  0.1226708E+00
        -11   -1    0    0    0    0  0.00000000000E+00  0.00000000000E+00  0.45593999997E+02  0.45594000000E+02  0.51100000000E-03 0. -1.
         11   -1    0    0    0    0 -0.00000000000E+00 -0.00000000000E+00 -0.45593999997E+02  0.45594000000E+02  0.51100000000E-03 0.  1.
    9900012    2    1    2    0    0 -0.10748361275E+02 -0.14991007677E+02 -0.32280632261E+01  0.72461602230E+02  0.70000041602E+02 0.  0.
        -12    1    1    2    0    0  0.10748361275E+02  0.14991007677E+02  0.32280632261E+01  0.18726397770E+02  0.00000000000E+00 0.  1.
         11    1    3    3    0    0  0.75128397436E+01 -0.42921593862E+01 -0.14478389804E+02  0.16866806597E+02  0.51100000000E-03 0. -1.
        -11    1    3    3    0    0 -0.33557712332E+02 -0.57092624285E+01 -0.29063031760E+01  0.34163757593E+02  0.51100000000E-03 0.  1.
         12    1    3    3    0    0  0.15296511314E+02 -0.49895858621E+01  0.14156629754E+02  0.21431038039E+02  0.00000000000E+00 0. -1.
</event>
<event>
 7    1  0.2577508E-013  0.7246159E+02  0.7816164E-02  0.1226708E+00
        -11   -1    0    0    0    0  0.00000000000E+00  0.00000000000E+00  0.45593999997E+02  0.45594000000E+02  0.51100000000E-03 0. -1.
         11   -1    0    0    0    0 -0.00000000000E+00 -0.00000000000E+00 -0.45593999997E+02  0.45594000000E+02  0.51100000000E-03 0.  1.
    9900012    2    1    2    0    0  0.45350352325E+01  0.15188899961E+02  0.99704177063E+01  0.72461589350E+02  0.70000024824E+02 0.  0.
        -12    1    1    2    0    0 -0.45350352325E+01 -0.15188899961E+02 -0.99704177063E+01  0.18726410650E+02  0.00000000000E+00 0.  1.
         11    1    3    3    0    0  0.52632302365E+01  0.20622003864E+02 -0.48927885353E+01  0.21838223733E+02  0.51100000000E-03 0. -1.
        -11    1    3    3    0    0  0.13347205968E+02  0.15333482280E+02 -0.19514907702E+01  0.20422338320E+02  0.51100000000E-03 0.  1.
        -12    1    3    3    0    0 -0.14075400972E+02 -0.20766586183E+02  0.16814697012E+02  0.30201027297E+02  0.00000000000E+00 0.  1.
</event>
<event>
 7    1  0.2577508E-013  0.7246210E+02  0.7816164E-02  0.1226707E+00
        -11   -1    0    0    0    0  0.00000000000E+00  0.00000000000E+00  0.45593999997E+02  0.45594000000E+02  0.51100000000E-03 0.  1.
         11   -1    0    0    0    0 -0.00000000000E+00 -0.00000000000E+00 -0.45593999997E+02  0.45594000000E+02  0.51100000000E-03 0. -1.
    9900012    2    1    2    0    0  0.13174785942E+02 -0.13161731936E+02 -0.19629464881E+01  0.72462099993E+02  0.70000690027E+02 0.  0.
        -12    1    1    2    0    0 -0.13174785942E+02  0.13161731936E+02  0.19629464881E+01  0.18725900007E+02  0.00000000000E+00 0.  1.
         11    1    3    3    0    0  0.23342930761E+02  0.41997046073E+01 -0.19655939625E+02  0.30803991594E+02  0.51100000000E-03 0. -1.
        -11    1    3    3    0    0  0.66332126642E+01 -0.66962401890E+01 -0.56456147012E+01  0.10986906231E+02  0.51100000000E-03 0.  1.
        -12    1    3    3    0    0 -0.16801357484E+02 -0.10665196354E+02  0.23338607838E+02  0.30671202167E+02  0.00000000000E+00 0.  1.
</event>
<event>
 7    1  0.2577508E-013  0.7246166E+02  0.7816164E-02  0.1226708E+00
        -11   -1    0    0    0    0  0.00000000000E+00  0.00000000000E+00  0.45593999997E+02  0.45594000000E+02  0.51100000000E-03 0. -1.
         11   -1    0    0    0    0 -0.00000000000E+00 -0.00000000000E+00 -0.45593999997E+02  0.45594000000E+02  0.51100000000E-03 0.  1.
    9900012    2    1    2    0    0 -0.42003168008E+01 -0.12558357050E+02 -0.13240882556E+02  0.72461655886E+02  0.70000111499E+02 0.  0.
        -12    1    1    2    0    0  0.42003168008E+01  0.12558357050E+02  0.13240882556E+02  0.18726344114E+02  0.00000000000E+00 0.  1.
         11    1    3    3    0    0  0.21159901273E+02  0.21376709085E+01 -0.21950427091E+01  0.21380581646E+02  0.51100000000E-03 0. -1.
        -11    1    3    3    0    0  0.24892043375E+01 -0.13208858168E+02  0.94840724091E+01  0.16450462062E+02  0.51100000000E-03 0.  1.
        -12    1    3    3    0    0 -0.27849422411E+02 -0.14871697910E+01 -0.20529912255E+02  0.34630612178E+02  0.00000000000E+00 0.  1.
</event>
<event>
 7    1  0.2577508E-013  0.7246147E+02  0.7816164E-02  0.1226708E+00
        -11   -1    0    0    0    0  0.00000000000E+00  0.00000000000E+00  0.45593999997E+02  0.45594000000E+02  0.51100000000E-03 0.  1.
         11   -1    0    0    0    0 -0.00000000000E+00 -0.00000000000E+00 -0.45593999997E+02  0.45594000000E+02  0.51100000000E-03 0. -1.
    9900012    2    1    2    0    0  0.17272096199E+02 -0.16266550375E+01  0.70506347073E+01  0.72461474335E+02  0.69999874995E+02 0.  0.
        -12    1    1    2    0    0 -0.17272096199E+02  0.16266550375E+01 -0.70506347073E+01  0.18726525665E+02  0.00000000000E+00 0.  1.
         11    1    3    3    0    0 -0.13569654908E+02  0.42459690965E+01 -0.10989657090E+02  0.17970429909E+02  0.51100000000E-03 0. -1.
        -11    1    3    3    0    0  0.15184270995E+02  0.13369571354E+02 -0.47748701497E+01  0.20787181363E+02  0.51100000000E-03 0.  1.
        -12    1    3    3    0    0  0.15657480112E+02 -0.19242195488E+02  0.22815161947E+02  0.33703863062E+02  0.00000000000E+00 0.  1.
</event>
<event>
 7    1  0.2577508E-013  0.7246152E+02  0.7816164E-02  0.1226708E+00
        -11   -1    0    0    0    0  0.00000000000E+00  0.00000000000E+00  0.45593999997E+02  0.45594000000E+02  0.51100000000E-03 0.  1.
         11   -1    0    0    0    0 -0.00000000000E+00 -0.00000000000E+00 -0.45593999997E+02  0.45594000000E+02  0.51100000000E-03 0. -1.
    9900012    2    1    2    0    0 -0.18941467464E+00 -0.17171232446E+01 -0.18646628084E+02  0.72461517974E+02  0.69999931843E+02 0.  0.
        -12    1    1    2    0    0  0.18941467464E+00  0.17171232446E+01  0.18646628084E+02  0.18726482026E+02  0.00000000000E+00 0.  1.
         11    1    3    3    0    0  0.82664903383E+01 -0.49001846108E+01 -0.14493594375E+01  0.97184008341E+01  0.51100000000E-03 0. -1.
        -11    1    3    3    0    0 -0.96486047881E+01 -0.18015054946E+01  0.21538599653E+02  0.23669648744E+02  0.51100000000E-03 0.  1.
         12    1    3    3    0    0  0.11926997752E+01  0.49845668608E+01 -0.38735868300E+02  0.39073468396E+02  0.00000000000E+00 0. -1.
</event>
<event>
 7    1  0.2577508E-013  0.7246157E+02  0.7816164E-02  0.1226708E+00
        -11   -1    0    0    0    0  0.00000000000E+00  0.00000000000E+00  0.45593999997E+02  0.45594000000E+02  0.51100000000E-03 0.  1.
         11   -1    0    0    0    0 -0.00000000000E+00 -0.00000000000E+00 -0.45593999997E+02  0.45594000000E+02  0.51100000000E-03 0. -1.
    9900012    2    1    2    0    0  0.14287719600E+02  0.12543331083E+01 -0.12040217279E+02  0.72461571749E+02  0.70000001895E+02 0.  0.
        -12    1    1    2    0    0 -0.14287719600E+02 -0.12543331083E+01  0.12040217279E+02  0.18726428251E+02  0.00000000000E+00 0.  1.
         11    1    3    3    0    0  0.20171768298E+02 -0.67994838383E+01 -0.27375045073E+00  0.21288686111E+02  0.51100000000E-03 0. -1.
        -11    1    3    3    0    0  0.89400955123E+01 -0.62255025909E+01  0.14289064869E+02  0.17968293335E+02  0.51100000000E-03 0.  1.
         12    1    3    3    0    0 -0.14824144210E+02  0.14279319537E+02 -0.26055531697E+02  0.33204592303E+02  0.00000000000E+00 0. -1.
</event>
<event>
 7    1  0.2577508E-013  0.7246158E+02  0.7816164E-02  0.1226708E+00
        -11   -1    0    0    0    0  0.00000000000E+00  0.00000000000E+00  0.45593999997E+02  0.45594000000E+02  0.51100000000E-03 0.  1.
         11   -1    0    0    0    0 -0.00000000000E+00 -0.00000000000E+00 -0.45593999997E+02  0.45594000000E+02  0.51100000000E-03 0. -1.
    9900012    2    1    2    0    0  0.14615277140E+02  0.36119757755E+01 -0.11136708836E+02  0.72461575393E+02  0.70000006642E+02 0.  0.
        -12    1    1    2    0    0 -0.14615277140E+02 -0.36119757755E+01  0.11136708836E+02  0.18726424607E+02  0.00000000000E+00 0.  1.
         11    1    3    3    0    0  0.17923987363E+02 -0.99900418139E+01 -0.54036418686E+01  0.21219557114E+02  0.51100000000E-03 0. -1.
        -11    1    3    3    0    0 -0.15333931554E+02 -0.52187382802E+01  0.14022432086E+02  0.21424128641E+02  0.51100000000E-03 0.  1.
         12    1    3    3    0    0  0.12025221331E+02  0.18820755870E+02 -0.19755499054E+02  0.29817889638E+02  0.00000000000E+00 0. -1.
</event>
<event>
 7    1  0.2577508E-013  0.7246159E+02  0.7816164E-02  0.1226708E+00
        -11   -1    0    0    0    0  0.00000000000E+00  0.00000000000E+00  0.45593999997E+02  0.45594000000E+02  0.51100000000E-03 0.  1.
         11   -1    0    0    0    0 -0.00000000000E+00 -0.00000000000E+00 -0.45593999997E+02  0.45594000000E+02  0.51100000000E-03 0. -1.
    9900012    2    1    2    0    0  0.72901414649E+00  0.18030911092E+02  0.50033223299E+01  0.72461589485E+02  0.70000024999E+02 0.  0.
        -12    1    1    2    0    0 -0.72901414649E+00 -0.18030911092E+02 -0.50033223299E+01  0.18726410515E+02  0.00000000000E+00 0.  1.
         11    1    3    3    0    0  0.16923566882E+02  0.15657802423E+02  0.98938211860E+01  0.25089073133E+02  0.51100000000E-03 0. -1.
        -11    1    3    3    0    0  0.11311150170E+02  0.99907728067E+00  0.10804563752E+02  0.15674146602E+02  0.51100000000E-03 0.  1.
         12    1    3    3    0    0 -0.27505702905E+02  0.13740313881E+01 -0.15695062608E+02  0.31698369750E+02  0.00000000000E+00 0. -1.
</event>
<event>
 7    1  0.2577508E-013  0.7246160E+02  0.7816164E-02  0.1226708E+00
        -11   -1    0    0    0    0  0.00000000000E+00  0.00000000000E+00  0.45593999997E+02  0.45594000000E+02  0.51100000000E-03 0. -1.
         11   -1    0    0    0    0 -0.00000000000E+00 -0.00000000000E+00 -0.45593999997E+02  0.45594000000E+02  0.51100000000E-03 0.  1.
    9900012    2    1    2    0    0 -0.13927125305E+02  0.96036170222E+01  0.80301784971E+01  0.72461600297E+02  0.70000039084E+02 0.  0.
        -12    1    1    2    0    0  0.13927125305E+02 -0.96036170222E+01 -0.80301784971E+01  0.18726399703E+02  0.00000000000E+00 0.  1.
         11    1    3    3    0    0 -0.17549379437E+02  0.84163126639E+01  0.15111103305E+02  0.24640626632E+02  0.51100000000E-03 0. -1.
        -11    1    3    3    0    0  0.22773427946E+01  0.55908935603E+01  0.19722087710E+02  0.20625351510E+02  0.51100000000E-03 0.  1.
        -12    1    3    3    0    0  0.13449113377E+01 -0.44035892020E+01 -0.26803012518E+02  0.27195622155E+02  0.00000000000E+00 0.  1.
</event>
<event>
 7    1  0.2577508E-013  0.7246170E+02  0.7816164E-02  0.1226708E+00
        -11   -1    0    0    0    0  0.00000000000E+00  0.00000000000E+00  0.45593999997E+02  0.45594000000E+02  0.51100000000E-03 0.  1.
         11   -1    0    0    0    0 -0.00000000000E+00 -0.00000000000E+00 -0.45593999997E+02  0.45594000000E+02  0.51100000000E-03 0. -1.
    9900012    2    1    2    0    0  0.92262116427E+01 -0.15804922213E+02 -0.39693300277E+01  0.72461704896E+02  0.70000175344E+02 0.  0.
        -12    1    1    2    0    0 -0.92262116427E+01  0.15804922213E+02  0.39693300277E+01  0.18726295104E+02  0.00000000000E+00 0.  1.
         11    1    3    3    0    0 -0.27644186888E+01 -0.13959634980E+02 -0.22375494485E+00  0.14232479966E+02  0.51100000000E-03 0. -1.
        -11    1    3    3    0    0 -0.15501688782E+02 -0.12864751321E+02 -0.16443354729E+02  0.26003616992E+02  0.51100000000E-03 0.  1.
         12    1    3    3    0    0  0.27492319114E+02  0.11019464087E+02  0.12697779646E+02  0.32225607938E+02  0.00000000000E+00 0. -1.
</event>
<event>
 7    1  0.2577508E-013  0.7246155E+02  0.7816164E-02  0.1226708E+00
        -11   -1    0    0    0    0  0.00000000000E+00  0.00000000000E+00  0.45593999997E+02  0.45594000000E+02  0.51100000000E-03 0.  1.
         11   -1    0    0    0    0 -0.00000000000E+00 -0.00000000000E+00 -0.45593999997E+02  0.45594000000E+02  0.51100000000E-03 0. -1.
    9900012    2    1    2    0    0  0.15215236503E+02  0.10896049145E+02 -0.67276616375E+00  0.72461550173E+02  0.69999973788E+02 0.  0.
        -12    1    1    2    0    0 -0.15215236503E+02 -0.10896049145E+02  0.67276616375E+00  0.18726449827E+02  0.00000000000E+00 0.  1.
         11    1    3    3    0    0  0.15769515512E+02 -0.18076002656E+02 -0.15622442437E+02  0.28626564577E+02  0.51100000000E-03 0. -1.
        -11    1    3    3    0    0 -0.46581772434E+01 -0.50057100114E+01  0.38942827170E+01  0.78690015943E+01  0.51100000000E-03 0.  1.
         12    1    3    3    0    0  0.41038982344E+01  0.33977761813E+02  0.11055393556E+02  0.35965984002E+02  0.00000000000E+00 0. -1.
</event>
<event>
 7    1  0.2577508E-013  0.7246159E+02  0.7816164E-02  0.1226708E+00
        -11   -1    0    0    0    0  0.00000000000E+00  0.00000000000E+00  0.45593999997E+02  0.45594000000E+02  0.51100000000E-03 0.  1.
         11   -1    0    0    0    0 -0.00000000000E+00 -0.00000000000E+00 -0.45593999997E+02  0.45594000000E+02  0.51100000000E-03 0. -1.
    9900012    2    1    2    0    0  0.48147477709E+01  0.13600071760E+02 -0.11938796736E+02  0.72461585088E+02  0.70000019271E+02 0.  0.
        -12    1    1    2    0    0 -0.48147477709E+01 -0.13600071760E+02  0.11938796736E+02  0.18726414912E+02  0.00000000000E+00 0.  1.
         11    1    3    3    0    0 -0.14020469114E+01  0.47437531118E+01 -0.69332488084E+01  0.85169753098E+01  0.51100000000E-03 0. -1.
        -11    1    3    3    0    0  0.26422338419E+02 -0.11029596675E+02 -0.16847481955E+02  0.33220921402E+02  0.51100000000E-03 0.  1.
        -12    1    3    3    0    0 -0.20205543736E+02  0.19885915323E+02  0.11841934028E+02  0.30723688376E+02  0.00000000000E+00 0.  1.
</event>
<event>
 7    1  0.2577508E-013  0.7246160E+02  0.7816164E-02  0.1226708E+00
        -11   -1    0    0    0    0  0.00000000000E+00  0.00000000000E+00  0.45593999997E+02  0.45594000000E+02  0.51100000000E-03 0.  1.
         11   -1    0    0    0    0 -0.00000000000E+00 -0.00000000000E+00 -0.45593999997E+02  0.45594000000E+02  0.51100000000E-03 0. -1.
    9900012    2    1    2    0    0  0.10974575429E+02 -0.14807444363E+02  0.33130740934E+01  0.72461596865E+02  0.70000034614E+02 0.  0.
        -12    1    1    2    0    0 -0.10974575429E+02  0.14807444363E+02 -0.33130740934E+01  0.18726403135E+02  0.00000000000E+00 0.  1.
         11    1    3    3    0    0 -0.15279912755E+02 -0.94689075097E+01  0.21946517888E+01  0.18109457197E+02  0.51100000000E-03 0. -1.
        -11    1    3    3    0    0 -0.44015076164E+01  0.96246681820E+01  0.14292023281E+02  0.17783965717E+02  0.51100000000E-03 0.  1.
         12    1    3    3    0    0  0.30655995800E+02 -0.14963205035E+02 -0.13173600976E+02  0.36568173951E+02  0.00000000000E+00 0. -1.
</event>
<event>
 7    1  0.2577508E-013  0.7246157E+02  0.7816164E-02  0.1226708E+00
        -11   -1    0    0    0    0  0.00000000000E+00  0.00000000000E+00  0.45593999997E+02  0.45594000000E+02  0.51100000000E-03 0.  1.
         11   -1    0    0    0    0 -0.00000000000E+00 -0.00000000000E+00 -0.45593999997E+02  0.45594000000E+02  0.51100000000E-03 0. -1.
    9900012    2    1    2    0    0  0.15493258652E+02  0.51728010999E+01 -0.91586259534E+01  0.72461565095E+02  0.69999993228E+02 0.  0.
        -12    1    1    2    0    0 -0.15493258652E+02 -0.51728010999E+01  0.91586259534E+01  0.18726434905E+02  0.00000000000E+00 0.  1.
         11    1    3    3    0    0  0.11160947232E+02 -0.37711210173E+01 -0.10089359366E+02  0.15510746904E+02  0.51100000000E-03 0. -1.
        -11    1    3    3    0    0  0.15383519422E+02  0.29080508992E+02 -0.48767216090E+01  0.33258248405E+02  0.51100000000E-03 0.  1.
         12    1    3    3    0    0 -0.11051208002E+02 -0.20136586875E+02  0.58074550212E+01  0.23692569787E+02  0.00000000000E+00 0. -1.
</event>
<event>
 7    1  0.2577508E-013  0.7246165E+02  0.7816164E-02  0.1226708E+00
        -11   -1    0    0    0    0  0.00000000000E+00  0.00000000000E+00  0.45593999997E+02  0.45594000000E+02  0.51100000000E-03 0.  1.
         11   -1    0    0    0    0 -0.00000000000E+00 -0.00000000000E+00 -0.45593999997E+02  0.45594000000E+02  0.51100000000E-03 0. -1.
    9900012    2    1    2    0    0  0.23027259636E+01  0.17155229498E+02 -0.71464434102E+01  0.72461652267E+02  0.70000106785E+02 0.  0.
        -12    1    1    2    0    0 -0.23027259636E+01 -0.17155229498E+02  0.71464434102E+01  0.18726347733E+02  0.00000000000E+00 0.  1.
         11    1    3    3    0    0  0.33616268630E+01 -0.16875064453E+02 -0.54632137260E+01  0.18053117180E+02  0.51100000000E-03 0. -1.
        -11    1    3    3    0    0 -0.15382078000E+02 -0.42437081026E+00 -0.66553133943E+01  0.16765488684E+02  0.51100000000E-03 0.  1.
        -12    1    3    3    0    0  0.14323177101E+02  0.34454664761E+02  0.49720837101E+01  0.37643046403E+02  0.00000000000E+00 0.  1.
</event>
<event>
 7    1  0.2577508E-013  0.7246163E+02  0.7816164E-02  0.1226708E+00
        -11   -1    0    0    0    0  0.00000000000E+00  0.00000000000E+00  0.45593999997E+02  0.45594000000E+02  0.51100000000E-03 0.  1.
         11   -1    0    0    0    0 -0.00000000000E+00 -0.00000000000E+00 -0.45593999997E+02  0.45594000000E+02  0.51100000000E-03 0. -1.
    9900012    2    1    2    0    0 -0.16436603130E+02  0.57513218769E+00 -0.89545708799E+01  0.72461627176E+02  0.70000074099E+02 0.  0.
        -12    1    1    2    0    0  0.16436603130E+02 -0.57513218769E+00  0.89545708799E+01  0.18726372824E+02  0.00000000000E+00 0.  1.
         11    1    3    3    0    0 -0.77767121999E+01 -0.18090378515E+01 -0.21584483779E+02  0.23013904728E+02  0.51100000000E-03 0. -1.
        -11    1    3    3    0    0  0.18314349184E+02  0.54867345720E+01 -0.84219734114E+00  0.19137108948E+02  0.51100000000E-03 0.  1.
        -12    1    3    3    0    0 -0.26974240114E+02 -0.31025645329E+01  0.13472110240E+02  0.30310613499E+02  0.00000000000E+00 0.  1.
</event>
<event>
 7    1  0.2577508E-013  0.7246158E+02  0.7816164E-02  0.1226708E+00
        -11   -1    0    0    0    0  0.00000000000E+00  0.00000000000E+00  0.45593999997E+02  0.45594000000E+02  0.51100000000E-03 0. -1.
         11   -1    0    0    0    0 -0.00000000000E+00 -0.00000000000E+00 -0.45593999997E+02  0.45594000000E+02  0.51100000000E-03 0.  1.
    9900012    2    1    2    0    0 -0.14313718431E+02  0.47686795882E+01  0.11093059756E+02  0.72461579758E+02  0.70000012328E+02 0.  0.
        -12    1    1    2    0    0  0.14313718431E+02 -0.47686795882E+01 -0.11093059756E+02  0.18726420242E+02  0.00000000000E+00 0.  1.
         11    1    3    3    0    0  0.73112105518E+01 -0.50269603171E+01  0.27343906132E+02  0.28747405667E+02  0.51100000000E-03 0. -1.
        -11    1    3    3    0    0  0.75465234507E+01  0.32459059502E+01 -0.10393602729E+02  0.13248128154E+02  0.51100000000E-03 0.  1.
        -12    1    3    3    0    0 -0.29171452433E+02  0.65497339551E+01 -0.58572436461E+01  0.30466045938E+02  0.00000000000E+00 0.  1.
</event>
<event>
 7    1  0.2577508E-013  0.7246162E+02  0.7816164E-02  0.1226708E+00
        -11   -1    0    0    0    0  0.00000000000E+00  0.00000000000E+00  0.45593999997E+02  0.45594000000E+02  0.51100000000E-03 0. -1.
         11   -1    0    0    0    0 -0.00000000000E+00 -0.00000000000E+00 -0.45593999997E+02  0.45594000000E+02  0.51100000000E-03 0.  1.
    9900012    2    1    2    0    0 -0.17985216089E+02  0.37421335968E+01 -0.36339804651E+01  0.72461618192E+02  0.70000062395E+02 0.  0.
        -12    1    1    2    0    0  0.17985216089E+02 -0.37421335968E+01  0.36339804651E+01  0.18726381808E+02  0.00000000000E+00 0.  1.
         11    1    3    3    0    0 -0.14138018821E+02 -0.25298560674E+01 -0.14207976268E+02  0.20202730949E+02  0.51100000000E-03 0.  1.
        -11    1    3    3    0    0  0.16788984077E+02  0.20092984116E+02  0.74708718701E+01  0.27228880325E+02  0.51100000000E-03 0. -1.
         12    1    3    3    0    0 -0.20636181345E+02 -0.13820994452E+02  0.31031239330E+01  0.25030006917E+02  0.00000000000E+00 0. -1.
</event>
<event>
 7    1  0.2577508E-013  0.7246154E+02  0.7816164E-02  0.1226708E+00
        -11   -1    0    0    0    0  0.00000000000E+00  0.00000000000E+00  0.45593999997E+02  0.45594000000E+02  0.51100000000E-03 0.  1.
         11   -1    0    0    0    0 -0.00000000000E+00 -0.00000000000E+00 -0.45593999997E+02  0.45594000000E+02  0.51100000000E-03 0. -1.
    9900012    2    1    2    0    0 -0.28819031897E+01  0.37007524161E+01 -0.18129513013E+02  0.72461543407E+02  0.69999964974E+02 0.  0.
        -12    1    1    2    0    0  0.28819031897E+01 -0.37007524161E+01  0.18129513013E+02  0.18726456593E+02  0.00000000000E+00 0.  1.
         11    1    3    3    0    0 -0.72476384444E+00 -0.64450982576E+01 -0.16221343101E+02  0.17469875399E+02  0.51100000000E-03 0. -1.
        -11    1    3    3    0    0 -0.14273373930E+01 -0.22379273012E+02 -0.89359241844E+00  0.22442541305E+02  0.51100000000E-03 0.  1.
        -12    1    3    3    0    0 -0.72980195225E+00  0.32525123685E+02 -0.10145774936E+01  0.32549126703E+02  0.00000000000E+00 0.  1.
</event>
<event>
 7    1  0.2577508E-013  0.7246158E+02  0.7816164E-02  0.1226708E+00
        -11   -1    0    0    0    0  0.00000000000E+00  0.00000000000E+00  0.45593999997E+02  0.45594000000E+02  0.51100000000E-03 0. -1.
         11   -1    0    0    0    0 -0.00000000000E+00 -0.00000000000E+00 -0.45593999997E+02  0.45594000000E+02  0.51100000000E-03 0.  1.
    9900012    2    1    2    0    0  0.13118405079E+02  0.13043900461E+02 -0.29056614361E+01  0.72461581244E+02  0.70000014264E+02 0.  0.
        -12    1    1    2    0    0 -0.13118405079E+02 -0.13043900461E+02  0.29056614361E+01  0.18726418756E+02  0.00000000000E+00 0.  1.
         11    1    3    3    0    0 -0.11602635832E+02 -0.30567757393E+01  0.18225676851E+02  0.21820640071E+02  0.51100000000E-03 0. -1.
        -11    1    3    3    0    0 -0.52529272296E+01 -0.41282173982E+01  0.28360102475E+01  0.72579871694E+01  0.51100000000E-03 0.  1.
        -12    1    3    3    0    0  0.29973968140E+02  0.20228893598E+02 -0.23967348535E+02  0.43382954004E+02  0.00000000000E+00 0.  1.
</event>
<event>
 7    1  0.2577508E-013  0.7246171E+02  0.7816164E-02  0.1226708E+00
        -11   -1    0    0    0    0  0.00000000000E+00  0.00000000000E+00  0.45593999997E+02  0.45594000000E+02  0.51100000000E-03 0.  1.
         11   -1    0    0    0    0 -0.00000000000E+00 -0.00000000000E+00 -0.45593999997E+02  0.45594000000E+02  0.51100000000E-03 0. -1.
    9900012    2    1    2    0    0  0.44308971446E+01 -0.17739866579E+02 -0.40420685401E+01  0.72461707419E+02  0.70000178630E+02 0.  0.
        -12    1    1    2    0    0 -0.44308971446E+01  0.17739866579E+02  0.40420685401E+01  0.18726292581E+02  0.00000000000E+00 0.  1.
         11    1    3    3    0    0  0.12403533881E+01 -0.28108894584E+01 -0.10997469942E+02  0.11418577909E+02  0.51100000000E-03 0. -1.
        -11    1    3    3    0    0  0.11438007872E+02  0.17525258341E+02 -0.10353214086E+02  0.23348484879E+02  0.51100000000E-03 0.  1.
        -12    1    3    3    0    0 -0.82474641154E+01 -0.32454235462E+02  0.17308615488E+02  0.37694644631E+02  0.00000000000E+00 0.  1.
</event>
<event>
 7    1  0.2577508E-013  0.7246158E+02  0.7816164E-02  0.1226708E+00
        -11   -1    0    0    0    0  0.00000000000E+00  0.00000000000E+00  0.45593999997E+02  0.45594000000E+02  0.51100000000E-03 0.  1.
         11   -1    0    0    0    0 -0.00000000000E+00 -0.00000000000E+00 -0.45593999997E+02  0.45594000000E+02  0.51100000000E-03 0. -1.
    9900012    2    1    2    0    0 -0.56861228116E-02  0.53977432644E+01 -0.17931626624E+02  0.72461577542E+02  0.70000009442E+02 0.  0.
        -12    1    1    2    0    0  0.56861228116E-02 -0.53977432644E+01  0.17931626624E+02  0.18726422458E+02  0.00000000000E+00 0.  1.
         11    1    3    3    0    0 -0.13432674467E+02 -0.46820631369E+01  0.19820142865E+01  0.14362689144E+02  0.51100000000E-03 0. -1.
        -11    1    3    3    0    0  0.73602297354E+00 -0.20896577420E+02 -0.10058302721E+02  0.23202976782E+02  0.51100000000E-03 0.  1.
         12    1    3    3    0    0  0.12690965371E+02  0.30976383821E+02 -0.98553381895E+01  0.34895911616E+02  0.00000000000E+00 0. -1.
</event>
<event>
 7    1  0.2577508E-013  0.7246109E+02  0.7816164E-02  0.1226709E+00
        -11   -1    0    0    0    0  0.00000000000E+00  0.00000000000E+00  0.45593999997E+02  0.45594000000E+02  0.51100000000E-03 0.  1.
         11   -1    0    0    0    0 -0.00000000000E+00 -0.00000000000E+00 -0.45593999997E+02  0.45594000000E+02  0.51100000000E-03 0. -1.
    9900012    2    1    2    0    0 -0.47498219600E+01 -0.66570486895E+01 -0.16846960209E+02  0.72461089572E+02  0.69999373767E+02 0.  0.
        -12    1    1    2    0    0  0.47498219600E+01  0.66570486895E+01  0.16846960209E+02  0.18726910428E+02  0.00000000000E+00 0.  1.
         11    1    3    3    0    0 -0.44702827160E+01 -0.21786246643E+02  0.11415741499E+02  0.24998862466E+02  0.51100000000E-03 0. -1.
        -11    1    3    3    0    0  0.72448724123E+01  0.10668101532E+02  0.44177466895E+01  0.13631326151E+02  0.51100000000E-03 0.  1.
         12    1    3    3    0    0 -0.75244116563E+01  0.44610964217E+01 -0.32680448397E+02  0.33830900956E+02  0.00000000000E+00 0. -1.
</event>
<event>
 7    1  0.2577508E-013  0.7246158E+02  0.7816164E-02  0.1226708E+00
        -11   -1    0    0    0    0  0.00000000000E+00  0.00000000000E+00  0.45593999997E+02  0.45594000000E+02  0.51100000000E-03 0.  1.
         11   -1    0    0    0    0 -0.00000000000E+00 -0.00000000000E+00 -0.45593999997E+02  0.45594000000E+02  0.51100000000E-03 0. -1.
    9900012    2    1    2    0    0 -0.16744111360E+02 -0.19079150100E+01 -0.81653800669E+01  0.72461579185E+02  0.70000011582E+02 0.  0.
        -12    1    1    2    0    0  0.16744111360E+02  0.19079150100E+01  0.81653800669E+01  0.18726420815E+02  0.00000000000E+00 0.  1.
         11    1    3    3    0    0  0.13289280590E+02 -0.11592319884E+02 -0.78554593647E+01  0.19305312766E+02  0.51100000000E-03 0. -1.
        -11    1    3    3    0    0  0.10719837421E+02 -0.15064293746E+01 -0.11502286950E+01  0.10886104451E+02  0.51100000000E-03 0.  1.
        -12    1    3    3    0    0 -0.40753229371E+02  0.11190834248E+02  0.84030799279E+00  0.42270161969E+02  0.00000000000E+00 0.  1.
</event>
<event>
 7    1  0.2577508E-013  0.7246156E+02  0.7816164E-02  0.1226708E+00
        -11   -1    0    0    0    0  0.00000000000E+00  0.00000000000E+00  0.45593999997E+02  0.45594000000E+02  0.51100000000E-03 0. -1.
         11   -1    0    0    0    0 -0.00000000000E+00 -0.00000000000E+00 -0.45593999997E+02  0.45594000000E+02  0.51100000000E-03 0.  1.
    9900012    2    1    2    0    0  0.16044579728E+02 -0.75718206156E+01  0.59932020833E+01  0.72461562077E+02  0.69999989295E+02 0.  0.
        -12    1    1    2    0    0 -0.16044579728E+02  0.75718206156E+01 -0.59932020833E+01  0.18726437923E+02  0.00000000000E+00 0.  1.
         11    1    3    3    0    0 -0.16092849641E+02  0.77026050106E+00 -0.22605666989E+01  0.16269089491E+02  0.51100000000E-03 0. -1.
        -11    1    3    3    0    0  0.16311704013E+02  0.17851901565E+02 -0.10538816097E+01  0.24204808283E+02  0.51100000000E-03 0.  1.
        -12    1    3    3    0    0  0.15825725355E+02 -0.26193982682E+02  0.93076503920E+01  0.31987664303E+02  0.00000000000E+00 0.  1.
</event>
<event>
 7    1  0.2577508E-013  0.7246163E+02  0.7816164E-02  0.1226708E+00
        -11   -1    0    0    0    0  0.00000000000E+00  0.00000000000E+00  0.45593999997E+02  0.45594000000E+02  0.51100000000E-03 0.  1.
         11   -1    0    0    0    0 -0.00000000000E+00 -0.00000000000E+00 -0.45593999997E+02  0.45594000000E+02  0.51100000000E-03 0. -1.
    9900012    2    1    2    0    0 -0.83121244749E+01  0.38572654978E+01 -0.16331166632E+02  0.72461630518E+02  0.70000078453E+02 0.  0.
        -12    1    1    2    0    0  0.83121244749E+01 -0.38572654978E+01  0.16331166632E+02  0.18726369482E+02  0.00000000000E+00 0.  1.
         11    1    3    3    0    0  0.15334756997E+02 -0.53656202997E+01  0.16772228275E+01  0.16332719616E+02  0.51100000000E-03 0. -1.
        -11    1    3    3    0    0 -0.94871712614E+01 -0.29421692482E+01  0.15127096473E+02  0.18096735241E+02  0.51100000000E-03 0.  1.
         12    1    3    3    0    0 -0.14159710211E+02  0.12165055046E+02 -0.33135485933E+02  0.38032175661E+02  0.00000000000E+00 0. -1.
</event>
<event>
 7    1  0.2577508E-013  0.7246155E+02  0.7816164E-02  0.1226708E+00
        -11   -1    0    0    0    0  0.00000000000E+00  0.00000000000E+00  0.45593999997E+02  0.45594000000E+02  0.51100000000E-03 0. -1.
         11   -1    0    0    0    0 -0.00000000000E+00 -0.00000000000E+00 -0.45593999997E+02  0.45594000000E+02  0.51100000000E-03 0.  1.
    9900012    2    1    2    0    0  0.98248054208E+01 -0.52776378396E+00  0.15933438592E+02  0.72461553419E+02  0.69999978017E+02 0.  0.
        -12    1    1    2    0    0 -0.98248054208E+01  0.52776378396E+00 -0.15933438592E+02  0.18726446581E+02  0.00000000000E+00 0.  1.
         11    1    3    3    0    0  0.15589590830E+02  0.71945343440E+01  0.20556668819E+02  0.26783825340E+02  0.51100000000E-03 0. -1.
        -11    1    3    3    0    0 -0.15171432237E+01  0.23949746504E+00  0.19686918741E+02  0.19746742830E+02  0.51100000000E-03 0.  1.
        -12    1    3    3    0    0 -0.42476421851E+01 -0.79617955930E+01 -0.24310148968E+02  0.25930985250E+02  0.00000000000E+00 0.  1.
</event>
<event>
 7    1  0.2577508E-013  0.7246158E+02  0.7816164E-02  0.1226708E+00
        -11   -1    0    0    0    0  0.00000000000E+00  0.00000000000E+00  0.45593999997E+02  0.45594000000E+02  0.51100000000E-03 0. -1.
         11   -1    0    0    0    0 -0.00000000000E+00 -0.00000000000E+00 -0.45593999997E+02  0.45594000000E+02  0.51100000000E-03 0.  1.
    9900012    2    1    2    0    0  0.16664138191E+01 -0.14803159588E+02  0.11347605532E+02  0.72461584964E+02  0.70000019110E+02 0.  0.
        -12    1    1    2    0    0 -0.16664138191E+01  0.14803159588E+02 -0.11347605532E+02  0.18726415036E+02  0.00000000000E+00 0.  1.
         11    1    3    3    0    0 -0.12333173495E+02 -0.32324937844E+01 -0.12444122664E+02  0.17816070657E+02  0.51100000000E-03 0. -1.
        -11    1    3    3    0    0  0.13196584500E+02  0.13493026892E+02 -0.16214475344E+01  0.18943091340E+02  0.51100000000E-03 0.  1.
         12    1    3    3    0    0  0.80300281467E+00 -0.25063692695E+02  0.25413175730E+02  0.35702422967E+02  0.00000000000E+00 0. -1.
</event>
<event>
 7    1  0.2577508E-013  0.7246162E+02  0.7816164E-02  0.1226708E+00
        -11   -1    0    0    0    0  0.00000000000E+00  0.00000000000E+00  0.45593999997E+02  0.45594000000E+02  0.51100000000E-03 0.  1.
         11   -1    0    0    0    0 -0.00000000000E+00 -0.00000000000E+00 -0.45593999997E+02  0.45594000000E+02  0.51100000000E-03 0. -1.
    9900012    2    1    2    0    0  0.13397303477E+02  0.33690335000E+01  0.12642759255E+02  0.72461615170E+02  0.70000058459E+02 0.  0.
        -12    1    1    2    0    0 -0.13397303477E+02 -0.33690335000E+01 -0.12642759255E+02  0.18726384830E+02  0.00000000000E+00 0.  1.
         11    1    3    3    0    0 -0.12926990294E+02 -0.30586716318E+01 -0.72907567262E+01  0.15153141064E+02  0.51100000000E-03 0. -1.
        -11    1    3    3    0    0 -0.24498932298E+01 -0.13788691237E+02  0.16992065691E+02  0.22019543128E+02  0.51100000000E-03 0.  1.
        -12    1    3    3    0    0  0.28774187001E+02  0.20216396369E+02  0.29414502910E+01  0.35288930978E+02  0.00000000000E+00 0.  1.
</event>
<event>
 7    1  0.2577508E-013  0.7246156E+02  0.7816164E-02  0.1226708E+00
        -11   -1    0    0    0    0  0.00000000000E+00  0.00000000000E+00  0.45593999997E+02  0.45594000000E+02  0.51100000000E-03 0.  1.
         11   -1    0    0    0    0 -0.00000000000E+00 -0.00000000000E+00 -0.45593999997E+02  0.45594000000E+02  0.51100000000E-03 0. -1.
    9900012    2    1    2    0    0 -0.67010612368E+01  0.99534271723E+01 -0.14377227595E+02  0.72461558600E+02  0.69999984766E+02 0.  0.
        -12    1    1    2    0    0  0.67010612368E+01 -0.99534271723E+01  0.14377227595E+02  0.18726441400E+02  0.00000000000E+00 0.  1.
         11    1    3    3    0    0 -0.36579839070E+01  0.10094588051E+02  0.23043743499E+01  0.10981425026E+02  0.51100000000E-03 0.  1.
        -11    1    3    3    0    0 -0.21536716281E+02  0.20338388387E+02 -0.16453840809E+02  0.33885233775E+02  0.51100000000E-03 0. -1.
        -12    1    3    3    0    0  0.18493638951E+02 -0.20479549267E+02 -0.22776113584E+00  0.27594899799E+02  0.00000000000E+00 0.  1.
</event>
<event>
 7    1  0.2577508E-013  0.7246165E+02  0.7816164E-02  0.1226708E+00
        -11   -1    0    0    0    0  0.00000000000E+00  0.00000000000E+00  0.45593999997E+02  0.45594000000E+02  0.51100000000E-03 0.  1.
         11   -1    0    0    0    0 -0.00000000000E+00 -0.00000000000E+00 -0.45593999997E+02  0.45594000000E+02  0.51100000000E-03 0. -1.
    9900012    2    1    2    0    0 -0.42600016121E+01  0.14073168697E+02 -0.11596319235E+02  0.72461646626E+02  0.70000099436E+02 0.  0.
        -12    1    1    2    0    0  0.42600016121E+01 -0.14073168697E+02  0.11596319235E+02  0.18726353374E+02  0.00000000000E+00 0.  1.
         11    1    3    3    0    0  0.52229033662E+01  0.28946585604E+02 -0.28350199823E+02  0.40852385095E+02  0.51100000000E-03 0. -1.
        -11    1    3    3    0    0  0.81906349158E+00  0.79200810127E+00 -0.36945565944E+01  0.38662501893E+01  0.51100000000E-03 0.  1.
        -12    1    3    3    0    0 -0.10301968470E+02 -0.15665425009E+02  0.20448437183E+02  0.27743011341E+02  0.00000000000E+00 0.  1.
</event>
<event>
 7    1  0.2577508E-013  0.7246154E+02  0.7816164E-02  0.1226708E+00
        -11   -1    0    0    0    0  0.00000000000E+00  0.00000000000E+00  0.45593999997E+02  0.45594000000E+02  0.51100000000E-03 0. -1.
         11   -1    0    0    0    0 -0.00000000000E+00 -0.00000000000E+00 -0.45593999997E+02  0.45594000000E+02  0.51100000000E-03 0.  1.
    9900012    2    1    2    0    0 -0.99500756799E+01  0.11197765063E+02  0.11237714360E+02  0.72461543515E+02  0.69999965115E+02 0.  0.
        -12    1    1    2    0    0  0.99500756799E+01 -0.11197765063E+02 -0.11237714360E+02  0.18726456485E+02  0.00000000000E+00 0.  1.
         11    1    3    3    0    0 -0.35206846998E+01  0.33961387938E+01 -0.14623082930E+01  0.51056170310E+01  0.51100000000E-03 0. -1.
        -11    1    3    3    0    0  0.38363941398E+01 -0.11830143687E+02 -0.22532687265E+02  0.25736981472E+02  0.51100000000E-03 0.  1.
         12    1    3    3    0    0 -0.10265785120E+02  0.19631769955E+02  0.35232709919E+02  0.41618945012E+02  0.00000000000E+00 0. -1.
</event>
<event>
 7    1  0.2577508E-013  0.7246157E+02  0.7816164E-02  0.1226708E+00
        -11   -1    0    0    0    0  0.00000000000E+00  0.00000000000E+00  0.45593999997E+02  0.45594000000E+02  0.51100000000E-03 0. -1.
         11   -1    0    0    0    0 -0.00000000000E+00 -0.00000000000E+00 -0.45593999997E+02  0.45594000000E+02  0.51100000000E-03 0.  1.
    9900012    2    1    2    0    0  0.16290136465E+02 -0.19622923396E+00  0.92342921464E+01  0.72461569389E+02  0.69999998821E+02 0.  0.
        -12    1    1    2    0    0 -0.16290136465E+02  0.19622923396E+00 -0.92342921464E+01  0.18726430611E+02  0.00000000000E+00 0.  1.
         11    1    3    3    0    0  0.12691197104E+02 -0.68731569035E+00  0.24346233773E+00  0.12712126532E+02  0.51100000000E-03 0. -1.
        -11    1    3    3    0    0  0.94010921898E+01  0.13144263044E+02 -0.21110220961E+02  0.26585590357E+02  0.51100000000E-03 0.  1.
         12    1    3    3    0    0 -0.58021528283E+01 -0.12653176588E+02  0.30101050770E+02  0.33163852501E+02  0.00000000000E+00 0. -1.
</event>
<event>
 7    1  0.2577508E-013  0.7246155E+02  0.7816164E-02  0.1226708E+00
        -11   -1    0    0    0    0  0.00000000000E+00  0.00000000000E+00  0.45593999997E+02  0.45594000000E+02  0.51100000000E-03 0.  1.
         11   -1    0    0    0    0 -0.00000000000E+00 -0.00000000000E+00 -0.45593999997E+02  0.45594000000E+02  0.51100000000E-03 0. -1.
    9900012    2    1    2    0    0  0.99982599806E+01 -0.59411665338E+01 -0.14677096971E+02  0.72461552448E+02  0.69999976752E+02 0.  0.
        -12    1    1    2    0    0 -0.99982599806E+01  0.59411665338E+01  0.14677096971E+02  0.18726447552E+02  0.00000000000E+00 0.  1.
         11    1    3    3    0    0  0.54308841100E+01  0.84954226108E+00  0.11110886306E+02  0.12396290536E+02  0.51100000000E-03 0. -1.
        -11    1    3    3    0    0 -0.44807732301E+00  0.23471694262E+02 -0.94106483463E+01  0.25291925735E+02  0.51100000000E-03 0.  1.
         12    1    3    3    0    0  0.50154531935E+01 -0.30262403057E+02 -0.16377334931E+02  0.34773336178E+02  0.00000000000E+00 0. -1.
</event>
<event>
 7    1  0.2577508E-013  0.7246156E+02  0.7816164E-02  0.1226708E+00
        -11   -1    0    0    0    0  0.00000000000E+00  0.00000000000E+00  0.45593999997E+02  0.45594000000E+02  0.51100000000E-03 0.  1.
         11   -1    0    0    0    0 -0.00000000000E+00 -0.00000000000E+00 -0.45593999997E+02  0.45594000000E+02  0.51100000000E-03 0. -1.
    9900012    2    1    2    0    0  0.30594924005E+01  0.58870479777E+01 -0.17511761151E+02  0.72461558634E+02  0.69999984810E+02 0.  0.
        -12    1    1    2    0    0 -0.30594924005E+01 -0.58870479777E+01  0.17511761151E+02  0.18726441366E+02  0.00000000000E+00 0.  1.
         11    1    3    3    0    0  0.84920398396E+01  0.94448480444E+01 -0.21048122270E+02  0.24583395749E+02  0.51100000000E-03 0. -1.
        -11    1    3    3    0    0  0.20286819246E+02  0.25667739822E+01 -0.29377281919E+01  0.20658499727E+02  0.51100000000E-03 0.  1.
         12    1    3    3    0    0 -0.25719366685E+02 -0.61245740490E+01  0.64740893108E+01  0.27219663157E+02  0.00000000000E+00 0. -1.
</event>
<event>
 7    1  0.2577508E-013  0.7246158E+02  0.7816164E-02  0.1226708E+00
        -11   -1    0    0    0    0  0.00000000000E+00  0.00000000000E+00  0.45593999997E+02  0.45594000000E+02  0.51100000000E-03 0.  1.
         11   -1    0    0    0    0 -0.00000000000E+00 -0.00000000000E+00 -0.45593999997E+02  0.45594000000E+02  0.51100000000E-03 0. -1.
    9900012    2    1    2    0    0  0.34743629857E+01 -0.15364602064E+01 -0.18337036718E+02  0.72461579527E+02  0.70000012028E+02 0.  0.
        -12    1    1    2    0    0 -0.34743629857E+01  0.15364602064E+01  0.18337036718E+02  0.18726420473E+02  0.00000000000E+00 0.  1.
         11    1    3    3    0    0  0.62486701043E+00  0.18016528400E+02  0.11304354172E+02  0.21278490968E+02  0.51100000000E-03 0. -1.
        -11    1    3    3    0    0 -0.13124950376E+01 -0.12451027782E+02  0.65065167714E+01  0.14109766008E+02  0.51100000000E-03 0.  1.
         12    1    3    3    0    0  0.41619910129E+01 -0.71019608248E+01 -0.36147907661E+02  0.37073322551E+02  0.00000000000E+00 0. -1.
</event>
<event>
 7    1  0.2577508E-013  0.7246161E+02  0.7816164E-02  0.1226708E+00
        -11   -1    0    0    0    0  0.00000000000E+00  0.00000000000E+00  0.45593999997E+02  0.45594000000E+02  0.51100000000E-03 0.  1.
         11   -1    0    0    0    0 -0.00000000000E+00 -0.00000000000E+00 -0.45593999997E+02  0.45594000000E+02  0.51100000000E-03 0. -1.
    9900012    2    1    2    0    0  0.27396715763E+01 -0.13255087630E+01 -0.18477413922E+02  0.72461612226E+02  0.70000054623E+02 0.  0.
        -12    1    1    2    0    0 -0.27396715763E+01  0.13255087630E+01  0.18477413922E+02  0.18726387774E+02  0.00000000000E+00 0.  1.
         11    1    3    3    0    0  0.83065796874E+01  0.73113641010E+00 -0.36078789423E+02  0.37029891616E+02  0.51100000000E-03 0. -1.
        -11    1    3    3    0    0  0.50547062612E+01  0.11251771706E+02  0.12719497577E+02  0.17718296780E+02  0.51100000000E-03 0.  1.
        -12    1    3    3    0    0 -0.10621614372E+02 -0.13308416879E+02  0.48818779240E+01  0.17713423830E+02  0.00000000000E+00 0.  1.
</event>
<event>
 7    1  0.2577508E-013  0.7246157E+02  0.7816164E-02  0.1226708E+00
        -11   -1    0    0    0    0  0.00000000000E+00  0.00000000000E+00  0.45593999997E+02  0.45594000000E+02  0.51100000000E-03 0.  1.
         11   -1    0    0    0    0 -0.00000000000E+00 -0.00000000000E+00 -0.45593999997E+02  0.45594000000E+02  0.51100000000E-03 0. -1.
    9900012    2    1    2    0    0  0.17281729120E+02  0.32268086561E+01  0.64504783823E+01  0.72461571434E+02  0.70000001484E+02 0.  0.
        -12    1    1    2    0    0 -0.17281729120E+02 -0.32268086561E+01 -0.64504783823E+01  0.18726428566E+02  0.00000000000E+00 0.  1.
         11    1    3    3    0    0  0.53425503127E+01 -0.13428892680E+02 -0.15615635339E+01  0.14536728772E+02  0.51100000000E-03 0.  1.
        -11    1    3    3    0    0  0.20983979366E+02  0.18535029181E+02 -0.15964995172E+02  0.32229734220E+02  0.51100000000E-03 0. -1.
         12    1    3    3    0    0 -0.90448005584E+01 -0.18793278447E+01  0.23977037088E+02  0.25695108442E+02  0.00000000000E+00 0. -1.
</event>
<event>
 7    1  0.2577508E-013  0.7246154E+02  0.7816164E-02  0.1226708E+00
        -11   -1    0    0    0    0  0.00000000000E+00  0.00000000000E+00  0.45593999997E+02  0.45594000000E+02  0.51100000000E-03 0.  1.
         11   -1    0    0    0    0 -0.00000000000E+00 -0.00000000000E+00 -0.45593999997E+02  0.45594000000E+02  0.51100000000E-03 0. -1.
    9900012    2    1    2    0    0  0.12890405705E+02 -0.11141745435E+02 -0.77704073037E+01  0.72461540638E+02  0.69999961367E+02 0.  0.
        -12    1    1    2    0    0 -0.12890405705E+02  0.11141745435E+02  0.77704073037E+01  0.18726459362E+02  0.00000000000E+00 0.  1.
         11    1    3    3    0    0  0.12031334930E+02 -0.30025582749E+02 -0.72113470718E+01  0.33140491343E+02  0.51100000000E-03 0. -1.
        -11    1    3    3    0    0 -0.10061276087E+02 -0.62092454151E+01  0.12849488296E+01  0.11892648943E+02  0.51100000000E-03 0.  1.
         12    1    3    3    0    0  0.10920346861E+02  0.25093082729E+02 -0.18440090615E+01  0.27428400352E+02  0.00000000000E+00 0. -1.
</event>
<event>
 7    1  0.2577508E-013  0.7246156E+02  0.7816164E-02  0.1226708E+00
        -11   -1    0    0    0    0  0.00000000000E+00  0.00000000000E+00  0.45593999997E+02  0.45594000000E+02  0.51100000000E-03 0.  1.
         11   -1    0    0    0    0 -0.00000000000E+00 -0.00000000000E+00 -0.45593999997E+02  0.45594000000E+02  0.51100000000E-03 0. -1.
    9900012    2    1    2    0    0  0.14014097467E+02  0.61241453602E+01 -0.10806457964E+02  0.72461558321E+02  0.69999984403E+02 0.  0.
        -12    1    1    2    0    0 -0.14014097467E+02 -0.61241453602E+01  0.10806457964E+02  0.18726441679E+02  0.00000000000E+00 0.  1.
         11    1    3    3    0    0  0.76790750858E+01  0.32057553977E+01 -0.48580234986E+01  0.96356346142E+01  0.51100000000E-03 0. -1.
        -11    1    3    3    0    0  0.24487640296E+02  0.24275490862E+02 -0.22615313493E+01  0.34555151688E+02  0.51100000000E-03 0.  1.
        -12    1    3    3    0    0 -0.18152617914E+02 -0.21357100900E+02 -0.36869031162E+01  0.28270772020E+02  0.00000000000E+00 0.  1.
</event>
<event>
 7    1  0.2577508E-013  0.7246158E+02  0.7816164E-02  0.1226708E+00
        -11   -1    0    0    0    0  0.00000000000E+00  0.00000000000E+00  0.45593999997E+02  0.45594000000E+02  0.51100000000E-03 0. -1.
         11   -1    0    0    0    0 -0.00000000000E+00 -0.00000000000E+00 -0.45593999997E+02  0.45594000000E+02  0.51100000000E-03 0.  1.
    9900012    2    1    2    0    0 -0.24721888573E+01 -0.15155161948E+02  0.10718581434E+02  0.72461584449E+02  0.70000018439E+02 0.  0.
        -12    1    1    2    0    0  0.24721888573E+01  0.15155161948E+02 -0.10718581434E+02  0.18726415551E+02  0.00000000000E+00 0.  1.
         11    1    3    3    0    0  0.45424501445E+01 -0.33673411890E+02  0.12564090581E+02  0.36226908424E+02  0.51100000000E-03 0. -1.
        -11    1    3    3    0    0  0.42765973937E+01  0.42408748553E+01  0.11958700149E+02  0.13389727941E+02  0.51100000000E-03 0.  1.
        -12    1    3    3    0    0 -0.11291236395E+02  0.14277375086E+02 -0.13804209296E+02  0.22844948084E+02  0.00000000000E+00 0.  1.
</event>
<event>
 7    1  0.2577508E-013  0.7246150E+02  0.7816164E-02  0.1226708E+00
        -11   -1    0    0    0    0  0.00000000000E+00  0.00000000000E+00  0.45593999997E+02  0.45594000000E+02  0.51100000000E-03 0. -1.
         11   -1    0    0    0    0 -0.00000000000E+00 -0.00000000000E+00 -0.45593999997E+02  0.45594000000E+02  0.51100000000E-03 0.  1.
    9900012    2    1    2    0    0 -0.70216458456E+01  0.28500963037E+01  0.17124695696E+02  0.72461501074E+02  0.69999909828E+02 0.  0.
        -12    1    1    2    0    0  0.70216458456E+01 -0.28500963037E+01 -0.17124695696E+02  0.18726498926E+02  0.00000000000E+00 0.  1.
         11    1    3    3    0    0 -0.67783550337E+01 -0.34478583536E+01  0.17754912214E+02  0.19315039016E+02  0.51100000000E-03 0. -1.
        -11    1    3    3    0    0  0.21991903651E+02  0.10002030064E+02  0.12351675863E+02  0.27133896302E+02  0.51100000000E-03 0.  1.
         12    1    3    3    0    0 -0.22235194463E+02 -0.37040754069E+01 -0.12981892381E+02  0.26012565757E+02  0.00000000000E+00 0. -1.
</event>
<event>
 7    1  0.2577508E-013  0.7246157E+02  0.7816164E-02  0.1226708E+00
        -11   -1    0    0    0    0  0.00000000000E+00  0.00000000000E+00  0.45593999997E+02  0.45594000000E+02  0.51100000000E-03 0.  1.
         11   -1    0    0    0    0 -0.00000000000E+00 -0.00000000000E+00 -0.45593999997E+02  0.45594000000E+02  0.51100000000E-03 0. -1.
    9900012    2    1    2    0    0  0.12857394856E+02 -0.11653340466E+02 -0.70403365689E+01  0.72461567197E+02  0.69999995966E+02 0.  0.
        -12    1    1    2    0    0 -0.12857394856E+02  0.11653340466E+02  0.70403365689E+01  0.18726432803E+02  0.00000000000E+00 0.  1.
         11    1    3    3    0    0  0.27372729684E+02 -0.58467275580E+01  0.15290450057E+02  0.31894332047E+02  0.51100000000E-03 0. -1.
        -11    1    3    3    0    0  0.70940915158E+01  0.42957253598E+01 -0.62703508816E+00  0.83170045128E+01  0.51100000000E-03 0.  1.
        -12    1    3    3    0    0 -0.21609426344E+02 -0.10102338268E+02 -0.21703751538E+02  0.32250230638E+02  0.00000000000E+00 0.  1.
</event>
<event>
 7    1  0.2577508E-013  0.7246158E+02  0.7816164E-02  0.1226708E+00
        -11   -1    0    0    0    0  0.00000000000E+00  0.00000000000E+00  0.45593999997E+02  0.45594000000E+02  0.51100000000E-03 0.  1.
         11   -1    0    0    0    0 -0.00000000000E+00 -0.00000000000E+00 -0.45593999997E+02  0.45594000000E+02  0.51100000000E-03 0. -1.
    9900012    2    1    2    0    0 -0.67706237094E+01 -0.17456510704E+02 -0.32801343973E+00  0.72461582719E+02  0.70000016186E+02 0.  0.
        -12    1    1    2    0    0  0.67706237094E+01  0.17456510704E+02  0.32801343973E+00  0.18726417281E+02  0.00000000000E+00 0.  1.
         11    1    3    3    0    0  0.93078261757E+01 -0.97393053099E+00  0.33070091459E+01  0.99257482614E+01  0.51100000000E-03 0. -1.
        -11    1    3    3    0    0  0.19961610150E+02  0.18681048723E+01  0.60645489246E+01  0.20945988865E+02  0.51100000000E-03 0.  1.
         12    1    3    3    0    0 -0.36040060035E+02 -0.18350685045E+02 -0.96995715102E+01  0.41589845593E+02  0.00000000000E+00 0. -1.
</event>
<event>
 7    1  0.2577508E-013  0.7246155E+02  0.7816164E-02  0.1226708E+00
        -11   -1    0    0    0    0  0.00000000000E+00  0.00000000000E+00  0.45593999997E+02  0.45594000000E+02  0.51100000000E-03 0. -1.
         11   -1    0    0    0    0 -0.00000000000E+00 -0.00000000000E+00 -0.45593999997E+02  0.45594000000E+02  0.51100000000E-03 0.  1.
    9900012    2    1    2    0    0  0.12246248431E+02  0.10135545339E+02  0.98984898168E+01  0.72461548638E+02  0.69999971789E+02 0.  0.
        -12    1    1    2    0    0 -0.12246248431E+02 -0.10135545339E+02 -0.98984898168E+01  0.18726451362E+02  0.00000000000E+00 0.  1.
         11    1    3    3    0    0  0.58795186472E+01  0.76821182517E+01  0.28229802334E+02  0.29841337444E+02  0.51100000000E-03 0. -1.
        -11    1    3    3    0    0  0.96300688264E+01  0.92017863909E+01  0.77997437385E+01  0.15435255133E+02  0.51100000000E-03 0.  1.
        -12    1    3    3    0    0 -0.32633390426E+01 -0.67483593036E+01 -0.26131056256E+02  0.27184956061E+02  0.00000000000E+00 0.  1.
</event>
<event>
 7    1  0.2577508E-013  0.7246157E+02  0.7816164E-02  0.1226708E+00
        -11   -1    0    0    0    0  0.00000000000E+00  0.00000000000E+00  0.45593999997E+02  0.45594000000E+02  0.51100000000E-03 0. -1.
         11   -1    0    0    0    0 -0.00000000000E+00 -0.00000000000E+00 -0.45593999997E+02  0.45594000000E+02  0.51100000000E-03 0.  1.
    9900012    2    1    2    0    0  0.44544045306E+01  0.67154164941E+01  0.16903859256E+02  0.72461574923E+02  0.70000006030E+02 0.  0.
        -12    1    1    2    0    0 -0.44544045306E+01 -0.67154164941E+01 -0.16903859256E+02  0.18726425077E+02  0.00000000000E+00 0.  1.
         11    1    3    3    0    0  0.35188942203E+01  0.57412517491E+01 -0.66293827963E+01  0.94495134637E+01  0.51100000000E-03 0. -1.
        -11    1    3    3    0    0  0.22452081699E+01  0.29079206397E+02  0.57485603628E+01  0.29726875903E+02  0.51100000000E-03 0.  1.
         12    1    3    3    0    0 -0.13096978595E+01 -0.28105041653E+02  0.17784681689E+02  0.33285185557E+02  0.00000000000E+00 0. -1.
</event>
<event>
 7    1  0.2577508E-013  0.7246151E+02  0.7816164E-02  0.1226708E+00
        -11   -1    0    0    0    0  0.00000000000E+00  0.00000000000E+00  0.45593999997E+02  0.45594000000E+02  0.51100000000E-03 0.  1.
         11   -1    0    0    0    0 -0.00000000000E+00 -0.00000000000E+00 -0.45593999997E+02  0.45594000000E+02  0.51100000000E-03 0. -1.
    9900012    2    1    2    0    0 -0.16128944887E+02 -0.38922552111E+01 -0.86826763564E+01  0.72461511208E+02  0.69999923029E+02 0.  0.
        -12    1    1    2    0    0  0.16128944887E+02  0.38922552111E+01  0.86826763564E+01  0.18726488792E+02  0.00000000000E+00 0.  1.
         11    1    3    3    0    0 -0.19976570978E+02 -0.24723761341E+02 -0.13167572218E+02  0.34405126380E+02  0.51100000000E-03 0. -1.
        -11    1    3    3    0    0 -0.82502295462E+01  0.19266710544E+01 -0.86033504749E+01  0.12074600969E+02  0.51100000000E-03 0.  1.
        -12    1    3    3    0    0  0.12097855637E+02  0.18904835076E+02  0.13088246336E+02  0.25981783858E+02  0.00000000000E+00 0.  1.
</event>
<event>
 7    1  0.2577508E-013  0.7246156E+02  0.7816164E-02  0.1226708E+00
        -11   -1    0    0    0    0  0.00000000000E+00  0.00000000000E+00  0.45593999997E+02  0.45594000000E+02  0.51100000000E-03 0. -1.
         11   -1    0    0    0    0 -0.00000000000E+00 -0.00000000000E+00 -0.45593999997E+02  0.45594000000E+02  0.51100000000E-03 0.  1.
    9900012    2    1    2    0    0 -0.11767112581E+02 -0.14566660334E+02  0.16398860578E+00  0.72461563499E+02  0.69999991147E+02 0.  0.
        -12    1    1    2    0    0  0.11767112581E+02  0.14566660334E+02 -0.16398860578E+00  0.18726436501E+02  0.00000000000E+00 0.  1.
         11    1    3    3    0    0  0.22424189592E+02 -0.12265757508E+01 -0.31497746583E+01  0.22677518550E+02  0.51100000000E-03 0. -1.
        -11    1    3    3    0    0  0.35830350286E+01 -0.21182219428E+01 -0.77997720157E+01  0.88408963332E+01  0.51100000000E-03 0.  1.
         12    1    3    3    0    0 -0.37774337202E+02 -0.11221862640E+02  0.11113535280E+02  0.40943148616E+02  0.00000000000E+00 0. -1.
</event>
<event>
 7    1  0.2577508E-013  0.7246159E+02  0.7816164E-02  0.1226708E+00
        -11   -1    0    0    0    0  0.00000000000E+00  0.00000000000E+00  0.45593999997E+02  0.45594000000E+02  0.51100000000E-03 0.  1.
         11   -1    0    0    0    0 -0.00000000000E+00 -0.00000000000E+00 -0.45593999997E+02  0.45594000000E+02  0.51100000000E-03 0. -1.
    9900012    2    1    2    0    0 -0.90883930041E+01 -0.14698502382E+02 -0.72134373357E+01  0.72461587159E+02  0.70000021970E+02 0.  0.
        -12    1    1    2    0    0  0.90883930041E+01  0.14698502382E+02  0.72134373357E+01  0.18726412841E+02  0.00000000000E+00 0.  1.
         11    1    3    3    0    0 -0.14140138738E+02 -0.31756716993E+02  0.83900103575E+01  0.35760660952E+02  0.51100000000E-03 0. -1.
        -11    1    3    3    0    0  0.42100190140E+01 -0.17416322653E+01  0.63310452981E+01  0.77999793509E+01  0.51100000000E-03 0.  1.
         12    1    3    3    0    0  0.84172671965E+00  0.18799846876E+02 -0.21934492991E+02  0.28900946857E+02  0.00000000000E+00 0. -1.
</event>
<event>
 7    1  0.2577508E-013  0.7246146E+02  0.7816164E-02  0.1226708E+00
        -11   -1    0    0    0    0  0.00000000000E+00  0.00000000000E+00  0.45593999997E+02  0.45594000000E+02  0.51100000000E-03 0. -1.
         11   -1    0    0    0    0 -0.00000000000E+00 -0.00000000000E+00 -0.45593999997E+02  0.45594000000E+02  0.51100000000E-03 0.  1.
    9900012    2    1    2    0    0 -0.14148612674E+02  0.31661944179E+01  0.11852228955E+02  0.72461458437E+02  0.69999854285E+02 0.  0.
        -12    1    1    2    0    0  0.14148612674E+02 -0.31661944179E+01 -0.11852228955E+02  0.18726541563E+02  0.00000000000E+00 0.  1.
         11    1    3    3    0    0 -0.16372954978E+02  0.80489645423E+01  0.17488039169E+02  0.25272336639E+02  0.51100000000E-03 0. -1.
        -11    1    3    3    0    0 -0.32945891755E+01 -0.19401690296E+02  0.12497885569E+02  0.23312594196E+02  0.51100000000E-03 0.  1.
        -12    1    3    3    0    0  0.55189314796E+01  0.14518920172E+02 -0.18133695783E+02  0.23876527603E+02  0.00000000000E+00 0.  1.
</event>
<event>
 7    1  0.2577508E-013  0.7246161E+02  0.7816164E-02  0.1226708E+00
        -11   -1    0    0    0    0  0.00000000000E+00  0.00000000000E+00  0.45593999997E+02  0.45594000000E+02  0.51100000000E-03 0.  1.
         11   -1    0    0    0    0 -0.00000000000E+00 -0.00000000000E+00 -0.45593999997E+02  0.45594000000E+02  0.51100000000E-03 0. -1.
    9900012    2    1    2    0    0  0.15726361267E+02  0.92459214827E+01 -0.42275306931E+01  0.72461614377E+02  0.70000057425E+02 0.  0.
        -12    1    1    2    0    0 -0.15726361267E+02 -0.92459214827E+01  0.42275306931E+01  0.18726385623E+02  0.00000000000E+00 0.  1.
         11    1    3    3    0    0 -0.52534998037E+01 -0.10871792832E+02  0.67852806395E+01  0.13850457509E+02  0.51100000000E-03 0. -1.
        -11    1    3    3    0    0  0.36817612303E+02  0.81803830865E+01 -0.64984678546E+01  0.38271207557E+02  0.51100000000E-03 0.  1.
         12    1    3    3    0    0 -0.15837751232E+02  0.11937331229E+02 -0.45143434780E+01  0.20339949312E+02  0.00000000000E+00 0. -1.
</event>
<event>
 7    1  0.2577508E-013  0.7246153E+02  0.7816164E-02  0.1226708E+00
        -11   -1    0    0    0    0  0.00000000000E+00  0.00000000000E+00  0.45593999997E+02  0.45594000000E+02  0.51100000000E-03 0.  1.
         11   -1    0    0    0    0 -0.00000000000E+00 -0.00000000000E+00 -0.45593999997E+02  0.45594000000E+02  0.51100000000E-03 0. -1.
    9900012    2    1    2    0    0 -0.11892064381E+02  0.75081158398E+01  0.12364776059E+02  0.72461529812E+02  0.69999947265E+02 0.  0.
        -12    1    1    2    0    0  0.11892064381E+02 -0.75081158398E+01 -0.12364776059E+02  0.18726470188E+02  0.00000000000E+00 0.  1.
         11    1    3    3    0    0 -0.31549514085E+01  0.17786250205E+02 -0.18561205419E+02  0.25900246363E+02  0.51100000000E-03 0. -1.
        -11    1    3    3    0    0 -0.94234022189E+01 -0.55810694944E+01 -0.37390199752E+01  0.11572774806E+02  0.51100000000E-03 0.  1.
         12    1    3    3    0    0  0.68628924624E+00 -0.46970648713E+01  0.34665001453E+02  0.34988508643E+02  0.00000000000E+00 0. -1.
</event>
<event>
 7    1  0.2577508E-013  0.7246155E+02  0.7816164E-02  0.1226708E+00
        -11   -1    0    0    0    0  0.00000000000E+00  0.00000000000E+00  0.45593999997E+02  0.45594000000E+02  0.51100000000E-03 0.  1.
         11   -1    0    0    0    0 -0.00000000000E+00 -0.00000000000E+00 -0.45593999997E+02  0.45594000000E+02  0.51100000000E-03 0. -1.
    9900012    2    1    2    0    0  0.51743984374E+01  0.30508226829E+01 -0.17736907183E+02  0.72461553604E+02  0.69999978257E+02 0.  0.
        -12    1    1    2    0    0 -0.51743984374E+01 -0.30508226829E+01  0.17736907183E+02  0.18726446396E+02  0.00000000000E+00 0.  1.
         11    1    3    3    0    0  0.70203032595E+01 -0.18331777250E+02 -0.22911811676E+02  0.30171009753E+02  0.51100000000E-03 0. -1.
        -11    1    3    3    0    0 -0.79223463945E+01  0.29470299216E+01 -0.13126222777E+02  0.15612375937E+02  0.51100000000E-03 0.  1.
        -12    1    3    3    0    0  0.60764415724E+01  0.18435570012E+02  0.18301127270E+02  0.26678167913E+02  0.00000000000E+00 0.  1.
</event>
<event>
 7    1  0.2577508E-013  0.7246190E+02  0.7816164E-02  0.1226707E+00
        -11   -1    0    0    0    0  0.00000000000E+00  0.00000000000E+00  0.45593999997E+02  0.45594000000E+02  0.51100000000E-03 0.  1.
         11   -1    0    0    0    0 -0.00000000000E+00 -0.00000000000E+00 -0.45593999997E+02  0.45594000000E+02  0.51100000000E-03 0. -1.
    9900012    2    1    2    0    0  0.40683829301E+01 -0.34186385188E+01 -0.17956275683E+02  0.72461904160E+02  0.70000434921E+02 0.  0.
        -12    1    1    2    0    0 -0.40683829301E+01  0.34186385188E+01  0.17956275683E+02  0.18726095840E+02  0.00000000000E+00 0.  1.
         11    1    3    3    0    0  0.69523241384E+01 -0.28852564777E+02  0.62878455289E+01  0.30337144012E+02  0.51100000000E-03 0. -1.
        -11    1    3    3    0    0  0.74167277450E+01  0.38115432843E+01 -0.13515639129E+02  0.15881064636E+02  0.51100000000E-03 0.  1.
        -12    1    3    3    0    0 -0.10300668953E+02  0.21622382974E+02 -0.10728482083E+02  0.26243695513E+02  0.00000000000E+00 0.  1.
</event>
<event>
 7    1  0.2577508E-013  0.7246153E+02  0.7816164E-02  0.1226708E+00
        -11   -1    0    0    0    0  0.00000000000E+00  0.00000000000E+00  0.45593999997E+02  0.45594000000E+02  0.51100000000E-03 0. -1.
         11   -1    0    0    0    0 -0.00000000000E+00 -0.00000000000E+00 -0.45593999997E+02  0.45594000000E+02  0.51100000000E-03 0.  1.
    9900012    2    1    2    0    0 -0.13094037450E+02 -0.13349835249E+02  0.10044145227E+01  0.72461527656E+02  0.69999944456E+02 0.  0.
        -12    1    1    2    0    0  0.13094037450E+02  0.13349835249E+02 -0.10044145227E+01  0.18726472344E+02  0.00000000000E+00 0.  1.
         11    1    3    3    0    0  0.20539546254E+01 -0.66460255127E+01  0.96687441442E+01  0.11911045223E+02  0.51100000000E-03 0. -1.
        -11    1    3    3    0    0  0.98406247769E+01  0.11738316677E+02  0.15050652585E+02  0.21474359546E+02  0.51100000000E-03 0.  1.
         12    1    3    3    0    0 -0.24988616852E+02 -0.18442126413E+02 -0.23714982206E+02  0.39076122887E+02  0.00000000000E+00 0. -1.
</event>
<event>
 7    1  0.2577508E-013  0.7246163E+02  0.7816164E-02  0.1226708E+00
        -11   -1    0    0    0    0  0.00000000000E+00  0.00000000000E+00  0.45593999997E+02  0.45594000000E+02  0.51100000000E-03 0. -1.
         11   -1    0    0    0    0 -0.00000000000E+00 -0.00000000000E+00 -0.45593999997E+02  0.45594000000E+02  0.51100000000E-03 0.  1.
    9900012    2    1    2    0    0 -0.13056719667E+02 -0.10836271861E+01  0.13380008724E+02  0.72461633300E+02  0.70000082076E+02 0.  0.
        -12    1    1    2    0    0  0.13056719667E+02  0.10836271861E+01 -0.13380008724E+02  0.18726366700E+02  0.00000000000E+00 0.  1.
         11    1    3    3    0    0 -0.21890479717E+02 -0.11933834852E+02  0.71452252586E+00  0.24942334678E+02  0.51100000000E-03 0. -1.
        -11    1    3    3    0    0  0.94474083860E+01 -0.90443859691E+01 -0.10647822318E+02  0.16865069319E+02  0.51100000000E-03 0.  1.
         12    1    3    3    0    0 -0.61364833617E+00  0.19894593635E+02  0.23313308516E+02  0.30654229303E+02  0.00000000000E+00 0. -1.
</event>
<event>
 7    1  0.2577508E-013  0.7246176E+02  0.7816164E-02  0.1226708E+00
        -11   -1    0    0    0    0  0.00000000000E+00  0.00000000000E+00  0.45593999997E+02  0.45594000000E+02  0.51100000000E-03 0.  1.
         11   -1    0    0    0    0 -0.00000000000E+00 -0.00000000000E+00 -0.45593999997E+02  0.45594000000E+02  0.51100000000E-03 0. -1.
    9900012    2    1    2    0    0 -0.16310296361E+01 -0.75659466730E+01 -0.17051926660E+02  0.72461761468E+02  0.70000249039E+02 0.  0.
        -12    1    1    2    0    0  0.16310296361E+01  0.75659466730E+01  0.17051926660E+02  0.18726238532E+02  0.00000000000E+00 0.  1.
         11    1    3    3    0    0  0.25751661646E+02  0.16776697694E+02  0.11173489497E+00  0.30734640847E+02  0.51100000000E-03 0. -1.
        -11    1    3    3    0    0  0.73927784914E+00  0.12710180859E+00 -0.23758114893E+00  0.78684920501E+00  0.51100000000E-03 0.  1.
        -12    1    3    3    0    0 -0.28121969131E+02 -0.24469746176E+02 -0.16926080406E+02  0.40940271416E+02  0.00000000000E+00 0.  1.
</event>
<event>
 7    1  0.2577508E-013  0.7246154E+02  0.7816164E-02  0.1226708E+00
        -11   -1    0    0    0    0  0.00000000000E+00  0.00000000000E+00  0.45593999997E+02  0.45594000000E+02  0.51100000000E-03 0. -1.
         11   -1    0    0    0    0 -0.00000000000E+00 -0.00000000000E+00 -0.45593999997E+02  0.45594000000E+02  0.51100000000E-03 0.  1.
    9900012    2    1    2    0    0  0.18646018715E+02 -0.77048767849E+00 -0.15532808270E+01  0.72461538869E+02  0.69999959062E+02 0.  0.
        -12    1    1    2    0    0 -0.18646018715E+02  0.77048767849E+00  0.15532808270E+01  0.18726461131E+02  0.00000000000E+00 0.  1.
         11    1    3    3    0    0  0.15731891437E+02  0.15349257063E+02 -0.20444988548E+02  0.30018155466E+02  0.51100000000E-03 0. -1.
        -11    1    3    3    0    0  0.12616521355E+02  0.67071906172E+00  0.19275808191E+02  0.23047413236E+02  0.51100000000E-03 0.  1.
        -12    1    3    3    0    0 -0.97023940767E+01 -0.16790463804E+02 -0.38410047007E+00  0.19395970167E+02  0.00000000000E+00 0.  1.
</event>
<event>
 7    1  0.2577508E-013  0.7246151E+02  0.7816164E-02  0.1226708E+00
        -11   -1    0    0    0    0  0.00000000000E+00  0.00000000000E+00  0.45593999997E+02  0.45594000000E+02  0.51100000000E-03 0. -1.
         11   -1    0    0    0    0 -0.00000000000E+00 -0.00000000000E+00 -0.45593999997E+02  0.45594000000E+02  0.51100000000E-03 0.  1.
    9900012    2    1    2    0    0  0.26384442540E+01 -0.96294982182E+01  0.15842747709E+02  0.72461513971E+02  0.69999926628E+02 0.  0.
        -12    1    1    2    0    0 -0.26384442540E+01  0.96294982182E+01 -0.15842747709E+02  0.18726486029E+02  0.00000000000E+00 0.  1.
         11    1    3    3    0    0 -0.81626307787E+01  0.55022805404E+01 -0.13713747195E+01  0.99390291909E+01  0.51100000000E-03 0. -1.
        -11    1    3    3    0    0  0.32790811189E+02  0.84365783465E+00  0.74107754962E+01  0.33628390546E+02  0.51100000000E-03 0.  1.
         12    1    3    3    0    0 -0.21989736156E+02 -0.15975436593E+02  0.98033469325E+01  0.28894094235E+02  0.00000000000E+00 0. -1.
</event>
<event>
 7    1  0.2577508E-013  0.7246155E+02  0.7816164E-02  0.1226708E+00
        -11   -1    0    0    0    0  0.00000000000E+00  0.00000000000E+00  0.45593999997E+02  0.45594000000E+02  0.51100000000E-03 0.  1.
         11   -1    0    0    0    0 -0.00000000000E+00 -0.00000000000E+00 -0.45593999997E+02  0.45594000000E+02  0.51100000000E-03 0. -1.
    9900012    2    1    2    0    0  0.14012061023E+01 -0.18224802789E+02 -0.40710155501E+01  0.72461548578E+02  0.69999971711E+02 0.  0.
        -12    1    1    2    0    0 -0.14012061023E+01  0.18224802789E+02  0.40710155501E+01  0.18726451422E+02  0.00000000000E+00 0.  1.
         11    1    3    3    0    0 -0.11600100851E+02  0.82698848534E+01  0.82664100478E+01  0.16470788402E+02  0.51100000000E-03 0. -1.
        -11    1    3    3    0    0  0.13438911555E+02  0.37990634471E+01  0.10975721953E+02  0.17762423807E+02  0.51100000000E-03 0.  1.
         12    1    3    3    0    0 -0.43760460161E+00 -0.30293751089E+02 -0.23313147550E+02  0.38228336369E+02  0.00000000000E+00 0. -1.
</event>
<event>
 7    1  0.2577508E-013  0.7246159E+02  0.7816164E-02  0.1226708E+00
        -11   -1    0    0    0    0  0.00000000000E+00  0.00000000000E+00  0.45593999997E+02  0.45594000000E+02  0.51100000000E-03 0.  1.
         11   -1    0    0    0    0 -0.00000000000E+00 -0.00000000000E+00 -0.45593999997E+02  0.45594000000E+02  0.51100000000E-03 0. -1.
    9900012    2    1    2    0    0  0.93699860419E+01 -0.11144616209E+02 -0.11776224548E+02  0.72461586209E+02  0.70000020732E+02 0.  0.
        -12    1    1    2    0    0 -0.93699860419E+01  0.11144616209E+02  0.11776224548E+02  0.18726413791E+02  0.00000000000E+00 0.  1.
         11    1    3    3    0    0  0.15672523999E+01 -0.70331148635E+01 -0.15081506188E+02  0.16714449256E+02  0.51100000000E-03 0. -1.
        -11    1    3    3    0    0  0.18393886075E+02 -0.22254038818E+02  0.14097211249E+02  0.32129560437E+02  0.51100000000E-03 0.  1.
         12    1    3    3    0    0 -0.10591152433E+02  0.18142537473E+02 -0.10791929608E+02  0.23617576516E+02  0.00000000000E+00 0. -1.
</event>
<event>
 7    1  0.2577508E-013  0.7246145E+02  0.7816164E-02  0.1226708E+00
        -11   -1    0    0    0    0  0.00000000000E+00  0.00000000000E+00  0.45593999997E+02  0.45594000000E+02  0.51100000000E-03 0.  1.
         11   -1    0    0    0    0 -0.00000000000E+00 -0.00000000000E+00 -0.45593999997E+02  0.45594000000E+02  0.51100000000E-03 0. -1.
    9900012    2    1    2    0    0  0.16956529592E+02 -0.52572663718E+01 -0.59599492381E+01  0.72461448251E+02  0.69999841015E+02 0.  0.
        -12    1    1    2    0    0 -0.16956529592E+02  0.52572663718E+01  0.59599492381E+01  0.18726551749E+02  0.00000000000E+00 0.  1.
         11    1    3    3    0    0  0.25821781961E+02 -0.71459681125E+00 -0.15019792143E+01  0.25875297372E+02  0.51100000000E-03 0. -1.
        -11    1    3    3    0    0 -0.10105302142E+02  0.18310221956E+02 -0.97823943889E+01  0.23088451652E+02  0.51100000000E-03 0.  1.
         12    1    3    3    0    0  0.12400497723E+01 -0.22852891517E+02  0.53244243651E+01  0.23497699227E+02  0.00000000000E+00 0. -1.
</event>
<event>
 7    1  0.2577508E-013  0.7246157E+02  0.7816164E-02  0.1226708E+00
        -11   -1    0    0    0    0  0.00000000000E+00  0.00000000000E+00  0.45593999997E+02  0.45594000000E+02  0.51100000000E-03 0. -1.
         11   -1    0    0    0    0 -0.00000000000E+00 -0.00000000000E+00 -0.45593999997E+02  0.45594000000E+02  0.51100000000E-03 0.  1.
    9900012    2    1    2    0    0 -0.44826427138E+01 -0.17628507581E+02 -0.44520716495E+01  0.72461566618E+02  0.69999995210E+02 0.  0.
        -12    1    1    2    0    0  0.44826427138E+01  0.17628507581E+02  0.44520716495E+01  0.18726433382E+02  0.00000000000E+00 0.  1.
         11    1    3    3    0    0 -0.61898773713E+01  0.77095344233E+00  0.11223724235E+02  0.12840597223E+02  0.51100000000E-03 0. -1.
        -11    1    3    3    0    0 -0.17788085651E+02 -0.29912522767E+02 -0.79537304225E+01  0.35699255417E+02  0.51100000000E-03 0.  1.
        -12    1    3    3    0    0  0.19495320309E+02  0.11513061743E+02 -0.77220654620E+01  0.23921713978E+02  0.00000000000E+00 0.  1.
</event>
<event>
 7    1  0.2577508E-013  0.7246157E+02  0.7816164E-02  0.1226708E+00
        -11   -1    0    0    0    0  0.00000000000E+00  0.00000000000E+00  0.45593999997E+02  0.45594000000E+02  0.51100000000E-03 0.  1.
         11   -1    0    0    0    0 -0.00000000000E+00 -0.00000000000E+00 -0.45593999997E+02  0.45594000000E+02  0.51100000000E-03 0. -1.
    9900012    2    1    2    0    0  0.89395186109E+01  0.16069057588E+02 -0.35425470872E+01  0.72461568289E+02  0.69999997387E+02 0.  0.
        -12    1    1    2    0    0 -0.89395186109E+01 -0.16069057588E+02  0.35425470872E+01  0.18726431711E+02  0.00000000000E+00 0.  1.
         11    1    3    3    0    0  0.29870374523E+02  0.62597459387E+01  0.10861386461E+02  0.32394342244E+02  0.51100000000E-03 0. -1.
        -11    1    3    3    0    0 -0.98253486982E+00  0.63587773843E+01 -0.18346759933E+02  0.19442299887E+02  0.51100000000E-03 0.  1.
        -12    1    3    3    0    0 -0.19948321042E+02  0.34505342653E+01  0.39428263848E+01  0.20624926158E+02  0.00000000000E+00 0.  1.
</event>
<event>
 7    1  0.2577508E-013  0.7246166E+02  0.7816164E-02  0.1226708E+00
        -11   -1    0    0    0    0  0.00000000000E+00  0.00000000000E+00  0.45593999997E+02  0.45594000000E+02  0.51100000000E-03 0.  1.
         11   -1    0    0    0    0 -0.00000000000E+00 -0.00000000000E+00 -0.45593999997E+02  0.45594000000E+02  0.51100000000E-03 0. -1.
    9900012    2    1    2    0    0 -0.25322871615E+01 -0.93863128606E+01 -0.16005013992E+02  0.72461659721E+02  0.70000116494E+02 0.  0.
        -12    1    1    2    0    0  0.25322871615E+01  0.93863128606E+01  0.16005013992E+02  0.18726340279E+02  0.00000000000E+00 0.  1.
         11    1    3    3    0    0  0.42517632298E+01 -0.14351933031E+02 -0.12056022650E+00  0.14968968145E+02  0.51100000000E-03 0. -1.
        -11    1    3    3    0    0 -0.15899758108E+01 -0.13490247892E+01  0.20294490486E+02  0.20401329254E+02  0.51100000000E-03 0.  1.
         12    1    3    3    0    0 -0.51940745806E+01  0.63146449598E+01 -0.36178944252E+02  0.37091362322E+02  0.00000000000E+00 0. -1.
</event>
<event>
 7    1  0.2577508E-013  0.7246156E+02  0.7816164E-02  0.1226708E+00
        -11   -1    0    0    0    0  0.00000000000E+00  0.00000000000E+00  0.45593999997E+02  0.45594000000E+02  0.51100000000E-03 0.  1.
         11   -1    0    0    0    0 -0.00000000000E+00 -0.00000000000E+00 -0.45593999997E+02  0.45594000000E+02  0.51100000000E-03 0. -1.
    9900012    2    1    2    0    0 -0.86736164197E+01 -0.12580526271E+02 -0.10824888660E+02  0.72461562070E+02  0.69999989286E+02 0.  0.
        -12    1    1    2    0    0  0.86736164197E+01  0.12580526271E+02  0.10824888660E+02  0.18726437930E+02  0.00000000000E+00 0.  1.
         11    1    3    3    0    0  0.39649176517E+01 -0.93300643715E+01 -0.13349544980E+02  0.16762488616E+02  0.51100000000E-03 0. -1.
        -11    1    3    3    0    0  0.12274286773E+02  0.73247741460E+01 -0.17086080132E+02  0.22276547457E+02  0.51100000000E-03 0.  1.
         12    1    3    3    0    0 -0.24912820844E+02 -0.10575236046E+02  0.19610736452E+02  0.33422525997E+02  0.00000000000E+00 0. -1.
</event>
<event>
 7    1  0.2577508E-013  0.7246162E+02  0.7816164E-02  0.1226708E+00
        -11   -1    0    0    0    0  0.00000000000E+00  0.00000000000E+00  0.45593999997E+02  0.45594000000E+02  0.51100000000E-03 0. -1.
         11   -1    0    0    0    0 -0.00000000000E+00 -0.00000000000E+00 -0.45593999997E+02  0.45594000000E+02  0.51100000000E-03 0.  1.
    9900012    2    1    2    0    0  0.15642370563E+02  0.27636210186E+01  0.99174596046E+01  0.72461618529E+02  0.70000062835E+02 0.  0.
        -12    1    1    2    0    0 -0.15642370563E+02 -0.27636210186E+01 -0.99174596046E+01  0.18726381471E+02  0.00000000000E+00 0.  1.
         11    1    3    3    0    0 -0.26116397335E+01 -0.14328253386E+02 -0.15701808138E+01  0.14648719236E+02  0.51100000000E-03 0. -1.
        -11    1    3    3    0    0 -0.26416712844E+01 -0.16163071908E+02 -0.15004337772E+01  0.16446112685E+02  0.51100000000E-03 0.  1.
         12    1    3    3    0    0  0.20895681581E+02  0.33254946313E+02  0.12988074195E+02  0.41366786608E+02  0.00000000000E+00 0. -1.
</event>
<event>
 7    1  0.2577508E-013  0.7246155E+02  0.7816164E-02  0.1226708E+00
        -11   -1    0    0    0    0  0.00000000000E+00  0.00000000000E+00  0.45593999997E+02  0.45594000000E+02  0.51100000000E-03 0.  1.
         11   -1    0    0    0    0 -0.00000000000E+00 -0.00000000000E+00 -0.45593999997E+02  0.45594000000E+02  0.51100000000E-03 0. -1.
    9900012    2    1    2    0    0 -0.12944157146E+02 -0.13429014634E+02 -0.16703869430E+01  0.72461552638E+02  0.69999976999E+02 0.  0.
        -12    1    1    2    0    0  0.12944157146E+02  0.13429014634E+02  0.16703869430E+01  0.18726447362E+02  0.00000000000E+00 0.  1.
         11    1    3    3    0    0 -0.30411013420E+02 -0.44978258411E+01 -0.20731388408E+02  0.37078978413E+02  0.51100000000E-03 0. -1.
        -11    1    3    3    0    0  0.96351650496E+01 -0.12950568550E+02  0.21058760145E+01  0.16278462622E+02  0.51100000000E-03 0.  1.
        -12    1    3    3    0    0  0.78316912249E+01  0.40193797566E+01  0.16955125451E+02  0.19104111603E+02  0.00000000000E+00 0.  1.
</event>
<event>
 7    1  0.2577508E-013  0.7246152E+02  0.7816164E-02  0.1226708E+00
        -11   -1    0    0    0    0  0.00000000000E+00  0.00000000000E+00  0.45593999997E+02  0.45594000000E+02  0.51100000000E-03 0. -1.
         11   -1    0    0    0    0 -0.00000000000E+00 -0.00000000000E+00 -0.45593999997E+02  0.45594000000E+02  0.51100000000E-03 0.  1.
    9900012    2    1    2    0    0  0.13605179300E+02  0.10767272195E+02  0.70459790194E+01  0.72461524767E+02  0.69999940693E+02 0.  0.
        -12    1    1    2    0    0 -0.13605179300E+02 -0.10767272195E+02 -0.70459790194E+01  0.18726475233E+02  0.00000000000E+00 0.  1.
         11    1    3    3    0    0 -0.15643132365E+02 -0.90799609391E+01  0.22633163419E+01  0.18228436081E+02  0.51100000000E-03 0. -1.
        -11    1    3    3    0    0 -0.25254649223E+00  0.89514296754E+01  0.18011898807E+02  0.20115177649E+02  0.51100000000E-03 0.  1.
        -12    1    3    3    0    0  0.29500858157E+02  0.10895803458E+02 -0.13229236129E+02  0.34117911037E+02  0.00000000000E+00 0.  1.
</event>
<event>
 7    1  0.2577508E-013  0.7246155E+02  0.7816164E-02  0.1226708E+00
        -11   -1    0    0    0    0  0.00000000000E+00  0.00000000000E+00  0.45593999997E+02  0.45594000000E+02  0.51100000000E-03 0.  1.
         11   -1    0    0    0    0 -0.00000000000E+00 -0.00000000000E+00 -0.45593999997E+02  0.45594000000E+02  0.51100000000E-03 0. -1.
    9900012    2    1    2    0    0  0.46361658848E+00 -0.15759763366E+02 -0.10104207497E+02  0.72461545695E+02  0.69999967955E+02 0.  0.
        -12    1    1    2    0    0 -0.46361658848E+00  0.15759763366E+02  0.10104207497E+02  0.18726454305E+02  0.00000000000E+00 0.  1.
         11    1    3    3    0    0  0.19145749162E+02 -0.65671102544E+01 -0.21183100418E+02  0.29298641464E+02  0.51100000000E-03 0. -1.
        -11    1    3    3    0    0 -0.33625395243E+01 -0.20451504795E+02 -0.80622059466E+00  0.20741762518E+02  0.51100000000E-03 0.  1.
        -12    1    3    3    0    0 -0.15319593050E+02  0.11258851684E+02  0.11885113515E+02  0.22421141713E+02  0.00000000000E+00 0.  1.
</event>
<event>
 7    1  0.2577508E-013  0.7246143E+02  0.7816164E-02  0.1226708E+00
        -11   -1    0    0    0    0  0.00000000000E+00  0.00000000000E+00  0.45593999997E+02  0.45594000000E+02  0.51100000000E-03 0.  1.
         11   -1    0    0    0    0 -0.00000000000E+00 -0.00000000000E+00 -0.45593999997E+02  0.45594000000E+02  0.51100000000E-03 0. -1.
    9900012    2    1    2    0    0 -0.17554545282E+02 -0.57275572363E+01 -0.31172931923E+01  0.72461428269E+02  0.69999814985E+02 0.  0.
        -12    1    1    2    0    0  0.17554545282E+02  0.57275572363E+01  0.31172931923E+01  0.18726571731E+02  0.00000000000E+00 0.  1.
         11    1    3    3    0    0  0.17583671818E+01 -0.82345656699E+01 -0.84020909475E+01  0.11895169586E+02  0.51100000000E-03 0. -1.
        -11    1    3    3    0    0  0.76597887320E+01 -0.18059440990E+02  0.15654565336E+02  0.25097433901E+02  0.51100000000E-03 0.  1.
         12    1    3    3    0    0 -0.26972701196E+02  0.20566449424E+02 -0.10369767581E+02  0.35468824782E+02  0.00000000000E+00 0. -1.
</event>
<event>
 7    1  0.2577508E-013  0.7246158E+02  0.7816164E-02  0.1226708E+00
        -11   -1    0    0    0    0  0.00000000000E+00  0.00000000000E+00  0.45593999997E+02  0.45594000000E+02  0.51100000000E-03 0.  1.
         11   -1    0    0    0    0 -0.00000000000E+00 -0.00000000000E+00 -0.45593999997E+02  0.45594000000E+02  0.51100000000E-03 0. -1.
    9900012    2    1    2    0    0  0.14889679459E+02 -0.64015501604E+01 -0.93806395018E+01  0.72461580259E+02  0.70000012981E+02 0.  0.
        -12    1    1    2    0    0 -0.14889679459E+02  0.64015501604E+01  0.93806395018E+01  0.18726419741E+02  0.00000000000E+00 0.  1.
         11    1    3    3    0    0 -0.94473072282E+01  0.79008929339E+01 -0.18665182531E+02  0.22362127855E+02  0.51100000000E-03 0. -1.
        -11    1    3    3    0    0 -0.22950029724E+01 -0.57305025849E+01  0.19393042195E+02  0.20351800518E+02  0.51100000000E-03 0.  1.
        -12    1    3    3    0    0  0.26631989660E+02 -0.85719405094E+01 -0.10108499165E+02  0.29747651886E+02  0.00000000000E+00 0.  1.
</event>
<event>
 7    1  0.2577508E-013  0.7246188E+02  0.7816164E-02  0.1226707E+00
        -11   -1    0    0    0    0  0.00000000000E+00  0.00000000000E+00  0.45593999997E+02  0.45594000000E+02  0.51100000000E-03 0.  1.
         11   -1    0    0    0    0 -0.00000000000E+00 -0.00000000000E+00 -0.45593999997E+02  0.45594000000E+02  0.51100000000E-03 0. -1.
    9900012    2    1    2    0    0  0.18127601487E+02  0.30556288070E+01 -0.35666330422E+01  0.72461877221E+02  0.70000399828E+02 0.  0.
        -12    1    1    2    0    0 -0.18127601487E+02 -0.30556288070E+01  0.35666330422E+01  0.18726122779E+02  0.00000000000E+00 0.  1.
         11    1    3    3    0    0  0.18436146436E+01  0.91226352654E+01  0.29186251374E+01  0.97539613539E+01  0.51100000000E-03 0. -1.
        -11    1    3    3    0    0 -0.53562218671E+01 -0.61051679485E+01  0.23991927632E+02  0.25329326483E+02  0.51100000000E-03 0.  1.
         12    1    3    3    0    0  0.21640208710E+02  0.38161490094E-01 -0.30477185811E+02  0.37378589384E+02  0.00000000000E+00 0. -1.
</event>
<event>
 7    1  0.2577508E-013  0.7246154E+02  0.7816164E-02  0.1226708E+00
        -11   -1    0    0    0    0  0.00000000000E+00  0.00000000000E+00  0.45593999997E+02  0.45594000000E+02  0.51100000000E-03 0.  1.
         11   -1    0    0    0    0 -0.00000000000E+00 -0.00000000000E+00 -0.45593999997E+02  0.45594000000E+02  0.51100000000E-03 0. -1.
    9900012    2    1    2    0    0 -0.32443524306E+01  0.17977324944E+02 -0.41194851540E+01  0.72461542974E+02  0.69999964410E+02 0.  0.
        -12    1    1    2    0    0  0.32443524306E+01 -0.17977324944E+02  0.41194851540E+01  0.18726457026E+02  0.00000000000E+00 0.  1.
         11    1    3    3    0    0  0.37684469136E+01 -0.15178721165E+02 -0.25196867304E+02  0.29655975630E+02  0.51100000000E-03 0. -1.
        -11    1    3    3    0    0  0.32608583463E+01  0.40177334585E+01  0.73695793167E+01  0.90047808893E+01  0.51100000000E-03 0.  1.
        -12    1    3    3    0    0 -0.10273657690E+02  0.29138312650E+02  0.13707802833E+02  0.33800786455E+02  0.00000000000E+00 0.  1.
</event>
<event>
 7    1  0.2577508E-013  0.7246156E+02  0.7816164E-02  0.1226708E+00
        -11   -1    0    0    0    0  0.00000000000E+00  0.00000000000E+00  0.45593999997E+02  0.45594000000E+02  0.51100000000E-03 0. -1.
         11   -1    0    0    0    0 -0.00000000000E+00 -0.00000000000E+00 -0.45593999997E+02  0.45594000000E+02  0.51100000000E-03 0.  1.
    9900012    2    1    2    0    0  0.18700061891E+02  0.37524962090E+00 -0.91993762061E+00  0.72461563814E+02  0.69999991558E+02 0.  0.
        -12    1    1    2    0    0 -0.18700061891E+02 -0.37524962090E+00  0.91993762061E+00  0.18726436186E+02  0.00000000000E+00 0.  1.
         11    1    3    3    0    0  0.20144328139E+02 -0.18560050224E+01 -0.30663967865E+01  0.20460730689E+02  0.51100000000E-03 0. -1.
        -11    1    3    3    0    0  0.14052462968E+02 -0.16663159675E+02 -0.10822121573E+02  0.24336205978E+02  0.51100000000E-03 0.  1.
         12    1    3    3    0    0 -0.15496729215E+02  0.18894414318E+02  0.12968580739E+02  0.27664627147E+02  0.00000000000E+00 0. -1.
</event>
<event>
 7    1  0.2577508E-013  0.7246156E+02  0.7816164E-02  0.1226708E+00
        -11   -1    0    0    0    0  0.00000000000E+00  0.00000000000E+00  0.45593999997E+02  0.45594000000E+02  0.51100000000E-03 0.  1.
         11   -1    0    0    0    0 -0.00000000000E+00 -0.00000000000E+00 -0.45593999997E+02  0.45594000000E+02  0.51100000000E-03 0. -1.
    9900012    2    1    2    0    0 -0.87657330515E+01  0.15508407895E+02 -0.57732914491E+01  0.72461556517E+02  0.69999982052E+02 0.  0.
        -12    1    1    2    0    0  0.87657330515E+01 -0.15508407895E+02  0.57732914491E+01  0.18726443483E+02  0.00000000000E+00 0.  1.
         11    1    3    3    0    0 -0.67998971282E+01 -0.43255235886E+01 -0.71321019854E+01  0.10761767246E+02  0.51100000000E-03 0.  1.
        -11    1    3    3    0    0 -0.26976877542E+02  0.66245713297E+01  0.13540940641E+02  0.30902976247E+02  0.51100000000E-03 0. -1.
         12    1    3    3    0    0  0.25011041619E+02  0.13209360154E+02 -0.12182130105E+02  0.30796813024E+02  0.00000000000E+00 0. -1.
</event>
<event>
 7    1  0.2577508E-013  0.7246158E+02  0.7816164E-02  0.1226708E+00
        -11   -1    0    0    0    0  0.00000000000E+00  0.00000000000E+00  0.45593999997E+02  0.45594000000E+02  0.51100000000E-03 0.  1.
         11   -1    0    0    0    0 -0.00000000000E+00 -0.00000000000E+00 -0.45593999997E+02  0.45594000000E+02  0.51100000000E-03 0. -1.
    9900012    2    1    2    0    0 -0.90140363598E+01 -0.15081235701E+02  0.64793667943E+01  0.72461582408E+02  0.70000015780E+02 0.  0.
        -12    1    1    2    0    0  0.90140363598E+01  0.15081235701E+02 -0.64793667943E+01  0.18726417592E+02  0.00000000000E+00 0.  1.
         11    1    3    3    0    0 -0.16864007730E+02 -0.31487533759E+02 -0.73523346697E+01  0.36468018376E+02  0.51100000000E-03 0. -1.
        -11    1    3    3    0    0 -0.50822954926E+01 -0.38379117688E+01 -0.26107640653E+01  0.68829778065E+01  0.51100000000E-03 0.  1.
        -12    1    3    3    0    0  0.12932266863E+02  0.20244209827E+02  0.16442465529E+02  0.29110586225E+02  0.00000000000E+00 0.  1.
</event>
<event>
 7    1  0.2577508E-013  0.7246155E+02  0.7816164E-02  0.1226708E+00
        -11   -1    0    0    0    0  0.00000000000E+00  0.00000000000E+00  0.45593999997E+02  0.45594000000E+02  0.51100000000E-03 0. -1.
         11   -1    0    0    0    0 -0.00000000000E+00 -0.00000000000E+00 -0.45593999997E+02  0.45594000000E+02  0.51100000000E-03 0.  1.
    9900012    2    1    2    0    0 -0.66831555645E+01 -0.17233804393E+02  0.30018729668E+01  0.72461552834E+02  0.69999977255E+02 0.  0.
        -12    1    1    2    0    0  0.66831555645E+01  0.17233804393E+02 -0.30018729668E+01  0.18726447166E+02  0.00000000000E+00 0.  1.
         11    1    3    3    0    0  0.25855150469E+01  0.50677648611E+01 -0.45043022104E+01  0.72564362747E+01  0.51100000000E-03 0.  1.
        -11    1    3    3    0    0  0.60487324929E+01  0.12053024803E+02  0.21241818596E+02  0.25161029970E+02  0.51100000000E-03 0. -1.
        -12    1    3    3    0    0 -0.15317403104E+02 -0.34354594056E+02 -0.13735643418E+02  0.40044086589E+02  0.00000000000E+00 0.  1.
</event>
<event>
 7    1  0.3455913E-013  0.7246161E+02  0.7816164E-02  0.1226708E+00
        -11   -1    0    0    0    0  0.00000000000E+00  0.00000000000E+00  0.45593999997E+02  0.45594000000E+02  0.51100000000E-03 0. -1.
         11   -1    0    0    0    0 -0.00000000000E+00 -0.00000000000E+00 -0.45593999997E+02  0.45594000000E+02  0.51100000000E-03 0.  1.
    9900012    2    1    2    0    0 -0.11278518699E+02  0.14491453770E+02 -0.36702013603E+01  0.72461612350E+02  0.70000054785E+02 0.  0.
        -12    1    1    2    0    0  0.11278518699E+02 -0.14491453770E+02  0.36702013603E+01  0.18726387650E+02  0.00000000000E+00 0.  1.
         11    1    3    3    0    0 -0.18613436910E+02  0.17532870808E+01  0.64198462487E+01  0.19767358834E+02  0.51100000000E-03 0. -1.
        -11    1    3    3    0    0  0.16456276600E+02  0.20697196232E+01  0.16014416406E+02  0.23055461651E+02  0.51100000000E-03 0.  1.
         12    1    3    3    0    0 -0.91213583896E+01  0.10668447066E+02 -0.26104464015E+02  0.29638791864E+02  0.00000000000E+00 0. -1.
</event>
<event>
 7    1  0.2577508E-013  0.7246158E+02  0.7816164E-02  0.1226708E+00
        -11   -1    0    0    0    0  0.00000000000E+00  0.00000000000E+00  0.45593999997E+02  0.45594000000E+02  0.51100000000E-03 0. -1.
         11   -1    0    0    0    0 -0.00000000000E+00 -0.00000000000E+00 -0.45593999997E+02  0.45594000000E+02  0.51100000000E-03 0.  1.
    9900012    2    1    2    0    0 -0.18568892055E+01 -0.18633517848E+02 -0.15116422741E+00  0.72461578144E+02  0.70000010226E+02 0.  0.
        -12    1    1    2    0    0  0.18568892055E+01  0.18633517848E+02  0.15116422741E+00  0.18726421856E+02  0.00000000000E+00 0.  1.
         11    1    3    3    0    0  0.10549349342E+02 -0.36393722594E+02  0.16655114294E+01  0.37928429237E+02  0.51100000000E-03 0. -1.
        -11    1    3    3    0    0  0.47753345319E+01 -0.35148941052E+01 -0.39163573466E+01  0.71060647048E+01  0.51100000000E-03 0.  1.
        -12    1    3    3    0    0 -0.17181573079E+02  0.21275098852E+02  0.20996816898E+01  0.27427084202E+02  0.00000000000E+00 0.  1.
</event>
<event>
 7    1  0.2577508E-013  0.7246157E+02  0.7816164E-02  0.1226708E+00
        -11   -1    0    0    0    0  0.00000000000E+00  0.00000000000E+00  0.45593999997E+02  0.45594000000E+02  0.51100000000E-03 0. -1.
         11   -1    0    0    0    0 -0.00000000000E+00 -0.00000000000E+00 -0.45593999997E+02  0.45594000000E+02  0.51100000000E-03 0.  1.
    9900012    2    1    2    0    0  0.61287330189E+01  0.16286938066E+02  0.69176258183E+01  0.72461567693E+02  0.69999996611E+02 0.  0.
        -12    1    1    2    0    0 -0.61287330189E+01 -0.16286938066E+02 -0.69176258183E+01  0.18726432307E+02  0.00000000000E+00 0.  1.
         11    1    3    3    0    0 -0.32168799537E+00 -0.38385339419E+01 -0.27793343774E+01  0.47500027191E+01  0.51100000000E-03 0. -1.
        -11    1    3    3    0    0 -0.52222558344E+01  0.14886470158E+02 -0.25653971328E+02  0.30116526940E+02  0.51100000000E-03 0.  1.
         12    1    3    3    0    0  0.11672676849E+02  0.52390018500E+01  0.35350931523E+02  0.37595038034E+02  0.00000000000E+00 0. -1.
</event>
<event>
 7    1  0.2577508E-013  0.7246158E+02  0.7816164E-02  0.1226708E+00
        -11   -1    0    0    0    0  0.00000000000E+00  0.00000000000E+00  0.45593999997E+02  0.45594000000E+02  0.51100000000E-03 0.  1.
         11   -1    0    0    0    0 -0.00000000000E+00 -0.00000000000E+00 -0.45593999997E+02  0.45594000000E+02  0.51100000000E-03 0. -1.
    9900012    2    1    2    0    0  0.22820528873E+01  0.47810609425E+00 -0.18580700549E+02  0.72461580596E+02  0.70000013419E+02 0.  0.
        -12    1    1    2    0    0 -0.22820528873E+01 -0.47810609425E+00  0.18580700549E+02  0.18726419404E+02  0.00000000000E+00 0.  1.
         11    1    3    3    0    0  0.22937490389E+01  0.45269075775E+01 -0.35397140152E+02  0.35759078681E+02  0.51100000000E-03 0. -1.
        -11    1    3    3    0    0  0.15839417094E+02  0.44377702811E+00  0.10739050352E+02  0.19141872287E+02  0.51100000000E-03 0.  1.
        -12    1    3    3    0    0 -0.15851113246E+02 -0.44925785114E+01  0.60773892511E+01  0.17560629628E+02  0.00000000000E+00 0.  1.
</event>
<event>
 7    1  0.2577508E-013  0.7246157E+02  0.7816164E-02  0.1226708E+00
        -11   -1    0    0    0    0  0.00000000000E+00  0.00000000000E+00  0.45593999997E+02  0.45594000000E+02  0.51100000000E-03 0.  1.
         11   -1    0    0    0    0 -0.00000000000E+00 -0.00000000000E+00 -0.45593999997E+02  0.45594000000E+02  0.51100000000E-03 0. -1.
    9900012    2    1    2    0    0  0.13997231965E+02  0.12412355885E+02 -0.83082439886E+00  0.72461565463E+02  0.69999993706E+02 0.  0.
        -12    1    1    2    0    0 -0.13997231965E+02 -0.12412355885E+02  0.83082439886E+00  0.18726434537E+02  0.00000000000E+00 0.  1.
         11    1    3    3    0    0  0.76755321520E+01  0.74247768741E+01 -0.13104328342E+02  0.16904571187E+02  0.51100000000E-03 0. -1.
        -11    1    3    3    0    0  0.12151735009E+02 -0.20118201976E+02 -0.56385068134E+01  0.24170218738E+02  0.51100000000E-03 0.  1.
        -12    1    3    3    0    0 -0.58300351960E+01  0.25105780987E+02  0.17912010757E+02  0.31386775538E+02  0.00000000000E+00 0.  1.
</event>
<event>
 7    1  0.2577508E-013  0.7246152E+02  0.7816164E-02  0.1226708E+00
        -11   -1    0    0    0    0  0.00000000000E+00  0.00000000000E+00  0.45593999997E+02  0.45594000000E+02  0.51100000000E-03 0.  1.
         11   -1    0    0    0    0 -0.00000000000E+00 -0.00000000000E+00 -0.45593999997E+02  0.45594000000E+02  0.51100000000E-03 0. -1.
    9900012    2    1    2    0    0 -0.16110145826E+02 -0.27422745443E+01 -0.91446171782E+01  0.72461524316E+02  0.69999940105E+02 0.  0.
        -12    1    1    2    0    0  0.16110145826E+02  0.27422745443E+01  0.91446171782E+01  0.18726475684E+02  0.00000000000E+00 0.  1.
         11    1    3    3    0    0  0.26216210054E+01  0.17424863007E+02  0.47690877716E+01  0.18254943055E+02  0.51100000000E-03 0. -1.
        -11    1    3    3    0    0  0.11954227207E+02 -0.31382110361E+01 -0.14570181550E+02  0.19106075141E+02  0.51100000000E-03 0.  1.
         12    1    3    3    0    0 -0.30685994038E+02 -0.17028926515E+02  0.65647660026E+00  0.35100506120E+02  0.00000000000E+00 0. -1.
</event>
<event>
 7    1  0.2577508E-013  0.7246157E+02  0.7816164E-02  0.1226708E+00
        -11   -1    0    0    0    0  0.00000000000E+00  0.00000000000E+00  0.45593999997E+02  0.45594000000E+02  0.51100000000E-03 0.  1.
         11   -1    0    0    0    0 -0.00000000000E+00 -0.00000000000E+00 -0.45593999997E+02  0.45594000000E+02  0.51100000000E-03 0. -1.
    9900012    2    1    2    0    0 -0.15102346459E+02  0.10227156229E+02 -0.42430657695E+01  0.72461569475E+02  0.69999998932E+02 0.  0.
        -12    1    1    2    0    0  0.15102346459E+02 -0.10227156229E+02  0.42430657695E+01  0.18726430525E+02  0.00000000000E+00 0.  1.
         11    1    3    3    0    0 -0.24635299998E+02  0.27571031458E+02  0.75717962650E+00  0.36981523804E+02  0.51100000000E-03 0. -1.
        -11    1    3    3    0    0  0.49090255979E+00  0.77073353295E+01  0.19291738165E+01  0.79602584807E+01  0.51100000000E-03 0.  1.
        -12    1    3    3    0    0  0.90420509796E+01 -0.25051210558E+02 -0.69294192125E+01  0.27519787190E+02  0.00000000000E+00 0.  1.
</event>
<event>
 7    1  0.2577508E-013  0.7246159E+02  0.7816164E-02  0.1226708E+00
        -11   -1    0    0    0    0  0.00000000000E+00  0.00000000000E+00  0.45593999997E+02  0.45594000000E+02  0.51100000000E-03 0.  1.
         11   -1    0    0    0    0 -0.00000000000E+00 -0.00000000000E+00 -0.45593999997E+02  0.45594000000E+02  0.51100000000E-03 0. -1.
    9900012    2    1    2    0    0  0.92269473516E+00  0.13152792885E+02 -0.13297783368E+02  0.72461591675E+02  0.70000027853E+02 0.  0.
        -12    1    1    2    0    0 -0.92269473516E+00 -0.13152792885E+02  0.13297783368E+02  0.18726408325E+02  0.00000000000E+00 0.  1.
         11    1    3    3    0    0  0.16398394680E+02  0.47828318531E+01 -0.97031696844E+01  0.19645211396E+02  0.51100000000E-03 0. -1.
        -11    1    3    3    0    0 -0.10577794587E+02  0.51282092477E+01 -0.26595374742E+02  0.29077520980E+02  0.51100000000E-03 0.  1.
        -12    1    3    3    0    0 -0.48979053578E+01  0.32417517842E+01  0.23000761059E+02  0.23738859299E+02  0.00000000000E+00 0.  1.
</event>
<event>
 7    1  0.2577508E-013  0.7246153E+02  0.7816164E-02  0.1226708E+00
        -11   -1    0    0    0    0  0.00000000000E+00  0.00000000000E+00  0.45593999997E+02  0.45594000000E+02  0.51100000000E-03 0.  1.
         11   -1    0    0    0    0 -0.00000000000E+00 -0.00000000000E+00 -0.45593999997E+02  0.45594000000E+02  0.51100000000E-03 0. -1.
    9900012    2    1    2    0    0  0.64371376154E+01  0.16065462616E+02 -0.71515558598E+01  0.72461532608E+02  0.69999950907E+02 0.  0.
        -12    1    1    2    0    0 -0.64371376154E+01 -0.16065462616E+02  0.71515558598E+01  0.18726467392E+02  0.00000000000E+00 0.  1.
         11    1    3    3    0    0  0.31872073637E+02  0.13966400044E+02  0.57287667382E+01  0.35266246990E+02  0.51100000000E-03 0. -1.
        -11    1    3    3    0    0 -0.14119256796E+02 -0.58628152585E+01 -0.16898257038E+02  0.22787652499E+02  0.51100000000E-03 0.  1.
        -12    1    3    3    0    0 -0.11315679226E+02  0.79618778311E+01  0.40179344404E+01  0.14407633120E+02  0.00000000000E+00 0.  1.
</event>
<event>
 7    1  0.2577508E-013  0.7246150E+02  0.7816164E-02  0.1226708E+00
        -11   -1    0    0    0    0  0.00000000000E+00  0.00000000000E+00  0.45593999997E+02  0.45594000000E+02  0.51100000000E-03 0.  1.
         11   -1    0    0    0    0 -0.00000000000E+00 -0.00000000000E+00 -0.45593999997E+02  0.45594000000E+02  0.51100000000E-03 0. -1.
    9900012    2    1    2    0    0 -0.12040479603E+02  0.12855253883E+02 -0.63601108833E+01  0.72461502412E+02  0.69999911570E+02 0.  0.
        -12    1    1    2    0    0  0.12040479603E+02 -0.12855253883E+02  0.63601108833E+01  0.18726497588E+02  0.00000000000E+00 0.  1.
         11    1    3    3    0    0  0.55894953592E+01  0.37975591216E+01  0.16728289500E+02  0.18041607010E+02  0.51100000000E-03 0. -1.
        -11    1    3    3    0    0 -0.36470389649E+01  0.19788989490E+02  0.54767697298E+01  0.20854256285E+02  0.51100000000E-03 0.  1.
         12    1    3    3    0    0 -0.13982935998E+02 -0.10731294729E+02 -0.28565170113E+02  0.33565639116E+02  0.00000000000E+00 0. -1.
</event>
<event>
 7    1  0.2577508E-013  0.7246156E+02  0.7816164E-02  0.1226708E+00
        -11   -1    0    0    0    0  0.00000000000E+00  0.00000000000E+00  0.45593999997E+02  0.45594000000E+02  0.51100000000E-03 0.  1.
         11   -1    0    0    0    0 -0.00000000000E+00 -0.00000000000E+00 -0.45593999997E+02  0.45594000000E+02  0.51100000000E-03 0. -1.
    9900012    2    1    2    0    0  0.94526780821E+01  0.94631063714E+01 -0.13106335420E+02  0.72461560583E+02  0.69999987349E+02 0.  0.
        -12    1    1    2    0    0 -0.94526780821E+01 -0.94631063714E+01  0.13106335420E+02  0.18726439417E+02  0.00000000000E+00 0.  1.
         11    1    3    3    0    0  0.13294957890E+02  0.67491766364E+01 -0.23080448141E+02  0.27477524947E+02  0.51100000000E-03 0. -1.
        -11    1    3    3    0    0  0.88950626646E+01 -0.14937323124E+02 -0.55484107928E+01  0.18249126678E+02  0.51100000000E-03 0.  1.
        -12    1    3    3    0    0 -0.12737342473E+02  0.17651252859E+02  0.15522523514E+02  0.26734908958E+02  0.00000000000E+00 0.  1.
</event>
<event>
 7    1  0.2577508E-013  0.7246155E+02  0.7816164E-02  0.1226708E+00
        -11   -1    0    0    0    0  0.00000000000E+00  0.00000000000E+00  0.45593999997E+02  0.45594000000E+02  0.51100000000E-03 0.  1.
         11   -1    0    0    0    0 -0.00000000000E+00 -0.00000000000E+00 -0.45593999997E+02  0.45594000000E+02  0.51100000000E-03 0. -1.
    9900012    2    1    2    0    0  0.15934340801E+02 -0.95365195947E+01  0.24148502036E+01  0.72461550143E+02  0.69999973749E+02 0.  0.
        -12    1    1    2    0    0 -0.15934340801E+02  0.95365195947E+01 -0.24148502036E+01  0.18726449857E+02  0.00000000000E+00 0.  1.
         11    1    3    3    0    0  0.11997919333E+02 -0.33374955129E+02  0.92564283952E+01  0.36654047049E+02  0.51100000000E-03 0. -1.
        -11    1    3    3    0    0  0.23901111120E+01 -0.53694753900E+01 -0.16164124098E+01  0.60956284689E+01  0.51100000000E-03 0.  1.
        -12    1    3    3    0    0  0.15463103554E+01  0.29207910924E+02 -0.52251657818E+01  0.29711874625E+02  0.00000000000E+00 0.  1.
</event>
<event>
 7    1  0.2577508E-013  0.7246168E+02  0.7816164E-02  0.1226708E+00
        -11   -1    0    0    0    0  0.00000000000E+00  0.00000000000E+00  0.45593999997E+02  0.45594000000E+02  0.51100000000E-03 0. -1.
         11   -1    0    0    0    0 -0.00000000000E+00 -0.00000000000E+00 -0.45593999997E+02  0.45594000000E+02  0.51100000000E-03 0.  1.
    9900012    2    1    2    0    0  0.14890036672E+02 -0.11351968397E+02  0.30740547631E+00  0.72461684914E+02  0.70000149313E+02 0.  0.
        -12    1    1    2    0    0 -0.14890036672E+02  0.11351968397E+02 -0.30740547631E+00  0.18726315086E+02  0.00000000000E+00 0.  1.
         11    1    3    3    0    0  0.29844415097E+02  0.38958082302E+01  0.14760953363E+02  0.33522413080E+02  0.51100000000E-03 0. -1.
        -11    1    3    3    0    0  0.68374097000E+01 -0.10374180132E+02 -0.15902907182E+00  0.12425742446E+02  0.51100000000E-03 0.  1.
        -12    1    3    3    0    0 -0.21791788125E+02 -0.48735964948E+01 -0.14294518815E+02  0.26513529388E+02  0.00000000000E+00 0.  1.
</event>
<event>
 7    1  0.2577508E-013  0.7246156E+02  0.7816164E-02  0.1226708E+00
        -11   -1    0    0    0    0  0.00000000000E+00  0.00000000000E+00  0.45593999997E+02  0.45594000000E+02  0.51100000000E-03 0.  1.
         11   -1    0    0    0    0 -0.00000000000E+00 -0.00000000000E+00 -0.45593999997E+02  0.45594000000E+02  0.51100000000E-03 0. -1.
    9900012    2    1    2    0    0 -0.17534538138E+02  0.53758710874E+01 -0.37841356864E+01  0.72461556115E+02  0.69999981529E+02 0.  0.
        -12    1    1    2    0    0  0.17534538138E+02 -0.53758710874E+01  0.37841356864E+01  0.18726443885E+02  0.00000000000E+00 0.  1.
         11    1    3    3    0    0 -0.52966139507E+01 -0.28549676189E+02 -0.15528411540E+02  0.32928250713E+02  0.51100000000E-03 0. -1.
        -11    1    3    3    0    0 -0.11578200829E+02  0.16050322121E+02  0.73742771985E+01  0.21119837573E+02  0.51100000000E-03 0.  1.
        -12    1    3    3    0    0 -0.65972335809E+00  0.17875225155E+02  0.43699986547E+01  0.18413467829E+02  0.00000000000E+00 0.  1.
</event>
<event>
 7    1  0.2577508E-013  0.7246157E+02  0.7816164E-02  0.1226708E+00
        -11   -1    0    0    0    0  0.00000000000E+00  0.00000000000E+00  0.45593999997E+02  0.45594000000E+02  0.51100000000E-03 0.  1.
         11   -1    0    0    0    0 -0.00000000000E+00 -0.00000000000E+00 -0.45593999997E+02  0.45594000000E+02  0.51100000000E-03 0. -1.
    9900012    2    1    2    0    0 -0.11130823741E+02 -0.14678396624E+01 -0.14987640986E+02  0.72461570209E+02  0.69999999888E+02 0.  0.
        -12    1    1    2    0    0  0.11130823741E+02  0.14678396624E+01  0.14987640986E+02  0.18726429791E+02  0.00000000000E+00 0.  1.
         11    1    3    3    0    0 -0.63888113497E+01 -0.58656132876E+01  0.88458163276E+01  0.12388333079E+02  0.51100000000E-03 0. -1.
        -11    1    3    3    0    0  0.73763541968E+01 -0.22963434204E+02 -0.47527191803E+01  0.24582885338E+02  0.51100000000E-03 0.  1.
         12    1    3    3    0    0 -0.12118366588E+02  0.27361207829E+02 -0.19080738133E+02  0.35490351792E+02  0.00000000000E+00 0. -1.
</event>
<event>
 7    1  0.2797189E-013  0.7246160E+02  0.7816164E-02  0.1226708E+00
        -11   -1    0    0    0    0  0.00000000000E+00  0.00000000000E+00  0.45593999997E+02  0.45594000000E+02  0.51100000000E-03 0. -1.
         11   -1    0    0    0    0 -0.00000000000E+00 -0.00000000000E+00 -0.45593999997E+02  0.45594000000E+02  0.51100000000E-03 0.  1.
    9900012    2    1    2    0    0 -0.43202186868E+01 -0.85213181578E+01  0.16105925031E+02  0.72461602221E+02  0.70000041591E+02 0.  0.
        -12    1    1    2    0    0  0.43202186868E+01  0.85213181578E+01 -0.16105925031E+02  0.18726397779E+02  0.00000000000E+00 0.  1.
         11    1    3    3    0    0  0.95931762862E+01 -0.92663243966E+01  0.19505948880E+02  0.23629977593E+02  0.51100000000E-03 0. -1.
        -11    1    3    3    0    0  0.12170943378E+02 -0.31788172862E+01 -0.15373006269E+02  0.19863687071E+02  0.51100000000E-03 0.  1.
        -12    1    3    3    0    0 -0.26084338351E+02  0.39238235250E+01  0.11972982421E+02  0.28967937557E+02  0.00000000000E+00 0.  1.
</event>
<event>
 7    1  0.2577508E-013  0.7246168E+02  0.7816164E-02  0.1226708E+00
        -11   -1    0    0    0    0  0.00000000000E+00  0.00000000000E+00  0.45593999997E+02  0.45594000000E+02  0.51100000000E-03 0.  1.
         11   -1    0    0    0    0 -0.00000000000E+00 -0.00000000000E+00 -0.45593999997E+02  0.45594000000E+02  0.51100000000E-03 0. -1.
    9900012    2    1    2    0    0  0.17529685480E+02  0.65800155491E+01  0.29764365342E+00  0.72461679769E+02  0.70000142611E+02 0.  0.
        -12    1    1    2    0    0 -0.17529685480E+02 -0.65800155491E+01 -0.29764365342E+00  0.18726320231E+02  0.00000000000E+00 0.  1.
         11    1    3    3    0    0  0.17471819519E+01 -0.19191636987E+01  0.21838664318E+01  0.33919178835E+01  0.51100000000E-03 0. -1.
        -11    1    3    3    0    0  0.92451970946E+01 -0.12896103039E+02 -0.29520552903E+02  0.33514865163E+02  0.51100000000E-03 0.  1.
         12    1    3    3    0    0  0.65373064332E+01  0.21395282287E+02  0.27634330125E+02  0.35554896723E+02  0.00000000000E+00 0. -1.
</event>
<event>
 7    1  0.2577508E-013  0.7246159E+02  0.7816164E-02  0.1226708E+00
        -11   -1    0    0    0    0  0.00000000000E+00  0.00000000000E+00  0.45593999997E+02  0.45594000000E+02  0.51100000000E-03 0.  1.
         11   -1    0    0    0    0 -0.00000000000E+00 -0.00000000000E+00 -0.45593999997E+02  0.45594000000E+02  0.51100000000E-03 0. -1.
    9900012    2    1    2    0    0 -0.11253581795E+02 -0.74094277585E+01 -0.13005224715E+02  0.72461585693E+02  0.70000020059E+02 0.  0.
        -12    1    1    2    0    0  0.11253581795E+02  0.74094277585E+01  0.13005224715E+02  0.18726414307E+02  0.00000000000E+00 0.  1.
         11    1    3    3    0    0 -0.12668512263E+02 -0.10831167883E+02 -0.21426066116E+02  0.27145565202E+02  0.51100000000E-03 0. -1.
        -11    1    3    3    0    0 -0.61681707660E+01 -0.22584525454E+01 -0.16979696134E+02  0.18205961100E+02  0.51100000000E-03 0.  1.
        -12    1    3    3    0    0  0.75831012345E+01  0.56801926699E+01  0.25400537535E+02  0.27110059391E+02  0.00000000000E+00 0.  1.
</event>
<event>
 7    1  0.2577508E-013  0.7246155E+02  0.7816164E-02  0.1226708E+00
        -11   -1    0    0    0    0  0.00000000000E+00  0.00000000000E+00  0.45593999997E+02  0.45594000000E+02  0.51100000000E-03 0. -1.
         11   -1    0    0    0    0 -0.00000000000E+00 -0.00000000000E+00 -0.45593999997E+02  0.45594000000E+02  0.51100000000E-03 0.  1.
    9900012    2    1    2    0    0 -0.16769973444E+02 -0.40236086509E+01  0.72978387822E+01  0.72461551144E+02  0.69999975053E+02 0.  0.
        -12    1    1    2    0    0  0.16769973444E+02  0.40236086509E+01 -0.72978387822E+01  0.18726448856E+02  0.00000000000E+00 0.  1.
         11    1    3    3    0    0  0.70524110358E+01  0.80582550318E-01 -0.82724298231E+01  0.10870882687E+02  0.51100000000E-03 0. -1.
        -11    1    3    3    0    0 -0.36076483708E+01  0.23472709191E+02 -0.62536491856E+00  0.23756562990E+02  0.51100000000E-03 0.  1.
         12    1    3    3    0    0 -0.20214736109E+02 -0.27576900393E+02  0.16195633524E+02  0.37834105466E+02  0.00000000000E+00 0. -1.
</event>
<event>
 7    1  0.2577508E-013  0.7246095E+02  0.7816164E-02  0.1226710E+00
        -11   -1    0    0    0    0  0.00000000000E+00  0.00000000000E+00  0.45593999997E+02  0.45594000000E+02  0.51100000000E-03 0.  1.
         11   -1    0    0    0    0 -0.00000000000E+00 -0.00000000000E+00 -0.45593999997E+02  0.45594000000E+02  0.51100000000E-03 0. -1.
    9900012    2    1    2    0    0 -0.30972715982E+01  0.69163613587E+01 -0.17125222481E+02  0.72460950290E+02  0.69999192325E+02 0.  0.
        -12    1    1    2    0    0  0.30972715982E+01 -0.69163613587E+01  0.17125222481E+02  0.18727049710E+02  0.00000000000E+00 0.  1.
         11    1    3    3    0    0 -0.10812611685E+02  0.11682480363E+01 -0.10560940350E+02  0.15159513062E+02  0.51100000000E-03 0. -1.
        -11    1    3    3    0    0 -0.20861092100E+02 -0.32282419875E+01 -0.15333970852E+02  0.26090944258E+02  0.51100000000E-03 0.  1.
        -12    1    3    3    0    0  0.28576432187E+02  0.89763553098E+01  0.87696887210E+01  0.31210492970E+02  0.00000000000E+00 0.  1.
</event>
<event>
 7    1  0.2577508E-013  0.7246157E+02  0.7816164E-02  0.1226708E+00
        -11   -1    0    0    0    0  0.00000000000E+00  0.00000000000E+00  0.45593999997E+02  0.45594000000E+02  0.51100000000E-03 0.  1.
         11   -1    0    0    0    0 -0.00000000000E+00 -0.00000000000E+00 -0.45593999997E+02  0.45594000000E+02  0.51100000000E-03 0. -1.
    9900012    2    1    2    0    0  0.42338235665E+01  0.12707101362E+02 -0.13087538689E+02  0.72461565317E+02  0.69999993516E+02 0.  0.
        -12    1    1    2    0    0 -0.42338235665E+01 -0.12707101362E+02  0.13087538689E+02  0.18726434683E+02  0.00000000000E+00 0.  1.
         11    1    3    3    0    0  0.15911640987E+02  0.75785809733E+01  0.21949538109E+01  0.17760434425E+02  0.51100000000E-03 0. -1.
        -11    1    3    3    0    0  0.72544195377E+01 -0.19854399939E+02 -0.71865227286E+01  0.22326439683E+02  0.51100000000E-03 0.  1.
         12    1    3    3    0    0 -0.18932236959E+02  0.24982920327E+02 -0.80959697709E+01  0.32374691208E+02  0.00000000000E+00 0. -1.
</event>
<event>
 7    1  0.2577508E-013  0.7246154E+02  0.7816164E-02  0.1226708E+00
        -11   -1    0    0    0    0  0.00000000000E+00  0.00000000000E+00  0.45593999997E+02  0.45594000000E+02  0.51100000000E-03 0. -1.
         11   -1    0    0    0    0 -0.00000000000E+00 -0.00000000000E+00 -0.45593999997E+02  0.45594000000E+02  0.51100000000E-03 0.  1.
    9900012    2    1    2    0    0 -0.67665326604E+01  0.16294248200E+02  0.62762837359E+01  0.72461542081E+02  0.69999963247E+02 0.  0.
        -12    1    1    2    0    0  0.67665326604E+01 -0.16294248200E+02 -0.62762837359E+01  0.18726457919E+02  0.00000000000E+00 0.  1.
         11    1    3    3    0    0  0.25819881221E+01 -0.10660973323E+02  0.13465428022E+02  0.17367808352E+02  0.51100000000E-03 0. -1.
        -11    1    3    3    0    0  0.16314867592E+02  0.21482999438E+02 -0.98521672568E+01  0.28718624085E+02  0.51100000000E-03 0.  1.
         12    1    3    3    0    0 -0.25663388375E+02  0.54722220851E+01  0.26630229703E+01  0.26375109645E+02  0.00000000000E+00 0. -1.
</event>
<event>
 7    1  0.2577508E-013  0.7246135E+02  0.7816164E-02  0.1226709E+00
        -11   -1    0    0    0    0  0.00000000000E+00  0.00000000000E+00  0.45593999997E+02  0.45594000000E+02  0.51100000000E-03 0. -1.
         11   -1    0    0    0    0 -0.00000000000E+00 -0.00000000000E+00 -0.45593999997E+02  0.45594000000E+02  0.51100000000E-03 0.  1.
    9900012    2    1    2    0    0 -0.83959661759E+01  0.82524097564E+01  0.14563403472E+02  0.72461354932E+02  0.69999719450E+02 0.  0.
        -12    1    1    2    0    0  0.83959661759E+01 -0.82524097564E+01 -0.14563403472E+02  0.18726645068E+02  0.00000000000E+00 0.  1.
         11    1    3    3    0    0 -0.44661741550E+01  0.46407565174E+01  0.15603562940E+02  0.16880595644E+02  0.51100000000E-03 0. -1.
        -11    1    3    3    0    0 -0.61781927266E+01  0.19809636031E+02  0.20075923470E+02  0.28872728456E+02  0.51100000000E-03 0.  1.
        -12    1    3    3    0    0  0.22484007057E+01 -0.16197982792E+02 -0.21116082938E+02  0.26708030832E+02  0.00000000000E+00 0.  1.
</event>
<event>
 7    1  0.2577508E-013  0.7246155E+02  0.7816164E-02  0.1226708E+00
        -11   -1    0    0    0    0  0.00000000000E+00  0.00000000000E+00  0.45593999997E+02  0.45594000000E+02  0.51100000000E-03 0. -1.
         11   -1    0    0    0    0 -0.00000000000E+00 -0.00000000000E+00 -0.45593999997E+02  0.45594000000E+02  0.51100000000E-03 0.  1.
    9900012    2    1    2    0    0  0.31298995944E+01  0.84215984443E+01  0.16430466215E+02  0.72461553143E+02  0.69999977657E+02 0.  0.
        -12    1    1    2    0    0 -0.31298995944E+01 -0.84215984443E+01 -0.16430466215E+02  0.18726446857E+02  0.00000000000E+00 0.  1.
         11    1    3    3    0    0  0.28115505872E+02  0.12026863358E+02  0.13661080726E+02  0.33492569915E+02  0.51100000000E-03 0. -1.
        -11    1    3    3    0    0 -0.79617119279E+01  0.12074986406E+02  0.58858174148E+01  0.15615280991E+02  0.51100000000E-03 0.  1.
        -12    1    3    3    0    0 -0.17023894350E+02 -0.15680251319E+02 -0.31164319251E+01  0.23353702237E+02  0.00000000000E+00 0.  1.
</event>
<event>
 7    1  0.2577508E-013  0.7246155E+02  0.7816164E-02  0.1226708E+00
        -11   -1    0    0    0    0  0.00000000000E+00  0.00000000000E+00  0.45593999997E+02  0.45594000000E+02  0.51100000000E-03 0.  1.
         11   -1    0    0    0    0 -0.00000000000E+00 -0.00000000000E+00 -0.45593999997E+02  0.45594000000E+02  0.51100000000E-03 0. -1.
    9900012    2    1    2    0    0  0.60745044643E+01 -0.38902072635E+01 -0.17281391099E+02  0.72461553585E+02  0.69999978233E+02 0.  0.
        -12    1    1    2    0    0 -0.60745044643E+01  0.38902072635E+01  0.17281391099E+02  0.18726446415E+02  0.00000000000E+00 0.  1.
         11    1    3    3    0    0 -0.43642383641E+01  0.67162947978E+01 -0.11139693670E+02  0.13720348670E+02  0.51100000000E-03 0. -1.
        -11    1    3    3    0    0 -0.12020623599E+02 -0.25523927574E+02 -0.12782269862E+02  0.30973419146E+02  0.51100000000E-03 0.  1.
        -12    1    3    3    0    0  0.22459366428E+02  0.14917425512E+02  0.66405724333E+01  0.27767785769E+02  0.00000000000E+00 0.  1.
</event>
<event>
 7    1  0.2577508E-013  0.7246159E+02  0.7816164E-02  0.1226708E+00
        -11   -1    0    0    0    0  0.00000000000E+00  0.00000000000E+00  0.45593999997E+02  0.45594000000E+02  0.51100000000E-03 0.  1.
         11   -1    0    0    0    0 -0.00000000000E+00 -0.00000000000E+00 -0.45593999997E+02  0.45594000000E+02  0.51100000000E-03 0. -1.
    9900012    2    1    2    0    0  0.74160639650E+01 -0.95323444062E+01 -0.14311351174E+02  0.72461591721E+02  0.70000027912E+02 0.  0.
        -12    1    1    2    0    0 -0.74160639650E+01  0.95323444062E+01  0.14311351174E+02  0.18726408279E+02  0.00000000000E+00 0.  1.
         11    1    3    3    0    0  0.14914656709E+02 -0.23233790351E+02 -0.10153351319E+02  0.29416773142E+02  0.51100000000E-03 0. -1.
        -11    1    3    3    0    0 -0.43249287648E+01 -0.12645188184E+02 -0.89419897508E+01  0.16079955659E+02  0.51100000000E-03 0.  1.
        -12    1    3    3    0    0 -0.31736639793E+01  0.26346634129E+02  0.47839898955E+01  0.26964862920E+02  0.00000000000E+00 0.  1.
</event>
<event>
 7    1  0.2577508E-013  0.7246161E+02  0.7816164E-02  0.1226708E+00
        -11   -1    0    0    0    0  0.00000000000E+00  0.00000000000E+00  0.45593999997E+02  0.45594000000E+02  0.51100000000E-03 0.  1.
         11   -1    0    0    0    0 -0.00000000000E+00 -0.00000000000E+00 -0.45593999997E+02  0.45594000000E+02  0.51100000000E-03 0. -1.
    9900012    2    1    2    0    0  0.14059106377E+02  0.11924434400E+02 -0.32904361830E+01  0.72461612785E+02  0.70000055352E+02 0.  0.
        -12    1    1    2    0    0 -0.14059106377E+02 -0.11924434400E+02  0.32904361830E+01  0.18726387215E+02  0.00000000000E+00 0.  1.
         11    1    3    3    0    0  0.43330000921E+01 -0.45091442620E+01 -0.10699639631E+02  0.12393125524E+02  0.51100000000E-03 0. -1.
        -11    1    3    3    0    0  0.18402601233E+02 -0.16963126282E+02  0.46166973105E+01  0.25450290366E+02  0.51100000000E-03 0.  1.
         12    1    3    3    0    0 -0.86764949482E+01  0.33396704944E+02  0.27925061371E+01  0.34618196895E+02  0.00000000000E+00 0. -1.
</event>
<event>
 7    1  0.2577508E-013  0.7246159E+02  0.7816164E-02  0.1226708E+00
        -11   -1    0    0    0    0  0.00000000000E+00  0.00000000000E+00  0.45593999997E+02  0.45594000000E+02  0.51100000000E-03 0. -1.
         11   -1    0    0    0    0 -0.00000000000E+00 -0.00000000000E+00 -0.45593999997E+02  0.45594000000E+02  0.51100000000E-03 0.  1.
    9900012    2    1    2    0    0  0.79058203110E+01 -0.14551666176E+02 -0.87421612176E+01  0.72461591747E+02  0.70000027947E+02 0.  0.
        -12    1    1    2    0    0 -0.79058203110E+01  0.14551666176E+02  0.87421612176E+01  0.18726408253E+02  0.00000000000E+00 0.  1.
         11    1    3    3    0    0  0.13581125240E+02 -0.20562504306E+02  0.10127992403E+02  0.26642818479E+02  0.51100000000E-03 0. -1.
        -11    1    3    3    0    0 -0.98363669888E+01 -0.14617783836E+02 -0.99173562754E-01  0.17619408488E+02  0.51100000000E-03 0.  1.
        -12    1    3    3    0    0  0.41610620600E+01  0.20628621966E+02 -0.18770980058E+02  0.28199364780E+02  0.00000000000E+00 0.  1.
</event>
<event>
 7    1  0.2577508E-013  0.7246154E+02  0.7816164E-02  0.1226708E+00
        -11   -1    0    0    0    0  0.00000000000E+00  0.00000000000E+00  0.45593999997E+02  0.45594000000E+02  0.51100000000E-03 0.  1.
         11   -1    0    0    0    0 -0.00000000000E+00 -0.00000000000E+00 -0.45593999997E+02  0.45594000000E+02  0.51100000000E-03 0. -1.
    9900012    2    1    2    0    0  0.11236655609E+01 -0.10484577879E+02 -0.15475506832E+02  0.72461539862E+02  0.69999960356E+02 0.  0.
        -12    1    1    2    0    0 -0.11236655609E+01  0.10484577879E+02  0.15475506832E+02  0.18726460138E+02  0.00000000000E+00 0.  1.
         11    1    3    3    0    0  0.88247148269E+01 -0.98067779317E+01 -0.75124851260E+01  0.15181762684E+02  0.51100000000E-03 0. -1.
        -11    1    3    3    0    0 -0.60235980428E+01 -0.17829886873E+02  0.18049481296E+02  0.26076279923E+02  0.51100000000E-03 0.  1.
         12    1    3    3    0    0 -0.16774512231E+01  0.17152086925E+02 -0.26012503002E+02  0.31203497255E+02  0.00000000000E+00 0. -1.
</event>
<event>
 7    1  0.2577508E-013  0.7246142E+02  0.7816164E-02  0.1226708E+00
        -11   -1    0    0    0    0  0.00000000000E+00  0.00000000000E+00  0.45593999997E+02  0.45594000000E+02  0.51100000000E-03 0.  1.
         11   -1    0    0    0    0 -0.00000000000E+00 -0.00000000000E+00 -0.45593999997E+02  0.45594000000E+02  0.51100000000E-03 0. -1.
    9900012    2    1    2    0    0 -0.43116868575E+01 -0.34901204560E+01 -0.17886113821E+02  0.72461423912E+02  0.69999809310E+02 0.  0.
        -12    1    1    2    0    0  0.43116868575E+01  0.34901204560E+01  0.17886113821E+02  0.18726576088E+02  0.00000000000E+00 0.  1.
         11    1    3    3    0    0  0.17522410603E+01 -0.10889984411E+01 -0.19898428599E-01  0.20631680849E+01  0.51100000000E-03 0. -1.
        -11    1    3    3    0    0  0.13065760924E+02 -0.10674001615E+02  0.20612918952E+02  0.26637207943E+02  0.51100000000E-03 0.  1.
         12    1    3    3    0    0 -0.19129688842E+02  0.82728795999E+01 -0.38479134344E+02  0.43761047885E+02  0.00000000000E+00 0. -1.
</event>
<event>
 7    1  0.2577508E-013  0.7246169E+02  0.7816164E-02  0.1226708E+00
        -11   -1    0    0    0    0  0.00000000000E+00  0.00000000000E+00  0.45593999997E+02  0.45594000000E+02  0.51100000000E-03 0.  1.
         11   -1    0    0    0    0 -0.00000000000E+00 -0.00000000000E+00 -0.45593999997E+02  0.45594000000E+02  0.51100000000E-03 0. -1.
    9900012    2    1    2    0    0 -0.80350939455E+01 -0.31715688045E+00 -0.16911866050E+02  0.72461693998E+02  0.70000161146E+02 0.  0.
        -12    1    1    2    0    0  0.80350939455E+01  0.31715688045E+00  0.16911866050E+02  0.18726306002E+02  0.00000000000E+00 0.  1.
         11    1    3    3    0    0 -0.22357296077E+02  0.16778815360E+02  0.82946192453E+00  0.27965431162E+02  0.51100000000E-03 0. -1.
        -11    1    3    3    0    0 -0.33378662712E+01 -0.44248771226E+01  0.86705123237E+01  0.10290708091E+02  0.51100000000E-03 0.  1.
         12    1    3    3    0    0  0.17660068402E+02 -0.12671095118E+02 -0.26411840298E+02  0.34205554745E+02  0.00000000000E+00 0. -1.
</event>
<event>
 7    1  0.2577508E-013  0.7246155E+02  0.7816164E-02  0.1226708E+00
        -11   -1    0    0    0    0  0.00000000000E+00  0.00000000000E+00  0.45593999997E+02  0.45594000000E+02  0.51100000000E-03 0. -1.
         11   -1    0    0    0    0 -0.00000000000E+00 -0.00000000000E+00 -0.45593999997E+02  0.45594000000E+02  0.51100000000E-03 0.  1.
    9900012    2    1    2    0    0 -0.10895712312E+00 -0.15999595706E+02  0.97304180703E+01  0.72461548915E+02  0.69999972150E+02 0.  0.
        -12    1    1    2    0    0  0.10895712312E+00  0.15999595706E+02 -0.97304180703E+01  0.18726451085E+02  0.00000000000E+00 0.  1.
         11    1    3    3    0    0  0.60515754068E+01  0.11905044661E+02  0.27062923818E+02  0.30178692800E+02  0.51100000000E-03 0. -1.
        -11    1    3    3    0    0 -0.12838656203E+02 -0.44480162669E+01 -0.27367768649E+01  0.13860226899E+02  0.51100000000E-03 0.  1.
        -12    1    3    3    0    0  0.66781236734E+01 -0.23456624100E+02 -0.14595728883E+02  0.28422629217E+02  0.00000000000E+00 0.  1.
</event>
<event>
 7    1  0.2577508E-013  0.7246158E+02  0.7816164E-02  0.1226708E+00
        -11   -1    0    0    0    0  0.00000000000E+00  0.00000000000E+00  0.45593999997E+02  0.45594000000E+02  0.51100000000E-03 0.  1.
         11   -1    0    0    0    0 -0.00000000000E+00 -0.00000000000E+00 -0.45593999997E+02  0.45594000000E+02  0.51100000000E-03 0. -1.
    9900012    2    1    2    0    0 -0.78004457420E+01  0.16949925525E+02  0.15911703713E+01  0.72461581436E+02  0.70000014515E+02 0.  0.
        -12    1    1    2    0    0  0.78004457420E+01 -0.16949925525E+02 -0.15911703713E+01  0.18726418564E+02  0.00000000000E+00 0.  1.
         11    1    3    3    0    0 -0.50302890135E+01  0.11657445289E+02 -0.12138411885E+02  0.17565331809E+02  0.51100000000E-03 0. -1.
        -11    1    3    3    0    0  0.13031672697E+02  0.14628879833E+02 -0.12236102424E+02  0.23098719039E+02  0.51100000000E-03 0.  1.
        -12    1    3    3    0    0 -0.15801829425E+02 -0.93363995971E+01  0.25965684680E+02  0.31797530588E+02  0.00000000000E+00 0.  1.
</event>
<event>
 7    1  0.2577508E-013  0.7246158E+02  0.7816164E-02  0.1226708E+00
        -11   -1    0    0    0    0  0.00000000000E+00  0.00000000000E+00  0.45593999997E+02  0.45594000000E+02  0.51100000000E-03 0. -1.
         11   -1    0    0    0    0 -0.00000000000E+00 -0.00000000000E+00 -0.45593999997E+02  0.45594000000E+02  0.51100000000E-03 0.  1.
    9900012    2    1    2    0    0  0.88875258206E+01  0.40023102406E+01  0.15989756412E+02  0.72461577154E+02  0.70000008937E+02 0.  0.
        -12    1    1    2    0    0 -0.88875258206E+01 -0.40023102406E+01 -0.15989756412E+02  0.18726422846E+02  0.00000000000E+00 0.  1.
         11    1    3    3    0    0  0.75001042030E+01 -0.52826264604E+01  0.25566854815E+02  0.27162874862E+02  0.51100000000E-03 0. -1.
        -11    1    3    3    0    0  0.22324959207E+02  0.43838463635E+01 -0.42445775562E+01  0.23143862068E+02  0.51100000000E-03 0.  1.
        -12    1    3    3    0    0 -0.20937537589E+02  0.49010903375E+01 -0.53325208470E+01  0.22154840225E+02  0.00000000000E+00 0.  1.
</event>
<event>
 7    1  0.2577508E-013  0.7246156E+02  0.7816164E-02  0.1226708E+00
        -11   -1    0    0    0    0  0.00000000000E+00  0.00000000000E+00  0.45593999997E+02  0.45594000000E+02  0.51100000000E-03 0. -1.
         11   -1    0    0    0    0 -0.00000000000E+00 -0.00000000000E+00 -0.45593999997E+02  0.45594000000E+02  0.51100000000E-03 0.  1.
    9900012    2    1    2    0    0  0.34530980092E+01 -0.18197191815E+02 -0.27600418009E+01  0.72461561296E+02  0.69999988278E+02 0.  0.
        -12    1    1    2    0    0 -0.34530980092E+01  0.18197191815E+02  0.27600418009E+01  0.18726438704E+02  0.00000000000E+00 0.  1.
         11    1    3    3    0    0 -0.10796130314E+02 -0.20741135571E+01  0.17127491918E+02  0.20352133954E+02  0.51100000000E-03 0. -1.
        -11    1    3    3    0    0  0.16863379560E+02  0.92274827631E+01 -0.18354560789E+02  0.26578372982E+02  0.51100000000E-03 0.  1.
         12    1    3    3    0    0 -0.26141512364E+01 -0.25350561021E+02 -0.15329729299E+01  0.25531054360E+02  0.00000000000E+00 0. -1.
</event>
<event>
 7    1  0.2577508E-013  0.7246172E+02  0.7816164E-02  0.1226708E+00
        -11   -1    0    0    0    0  0.00000000000E+00  0.00000000000E+00  0.45593999997E+02  0.45594000000E+02  0.51100000000E-03 0.  1.
         11   -1    0    0    0    0 -0.00000000000E+00 -0.00000000000E+00 -0.45593999997E+02  0.45594000000E+02  0.51100000000E-03 0. -1.
    9900012    2    1    2    0    0 -0.14285345414E+02  0.11798573077E+02 -0.27196167364E+01  0.72461715386E+02  0.70000189009E+02 0.  0.
        -12    1    1    2    0    0  0.14285345414E+02 -0.11798573077E+02  0.27196167364E+01  0.18726284614E+02  0.00000000000E+00 0.  1.
         11    1    3    3    0    0 -0.13505242830E+02  0.10753411245E+02 -0.11484098945E+02  0.20734318560E+02  0.51100000000E-03 0. -1.
        -11    1    3    3    0    0 -0.18399847567E+02  0.10280980968E+02 -0.10922515294E+02  0.23739298658E+02  0.51100000000E-03 0.  1.
        -12    1    3    3    0    0  0.17619744983E+02 -0.92358191361E+01  0.19686997503E+02  0.27988098168E+02  0.00000000000E+00 0.  1.
</event>
<event>
 7    1  0.2577508E-013  0.7246158E+02  0.7816164E-02  0.1226708E+00
        -11   -1    0    0    0    0  0.00000000000E+00  0.00000000000E+00  0.45593999997E+02  0.45594000000E+02  0.51100000000E-03 0.  1.
         11   -1    0    0    0    0 -0.00000000000E+00 -0.00000000000E+00 -0.45593999997E+02  0.45594000000E+02  0.51100000000E-03 0. -1.
    9900012    2    1    2    0    0  0.14824663090E+02  0.96892427974E+01 -0.60849715760E+01  0.72461576402E+02  0.70000007956E+02 0.  0.
        -12    1    1    2    0    0 -0.14824663090E+02 -0.96892427974E+01  0.60849715760E+01  0.18726423598E+02  0.00000000000E+00 0.  1.
         11    1    3    3    0    0 -0.94144026637E+00  0.12355284989E+02  0.42207124975E+01  0.13090217385E+02  0.51100000000E-03 0.  1.
        -11    1    3    3    0    0  0.10602970701E+02 -0.49709662536E+01 -0.33505222857E+02  0.35492723932E+02  0.51100000000E-03 0. -1.
         12    1    3    3    0    0  0.51631326548E+01  0.23049240617E+01  0.23199538783E+02  0.23878635084E+02  0.00000000000E+00 0. -1.
</event>
<event>
 7    1  0.2577508E-013  0.7246159E+02  0.7816164E-02  0.1226708E+00
        -11   -1    0    0    0    0  0.00000000000E+00  0.00000000000E+00  0.45593999997E+02  0.45594000000E+02  0.51100000000E-03 0. -1.
         11   -1    0    0    0    0 -0.00000000000E+00 -0.00000000000E+00 -0.45593999997E+02  0.45594000000E+02  0.51100000000E-03 0.  1.
    9900012    2    1    2    0    0 -0.57848267709E+01 -0.17360104748E+02 -0.39800837216E+01  0.72461587528E+02  0.70000022450E+02 0.  0.
        -12    1    1    2    0    0  0.57848267709E+01  0.17360104748E+02  0.39800837216E+01  0.18726412472E+02  0.00000000000E+00 0.  1.
         11    1    3    3    0    0  0.27945509176E+01 -0.21750075802E+01  0.13666506344E+01  0.37957748909E+01  0.51100000000E-03 0. -1.
        -11    1    3    3    0    0 -0.63821181602E+01  0.70067613757E+01 -0.32312359183E+02  0.33673649838E+02  0.51100000000E-03 0.  1.
         12    1    3    3    0    0 -0.21972595283E+01 -0.22191858544E+02  0.26965624827E+02  0.34992162799E+02  0.00000000000E+00 0. -1.
</event>
<event>
 7    1  0.2577508E-013  0.7246127E+02  0.7816164E-02  0.1226709E+00
        -11   -1    0    0    0    0  0.00000000000E+00  0.00000000000E+00  0.45593999997E+02  0.45594000000E+02  0.51100000000E-03 0.  1.
         11   -1    0    0    0    0 -0.00000000000E+00 -0.00000000000E+00 -0.45593999997E+02  0.45594000000E+02  0.51100000000E-03 0. -1.
    9900012    2    1    2    0    0 -0.16673346105E+02  0.29066390995E+01 -0.80150834224E+01  0.72461265542E+02  0.69999603003E+02 0.  0.
        -12    1    1    2    0    0  0.16673346105E+02 -0.29066390995E+01  0.80150834224E+01  0.18726734458E+02  0.00000000000E+00 0.  1.
         11    1    3    3    0    0  0.92594310136E+01  0.20436348479E+01 -0.46467243425E+01  0.10559619002E+02  0.51100000000E-03 0. -1.
        -11    1    3    3    0    0  0.12804457236E+02 -0.14807695519E+02  0.23839862276E+01  0.19720683616E+02  0.51100000000E-03 0.  1.
         12    1    3    3    0    0 -0.38737234354E+02  0.15670699771E+02 -0.57523453075E+01  0.42180962924E+02  0.00000000000E+00 0. -1.
</event>
<event>
 7    1  0.2577508E-013  0.7246158E+02  0.7816164E-02  0.1226708E+00
        -11   -1    0    0    0    0  0.00000000000E+00  0.00000000000E+00  0.45593999997E+02  0.45594000000E+02  0.51100000000E-03 0.  1.
         11   -1    0    0    0    0 -0.00000000000E+00 -0.00000000000E+00 -0.45593999997E+02  0.45594000000E+02  0.51100000000E-03 0. -1.
    9900012    2    1    2    0    0 -0.81598381103E+01 -0.39538760473E+00 -0.16850506864E+02  0.72461578267E+02  0.70000010386E+02 0.  0.
        -12    1    1    2    0    0  0.81598381103E+01  0.39538760473E+00  0.16850506864E+02  0.18726421733E+02  0.00000000000E+00 0.  1.
         11    1    3    3    0    0  0.14971267440E+02  0.17899285999E+00  0.32113093199E+01  0.15312850649E+02  0.51100000000E-03 0. -1.
        -11    1    3    3    0    0 -0.14164959873E+02 -0.79191702871E+01  0.13834905653E+02  0.21325195449E+02  0.51100000000E-03 0.  1.
         12    1    3    3    0    0 -0.89661456769E+01  0.73447898224E+01 -0.33896721837E+02  0.35823532170E+02  0.00000000000E+00 0. -1.
</event>
<event>
 7    1  0.2577508E-013  0.7246152E+02  0.7816164E-02  0.1226708E+00
        -11   -1    0    0    0    0  0.00000000000E+00  0.00000000000E+00  0.45593999997E+02  0.45594000000E+02  0.51100000000E-03 0. -1.
         11   -1    0    0    0    0 -0.00000000000E+00 -0.00000000000E+00 -0.45593999997E+02  0.45594000000E+02  0.51100000000E-03 0.  1.
    9900012    2    1    2    0    0  0.14594382414E+02 -0.11624742129E+02  0.15970104934E+01  0.72461519547E+02  0.69999933893E+02 0.  0.
        -12    1    1    2    0    0 -0.14594382414E+02  0.11624742129E+02 -0.15970104934E+01  0.18726480453E+02  0.00000000000E+00 0.  1.
         11    1    3    3    0    0 -0.12073817546E+02 -0.11032205341E+02 -0.14985473833E+01  0.16423527920E+02  0.51100000000E-03 0. -1.
        -11    1    3    3    0    0  0.20071418635E+02 -0.13409918528E+02 -0.18263534268E+02  0.30269529979E+02  0.51100000000E-03 0.  1.
        -12    1    3    3    0    0  0.65967813252E+01  0.12817381740E+02  0.21359092144E+02  0.25768461649E+02  0.00000000000E+00 0.  1.
</event>
<event>
 7    1  0.2577508E-013  0.7246159E+02  0.7816164E-02  0.1226708E+00
        -11   -1    0    0    0    0  0.00000000000E+00  0.00000000000E+00  0.45593999997E+02  0.45594000000E+02  0.51100000000E-03 0.  1.
         11   -1    0    0    0    0 -0.00000000000E+00 -0.00000000000E+00 -0.45593999997E+02  0.45594000000E+02  0.51100000000E-03 0. -1.
    9900012    2    1    2    0    0  0.95352607919E+00  0.16376147297E+02  0.90327678705E+01  0.72461593306E+02  0.70000029976E+02 0.  0.
        -12    1    1    2    0    0 -0.95352607919E+00 -0.16376147297E+02 -0.90327678705E+01  0.18726406694E+02  0.00000000000E+00 0.  1.
         11    1    3    3    0    0 -0.11463357108E+00  0.20862035842E+02 -0.64966575496E+01  0.21850497475E+02  0.51100000000E-03 0. -1.
        -11    1    3    3    0    0  0.18547055052E+02 -0.15826472012E+02 -0.39811948881E+00  0.24385015211E+02  0.51100000000E-03 0.  1.
         12    1    3    3    0    0 -0.17478895402E+02  0.11340583467E+02  0.15927544909E+02  0.26226080619E+02  0.00000000000E+00 0. -1.
</event>
<event>
 7    1  0.2577508E-013  0.7246152E+02  0.7816164E-02  0.1226708E+00
        -11   -1    0    0    0    0  0.00000000000E+00  0.00000000000E+00  0.45593999997E+02  0.45594000000E+02  0.51100000000E-03 0. -1.
         11   -1    0    0    0    0 -0.00000000000E+00 -0.00000000000E+00 -0.45593999997E+02  0.45594000000E+02  0.51100000000E-03 0.  1.
    9900012    2    1    2    0    0 -0.11882092175E+02  0.49191199156E+01  0.13612469446E+02  0.72461516624E+02  0.69999930084E+02 0.  0.
        -12    1    1    2    0    0  0.11882092175E+02 -0.49191199156E+01 -0.13612469446E+02  0.18726483376E+02  0.00000000000E+00 0.  1.
         11    1    3    3    0    0  0.33125034138E+01 -0.43652405172E+01  0.15055719944E+02  0.16021944543E+02  0.51100000000E-03 0. -1.
        -11    1    3    3    0    0  0.34210099615E+01  0.26212295896E+02  0.10679171387E+02  0.28510216890E+02  0.51100000000E-03 0.  1.
        -12    1    3    3    0    0 -0.18615605550E+02 -0.16927935464E+02 -0.12122421884E+02  0.27929355192E+02  0.00000000000E+00 0.  1.
</event>
<event>
 7    1  0.2577508E-013  0.7246174E+02  0.7816164E-02  0.1226708E+00
        -11   -1    0    0    0    0  0.00000000000E+00  0.00000000000E+00  0.45593999997E+02  0.45594000000E+02  0.51100000000E-03 0. -1.
         11   -1    0    0    0    0 -0.00000000000E+00 -0.00000000000E+00 -0.45593999997E+02  0.45594000000E+02  0.51100000000E-03 0.  1.
    9900012    2    1    2    0    0 -0.84423978100E+01  0.16097777489E+02 -0.45011374496E+01  0.72461741452E+02  0.70000222964E+02 0.  0.
        -12    1    1    2    0    0  0.84423978100E+01 -0.16097777489E+02  0.45011374496E+01  0.18726258548E+02  0.00000000000E+00 0.  1.
         11    1    3    3    0    0 -0.16784870551E+02  0.15535618772E+02 -0.58411581432E+01  0.23605221006E+02  0.51100000000E-03 0. -1.
        -11    1    3    3    0    0  0.12131318778E+02  0.19219569294E+01 -0.21986775285E+02  0.25184937987E+02  0.51100000000E-03 0.  1.
         12    1    3    3    0    0 -0.37888460363E+01 -0.13597982118E+01  0.23326795979E+02  0.23671582459E+02  0.00000000000E+00 0. -1.
</event>
<event>
 7    1  0.2577508E-013  0.7246158E+02  0.7816164E-02  0.1226708E+00
        -11   -1    0    0    0    0  0.00000000000E+00  0.00000000000E+00  0.45593999997E+02  0.45594000000E+02  0.51100000000E-03 0.  1.
         11   -1    0    0    0    0 -0.00000000000E+00 -0.00000000000E+00 -0.45593999997E+02  0.45594000000E+02  0.51100000000E-03 0. -1.
    9900012    2    1    2    0    0  0.83125124763E+01  0.89070021048E+01 -0.14221336199E+02  0.72461576063E+02  0.70000007515E+02 0.  0.
        -12    1    1    2    0    0 -0.83125124763E+01 -0.89070021048E+01  0.14221336199E+02  0.18726423937E+02  0.00000000000E+00 0.  1.
         11    1    3    3    0    0 -0.46832773346E+01  0.74746175544E+01  0.27342163222E+01  0.92346593514E+01  0.51100000000E-03 0. -1.
        -11    1    3    3    0    0 -0.14124788582E+02 -0.12955888933E+02  0.10661325295E+02  0.21932363481E+02  0.51100000000E-03 0.  1.
         12    1    3    3    0    0  0.27120578393E+02  0.14388273483E+02 -0.27616877817E+02  0.41294553231E+02  0.00000000000E+00 0. -1.
</event>
<event>
 7    1  0.2577508E-013  0.7246155E+02  0.7816164E-02  0.1226708E+00
        -11   -1    0    0    0    0  0.00000000000E+00  0.00000000000E+00  0.45593999997E+02  0.45594000000E+02  0.51100000000E-03 0.  1.
         11   -1    0    0    0    0 -0.00000000000E+00 -0.00000000000E+00 -0.45593999997E+02  0.45594000000E+02  0.51100000000E-03 0. -1.
    9900012    2    1    2    0    0 -0.10000049882E+02  0.54845297281E+01 -0.14852566780E+02  0.72461553356E+02  0.69999977934E+02 0.  0.
        -12    1    1    2    0    0  0.10000049882E+02 -0.54845297281E+01  0.14852566780E+02  0.18726446644E+02  0.00000000000E+00 0.  1.
         11    1    3    3    0    0 -0.19444600158E+02  0.99569697960E+01  0.10295234093E+02  0.24150063522E+02  0.51100000000E-03 0. -1.
        -11    1    3    3    0    0 -0.62969491582E+01  0.85342085951E+01  0.51379565703E+01  0.11784858210E+02  0.51100000000E-03 0.  1.
        -12    1    3    3    0    0  0.15741499434E+02 -0.13006648663E+02 -0.30285757443E+02  0.36526631624E+02  0.00000000000E+00 0.  1.
</event>
<event>
 7    1  0.2577508E-013  0.7246156E+02  0.7816164E-02  0.1226708E+00
        -11   -1    0    0    0    0  0.00000000000E+00  0.00000000000E+00  0.45593999997E+02  0.45594000000E+02  0.51100000000E-03 0. -1.
         11   -1    0    0    0    0 -0.00000000000E+00 -0.00000000000E+00 -0.45593999997E+02  0.45594000000E+02  0.51100000000E-03 0.  1.
    9900012    2    1    2    0    0 -0.12440611653E+02 -0.13881244482E+02  0.17948960186E+01  0.72461563649E+02  0.69999991343E+02 0.  0.
        -12    1    1    2    0    0  0.12440611653E+02  0.13881244482E+02 -0.17948960186E+01  0.18726436351E+02  0.00000000000E+00 0.  1.
         11    1    3    3    0    0  0.11670902593E+02 -0.14579431265E+02 -0.86516253164E+01  0.20582040818E+02  0.51100000000E-03 0. -1.
        -11    1    3    3    0    0 -0.46503632664E+01 -0.10237545678E+01 -0.17300765971E+02  0.17944092492E+02  0.51100000000E-03 0.  1.
         12    1    3    3    0    0 -0.19461150980E+02  0.17219413503E+01  0.27747287306E+02  0.33935430339E+02  0.00000000000E+00 0. -1.
</event>
<event>
 7    1  0.2577508E-013  0.7246157E+02  0.7816164E-02  0.1226708E+00
        -11   -1    0    0    0    0  0.00000000000E+00  0.00000000000E+00  0.45593999997E+02  0.45594000000E+02  0.51100000000E-03 0. -1.
         11   -1    0    0    0    0 -0.00000000000E+00 -0.00000000000E+00 -0.45593999997E+02  0.45594000000E+02  0.51100000000E-03 0.  1.
    9900012    2    1    2    0    0  0.78699450030E+01 -0.16992426694E+02 -0.24463352174E-01  0.72461569540E+02  0.69999999018E+02 0.  0.
        -12    1    1    2    0    0 -0.78699450030E+01  0.16992426694E+02  0.24463352174E-01  0.18726430460E+02  0.00000000000E+00 0.  1.
         11    1    3    3    0    0 -0.26038007193E+01  0.23502972837E+01  0.54555829253E+00  0.35498323368E+01  0.51100000000E-03 0. -1.
        -11    1    3    3    0    0  0.96405388758E+01 -0.29391766936E+01 -0.31945232168E+02  0.33497411959E+02  0.51100000000E-03 0.  1.
         12    1    3    3    0    0  0.83320684651E+00 -0.16403547284E+02  0.31375210523E+02  0.35414325244E+02  0.00000000000E+00 0. -1.
</event>
<event>
 7    1  0.2577508E-013  0.7246163E+02  0.7816164E-02  0.1226708E+00
        -11   -1    0    0    0    0  0.00000000000E+00  0.00000000000E+00  0.45593999997E+02  0.45594000000E+02  0.51100000000E-03 0.  1.
         11   -1    0    0    0    0 -0.00000000000E+00 -0.00000000000E+00 -0.45593999997E+02  0.45594000000E+02  0.51100000000E-03 0. -1.
    9900012    2    1    2    0    0 -0.69444786279E+01 -0.11472992950E+02 -0.13069875204E+02  0.72461628528E+02  0.70000075860E+02 0.  0.
        -12    1    1    2    0    0  0.69444786279E+01  0.11472992950E+02  0.13069875204E+02  0.18726371472E+02  0.00000000000E+00 0.  1.
         11    1    3    3    0    0 -0.35077166914E+02  0.24474800231E+00 -0.51799814432E+01  0.35458422812E+02  0.51100000000E-03 0. -1.
        -11    1    3    3    0    0 -0.25264401928E+01  0.95568243411E+00  0.58235592038E+00  0.27632169010E+01  0.51100000000E-03 0.  1.
        -12    1    3    3    0    0  0.30659128479E+02 -0.12673423387E+02 -0.84722496815E+01  0.34239988815E+02  0.00000000000E+00 0.  1.
</event>
<event>
 7    1  0.2577508E-013  0.7246126E+02  0.7816164E-02  0.1226709E+00
        -11   -1    0    0    0    0  0.00000000000E+00  0.00000000000E+00  0.45593999997E+02  0.45594000000E+02  0.51100000000E-03 0. -1.
         11   -1    0    0    0    0 -0.00000000000E+00 -0.00000000000E+00 -0.45593999997E+02  0.45594000000E+02  0.51100000000E-03 0.  1.
    9900012    2    1    2    0    0 -0.56530708555E+01 -0.15980185941E+02  0.79603567150E+01  0.72461258910E+02  0.69999594363E+02 0.  0.
        -12    1    1    2    0    0  0.56530708555E+01  0.15980185941E+02 -0.79603567150E+01  0.18726741090E+02  0.00000000000E+00 0.  1.
         11    1    3    3    0    0 -0.18128080989E+02 -0.24475820575E+00  0.32217613941E+01  0.18413771305E+02  0.51100000000E-03 0. -1.
        -11    1    3    3    0    0 -0.19415332162E+02 -0.49049960142E+01 -0.78469091996E-01  0.20025490419E+02  0.51100000000E-03 0.  1.
        -12    1    3    3    0    0  0.31890342296E+02 -0.10830431721E+02  0.48170644129E+01  0.34021997186E+02  0.00000000000E+00 0.  1.
</event>
<event>
 7    1  0.2577508E-013  0.7246156E+02  0.7816164E-02  0.1226708E+00
        -11   -1    0    0    0    0  0.00000000000E+00  0.00000000000E+00  0.45593999997E+02  0.45594000000E+02  0.51100000000E-03 0.  1.
         11   -1    0    0    0    0 -0.00000000000E+00 -0.00000000000E+00 -0.45593999997E+02  0.45594000000E+02  0.51100000000E-03 0. -1.
    9900012    2    1    2    0    0  0.15400812363E+02  0.87328679462E+01 -0.61017678567E+01  0.72461559468E+02  0.69999985897E+02 0.  0.
        -12    1    1    2    0    0 -0.15400812363E+02 -0.87328679462E+01  0.61017678567E+01  0.18726440532E+02  0.00000000000E+00 0.  1.
         11    1    3    3    0    0  0.74748272383E+01  0.27871265420E+02  0.43039462982E+01  0.29175408006E+02  0.51100000000E-03 0. -1.
        -11    1    3    3    0    0  0.17847800865E+02 -0.41652285743E+01  0.56662619659E+01  0.19183316963E+02  0.51100000000E-03 0.  1.
        -12    1    3    3    0    0 -0.99218157400E+01 -0.14973168899E+02 -0.16071976121E+02  0.24102834499E+02  0.00000000000E+00 0.  1.
</event>
<event>
 7    1  0.2577508E-013  0.7246158E+02  0.7816164E-02  0.1226708E+00
        -11   -1    0    0    0    0  0.00000000000E+00  0.00000000000E+00  0.45593999997E+02  0.45594000000E+02  0.51100000000E-03 0. -1.
         11   -1    0    0    0    0 -0.00000000000E+00 -0.00000000000E+00 -0.45593999997E+02  0.45594000000E+02  0.51100000000E-03 0.  1.
    9900012    2    1    2    0    0  0.33197867313E+01  0.17794076067E+02 -0.47988300618E+01  0.72461577572E+02  0.70000009480E+02 0.  0.
        -12    1    1    2    0    0 -0.33197867313E+01 -0.17794076067E+02  0.47988300618E+01  0.18726422428E+02  0.00000000000E+00 0.  1.
         11    1    3    3    0    0 -0.20045301004E+01  0.14767700196E+01 -0.20512137371E+02  0.20662690299E+02  0.51100000000E-03 0. -1.
        -11    1    3    3    0    0 -0.13823258027E+02  0.16085175330E+01 -0.95304941234E+01  0.16867131043E+02  0.51100000000E-03 0.  1.
         12    1    3    3    0    0  0.19147574859E+02  0.14708788514E+02  0.25243801432E+02  0.34931756229E+02  0.00000000000E+00 0. -1.
</event>
<event>
 7    1  0.2577508E-013  0.7246159E+02  0.7816164E-02  0.1226708E+00
        -11   -1    0    0    0    0  0.00000000000E+00  0.00000000000E+00  0.45593999997E+02  0.45594000000E+02  0.51100000000E-03 0.  1.
         11   -1    0    0    0    0 -0.00000000000E+00 -0.00000000000E+00 -0.45593999997E+02  0.45594000000E+02  0.51100000000E-03 0. -1.
    9900012    2    1    2    0    0  0.68798668048E+00  0.13599494518E+02 -0.12855306676E+02  0.72461588530E+02  0.70000023756E+02 0.  0.
        -12    1    1    2    0    0 -0.68798668048E+00 -0.13599494518E+02  0.12855306676E+02  0.18726411470E+02  0.00000000000E+00 0.  1.
         11    1    3    3    0    0 -0.25635020790E+02  0.15085603516E+02 -0.17548523007E+02  0.34535204999E+02  0.51100000000E-03 0. -1.
        -11    1    3    3    0    0  0.20705676287E+01  0.68777766268E+01  0.94142869310E+01  0.11841446715E+02  0.51100000000E-03 0.  1.
         12    1    3    3    0    0  0.24252439842E+02 -0.83638856256E+01 -0.47210706000E+01  0.26084936816E+02  0.00000000000E+00 0. -1.
</event>
<event>
 7    1  0.2577508E-013  0.7246160E+02  0.7816164E-02  0.1226708E+00
        -11   -1    0    0    0    0  0.00000000000E+00  0.00000000000E+00  0.45593999997E+02  0.45594000000E+02  0.51100000000E-03 0. -1.
         11   -1    0    0    0    0 -0.00000000000E+00 -0.00000000000E+00 -0.45593999997E+02  0.45594000000E+02  0.51100000000E-03 0.  1.
    9900012    2    1    2    0    0  0.32874482288E+01  0.55539874025E+01  0.17579081485E+02  0.72461596240E+02  0.70000033799E+02 0.  0.
        -12    1    1    2    0    0 -0.32874482288E+01 -0.55539874025E+01 -0.17579081485E+02  0.18726403760E+02  0.00000000000E+00 0.  1.
         11    1    3    3    0    0 -0.52202910364E+01  0.34023721002E+01  0.19005192088E+01  0.65145642937E+01  0.51100000000E-03 0. -1.
        -11    1    3    3    0    0 -0.26382089198E+02  0.95047699320E+01  0.34566347085E+01  0.28254267035E+02  0.51100000000E-03 0.  1.
         12    1    3    3    0    0  0.34889828463E+02 -0.73531546297E+01  0.12221927568E+02  0.37692764911E+02  0.00000000000E+00 0. -1.
</event>
<event>
 7    1  0.2577508E-013  0.7246137E+02  0.7816164E-02  0.1226709E+00
        -11   -1    0    0    0    0  0.00000000000E+00  0.00000000000E+00  0.45593999997E+02  0.45594000000E+02  0.51100000000E-03 0. -1.
         11   -1    0    0    0    0 -0.00000000000E+00 -0.00000000000E+00 -0.45593999997E+02  0.45594000000E+02  0.51100000000E-03 0.  1.
    9900012    2    1    2    0    0  0.11086023669E+01  0.18529176113E+02 -0.24753336570E+01  0.72461370742E+02  0.69999740046E+02 0.  0.
        -12    1    1    2    0    0 -0.11086023669E+01 -0.18529176113E+02  0.24753336570E+01  0.18726629258E+02  0.00000000000E+00 0.  1.
         11    1    3    3    0    0  0.98088958431E+01 -0.11298599987E+01 -0.14012864044E+02  0.17142093812E+02  0.51100000000E-03 0. -1.
        -11    1    3    3    0    0  0.13474147416E+02  0.34516626543E+01 -0.12589854914E+02  0.18760892054E+02  0.51100000000E-03 0.  1.
         12    1    3    3    0    0 -0.22174440892E+02  0.16207373458E+02  0.24127385301E+02  0.36558384876E+02  0.00000000000E+00 0. -1.
</event>
<event>
 7    1  0.2577508E-013  0.7246156E+02  0.7816164E-02  0.1226708E+00
        -11   -1    0    0    0    0  0.00000000000E+00  0.00000000000E+00  0.45593999997E+02  0.45594000000E+02  0.51100000000E-03 0.  1.
         11   -1    0    0    0    0 -0.00000000000E+00 -0.00000000000E+00 -0.45593999997E+02  0.45594000000E+02  0.51100000000E-03 0. -1.
    9900012    2    1    2    0    0 -0.63629250213E+01  0.39533658291E+01 -0.17162853106E+02  0.72461562994E+02  0.69999990490E+02 0.  0.
        -12    1    1    2    0    0  0.63629250213E+01 -0.39533658291E+01  0.17162853106E+02  0.18726437006E+02  0.00000000000E+00 0.  1.
         11    1    3    3    0    0 -0.82645331590E+01 -0.12413827962E+02  0.10490107739E+02  0.18233156437E+02  0.51100000000E-03 0. -1.
        -11    1    3    3    0    0  0.12750891330E+02 -0.99473469514E+01 -0.27405282921E+01  0.16402604569E+02  0.51100000000E-03 0.  1.
         12    1    3    3    0    0 -0.10849283192E+02  0.26314540743E+02 -0.24912432553E+02  0.37825801988E+02  0.00000000000E+00 0. -1.
</event>
<event>
 7    1  0.2577508E-013  0.7246155E+02  0.7816164E-02  0.1226708E+00
        -11   -1    0    0    0    0  0.00000000000E+00  0.00000000000E+00  0.45593999997E+02  0.45594000000E+02  0.51100000000E-03 0. -1.
         11   -1    0    0    0    0 -0.00000000000E+00 -0.00000000000E+00 -0.45593999997E+02  0.45594000000E+02  0.51100000000E-03 0.  1.
    9900012    2    1    2    0    0  0.17440465860E+02  0.27979507682E+01 -0.62194373192E+01  0.72461554034E+02  0.69999978819E+02 0.  0.
        -12    1    1    2    0    0 -0.17440465860E+02 -0.27979507682E+01  0.62194373192E+01  0.18726445966E+02  0.00000000000E+00 0.  1.
         11    1    3    3    0    0  0.27173284055E+02  0.73526364018E+01  0.10893890233E+01  0.28171535228E+02  0.51100000000E-03 0. -1.
        -11    1    3    3    0    0 -0.15079451750E+01  0.17877016360E+02  0.31397295556E+01  0.18213168712E+02  0.51100000000E-03 0.  1.
        -12    1    3    3    0    0 -0.82248730191E+01 -0.22431701994E+02 -0.10448555898E+02  0.26076850095E+02  0.00000000000E+00 0.  1.
</event>
<event>
 7    1  0.2577508E-013  0.7246150E+02  0.7816164E-02  0.1226708E+00
        -11   -1    0    0    0    0  0.00000000000E+00  0.00000000000E+00  0.45593999997E+02  0.45594000000E+02  0.51100000000E-03 0. -1.
         11   -1    0    0    0    0 -0.00000000000E+00 -0.00000000000E+00 -0.45593999997E+02  0.45594000000E+02  0.51100000000E-03 0.  1.
    9900012    2    1    2    0    0 -0.14912897357E+02  0.69370748526E+01  0.89534574061E+01  0.72461497000E+02  0.69999904520E+02 0.  0.
        -12    1    1    2    0    0  0.14912897357E+02 -0.69370748526E+01 -0.89534574061E+01  0.18726503000E+02  0.00000000000E+00 0.  1.
         11    1    3    3    0    0 -0.54057844308E+01  0.23616246862E+02  0.68222074619E+01  0.25169269677E+02  0.51100000000E-03 0. -1.
        -11    1    3    3    0    0  0.12626891255E+02  0.72492263659E+01 -0.67807584546E+00  0.14575645879E+02  0.51100000000E-03 0.  1.
        -12    1    3    3    0    0 -0.22134004182E+02 -0.23928398376E+02  0.28093257897E+01  0.32716581443E+02  0.00000000000E+00 0.  1.
</event>
<event>
 7    1  0.2577508E-013  0.7246158E+02  0.7816164E-02  0.1226708E+00
        -11   -1    0    0    0    0  0.00000000000E+00  0.00000000000E+00  0.45593999997E+02  0.45594000000E+02  0.51100000000E-03 0. -1.
         11   -1    0    0    0    0 -0.00000000000E+00 -0.00000000000E+00 -0.45593999997E+02  0.45594000000E+02  0.51100000000E-03 0.  1.
    9900012    2    1    2    0    0  0.13533950958E+02 -0.19667756619E+01  0.12792293099E+02  0.72461580220E+02  0.70000012930E+02 0.  0.
        -12    1    1    2    0    0 -0.13533950958E+02  0.19667756619E+01 -0.12792293099E+02  0.18726419780E+02  0.00000000000E+00 0.  1.
         11    1    3    3    0    0  0.60743759239E+01 -0.49782140448E+01  0.38156106659E+02  0.38955989701E+02  0.51100000000E-03 0. -1.
        -11    1    3    3    0    0 -0.39904665196E+01 -0.21645938816E+01  0.67857816753E+00  0.45901806399E+01  0.51100000000E-03 0.  1.
        -12    1    3    3    0    0  0.11450041554E+02  0.51760322644E+01 -0.26042391727E+02  0.28915409879E+02  0.00000000000E+00 0.  1.
</event>
<event>
 7    1  0.2577508E-013  0.7246159E+02  0.7816164E-02  0.1226708E+00
        -11   -1    0    0    0    0  0.00000000000E+00  0.00000000000E+00  0.45593999997E+02  0.45594000000E+02  0.51100000000E-03 0.  1.
         11   -1    0    0    0    0 -0.00000000000E+00 -0.00000000000E+00 -0.45593999997E+02  0.45594000000E+02  0.51100000000E-03 0. -1.
    9900012    2    1    2    0    0  0.17074218166E+02 -0.95402697370E-01 -0.76902883230E+01  0.72461586511E+02  0.70000021125E+02 0.  0.
        -12    1    1    2    0    0 -0.17074218166E+02  0.95402697370E-01  0.76902883230E+01  0.18726413489E+02  0.00000000000E+00 0.  1.
         11    1    3    3    0    0 -0.12922443334E+01 -0.21359491696E+02 -0.14645746610E+02  0.25930593417E+02  0.51100000000E-03 0. -1.
        -11    1    3    3    0    0 -0.11188806346E+02  0.64211174254E+01  0.27665305498E+01  0.13193704104E+02  0.51100000000E-03 0.  1.
        -12    1    3    3    0    0  0.29555268845E+02  0.14842971573E+02  0.41889277375E+01  0.33337288990E+02  0.00000000000E+00 0.  1.
</event>
<event>
 7    1  0.2577508E-013  0.7246157E+02  0.7816164E-02  0.1226708E+00
        -11   -1    0    0    0    0  0.00000000000E+00  0.00000000000E+00  0.45593999997E+02  0.45594000000E+02  0.51100000000E-03 0. -1.
         11   -1    0    0    0    0 -0.00000000000E+00 -0.00000000000E+00 -0.45593999997E+02  0.45594000000E+02  0.51100000000E-03 0.  1.
    9900012    2    1    2    0    0 -0.84399805077E+01 -0.16668028672E+02  0.12738508544E+01  0.72461570902E+02  0.70000000791E+02 0.  0.
        -12    1    1    2    0    0  0.84399805077E+01  0.16668028672E+02 -0.12738508544E+01  0.18726429098E+02  0.00000000000E+00 0.  1.
         11    1    3    3    0    0  0.49836771368E+01 -0.10007398783E+02  0.20476462193E+02  0.23329607206E+02  0.51100000000E-03 0. -1.
        -11    1    3    3    0    0  0.11838778053E+02 -0.91272175074E+01  0.31882392369E+01  0.15284882561E+02  0.51100000000E-03 0.  1.
         12    1    3    3    0    0 -0.25262435697E+02  0.24665876190E+01 -0.22390850575E+02  0.33847081134E+02  0.00000000000E+00 0. -1.
</event>
<event>
 7    1  0.2577508E-013  0.7246152E+02  0.7816164E-02  0.1226708E+00
        -11   -1    0    0    0    0  0.00000000000E+00  0.00000000000E+00  0.45593999997E+02  0.45594000000E+02  0.51100000000E-03 0.  1.
         11   -1    0    0    0    0 -0.00000000000E+00 -0.00000000000E+00 -0.45593999997E+02  0.45594000000E+02  0.51100000000E-03 0. -1.
    9900012    2    1    2    0    0 -0.16323279462E+02 -0.91543008144E+01  0.65589356557E+00  0.72461524834E+02  0.69999940779E+02 0.  0.
        -12    1    1    2    0    0  0.16323279462E+02  0.91543008144E+01 -0.65589356557E+00  0.18726475166E+02  0.00000000000E+00 0.  1.
         11    1    3    3    0    0  0.49445516382E+01  0.76456721359E+01  0.38218809119E+01  0.98747996070E+01  0.51100000000E-03 0. -1.
        -11    1    3    3    0    0  0.43754124347E+01 -0.21508307010E+02  0.18486009800E+02  0.28696412023E+02  0.51100000000E-03 0.  1.
         12    1    3    3    0    0 -0.25643243535E+02  0.47083340600E+01 -0.21651997146E+02  0.33890313203E+02  0.00000000000E+00 0. -1.
</event>
<event>
 7    1  0.2577508E-013  0.7246160E+02  0.7816164E-02  0.1226708E+00
        -11   -1    0    0    0    0  0.00000000000E+00  0.00000000000E+00  0.45593999997E+02  0.45594000000E+02  0.51100000000E-03 0. -1.
         11   -1    0    0    0    0 -0.00000000000E+00 -0.00000000000E+00 -0.45593999997E+02  0.45594000000E+02  0.51100000000E-03 0.  1.
    9900012    2    1    2    0    0  0.17727625525E+02  0.45705299876E+01 -0.39395120472E+01  0.72461596013E+02  0.70000033503E+02 0.  0.
        -12    1    1    2    0    0 -0.17727625525E+02 -0.45705299876E+01  0.39395120472E+01  0.18726403987E+02  0.00000000000E+00 0.  1.
         11    1    3    3    0    0  0.33961213026E+01  0.57516330261E+01 -0.38203040920E+01  0.76947804378E+01  0.51100000000E-03 0. -1.
        -11    1    3    3    0    0  0.31190247925E+02 -0.46924782215E+01 -0.20855243695E+02  0.37812591915E+02  0.51100000000E-03 0.  1.
         12    1    3    3    0    0 -0.16858743703E+02  0.35113751829E+01  0.20736035740E+02  0.26954223660E+02  0.00000000000E+00 0. -1.
</event>
<event>
 7    1  0.2577508E-013  0.7246138E+02  0.7816164E-02  0.1226709E+00
        -11   -1    0    0    0    0  0.00000000000E+00  0.00000000000E+00  0.45593999997E+02  0.45594000000E+02  0.51100000000E-03 0.  1.
         11   -1    0    0    0    0 -0.00000000000E+00 -0.00000000000E+00 -0.45593999997E+02  0.45594000000E+02  0.51100000000E-03 0. -1.
    9900012    2    1    2    0    0 -0.20897356252E+01 -0.18286253543E+02 -0.34542842409E+01  0.72461384095E+02  0.69999757441E+02 0.  0.
        -12    1    1    2    0    0  0.20897356252E+01  0.18286253543E+02  0.34542842409E+01  0.18726615905E+02  0.00000000000E+00 0.  1.
         11    1    3    3    0    0  0.12632089113E+01 -0.38442513775E+01 -0.18254797408E+01  0.44391825770E+01  0.51100000000E-03 0. -1.
        -11    1    3    3    0    0  0.13787891025E+02 -0.33624965159E+02 -0.14656512565E+02  0.39186191212E+02  0.51100000000E-03 0.  1.
         12    1    3    3    0    0 -0.17140835562E+02  0.19182962993E+02  0.13027708065E+02  0.28836010306E+02  0.00000000000E+00 0. -1.
</event>
<event>
 7    1  0.2577508E-013  0.7246157E+02  0.7816164E-02  0.1226708E+00
        -11   -1    0    0    0    0  0.00000000000E+00  0.00000000000E+00  0.45593999997E+02  0.45594000000E+02  0.51100000000E-03 0.  1.
         11   -1    0    0    0    0 -0.00000000000E+00 -0.00000000000E+00 -0.45593999997E+02  0.45594000000E+02  0.51100000000E-03 0. -1.
    9900012    2    1    2    0    0  0.13171337950E+02  0.13017919602E+02 -0.27800784075E+01  0.72461569211E+02  0.69999998589E+02 0.  0.
        -12    1    1    2    0    0 -0.13171337950E+02 -0.13017919602E+02  0.27800784075E+01  0.18726430789E+02  0.00000000000E+00 0.  1.
         11    1    3    3    0    0  0.16121341232E+02  0.11189127268E+02 -0.14857519241E+02  0.24613819094E+02  0.51100000000E-03 0. -1.
        -11    1    3    3    0    0  0.34379983881E+01  0.22233489650E+02 -0.14536005062E+01  0.22544641262E+02  0.51100000000E-03 0.  1.
        -12    1    3    3    0    0 -0.63880016703E+01 -0.20404697317E+02  0.13531041340E+02  0.25303108854E+02  0.00000000000E+00 0.  1.
</event>
<event>
 7    1  0.2577508E-013  0.7246160E+02  0.7816164E-02  0.1226708E+00
        -11   -1    0    0    0    0  0.00000000000E+00  0.00000000000E+00  0.45593999997E+02  0.45594000000E+02  0.51100000000E-03 0.  1.
         11   -1    0    0    0    0 -0.00000000000E+00 -0.00000000000E+00 -0.45593999997E+02  0.45594000000E+02  0.51100000000E-03 0. -1.
    9900012    2    1    2    0    0  0.78430641440E+01 -0.73989209284E+01 -0.15310797720E+02  0.72461595836E+02  0.70000033273E+02 0.  0.
        -12    1    1    2    0    0 -0.78430641440E+01  0.73989209284E+01  0.15310797720E+02  0.18726404164E+02  0.00000000000E+00 0.  1.
         11    1    3    3    0    0  0.41149514567E+01 -0.85526415468E+01 -0.10698124416E+02  0.14301411441E+02  0.51100000000E-03 0. -1.
        -11    1    3    3    0    0  0.24851415980E+01 -0.21308629773E+02 -0.21237537045E+02  0.30187192840E+02  0.51100000000E-03 0.  1.
        -12    1    3    3    0    0  0.12429710893E+01  0.22462350391E+02  0.16624863740E+02  0.27972991556E+02  0.00000000000E+00 0.  1.
</event>
<event>
 7    1  0.2577508E-013  0.7246158E+02  0.7816164E-02  0.1226708E+00
        -11   -1    0    0    0    0  0.00000000000E+00  0.00000000000E+00  0.45593999997E+02  0.45594000000E+02  0.51100000000E-03 0.  1.
         11   -1    0    0    0    0 -0.00000000000E+00 -0.00000000000E+00 -0.45593999997E+02  0.45594000000E+02  0.51100000000E-03 0. -1.
    9900012    2    1    2    0    0  0.13092924971E+02 -0.50141689358E+00 -0.13379190082E+02  0.72461579348E+02  0.70000011794E+02 0.  0.
        -12    1    1    2    0    0 -0.13092924971E+02  0.50141689358E+00  0.13379190082E+02  0.18726420652E+02  0.00000000000E+00 0.  1.
         11    1    3    3    0    0  0.11342588211E+02  0.22367038019E+02 -0.15933637681E+02  0.29712278726E+02  0.51100000000E-03 0. -1.
        -11    1    3    3    0    0  0.15449245705E+02 -0.82007593803E+01 -0.89165402858E+01  0.19632532648E+02  0.51100000000E-03 0.  1.
        -12    1    3    3    0    0 -0.13698908945E+02 -0.14667695532E+02  0.11470987885E+02  0.23116767974E+02  0.00000000000E+00 0.  1.
</event>
<event>
 7    1  0.2577508E-013  0.7246159E+02  0.7816164E-02  0.1226708E+00
        -11   -1    0    0    0    0  0.00000000000E+00  0.00000000000E+00  0.45593999997E+02  0.45594000000E+02  0.51100000000E-03 0.  1.
         11   -1    0    0    0    0 -0.00000000000E+00 -0.00000000000E+00 -0.45593999997E+02  0.45594000000E+02  0.51100000000E-03 0. -1.
    9900012    2    1    2    0    0 -0.11321101200E+02 -0.37969067752E+01 -0.14425485558E+02  0.72461589052E+02  0.70000024435E+02 0.  0.
        -12    1    1    2    0    0  0.11321101200E+02  0.37969067752E+01  0.14425485558E+02  0.18726410948E+02  0.00000000000E+00 0.  1.
         11    1    3    3    0    0  0.28932721554E+01  0.41171655555E+01 -0.44627349039E+01  0.67259258886E+01  0.51100000000E-03 0. -1.
        -11    1    3    3    0    0 -0.30011896281E+02  0.45805133137E+01 -0.26014312097E+02  0.39980488425E+02  0.51100000000E-03 0.  1.
        -12    1    3    3    0    0  0.15797522926E+02 -0.12494585644E+02  0.16051561443E+02  0.25755174738E+02  0.00000000000E+00 0.  1.
</event>
<event>
 7    1  0.2577508E-013  0.7246156E+02  0.7816164E-02  0.1226708E+00
        -11   -1    0    0    0    0  0.00000000000E+00  0.00000000000E+00  0.45593999997E+02  0.45594000000E+02  0.51100000000E-03 0. -1.
         11   -1    0    0    0    0 -0.00000000000E+00 -0.00000000000E+00 -0.45593999997E+02  0.45594000000E+02  0.51100000000E-03 0.  1.
    9900012    2    1    2    0    0  0.88367800999E+00  0.15029263536E+02  0.11136420695E+02  0.72461561065E+02  0.69999987978E+02 0.  0.
        -12    1    1    2    0    0 -0.88367800999E+00 -0.15029263536E+02 -0.11136420695E+02  0.18726438935E+02  0.00000000000E+00 0.  1.
         11    1    3    3    0    0  0.92756663488E+01  0.33952013115E+02  0.11267906802E+02  0.36955958989E+02  0.51100000000E-03 0. -1.
        -11    1    3    3    0    0 -0.52007800745E+01 -0.88796628784E+01  0.14311373456E+02  0.17627022910E+02  0.51100000000E-03 0.  1.
        -12    1    3    3    0    0 -0.31912082643E+01 -0.10043086701E+02 -0.14442859563E+02  0.17878579166E+02  0.00000000000E+00 0.  1.
</event>
<event>
 7    1  0.2577508E-013  0.7246154E+02  0.7816164E-02  0.1226708E+00
        -11   -1    0    0    0    0  0.00000000000E+00  0.00000000000E+00  0.45593999997E+02  0.45594000000E+02  0.51100000000E-03 0. -1.
         11   -1    0    0    0    0 -0.00000000000E+00 -0.00000000000E+00 -0.45593999997E+02  0.45594000000E+02  0.51100000000E-03 0.  1.
    9900012    2    1    2    0    0  0.16761944167E+01 -0.17569189378E+02 -0.62605175856E+01  0.72461544821E+02  0.69999966816E+02 0.  0.
        -12    1    1    2    0    0 -0.16761944167E+01  0.17569189378E+02  0.62605175856E+01  0.18726455179E+02  0.00000000000E+00 0.  1.
         11    1    3    3    0    0  0.79619066914E+01 -0.76718815963E+01  0.27575000968E+02  0.29709096318E+02  0.51100000000E-03 0. -1.
        -11    1    3    3    0    0 -0.97953386987E+01 -0.25507204925E+01 -0.25685589383E+01  0.10442812386E+02  0.51100000000E-03 0.  1.
        -12    1    3    3    0    0  0.35096264240E+01 -0.73465872892E+01 -0.31266959615E+02  0.32309636117E+02  0.00000000000E+00 0.  1.
</event>
<event>
 7    1  0.2577508E-013  0.7246158E+02  0.7816164E-02  0.1226708E+00
        -11   -1    0    0    0    0  0.00000000000E+00  0.00000000000E+00  0.45593999997E+02  0.45594000000E+02  0.51100000000E-03 0.  1.
         11   -1    0    0    0    0 -0.00000000000E+00 -0.00000000000E+00 -0.45593999997E+02  0.45594000000E+02  0.51100000000E-03 0. -1.
    9900012    2    1    2    0    0 -0.17718881053E+02 -0.19762280702E+00 -0.60564748482E+01  0.72461583147E+02  0.70000016743E+02 0.  0.
        -12    1    1    2    0    0  0.17718881053E+02  0.19762280702E+00  0.60564748482E+01  0.18726416853E+02  0.00000000000E+00 0.  1.
         11    1    3    3    0    0  0.54901319772E+01  0.16077106069E+02  0.10648264665E+01  0.17022007647E+02  0.51100000000E-03 0. -1.
        -11    1    3    3    0    0 -0.18683800594E+02 -0.22686557856E+02  0.14257696000E+02  0.32665673229E+02  0.51100000000E-03 0.  1.
         12    1    3    3    0    0 -0.45252124371E+01  0.64118289803E+01 -0.21378997315E+02  0.22773902271E+02  0.00000000000E+00 0. -1.
</event>
<event>
 7    1  0.2577508E-013  0.7246149E+02  0.7816164E-02  0.1226708E+00
        -11   -1    0    0    0    0  0.00000000000E+00  0.00000000000E+00  0.45593999997E+02  0.45594000000E+02  0.51100000000E-03 0.  1.
         11   -1    0    0    0    0 -0.00000000000E+00 -0.00000000000E+00 -0.45593999997E+02  0.45594000000E+02  0.51100000000E-03 0. -1.
    9900012    2    1    2    0    0  0.88115992689E+01 -0.77580804971E+01  0.14589379833E+02  0.72461492088E+02  0.69999898121E+02 0.  0.
        -12    1    1    2    0    0 -0.88115992689E+01  0.77580804971E+01 -0.14589379833E+02  0.18726507912E+02  0.00000000000E+00 0.  1.
         11    1    3    3    0    0 -0.22653707871E+01 -0.97268726675E+01  0.16437750977E+02  0.19233918325E+02  0.51100000000E-03 0.  1.
        -11    1    3    3    0    0 -0.84640308520E+01  0.18783509737E+02  0.12123961521E+02  0.23905030841E+02  0.51100000000E-03 0. -1.
         12    1    3    3    0    0  0.19541000908E+02 -0.16814717566E+02 -0.13972332664E+02  0.29322542922E+02  0.00000000000E+00 0. -1.
</event>
<event>
 7    1  0.2577508E-013  0.7246168E+02  0.7816164E-02  0.1226708E+00
        -11   -1    0    0    0    0  0.00000000000E+00  0.00000000000E+00  0.45593999997E+02  0.45594000000E+02  0.51100000000E-03 0.  1.
         11   -1    0    0    0    0 -0.00000000000E+00 -0.00000000000E+00 -0.45593999997E+02  0.45594000000E+02  0.51100000000E-03 0. -1.
    9900012    2    1    2    0    0  0.12641365155E+01  0.54835281200E+01 -0.17860795568E+02  0.72461677881E+02  0.70000140151E+02 0.  0.
        -12    1    1    2    0    0 -0.12641365155E+01 -0.54835281200E+01  0.17860795568E+02  0.18726322119E+02  0.00000000000E+00 0.  1.
         11    1    3    3    0    0 -0.13412971794E+02 -0.17245741967E+01 -0.88792898496E+01  0.16177878631E+02  0.51100000000E-03 0. -1.
        -11    1    3    3    0    0 -0.19459310751E+02  0.64804125142E+01 -0.83197718210E+01  0.22133213158E+02  0.51100000000E-03 0.  1.
        -12    1    3    3    0    0  0.34136419060E+02  0.72768980246E+00 -0.66173389765E+00  0.34150586093E+02  0.00000000000E+00 0.  1.
</event>
<event>
 7    1  0.2577508E-013  0.7246121E+02  0.7816164E-02  0.1226709E+00
        -11   -1    0    0    0    0  0.00000000000E+00  0.00000000000E+00  0.45593999997E+02  0.45594000000E+02  0.51100000000E-03 0. -1.
         11   -1    0    0    0    0 -0.00000000000E+00 -0.00000000000E+00 -0.45593999997E+02  0.45594000000E+02  0.51100000000E-03 0.  1.
    9900012    2    1    2    0    0 -0.29719519175E+00 -0.16376474461E+02  0.90782932917E+01  0.72461210370E+02  0.69999531130E+02 0.  0.
        -12    1    1    2    0    0  0.29719519175E+00  0.16376474461E+02 -0.90782932917E+01  0.18726789630E+02  0.00000000000E+00 0.  1.
         11    1    3    3    0    0  0.33230525627E+01  0.11728191436E+01  0.82442198345E+01  0.89657874177E+01  0.51100000000E-03 0. -1.
        -11    1    3    3    0    0 -0.19438959783E+02 -0.11260068147E+02 -0.24329433386E+02  0.33114704004E+02  0.51100000000E-03 0.  1.
         12    1    3    3    0    0  0.15818712029E+02 -0.62892254580E+01  0.25163506844E+02  0.30380718948E+02  0.00000000000E+00 0. -1.
</event>
<event>
 7    1  0.2577508E-013  0.7246157E+02  0.7816164E-02  0.1226708E+00
        -11   -1    0    0    0    0  0.00000000000E+00  0.00000000000E+00  0.45593999997E+02  0.45594000000E+02  0.51100000000E-03 0.  1.
         11   -1    0    0    0    0 -0.00000000000E+00 -0.00000000000E+00 -0.45593999997E+02  0.45594000000E+02  0.51100000000E-03 0. -1.
    9900012    2    1    2    0    0  0.14094798928E+02  0.88510850033E+01  0.85833625350E+01  0.72461570149E+02  0.69999999811E+02 0.  0.
        -12    1    1    2    0    0 -0.14094798928E+02 -0.88510850033E+01 -0.85833625350E+01  0.18726429851E+02  0.00000000000E+00 0.  1.
         11    1    3    3    0    0  0.30036735636E+02  0.37543515701E+01 -0.12920197560E+02  0.32912492288E+02  0.51100000000E-03 0. -1.
        -11    1    3    3    0    0  0.77299258194E+01 -0.11553695079E+01  0.94376260992E+01  0.12253792006E+02  0.51100000000E-03 0.  1.
        -12    1    3    3    0    0 -0.23671862528E+02  0.62521029411E+01  0.12065933996E+02  0.27295285855E+02  0.00000000000E+00 0.  1.
</event>
<event>
 7    1  0.2577508E-013  0.7246158E+02  0.7816164E-02  0.1226708E+00
        -11   -1    0    0    0    0  0.00000000000E+00  0.00000000000E+00  0.45593999997E+02  0.45594000000E+02  0.51100000000E-03 0.  1.
         11   -1    0    0    0    0 -0.00000000000E+00 -0.00000000000E+00 -0.45593999997E+02  0.45594000000E+02  0.51100000000E-03 0. -1.
    9900012    2    1    2    0    0  0.12394894638E+02 -0.32151674481E+01 -0.13664115160E+02  0.72461581284E+02  0.70000014317E+02 0.  0.
        -12    1    1    2    0    0 -0.12394894638E+02  0.32151674481E+01  0.13664115160E+02  0.18726418716E+02  0.00000000000E+00 0.  1.
         11    1    3    3    0    0 -0.10795817169E+02  0.21803448960E+02 -0.15269604651E+02  0.28724569298E+02  0.51100000000E-03 0. -1.
        -11    1    3    3    0    0 -0.42946670032E+01  0.12646820822E+00  0.46861871163E+01  0.63577125467E+01  0.51100000000E-03 0.  1.
        -12    1    3    3    0    0  0.27485378811E+02 -0.25145084617E+02 -0.30806976250E+01  0.37379299440E+02  0.00000000000E+00 0.  1.
</event>
<event>
 7    1  0.2577508E-013  0.7246134E+02  0.7816164E-02  0.1226709E+00
        -11   -1    0    0    0    0  0.00000000000E+00  0.00000000000E+00  0.45593999997E+02  0.45594000000E+02  0.51100000000E-03 0.  1.
         11   -1    0    0    0    0 -0.00000000000E+00 -0.00000000000E+00 -0.45593999997E+02  0.45594000000E+02  0.51100000000E-03 0. -1.
    9900012    2    1    2    0    0 -0.10483475424E+02  0.15501095353E+02 -0.70755178073E+00  0.72461338695E+02  0.69999698298E+02 0.  0.
        -12    1    1    2    0    0  0.10483475424E+02 -0.15501095353E+02  0.70755178073E+00  0.18726661305E+02  0.00000000000E+00 0.  1.
         11    1    3    3    0    0 -0.16099873170E+02  0.90161118729E+01 -0.47454163064E+01  0.19052956873E+02  0.51100000000E-03 0. -1.
        -11    1    3    3    0    0 -0.20938385854E+02 -0.66371314984E+01  0.83045721996E+01  0.23482619879E+02  0.51100000000E-03 0.  1.
         12    1    3    3    0    0  0.26554783600E+02  0.13122114978E+02 -0.42667076739E+01  0.29925761944E+02  0.00000000000E+00 0. -1.
</event>
<event>
 7    1  0.2577508E-013  0.7246157E+02  0.7816164E-02  0.1226708E+00
        -11   -1    0    0    0    0  0.00000000000E+00  0.00000000000E+00  0.45593999997E+02  0.45594000000E+02  0.51100000000E-03 0.  1.
         11   -1    0    0    0    0 -0.00000000000E+00 -0.00000000000E+00 -0.45593999997E+02  0.45594000000E+02  0.51100000000E-03 0. -1.
    9900012    2    1    2    0    0  0.10044957504E+02  0.23312403917E+01 -0.15631480558E+02  0.72461573820E+02  0.70000004593E+02 0.  0.
        -12    1    1    2    0    0 -0.10044957504E+02 -0.23312403917E+01  0.15631480558E+02  0.18726426180E+02  0.00000000000E+00 0.  1.
         11    1    3    3    0    0  0.47366188760E+01 -0.60596488719E-01  0.37052657558E+01  0.60140024022E+01  0.51100000000E-03 0. -1.
        -11    1    3    3    0    0  0.26912775495E+02  0.15341656567E+02  0.50509234191E+01  0.31387509279E+02  0.51100000000E-03 0.  1.
         12    1    3    3    0    0 -0.21604436867E+02 -0.12949819686E+02 -0.24387669733E+02  0.35060062140E+02  0.00000000000E+00 0. -1.
</event>
<event>
 7    1  0.2577508E-013  0.7246147E+02  0.7816164E-02  0.1226708E+00
        -11   -1    0    0    0    0  0.00000000000E+00  0.00000000000E+00  0.45593999997E+02  0.45594000000E+02  0.51100000000E-03 0.  1.
         11   -1    0    0    0    0 -0.00000000000E+00 -0.00000000000E+00 -0.45593999997E+02  0.45594000000E+02  0.51100000000E-03 0. -1.
    9900012    2    1    2    0    0  0.11555702744E+02 -0.13119794156E+01 -0.14677438262E+02  0.72461474699E+02  0.69999875470E+02 0.  0.
        -12    1    1    2    0    0 -0.11555702744E+02  0.13119794156E+01  0.14677438262E+02  0.18726525301E+02  0.00000000000E+00 0.  1.
         11    1    3    3    0    0  0.35279413180E+01 -0.40912635669E+01 -0.33488385866E+01  0.63560622760E+01  0.51100000000E-03 0. -1.
        -11    1    3    3    0    0  0.20859491569E+01 -0.29914878453E+02 -0.13327264024E+02  0.32815653328E+02  0.51100000000E-03 0.  1.
         12    1    3    3    0    0  0.59418122689E+01  0.32694162604E+02  0.19986643480E+01  0.33289759095E+02  0.00000000000E+00 0. -1.
</event>
<event>
 7    1  0.2577508E-013  0.7246125E+02  0.7816164E-02  0.1226709E+00
        -11   -1    0    0    0    0  0.00000000000E+00  0.00000000000E+00  0.45593999997E+02  0.45594000000E+02  0.51100000000E-03 0. -1.
         11   -1    0    0    0    0 -0.00000000000E+00 -0.00000000000E+00 -0.45593999997E+02  0.45594000000E+02  0.51100000000E-03 0.  1.
    9900012    2    1    2    0    0 -0.91882857685E+01 -0.16202266230E+02 -0.19372952841E+01  0.72461250699E+02  0.69999583667E+02 0.  0.
        -12    1    1    2    0    0  0.91882857685E+01  0.16202266230E+02  0.19372952841E+01  0.18726749301E+02  0.00000000000E+00 0.  1.
         11    1    3    3    0    0 -0.11475416444E+02  0.18256006233E+02 -0.40893561511E+01  0.21947432199E+02  0.51100000000E-03 0. -1.
        -11    1    3    3    0    0 -0.10964259053E+02 -0.25011870237E+01  0.99890470814E+01  0.15041674606E+02  0.51100000000E-03 0.  1.
        -12    1    3    3    0    0  0.13251389728E+02 -0.31957085439E+02 -0.78369862144E+01  0.35472143894E+02  0.00000000000E+00 0.  1.
</event>
<event>
 7    1  0.2577508E-013  0.7246138E+02  0.7816164E-02  0.1226709E+00
        -11   -1    0    0    0    0  0.00000000000E+00  0.00000000000E+00  0.45593999997E+02  0.45594000000E+02  0.51100000000E-03 0. -1.
         11   -1    0    0    0    0 -0.00000000000E+00 -0.00000000000E+00 -0.45593999997E+02  0.45594000000E+02  0.51100000000E-03 0.  1.
    9900012    2    1    2    0    0  0.13307965734E+02  0.47482415764E+01  0.12289778450E+02  0.72461377122E+02  0.69999748357E+02 0.  0.
        -12    1    1    2    0    0 -0.13307965734E+02 -0.47482415764E+01 -0.12289778450E+02  0.18726622878E+02  0.00000000000E+00 0.  1.
         11    1    3    3    0    0 -0.22825689812E+01  0.49132228427E+01  0.99726195723E+01  0.11349141873E+02  0.51100000000E-03 0. -1.
        -11    1    3    3    0    0  0.10696879992E+02  0.70900769045E+01  0.29705869794E+02  0.32359405627E+02  0.51100000000E-03 0.  1.
        -12    1    3    3    0    0  0.48936547235E+01 -0.72550581708E+01 -0.27388710916E+02  0.28752829622E+02  0.00000000000E+00 0.  1.
</event>
<event>
 7    1  0.2577508E-013  0.7246187E+02  0.7816164E-02  0.1226707E+00
        -11   -1    0    0    0    0  0.00000000000E+00  0.00000000000E+00  0.45593999997E+02  0.45594000000E+02  0.51100000000E-03 0.  1.
         11   -1    0    0    0    0 -0.00000000000E+00 -0.00000000000E+00 -0.45593999997E+02  0.45594000000E+02  0.51100000000E-03 0. -1.
    9900012    2    1    2    0    0  0.13803470967E+02  0.33436033583E+01 -0.12204615070E+02  0.72461865237E+02  0.70000384217E+02 0.  0.
        -12    1    1    2    0    0 -0.13803470967E+02 -0.33436033583E+01  0.12204615070E+02  0.18726134763E+02  0.00000000000E+00 0.  1.
         11    1    3    3    0    0  0.49399757629E+01  0.26452827128E+01  0.60493437128E+00  0.56362067939E+01  0.51100000000E-03 0. -1.
        -11    1    3    3    0    0  0.22225891841E+02  0.23853126232E+02  0.72541377607E+01  0.33400365479E+02  0.51100000000E-03 0.  1.
         12    1    3    3    0    0 -0.13362396637E+02 -0.23154805587E+02 -0.20063687202E+02  0.33425292965E+02  0.00000000000E+00 0. -1.
</event>
<event>
 7    1  0.2577508E-013  0.7246156E+02  0.7816164E-02  0.1226708E+00
        -11   -1    0    0    0    0  0.00000000000E+00  0.00000000000E+00  0.45593999997E+02  0.45594000000E+02  0.51100000000E-03 0. -1.
         11   -1    0    0    0    0 -0.00000000000E+00 -0.00000000000E+00 -0.45593999997E+02  0.45594000000E+02  0.51100000000E-03 0.  1.
    9900012    2    1    2    0    0  0.52577734945E+01 -0.14580441707E+02  0.10509329502E+02  0.72461562297E+02  0.69999989582E+02 0.  0.
        -12    1    1    2    0    0 -0.52577734945E+01  0.14580441707E+02 -0.10509329502E+02  0.18726437703E+02  0.00000000000E+00 0.  1.
         11    1    3    3    0    0  0.69117883116E+01 -0.13986990250E+02  0.60185781360E+00  0.15613165823E+02  0.51100000000E-03 0. -1.
        -11    1    3    3    0    0  0.22452595085E+02  0.12991278144E+02 -0.33678512752E+01  0.26157881342E+02  0.51100000000E-03 0.  1.
         12    1    3    3    0    0 -0.24106609902E+02 -0.13584729600E+02  0.13275322963E+02  0.30690515132E+02  0.00000000000E+00 0. -1.
</event>
<event>
 7    1  0.2577508E-013  0.7246201E+02  0.7816164E-02  0.1226707E+00
        -11   -1    0    0    0    0  0.00000000000E+00  0.00000000000E+00  0.45593999997E+02  0.45594000000E+02  0.51100000000E-03 0.  1.
         11   -1    0    0    0    0 -0.00000000000E+00 -0.00000000000E+00 -0.45593999997E+02  0.45594000000E+02  0.51100000000E-03 0. -1.
    9900012    2    1    2    0    0  0.37989855304E+01 -0.16813944108E+02  0.73158447187E+01  0.72462012938E+02  0.70000576623E+02 0.  0.
        -12    1    1    2    0    0 -0.37989855304E+01  0.16813944108E+02 -0.73158447187E+01  0.18725987062E+02  0.00000000000E+00 0.  1.
         11    1    3    3    0    0  0.16714798025E+02 -0.43800543726E+01 -0.12051596300E+02  0.21066806188E+02  0.51100000000E-03 0. -1.
        -11    1    3    3    0    0  0.97602804819E+01  0.10502190979E+02  0.12249994233E+01  0.14389569636E+02  0.51100000000E-03 0.  1.
        -12    1    3    3    0    0 -0.22676092976E+02 -0.22936080714E+02  0.18142441596E+02  0.37005637114E+02  0.00000000000E+00 0.  1.
</event>
<event>
 7    1  0.2577508E-013  0.7246171E+02  0.7816164E-02  0.1226708E+00
        -11   -1    0    0    0    0  0.00000000000E+00  0.00000000000E+00  0.45593999997E+02  0.45594000000E+02  0.51100000000E-03 0.  1.
         11   -1    0    0    0    0 -0.00000000000E+00 -0.00000000000E+00 -0.45593999997E+02  0.45594000000E+02  0.51100000000E-03 0. -1.
    9900012    2    1    2    0    0 -0.15943790592E+02 -0.91946772314E+01  0.34536244253E+01  0.72461706467E+02  0.70000177390E+02 0.  0.
        -12    1    1    2    0    0  0.15943790592E+02  0.91946772314E+01 -0.34536244253E+01  0.18726293533E+02  0.00000000000E+00 0.  1.
         11    1    3    3    0    0 -0.30914465597E+01  0.42720619497E+01  0.35353337428E+01  0.63487116856E+01  0.51100000000E-03 0. -1.
        -11    1    3    3    0    0 -0.75599851439E+01  0.24186318478E+02  0.92252976117E+01  0.26967341233E+02  0.51100000000E-03 0.  1.
         12    1    3    3    0    0 -0.52923588880E+01 -0.37653057659E+02 -0.93070069292E+01  0.39145653548E+02  0.00000000000E+00 0. -1.
</event>
<event>
 7    1  0.2577508E-013  0.7246156E+02  0.7816164E-02  0.1226708E+00
        -11   -1    0    0    0    0  0.00000000000E+00  0.00000000000E+00  0.45593999997E+02  0.45594000000E+02  0.51100000000E-03 0.  1.
         11   -1    0    0    0    0 -0.00000000000E+00 -0.00000000000E+00 -0.45593999997E+02  0.45594000000E+02  0.51100000000E-03 0. -1.
    9900012    2    1    2    0    0  0.62305871727E+01  0.16535521878E+02 -0.61996686484E+01  0.72461559024E+02  0.69999985318E+02 0.  0.
        -12    1    1    2    0    0 -0.62305871727E+01 -0.16535521878E+02  0.61996686484E+01  0.18726440976E+02  0.00000000000E+00 0.  1.
         11    1    3    3    0    0  0.94851270830E+01  0.18697877533E+02 -0.23709359721E+02  0.31649834102E+02  0.51100000000E-03 0. -1.
        -11    1    3    3    0    0  0.99225919541E+01 -0.26784976350E+01 -0.73741648511E+01  0.12649525216E+02  0.51100000000E-03 0.  1.
        -12    1    3    3    0    0 -0.13177131864E+02  0.51614197915E+00  0.24883855923E+02  0.28162199707E+02  0.00000000000E+00 0.  1.
</event>
<event>
 7    1  0.2577508E-013  0.7246094E+02  0.7816164E-02  0.1226710E+00
        -11   -1    0    0    0    0  0.00000000000E+00  0.00000000000E+00  0.45593999997E+02  0.45594000000E+02  0.51100000000E-03 0.  1.
         11   -1    0    0    0    0 -0.00000000000E+00 -0.00000000000E+00 -0.45593999997E+02  0.45594000000E+02  0.51100000000E-03 0. -1.
    9900012    2    1    2    0    0 -0.16275715960E+01  0.89504130670E+01 -0.16368995570E+02  0.72460936714E+02  0.69999174639E+02 0.  0.
        -12    1    1    2    0    0  0.16275715960E+01 -0.89504130670E+01  0.16368995570E+02  0.18727063286E+02  0.00000000000E+00 0.  1.
         11    1    3    3    0    0  0.45598679018E+01 -0.11880298577E+01 -0.97194142399E+01  0.10801426927E+02  0.51100000000E-03 0. -1.
        -11    1    3    3    0    0  0.18195390451E+02 -0.19256275619E+01  0.17473574511E+02  0.25300317817E+02  0.51100000000E-03 0.  1.
         12    1    3    3    0    0 -0.24382829948E+02  0.12064070487E+02 -0.24123155841E+02  0.36359191970E+02  0.00000000000E+00 0. -1.
</event>
<event>
 7    1  0.2577508E-013  0.7246158E+02  0.7816164E-02  0.1226708E+00
        -11   -1    0    0    0    0  0.00000000000E+00  0.00000000000E+00  0.45593999997E+02  0.45594000000E+02  0.51100000000E-03 0.  1.
         11   -1    0    0    0    0 -0.00000000000E+00 -0.00000000000E+00 -0.45593999997E+02  0.45594000000E+02  0.51100000000E-03 0. -1.
    9900012    2    1    2    0    0 -0.30479192720E+01 -0.82304923177E+01 -0.16542304962E+02  0.72461583655E+02  0.70000017404E+02 0.  0.
        -12    1    1    2    0    0  0.30479192720E+01  0.82304923177E+01  0.16542304962E+02  0.18726416345E+02  0.00000000000E+00 0.  1.
         11    1    3    3    0    0 -0.34843366357E+01  0.95628049356E+00  0.16382567778E+02  0.16776280917E+02  0.51100000000E-03 0. -1.
        -11    1    3    3    0    0  0.12871254388E+02 -0.12134245023E+02  0.26482415432E+01  0.17886371217E+02  0.51100000000E-03 0.  1.
         12    1    3    3    0    0 -0.12434837024E+02  0.29474722112E+01 -0.35573114283E+02  0.37798931520E+02  0.00000000000E+00 0. -1.
</event>
<event>
 7    1  0.2577508E-013  0.7246157E+02  0.7816164E-02  0.1226708E+00
        -11   -1    0    0    0    0  0.00000000000E+00  0.00000000000E+00  0.45593999997E+02  0.45594000000E+02  0.51100000000E-03 0.  1.
         11   -1    0    0    0    0 -0.00000000000E+00 -0.00000000000E+00 -0.45593999997E+02  0.45594000000E+02  0.51100000000E-03 0. -1.
    9900012    2    1    2    0    0 -0.10584059930E+02  0.97728238113E+01 -0.11964482424E+02  0.72461568159E+02  0.69999997218E+02 0.  0.
        -12    1    1    2    0    0  0.10584059930E+02 -0.97728238113E+01  0.11964482424E+02  0.18726431841E+02  0.00000000000E+00 0.  1.
         11    1    3    3    0    0 -0.37321693941E+01 -0.28633274436E+01  0.12367714622E+01  0.48638807907E+01  0.51100000000E-03 0. -1.
        -11    1    3    3    0    0 -0.81688186513E+01 -0.21675647472E+02  0.10946150667E+02  0.25619943524E+02  0.51100000000E-03 0.  1.
         12    1    3    3    0    0  0.13169281156E+01  0.34311798727E+02 -0.24147404553E+02  0.41977743844E+02  0.00000000000E+00 0. -1.
</event>
<event>
 7    1  0.2577508E-013  0.7246155E+02  0.7816164E-02  0.1226708E+00
        -11   -1    0    0    0    0  0.00000000000E+00  0.00000000000E+00  0.45593999997E+02  0.45594000000E+02  0.51100000000E-03 0. -1.
         11   -1    0    0    0    0 -0.00000000000E+00 -0.00000000000E+00 -0.45593999997E+02  0.45594000000E+02  0.51100000000E-03 0.  1.
    9900012    2    1    2    0    0  0.17912731288E+02  0.52971968480E+01  0.13242966706E+01  0.72461548165E+02  0.69999971173E+02 0.  0.
        -12    1    1    2    0    0 -0.17912731288E+02 -0.52971968480E+01 -0.13242966706E+01  0.18726451835E+02  0.00000000000E+00 0.  1.
         11    1    3    3    0    0  0.12292555548E+02 -0.21625555903E+01  0.48044505452E+01  0.13374091142E+02  0.51100000000E-03 0. -1.
        -11    1    3    3    0    0  0.23133023884E+01  0.15650426592E+02  0.24824195365E+02  0.29436845894E+02  0.51100000000E-03 0.  1.
        -12    1    3    3    0    0  0.33068733517E+01 -0.81906741532E+01 -0.28304349240E+02  0.29650611129E+02  0.00000000000E+00 0.  1.
</event>
<event>
 7    1  0.2577508E-013  0.7246156E+02  0.7816164E-02  0.1226708E+00
        -11   -1    0    0    0    0  0.00000000000E+00  0.00000000000E+00  0.45593999997E+02  0.45594000000E+02  0.51100000000E-03 0.  1.
         11   -1    0    0    0    0 -0.00000000000E+00 -0.00000000000E+00 -0.45593999997E+02  0.45594000000E+02  0.51100000000E-03 0. -1.
    9900012    2    1    2    0    0  0.12388450201E+02 -0.28843325167E+01 -0.13743592584E+02  0.72461563885E+02  0.69999991651E+02 0.  0.
        -12    1    1    2    0    0 -0.12388450201E+02  0.28843325167E+01  0.13743592584E+02  0.18726436115E+02  0.00000000000E+00 0.  1.
         11    1    3    3    0    0  0.19297204425E+02 -0.24155593340E+01 -0.62942530265E+01  0.20441004059E+02  0.51100000000E-03 0. -1.
        -11    1    3    3    0    0 -0.41014727490E+01  0.20294674295E+02  0.11574225537E+02  0.23720425386E+02  0.51100000000E-03 0.  1.
        -12    1    3    3    0    0 -0.28072814752E+01 -0.20763447478E+02 -0.19023565094E+02  0.28300134440E+02  0.00000000000E+00 0.  1.
</event>
<event>
 7    1  0.2577508E-013  0.7246162E+02  0.7816164E-02  0.1226708E+00
        -11   -1    0    0    0    0  0.00000000000E+00  0.00000000000E+00  0.45593999997E+02  0.45594000000E+02  0.51100000000E-03 0. -1.
         11   -1    0    0    0    0 -0.00000000000E+00 -0.00000000000E+00 -0.45593999997E+02  0.45594000000E+02  0.51100000000E-03 0.  1.
    9900012    2    1    2    0    0  0.14049665525E+02  0.47473975027E+01  0.11434432399E+02  0.72461624785E+02  0.70000070984E+02 0.  0.
        -12    1    1    2    0    0 -0.14049665525E+02 -0.47473975027E+01 -0.11434432399E+02  0.18726375215E+02  0.00000000000E+00 0.  1.
         11    1    3    3    0    0 -0.97479267937E+01  0.17008040019E+02  0.10856334606E+01  0.19633494400E+02  0.51100000000E-03 0. -1.
        -11    1    3    3    0    0 -0.83938722338E+01 -0.57758993298E+01 -0.99345877936E+01  0.14230746257E+02  0.51100000000E-03 0.  1.
         12    1    3    3    0    0  0.32191464552E+02 -0.64847431866E+01  0.20283386732E+02  0.38597384128E+02  0.00000000000E+00 0. -1.
</event>
<event>
 7    1  0.2577508E-013  0.7246153E+02  0.7816164E-02  0.1226708E+00
        -11   -1    0    0    0    0  0.00000000000E+00  0.00000000000E+00  0.45593999997E+02  0.45594000000E+02  0.51100000000E-03 0. -1.
         11   -1    0    0    0    0 -0.00000000000E+00 -0.00000000000E+00 -0.45593999997E+02  0.45594000000E+02  0.51100000000E-03 0.  1.
    9900012    2    1    2    0    0  0.12557808089E+02 -0.10560209725E+02  0.90257440479E+01  0.72461531325E+02  0.69999949235E+02 0.  0.
        -12    1    1    2    0    0 -0.12557808089E+02  0.10560209725E+02 -0.90257440479E+01  0.18726468675E+02  0.00000000000E+00 0.  1.
         11    1    3    3    0    0  0.10326691062E+02 -0.75610289918E+01  0.10708276717E+02  0.16687627100E+02  0.51100000000E-03 0. -1.
        -11    1    3    3    0    0 -0.24576252483E+01 -0.19835248237E+02  0.19763737319E+02  0.28108402793E+02  0.51100000000E-03 0.  1.
        -12    1    3    3    0    0  0.46887422747E+01  0.16836067503E+02 -0.21446269988E+02  0.27665501432E+02  0.00000000000E+00 0.  1.
</event>
<event>
 7    1  0.2577508E-013  0.7246161E+02  0.7816164E-02  0.1226708E+00
        -11   -1    0    0    0    0  0.00000000000E+00  0.00000000000E+00  0.45593999997E+02  0.45594000000E+02  0.51100000000E-03 0.  1.
         11   -1    0    0    0    0 -0.00000000000E+00 -0.00000000000E+00 -0.45593999997E+02  0.45594000000E+02  0.51100000000E-03 0. -1.
    9900012    2    1    2    0    0  0.53109597530E+00 -0.17018071282E+02 -0.77962175007E+01  0.72461606315E+02  0.70000046924E+02 0.  0.
        -12    1    1    2    0    0 -0.53109597530E+00  0.17018071282E+02  0.77962175007E+01  0.18726393685E+02  0.00000000000E+00 0.  1.
         11    1    3    3    0    0  0.20900204704E+02 -0.16216767220E+02 -0.11980016442E+01  0.26480885634E+02  0.51100000000E-03 0. -1.
        -11    1    3    3    0    0 -0.55031988057E+01 -0.30843326818E+01 -0.22927996911E+02  0.23780061980E+02  0.51100000000E-03 0.  1.
        -12    1    3    3    0    0 -0.14865909923E+02  0.22830286191E+01  0.16329781054E+02  0.22200658702E+02  0.00000000000E+00 0.  1.
</event>
<event>
 7    1  0.2577508E-013  0.7246155E+02  0.7816164E-02  0.1226708E+00
        -11   -1    0    0    0    0  0.00000000000E+00  0.00000000000E+00  0.45593999997E+02  0.45594000000E+02  0.51100000000E-03 0.  1.
         11   -1    0    0    0    0 -0.00000000000E+00 -0.00000000000E+00 -0.45593999997E+02  0.45594000000E+02  0.51100000000E-03 0. -1.
    9900012    2    1    2    0    0  0.42956546195E+01  0.14627082476E+02 -0.10875462453E+02  0.72461551486E+02  0.69999975499E+02 0.  0.
        -12    1    1    2    0    0 -0.42956546195E+01 -0.14627082476E+02  0.10875462453E+02  0.18726448514E+02  0.00000000000E+00 0.  1.
         11    1    3    3    0    0 -0.15482687094E+02  0.14721907285E+02  0.70110784939E+01  0.22485625979E+02  0.51100000000E-03 0. -1.
        -11    1    3    3    0    0 -0.43714675390E+01  0.78660255393E+01  0.91684369025E+01  0.12846957684E+02  0.51100000000E-03 0.  1.
        -12    1    3    3    0    0  0.24149809253E+02 -0.79608503482E+01 -0.27054977849E+02  0.37128967823E+02  0.00000000000E+00 0.  1.
</event>
<event>
 7    1  0.2577508E-013  0.7246151E+02  0.7816164E-02  0.1226708E+00
        -11   -1    0    0    0    0  0.00000000000E+00  0.00000000000E+00  0.45593999997E+02  0.45594000000E+02  0.51100000000E-03 0.  1.
         11   -1    0    0    0    0 -0.00000000000E+00 -0.00000000000E+00 -0.45593999997E+02  0.45594000000E+02  0.51100000000E-03 0. -1.
    9900012    2    1    2    0    0 -0.13128120623E+02 -0.13260064179E+02 -0.15826150008E+01  0.72461507446E+02  0.69999918129E+02 0.  0.
        -12    1    1    2    0    0  0.13128120623E+02  0.13260064179E+02  0.15826150008E+01  0.18726492554E+02  0.00000000000E+00 0.  1.
         11    1    3    3    0    0 -0.75658724089E+00  0.90398717432E+01 -0.16334938103E+02  0.18684804213E+02  0.51100000000E-03 0. -1.
        -11    1    3    3    0    0 -0.24533809258E+02 -0.22203730728E+02 -0.19134250371E+01  0.33144752987E+02  0.51100000000E-03 0.  1.
        -12    1    3    3    0    0  0.12162275877E+02 -0.96205194923E-01  0.16665748139E+02  0.20631950246E+02  0.00000000000E+00 0.  1.
</event>
<event>
 7    1  0.2577508E-013  0.7246154E+02  0.7816164E-02  0.1226708E+00
        -11   -1    0    0    0    0  0.00000000000E+00  0.00000000000E+00  0.45593999997E+02  0.45594000000E+02  0.51100000000E-03 0.  1.
         11   -1    0    0    0    0 -0.00000000000E+00 -0.00000000000E+00 -0.45593999997E+02  0.45594000000E+02  0.51100000000E-03 0. -1.
    9900012    2    1    2    0    0 -0.14989259353E+02  0.10652192402E+02 -0.35402100405E+01  0.72461543153E+02  0.69999964643E+02 0.  0.
        -12    1    1    2    0    0  0.14989259353E+02 -0.10652192402E+02  0.35402100405E+01  0.18726456847E+02  0.00000000000E+00 0.  1.
         11    1    3    3    0    0 -0.57258820725E+00  0.82802010196E+01  0.39285148849E+01  0.91827455394E+01  0.51100000000E-03 0. -1.
        -11    1    3    3    0    0 -0.63348437327E+01  0.31576977767E+02 -0.62106025336E+00  0.32212132592E+02  0.51100000000E-03 0.  1.
         12    1    3    3    0    0 -0.80818274130E+01 -0.29204986385E+02 -0.68476646720E+01  0.31066665022E+02  0.00000000000E+00 0. -1.
</event>
<event>
 7    1  0.2577508E-013  0.7246148E+02  0.7816164E-02  0.1226708E+00
        -11   -1    0    0    0    0  0.00000000000E+00  0.00000000000E+00  0.45593999997E+02  0.45594000000E+02  0.51100000000E-03 0.  1.
         11   -1    0    0    0    0 -0.00000000000E+00 -0.00000000000E+00 -0.45593999997E+02  0.45594000000E+02  0.51100000000E-03 0. -1.
    9900012    2    1    2    0    0  0.67291531765E+01 -0.15748599262E+02 -0.75751399181E+01  0.72461478006E+02  0.69999879778E+02 0.  0.
        -12    1    1    2    0    0 -0.67291531765E+01  0.15748599262E+02  0.75751399181E+01  0.18726521994E+02  0.00000000000E+00 0.  1.
         11    1    3    3    0    0  0.18213286275E+00  0.12405082879E+02  0.13618228626E+01  0.12480938081E+02  0.51100000000E-03 0. -1.
        -11    1    3    3    0    0  0.11728831346E+02 -0.70096014526E+01  0.19720744158E+02  0.23991826685E+02  0.51100000000E-03 0.  1.
         12    1    3    3    0    0 -0.51818110319E+01 -0.21144080688E+02 -0.28657706939E+02  0.35988713241E+02  0.00000000000E+00 0. -1.
</event>
<event>
 7    1  0.2577508E-013  0.7246158E+02  0.7816164E-02  0.1226708E+00
        -11   -1    0    0    0    0  0.00000000000E+00  0.00000000000E+00  0.45593999997E+02  0.45594000000E+02  0.51100000000E-03 0. -1.
         11   -1    0    0    0    0 -0.00000000000E+00 -0.00000000000E+00 -0.45593999997E+02  0.45594000000E+02  0.51100000000E-03 0.  1.
    9900012    2    1    2    0    0 -0.46706056094E+01 -0.44593109545E+01  0.17577790089E+02  0.72461582420E+02  0.70000015796E+02 0.  0.
        -12    1    1    2    0    0  0.46706056094E+01  0.44593109545E+01 -0.17577790089E+02  0.18726417580E+02  0.00000000000E+00 0.  1.
         11    1    3    3    0    0 -0.94890718550E+00 -0.30981020412E+02  0.16505253895E+02  0.35116199353E+02  0.51100000000E-03 0. -1.
        -11    1    3    3    0    0 -0.41936256245E+01 -0.43471544156E+01 -0.18952865058E+01  0.63305891188E+01  0.51100000000E-03 0.  1.
        -12    1    3    3    0    0  0.47192720058E+00  0.30868863873E+02  0.29678226997E+01  0.31014793948E+02  0.00000000000E+00 0.  1.
</event>
<event>
 7    1  0.2577508E-013  0.7246159E+02  0.7816164E-02  0.1226708E+00
        -11   -1    0    0    0    0  0.00000000000E+00  0.00000000000E+00  0.45593999997E+02  0.45594000000E+02  0.51100000000E-03 0. -1.
         11   -1    0    0    0    0 -0.00000000000E+00 -0.00000000000E+00 -0.45593999997E+02  0.45594000000E+02  0.51100000000E-03 0.  1.
    9900012    2    1    2    0    0  0.11256180059E+02 -0.12600045663E+02  0.80756315317E+01  0.72461586439E+02  0.70000021031E+02 0.  0.
        -12    1    1    2    0    0 -0.11256180059E+02  0.12600045663E+02 -0.80756315317E+01  0.18726413561E+02  0.00000000000E+00 0.  1.
         11    1    3    3    0    0  0.85664432671E+01 -0.28706344456E+02 -0.16956631745E+02  0.34423328175E+02  0.51100000000E-03 0. -1.
        -11    1    3    3    0    0  0.39405588504E+01 -0.27946596299E+01 -0.18325542800E+01  0.51668541638E+01  0.51100000000E-03 0.  1.
        -12    1    3    3    0    0 -0.12508220586E+01  0.18900958423E+02  0.26864817557E+02  0.32871404100E+02  0.00000000000E+00 0.  1.
</event>
<event>
 7    1  0.2577508E-013  0.7246147E+02  0.7816164E-02  0.1226708E+00
        -11   -1    0    0    0    0  0.00000000000E+00  0.00000000000E+00  0.45593999997E+02  0.45594000000E+02  0.51100000000E-03 0.  1.
         11   -1    0    0    0    0 -0.00000000000E+00 -0.00000000000E+00 -0.45593999997E+02  0.45594000000E+02  0.51100000000E-03 0. -1.
    9900012    2    1    2    0    0 -0.81022264303E+01 -0.16742143335E+02  0.21765711205E+01  0.72461470732E+02  0.69999870301E+02 0.  0.
        -12    1    1    2    0    0  0.81022264303E+01  0.16742143335E+02 -0.21765711205E+01  0.18726529268E+02  0.00000000000E+00 0.  1.
         11    1    3    3    0    0  0.19150266310E+01  0.16823966677E+02 -0.51778377117E+01  0.17706585932E+02  0.51100000000E-03 0. -1.
        -11    1    3    3    0    0 -0.12731404520E+02 -0.80494684380E+01  0.20881452221E+02  0.25747187231E+02  0.51100000000E-03 0.  1.
         12    1    3    3    0    0  0.27141514586E+01 -0.25516641574E+02 -0.13527043389E+02  0.29007697568E+02  0.00000000000E+00 0. -1.
</event>
<event>
 7    1  0.2577508E-013  0.7246159E+02  0.7816164E-02  0.1226708E+00
        -11   -1    0    0    0    0  0.00000000000E+00  0.00000000000E+00  0.45593999997E+02  0.45594000000E+02  0.51100000000E-03 0.  1.
         11   -1    0    0    0    0 -0.00000000000E+00 -0.00000000000E+00 -0.45593999997E+02  0.45594000000E+02  0.51100000000E-03 0. -1.
    9900012    2    1    2    0    0 -0.75214588560E+01 -0.84147260914E+01 -0.14943174693E+02  0.72461590082E+02  0.70000025777E+02 0.  0.
        -12    1    1    2    0    0  0.75214588560E+01  0.84147260914E+01  0.14943174693E+02  0.18726409918E+02  0.00000000000E+00 0.  1.
         11    1    3    3    0    0  0.18750889517E+01 -0.17504201468E+02  0.17153439481E+02  0.24579534453E+02  0.51100000000E-03 0. -1.
        -11    1    3    3    0    0 -0.65805104348E+01  0.69431040992E+01  0.48782007295E+01  0.10738093627E+02  0.51100000000E-03 0.  1.
         12    1    3    3    0    0 -0.28160373730E+01  0.21463712776E+01 -0.36974814903E+02  0.37143962003E+02  0.00000000000E+00 0. -1.
</event>
<event>
 7    1  0.2577508E-013  0.7246165E+02  0.7816164E-02  0.1226708E+00
        -11   -1    0    0    0    0  0.00000000000E+00  0.00000000000E+00  0.45593999997E+02  0.45594000000E+02  0.51100000000E-03 0. -1.
         11   -1    0    0    0    0 -0.00000000000E+00 -0.00000000000E+00 -0.45593999997E+02  0.45594000000E+02  0.51100000000E-03 0.  1.
    9900012    2    1    2    0    0  0.15267121317E+02  0.80170443559E+01  0.73019431255E+01  0.72461645124E+02  0.70000097480E+02 0.  0.
        -12    1    1    2    0    0 -0.15267121317E+02 -0.80170443559E+01 -0.73019431255E+01  0.18726354876E+02  0.00000000000E+00 0.  1.
         11    1    3    3    0    0 -0.19522135063E+02  0.14503649738E+02 -0.69797757642E+01  0.25301914614E+02  0.51100000000E-03 0. -1.
        -11    1    3    3    0    0 -0.38269424306E+01  0.13561248503E+01  0.54181595533E+01  0.67705993962E+01  0.51100000000E-03 0.  1.
        -12    1    3    3    0    0  0.38616198811E+02 -0.78427302322E+01  0.88635593364E+01  0.40389131115E+02  0.00000000000E+00 0.  1.
</event>
<event>
 7    1  0.2577508E-013  0.7246160E+02  0.7816164E-02  0.1226708E+00
        -11   -1    0    0    0    0  0.00000000000E+00  0.00000000000E+00  0.45593999997E+02  0.45594000000E+02  0.51100000000E-03 0.  1.
         11   -1    0    0    0    0 -0.00000000000E+00 -0.00000000000E+00 -0.45593999997E+02  0.45594000000E+02  0.51100000000E-03 0. -1.
    9900012    2    1    2    0    0  0.16574241401E+02 -0.30678310423E+01 -0.81584946154E+01  0.72461598859E+02  0.70000037210E+02 0.  0.
        -12    1    1    2    0    0 -0.16574241401E+02  0.30678310423E+01  0.81584946154E+01  0.18726401141E+02  0.00000000000E+00 0.  1.
         11    1    3    3    0    0 -0.61791170699E+01 -0.18140802842E+02  0.11843270871E+02  0.22528499300E+02  0.51100000000E-03 0. -1.
        -11    1    3    3    0    0 -0.80263267041E+01  0.10010038016E+02  0.86929929687E-01  0.12830835457E+02  0.51100000000E-03 0.  1.
         12    1    3    3    0    0  0.30779685175E+02  0.50629337839E+01 -0.20088695416E+02  0.37102264102E+02  0.00000000000E+00 0. -1.
</event>
<event>
 7    1  0.2577508E-013  0.7246154E+02  0.7816164E-02  0.1226708E+00
        -11   -1    0    0    0    0  0.00000000000E+00  0.00000000000E+00  0.45593999997E+02  0.45594000000E+02  0.51100000000E-03 0. -1.
         11   -1    0    0    0    0 -0.00000000000E+00 -0.00000000000E+00 -0.45593999997E+02  0.45594000000E+02  0.51100000000E-03 0.  1.
    9900012    2    1    2    0    0  0.11332918783E+02 -0.57959609662E+01  0.13735063689E+02  0.72461543149E+02  0.69999964638E+02 0.  0.
        -12    1    1    2    0    0 -0.11332918783E+02  0.57959609662E+01 -0.13735063689E+02  0.18726456851E+02  0.00000000000E+00 0.  1.
         11    1    3    3    0    0  0.28114907226E+01  0.59987143530E+01 -0.70433327638E+01  0.96694152178E+01  0.51100000000E-03 0. -1.
        -11    1    3    3    0    0  0.29503643037E+02  0.49725019981E+01  0.19343030641E+01  0.29982199005E+02  0.51100000000E-03 0.  1.
         12    1    3    3    0    0 -0.20982214976E+02 -0.16767177317E+02  0.18844093388E+02  0.32809928926E+02  0.00000000000E+00 0. -1.
</event>
<event>
 7    1  0.2577508E-013  0.7246181E+02  0.7816164E-02  0.1226707E+00
        -11   -1    0    0    0    0  0.00000000000E+00  0.00000000000E+00  0.45593999997E+02  0.45594000000E+02  0.51100000000E-03 0.  1.
         11   -1    0    0    0    0 -0.00000000000E+00 -0.00000000000E+00 -0.45593999997E+02  0.45594000000E+02  0.51100000000E-03 0. -1.
    9900012    2    1    2    0    0 -0.17201619821E+01  0.14088999698E+02 -0.12215205703E+02  0.72461811918E+02  0.70000314759E+02 0.  0.
        -12    1    1    2    0    0  0.17201619821E+01 -0.14088999698E+02  0.12215205703E+02  0.18726188082E+02  0.00000000000E+00 0.  1.
         11    1    3    3    0    0  0.17991894316E+01  0.23441737078E+02 -0.26913864718E+02  0.35736651132E+02  0.51100000000E-03 0. -1.
        -11    1    3    3    0    0  0.38154991947E+01  0.11115756276E+02  0.68859387058E+01  0.13621094810E+02  0.51100000000E-03 0.  1.
        -12    1    3    3    0    0 -0.73348506083E+01 -0.20468493656E+02  0.78127203094E+01  0.23104065976E+02  0.00000000000E+00 0.  1.
</event>
<event>
 7    1  0.2577508E-013  0.7246167E+02  0.7816164E-02  0.1226708E+00
        -11   -1    0    0    0    0  0.00000000000E+00  0.00000000000E+00  0.45593999997E+02  0.45594000000E+02  0.51100000000E-03 0.  1.
         11   -1    0    0    0    0 -0.00000000000E+00 -0.00000000000E+00 -0.45593999997E+02  0.45594000000E+02  0.51100000000E-03 0. -1.
    9900012    2    1    2    0    0  0.55259566954E+01 -0.17838516615E+02  0.13880047146E+01  0.72461670154E+02  0.70000130086E+02 0.  0.
        -12    1    1    2    0    0 -0.55259566954E+01  0.17838516615E+02 -0.13880047146E+01  0.18726329846E+02  0.00000000000E+00 0.  1.
         11    1    3    3    0    0 -0.14256655016E+01 -0.53581681904E+01 -0.22018316115E+02  0.22705698256E+02  0.51100000000E-03 0. -1.
        -11    1    3    3    0    0 -0.12992139047E+02 -0.49694388695E+01 -0.45208314659E+01  0.14626309073E+02  0.51100000000E-03 0.  1.
        -12    1    3    3    0    0  0.19943761244E+02 -0.75109095547E+01  0.27927152296E+02  0.35129662825E+02  0.00000000000E+00 0.  1.
</event>
<event>
 7    1  0.2577508E-013  0.7246158E+02  0.7816164E-02  0.1226708E+00
        -11   -1    0    0    0    0  0.00000000000E+00  0.00000000000E+00  0.45593999997E+02  0.45594000000E+02  0.51100000000E-03 0. -1.
         11   -1    0    0    0    0 -0.00000000000E+00 -0.00000000000E+00 -0.45593999997E+02  0.45594000000E+02  0.51100000000E-03 0.  1.
    9900012    2    1    2    0    0 -0.14670853578E+02 -0.79362699083E+01 -0.85123725362E+01  0.72461579868E+02  0.70000012472E+02 0.  0.
        -12    1    1    2    0    0  0.14670853578E+02  0.79362699083E+01  0.85123725362E+01  0.18726420132E+02  0.00000000000E+00 0.  1.
         11    1    3    3    0    0 -0.63436368626E+01  0.87931529032E+01 -0.12585234206E+02  0.16611724381E+02  0.51100000000E-03 0.  1.
        -11    1    3    3    0    0  0.21748418249E+01 -0.19342506379E+02  0.25360623138E+02  0.31969105339E+02  0.51100000000E-03 0. -1.
         12    1    3    3    0    0 -0.10502058540E+02  0.26130835670E+01 -0.21287761468E+02  0.23880750148E+02  0.00000000000E+00 0. -1.
</event>
<event>
 7    1  0.2577508E-013  0.7246162E+02  0.7816164E-02  0.1226708E+00
        -11   -1    0    0    0    0  0.00000000000E+00  0.00000000000E+00  0.45593999997E+02  0.45594000000E+02  0.51100000000E-03 0. -1.
         11   -1    0    0    0    0 -0.00000000000E+00 -0.00000000000E+00 -0.45593999997E+02  0.45594000000E+02  0.51100000000E-03 0.  1.
    9900012    2    1    2    0    0  0.58258253066E+01  0.12294846261E+02 -0.12867550039E+02  0.72461619434E+02  0.70000064014E+02 0.  0.
        -12    1    1    2    0    0 -0.58258253066E+01 -0.12294846261E+02  0.12867550039E+02  0.18726380566E+02  0.00000000000E+00 0.  1.
         11    1    3    3    0    0  0.88701444280E+01 -0.21906641371E+02  0.47272111911E+01  0.24102425692E+02  0.51100000000E-03 0. -1.
        -11    1    3    3    0    0 -0.37874799236E+01 -0.37870879197E+01 -0.71878034144E+01  0.89639030153E+01  0.51100000000E-03 0.  1.
        -12    1    3    3    0    0  0.74316080226E+00  0.37988575552E+02 -0.10406957816E+02  0.39395290727E+02  0.00000000000E+00 0.  1.
</event>
<event>
 7    1  0.2577508E-013  0.7246155E+02  0.7816164E-02  0.1226708E+00
        -11   -1    0    0    0    0  0.00000000000E+00  0.00000000000E+00  0.45593999997E+02  0.45594000000E+02  0.51100000000E-03 0.  1.
         11   -1    0    0    0    0 -0.00000000000E+00 -0.00000000000E+00 -0.45593999997E+02  0.45594000000E+02  0.51100000000E-03 0. -1.
    9900012    2    1    2    0    0  0.10107568848E+02  0.49809104390E+01 -0.14956854530E+02  0.72461550410E+02  0.69999974097E+02 0.  0.
        -12    1    1    2    0    0 -0.10107568848E+02 -0.49809104390E+01  0.14956854530E+02  0.18726449590E+02  0.00000000000E+00 0.  1.
         11    1    3    3    0    0  0.89919276091E+01 -0.55626811111E+01 -0.29222375485E+02  0.31076444657E+02  0.51100000000E-03 0. -1.
        -11    1    3    3    0    0  0.16009400937E+02  0.13587899366E+01 -0.35058999332E+01  0.16445016359E+02  0.51100000000E-03 0.  1.
         12    1    3    3    0    0 -0.14893759698E+02  0.91848016135E+01  0.17771420888E+02  0.24940089394E+02  0.00000000000E+00 0. -1.
</event>
<event>
 7    1  0.2577508E-013  0.7246158E+02  0.7816164E-02  0.1226708E+00
        -11   -1    0    0    0    0  0.00000000000E+00  0.00000000000E+00  0.45593999997E+02  0.45594000000E+02  0.51100000000E-03 0.  1.
         11   -1    0    0    0    0 -0.00000000000E+00 -0.00000000000E+00 -0.45593999997E+02  0.45594000000E+02  0.51100000000E-03 0. -1.
    9900012    2    1    2    0    0 -0.18524642689E+02  0.25477470426E+01  0.10126050647E+01  0.72461580941E+02  0.70000013870E+02 0.  0.
        -12    1    1    2    0    0  0.18524642689E+02 -0.25477470426E+01 -0.10126050647E+01  0.18726419059E+02  0.00000000000E+00 0.  1.
         11    1    3    3    0    0 -0.14617532349E+02 -0.73558169995E+01 -0.13086917068E+01  0.16416241042E+02  0.51100000000E-03 0. -1.
        -11    1    3    3    0    0 -0.26693409125E+02 -0.48962402182E+01  0.79880872691E+01  0.28289941631E+02  0.51100000000E-03 0.  1.
        -12    1    3    3    0    0  0.22786298786E+02  0.14799804260E+02 -0.56667904976E+01  0.27755398268E+02  0.00000000000E+00 0.  1.
</event>
<event>
 7    1  0.2577508E-013  0.7246150E+02  0.7816164E-02  0.1226708E+00
        -11   -1    0    0    0    0  0.00000000000E+00  0.00000000000E+00  0.45593999997E+02  0.45594000000E+02  0.51100000000E-03 0.  1.
         11   -1    0    0    0    0 -0.00000000000E+00 -0.00000000000E+00 -0.45593999997E+02  0.45594000000E+02  0.51100000000E-03 0. -1.
    9900012    2    1    2    0    0 -0.14503170008E+02 -0.11305735387E+02 -0.35383701754E+01  0.72461503893E+02  0.69999913500E+02 0.  0.
        -12    1    1    2    0    0  0.14503170008E+02  0.11305735387E+02  0.35383701754E+01  0.18726496107E+02  0.00000000000E+00 0.  1.
         11    1    3    3    0    0  0.12793980272E+02 -0.11490457920E+02 -0.12534324162E+02  0.21279704812E+02  0.51100000000E-03 0. -1.
        -11    1    3    3    0    0  0.94222312352E+00 -0.82754370215E-01 -0.14447567670E+02  0.14478495935E+02  0.51100000000E-03 0.  1.
        -12    1    3    3    0    0 -0.28239373404E+02  0.26747690308E+00  0.23443521657E+02  0.36703303146E+02  0.00000000000E+00 0.  1.
</event>
<event>
 7    1  0.2577508E-013  0.7246145E+02  0.7816164E-02  0.1226708E+00
        -11   -1    0    0    0    0  0.00000000000E+00  0.00000000000E+00  0.45593999997E+02  0.45594000000E+02  0.51100000000E-03 0.  1.
         11   -1    0    0    0    0 -0.00000000000E+00 -0.00000000000E+00 -0.45593999997E+02  0.45594000000E+02  0.51100000000E-03 0. -1.
    9900012    2    1    2    0    0  0.14338761832E+02  0.36419781086E+01  0.11481271860E+02  0.72461449358E+02  0.69999842458E+02 0.  0.
        -12    1    1    2    0    0 -0.14338761832E+02 -0.36419781086E+01 -0.11481271860E+02  0.18726550642E+02  0.00000000000E+00 0.  1.
         11    1    3    3    0    0 -0.99256591492E+01 -0.24976322851E+02 -0.63734648592E+01  0.27621666627E+02  0.51100000000E-03 0. -1.
        -11    1    3    3    0    0  0.51744404223E+01 -0.13723529975E+01  0.40080105933E+01  0.66874760269E+01  0.51100000000E-03 0.  1.
        -12    1    3    3    0    0  0.19089980559E+02  0.29990653957E+02  0.13846726126E+02  0.38152306705E+02  0.00000000000E+00 0.  1.
</event>
<event>
 7    1  0.2577508E-013  0.7246155E+02  0.7816164E-02  0.1226708E+00
        -11   -1    0    0    0    0  0.00000000000E+00  0.00000000000E+00  0.45593999997E+02  0.45594000000E+02  0.51100000000E-03 0.  1.
         11   -1    0    0    0    0 -0.00000000000E+00 -0.00000000000E+00 -0.45593999997E+02  0.45594000000E+02  0.51100000000E-03 0. -1.
    9900012    2    1    2    0    0 -0.67062038454E+01 -0.15020801316E+02 -0.89488625700E+01  0.72461553901E+02  0.69999978645E+02 0.  0.
        -12    1    1    2    0    0  0.67062038454E+01  0.15020801316E+02  0.89488625700E+01  0.18726446099E+02  0.00000000000E+00 0.  1.
         11    1    3    3    0    0 -0.70135265320E+01 -0.54868466297E+00  0.32463164056E+01  0.77478500077E+01  0.51100000000E-03 0. -1.
        -11    1    3    3    0    0 -0.17533847712E+02 -0.10259013794E+02  0.19461388273E+02  0.28132344612E+02  0.51100000000E-03 0.  1.
         12    1    3    3    0    0  0.17841170399E+02 -0.42131028593E+01 -0.31656567248E+02  0.36581359281E+02  0.00000000000E+00 0. -1.
</event>
<event>
 7    1  0.2577508E-013  0.7246163E+02  0.7816164E-02  0.1226708E+00
        -11   -1    0    0    0    0  0.00000000000E+00  0.00000000000E+00  0.45593999997E+02  0.45594000000E+02  0.51100000000E-03 0.  1.
         11   -1    0    0    0    0 -0.00000000000E+00 -0.00000000000E+00 -0.45593999997E+02  0.45594000000E+02  0.51100000000E-03 0. -1.
    9900012    2    1    2    0    0 -0.28431626145E+01 -0.47492264829E+01 -0.17889607432E+02  0.72461634097E+02  0.70000083115E+02 0.  0.
        -12    1    1    2    0    0  0.28431626145E+01  0.47492264829E+01  0.17889607432E+02  0.18726365903E+02  0.00000000000E+00 0.  1.
         11    1    3    3    0    0 -0.35860503364E+01 -0.21686720175E+02 -0.11064487846E+02  0.24608869957E+02  0.51100000000E-03 0.  1.
        -11    1    3    3    0    0  0.10544351374E+02 -0.12257288908E+02 -0.53141989846E+01  0.17019553120E+02  0.51100000000E-03 0. -1.
         12    1    3    3    0    0 -0.98014636520E+01  0.29194782601E+02 -0.15109206011E+01  0.30833211021E+02  0.00000000000E+00 0. -1.
</event>
<event>
 7    1  0.2577508E-013  0.7246170E+02  0.7816164E-02  0.1226708E+00
        -11   -1    0    0    0    0  0.00000000000E+00  0.00000000000E+00  0.45593999997E+02  0.45594000000E+02  0.51100000000E-03 0. -1.
         11   -1    0    0    0    0 -0.00000000000E+00 -0.00000000000E+00 -0.45593999997E+02  0.45594000000E+02  0.51100000000E-03 0.  1.
    9900012    2    1    2    0    0 -0.18559495819E+02 -0.22264885797E+01  0.11234519806E+01  0.72461700824E+02  0.70000170039E+02 0.  0.
        -12    1    1    2    0    0  0.18559495819E+02  0.22264885797E+01 -0.11234519806E+01  0.18726299176E+02  0.00000000000E+00 0.  1.
         11    1    3    3    0    0 -0.16528048253E+02  0.15698796102E+02 -0.27005751107E+01  0.22954774761E+02  0.51100000000E-03 0. -1.
        -11    1    3    3    0    0 -0.15701841206E+02  0.62124836813E+01 -0.87861015801E+01  0.19035187207E+02  0.51100000000E-03 0.  1.
         12    1    3    3    0    0  0.13670393640E+02 -0.24137768363E+02  0.12610128671E+02  0.30471738857E+02  0.00000000000E+00 0. -1.
</event>
<event>
 7    1  0.2577508E-013  0.7246174E+02  0.7816164E-02  0.1226708E+00
        -11   -1    0    0    0    0  0.00000000000E+00  0.00000000000E+00  0.45593999997E+02  0.45594000000E+02  0.51100000000E-03 0. -1.
         11   -1    0    0    0    0 -0.00000000000E+00 -0.00000000000E+00 -0.45593999997E+02  0.45594000000E+02  0.51100000000E-03 0.  1.
    9900012    2    1    2    0    0  0.11061412893E+02 -0.28367681479E+01  0.14841523914E+02  0.72461736603E+02  0.70000216648E+02 0.  0.
        -12    1    1    2    0    0 -0.11061412893E+02  0.28367681479E+01 -0.14841523914E+02  0.18726263397E+02  0.00000000000E+00 0.  1.
         11    1    3    3    0    0 -0.12199213423E+02 -0.26177567860E+02  0.55434357020E+01  0.29407746375E+02  0.51100000000E-03 0. -1.
        -11    1    3    3    0    0 -0.55542483438E+01  0.14856692538E+01  0.15940459237E+00  0.57517212973E+01  0.51100000000E-03 0.  1.
        -12    1    3    3    0    0  0.28814874660E+02  0.21855130459E+02  0.91386836199E+01  0.37302268930E+02  0.00000000000E+00 0.  1.
</event>
<event>
 7    1  0.2577508E-013  0.7246155E+02  0.7816164E-02  0.1226708E+00
        -11   -1    0    0    0    0  0.00000000000E+00  0.00000000000E+00  0.45593999997E+02  0.45594000000E+02  0.51100000000E-03 0.  1.
         11   -1    0    0    0    0 -0.00000000000E+00 -0.00000000000E+00 -0.45593999997E+02  0.45594000000E+02  0.51100000000E-03 0. -1.
    9900012    2    1    2    0    0 -0.13689700008E+01  0.11313438313E+01 -0.18642050976E+02  0.72461545922E+02  0.69999968251E+02 0.  0.
        -12    1    1    2    0    0  0.13689700008E+01 -0.11313438313E+01  0.18642050976E+02  0.18726454078E+02  0.00000000000E+00 0.  1.
         11    1    3    3    0    0  0.10723990548E+02 -0.40575157450E+01 -0.28811164467E+01  0.11822361842E+02  0.51100000000E-03 0.  1.
        -11    1    3    3    0    0  0.12656598208E+02  0.21824831854E+02  0.30009139435E+01  0.25407051156E+02  0.51100000000E-03 0. -1.
        -12    1    3    3    0    0 -0.24749558756E+02 -0.16635972278E+02 -0.18761848473E+02  0.35232132924E+02  0.00000000000E+00 0.  1.
</event>
<event>
 7    1  0.2577508E-013  0.7246150E+02  0.7816164E-02  0.1226708E+00
        -11   -1    0    0    0    0  0.00000000000E+00  0.00000000000E+00  0.45593999997E+02  0.45594000000E+02  0.51100000000E-03 0. -1.
         11   -1    0    0    0    0 -0.00000000000E+00 -0.00000000000E+00 -0.45593999997E+02  0.45594000000E+02  0.51100000000E-03 0.  1.
    9900012    2    1    2    0    0  0.76935660632E+01 -0.13976909656E+02  0.98049463922E+01  0.72461496428E+02  0.69999903775E+02 0.  0.
        -12    1    1    2    0    0 -0.76935660632E+01  0.13976909656E+02 -0.98049463922E+01  0.18726503572E+02  0.00000000000E+00 0.  1.
         11    1    3    3    0    0  0.64857330637E+01 -0.41238140970E+01  0.59620866479E+01  0.97271297687E+01  0.51100000000E-03 0. -1.
        -11    1    3    3    0    0 -0.70405406664E+01 -0.29206086014E+02  0.20100681386E+02  0.36146950985E+02  0.51100000000E-03 0.  1.
         12    1    3    3    0    0  0.82483736658E+01  0.19352990455E+02 -0.16257821641E+02  0.26587415674E+02  0.00000000000E+00 0. -1.
</event>
<event>
 7    1  0.2577508E-013  0.7246158E+02  0.7816164E-02  0.1226708E+00
        -11   -1    0    0    0    0  0.00000000000E+00  0.00000000000E+00  0.45593999997E+02  0.45594000000E+02  0.51100000000E-03 0.  1.
         11   -1    0    0    0    0 -0.00000000000E+00 -0.00000000000E+00 -0.45593999997E+02  0.45594000000E+02  0.51100000000E-03 0. -1.
    9900012    2    1    2    0    0 -0.80938739725E+01  0.10573239081E+02 -0.13167185817E+02  0.72461575812E+02  0.70000007187E+02 0.  0.
        -12    1    1    2    0    0  0.80938739725E+01 -0.10573239081E+02  0.13167185817E+02  0.18726424188E+02  0.00000000000E+00 0.  1.
         11    1    3    3    0    0 -0.56575938522E+01  0.18485917121E+02 -0.74939759652E+01  0.20733961899E+02  0.51100000000E-03 0. -1.
        -11    1    3    3    0    0  0.12578073977E+02  0.16527368654E+02 -0.94102481124E+01  0.22801636551E+02  0.51100000000E-03 0.  1.
         12    1    3    3    0    0 -0.15014354098E+02 -0.24440046694E+02  0.37370382608E+01  0.28925977362E+02  0.00000000000E+00 0. -1.
</event>
<event>
 7    1  0.2577508E-013  0.7246164E+02  0.7816164E-02  0.1226708E+00
        -11   -1    0    0    0    0  0.00000000000E+00  0.00000000000E+00  0.45593999997E+02  0.45594000000E+02  0.51100000000E-03 0. -1.
         11   -1    0    0    0    0 -0.00000000000E+00 -0.00000000000E+00 -0.45593999997E+02  0.45594000000E+02  0.51100000000E-03 0.  1.
    9900012    2    1    2    0    0  0.60355039948E+01 -0.80811108767E+01  0.15777985895E+02  0.72461641562E+02  0.70000092839E+02 0.  0.
        -12    1    1    2    0    0 -0.60355039948E+01  0.80811108767E+01 -0.15777985895E+02  0.18726358438E+02  0.00000000000E+00 0.  1.
         11    1    3    3    0    0  0.27930728905E+02  0.57704038874E+01  0.22861855303E+02  0.36552532147E+02  0.51100000000E-03 0. -1.
        -11    1    3    3    0    0  0.45199423976E+01 -0.62107669682E+01 -0.10011646575E+01  0.77463434305E+01  0.51100000000E-03 0.  1.
        -12    1    3    3    0    0 -0.26415167308E+02 -0.76407477959E+01 -0.60827047506E+01  0.28162765984E+02  0.00000000000E+00 0.  1.
</event>
<event>
 7    1  0.2577508E-013  0.7246162E+02  0.7816164E-02  0.1226708E+00
        -11   -1    0    0    0    0  0.00000000000E+00  0.00000000000E+00  0.45593999997E+02  0.45594000000E+02  0.51100000000E-03 0. -1.
         11   -1    0    0    0    0 -0.00000000000E+00 -0.00000000000E+00 -0.45593999997E+02  0.45594000000E+02  0.51100000000E-03 0.  1.
    9900012    2    1    2    0    0 -0.40826036056E+01 -0.63261758646E+01  0.17146109101E+02  0.72461622599E+02  0.70000068136E+02 0.  0.
        -12    1    1    2    0    0  0.40826036056E+01  0.63261758646E+01 -0.17146109101E+02  0.18726377401E+02  0.00000000000E+00 0.  1.
         11    1    3    3    0    0 -0.10610903167E+02 -0.35578436896E+01  0.64700912351E+01  0.12927165141E+02  0.51100000000E-03 0. -1.
        -11    1    3    3    0    0 -0.25652859195E+02 -0.37904320538E+01  0.11476528243E+01  0.25956765348E+02  0.51100000000E-03 0.  1.
         12    1    3    3    0    0  0.32181158756E+02  0.10220998788E+01  0.95283650419E+01  0.33577692110E+02  0.00000000000E+00 0. -1.
</event>
<event>
 7    1  0.2577508E-013  0.7246157E+02  0.7816164E-02  0.1226708E+00
        -11   -1    0    0    0    0  0.00000000000E+00  0.00000000000E+00  0.45593999997E+02  0.45594000000E+02  0.51100000000E-03 0.  1.
         11   -1    0    0    0    0 -0.00000000000E+00 -0.00000000000E+00 -0.45593999997E+02  0.45594000000E+02  0.51100000000E-03 0. -1.
    9900012    2    1    2    0    0  0.37506910937E+01  0.12186194852E+02 -0.13715246465E+02  0.72461574440E+02  0.70000005401E+02 0.  0.
        -12    1    1    2    0    0 -0.37506910937E+01 -0.12186194852E+02  0.13715246465E+02  0.18726425560E+02  0.00000000000E+00 0.  1.
         11    1    3    3    0    0 -0.11547428906E+02  0.18723576931E+01 -0.20353376900E+02  0.23475706361E+02  0.51100000000E-03 0. -1.
        -11    1    3    3    0    0 -0.91491463906E+01  0.13503114887E+02 -0.10101649114E+02  0.19185523355E+02  0.51100000000E-03 0.  1.
        -12    1    3    3    0    0  0.24447266390E+02 -0.31892777279E+01  0.16739779549E+02  0.29800344725E+02  0.00000000000E+00 0.  1.
</event>
<event>
 7    1  0.2577508E-013  0.7246161E+02  0.7816164E-02  0.1226708E+00
        -11   -1    0    0    0    0  0.00000000000E+00  0.00000000000E+00  0.45593999997E+02  0.45594000000E+02  0.51100000000E-03 0. -1.
         11   -1    0    0    0    0 -0.00000000000E+00 -0.00000000000E+00 -0.45593999997E+02  0.45594000000E+02  0.51100000000E-03 0.  1.
    9900012    2    1    2    0    0 -0.30125700263E+01  0.25804648817E+01  0.18301452627E+02  0.72461613658E+02  0.70000056489E+02 0.  0.
        -12    1    1    2    0    0  0.30125700263E+01 -0.25804648817E+01 -0.18301452627E+02  0.18726386342E+02  0.00000000000E+00 0.  1.
         11    1    3    3    0    0  0.74286889523E+01  0.11518292885E+02  0.36668027203E+01  0.14188091238E+02  0.51100000000E-03 0. -1.
        -11    1    3    3    0    0  0.17808513300E+02  0.11252396265E+02  0.97356424919E+01  0.23206514229E+02  0.51100000000E-03 0.  1.
         12    1    3    3    0    0 -0.28249772279E+02 -0.20190224268E+02  0.48990074147E+01  0.35067008191E+02  0.00000000000E+00 0. -1.
</event>
<event>
 7    1  0.2577508E-013  0.7246164E+02  0.7816164E-02  0.1226708E+00
        -11   -1    0    0    0    0  0.00000000000E+00  0.00000000000E+00  0.45593999997E+02  0.45594000000E+02  0.51100000000E-03 0.  1.
         11   -1    0    0    0    0 -0.00000000000E+00 -0.00000000000E+00 -0.45593999997E+02  0.45594000000E+02  0.51100000000E-03 0. -1.
    9900012    2    1    2    0    0  0.43977820840E+01 -0.12832724996E+02 -0.12909577033E+02  0.72461641644E+02  0.70000092947E+02 0.  0.
        -12    1    1    2    0    0 -0.43977820840E+01  0.12832724996E+02  0.12909577033E+02  0.18726358356E+02  0.00000000000E+00 0.  1.
         11    1    3    3    0    0 -0.12095339219E+02  0.12530528389E+02 -0.19137085039E+02  0.25875459350E+02  0.51100000000E-03 0. -1.
        -11    1    3    3    0    0  0.10599691930E+02  0.86900885046E-01 -0.11013670243E+02  0.15286005144E+02  0.51100000000E-03 0.  1.
        -12    1    3    3    0    0  0.58934293726E+01 -0.25450154271E+02  0.17241178250E+02  0.31300177150E+02  0.00000000000E+00 0.  1.
</event>
<event>
 7    1  0.2577508E-013  0.7246124E+02  0.7816164E-02  0.1226709E+00
        -11   -1    0    0    0    0  0.00000000000E+00  0.00000000000E+00  0.45593999997E+02  0.45594000000E+02  0.51100000000E-03 0.  1.
         11   -1    0    0    0    0 -0.00000000000E+00 -0.00000000000E+00 -0.45593999997E+02  0.45594000000E+02  0.51100000000E-03 0. -1.
    9900012    2    1    2    0    0  0.27981778924E+01 -0.18330533126E+02 -0.26179150088E+01  0.72461235112E+02  0.69999563361E+02 0.  0.
        -12    1    1    2    0    0 -0.27981778924E+01  0.18330533126E+02  0.26179150088E+01  0.18726764888E+02  0.00000000000E+00 0.  1.
         11    1    3    3    0    0  0.11591959250E+02  0.11940984045E+00 -0.19201717370E+02  0.22429750961E+02  0.51100000000E-03 0. -1.
        -11    1    3    3    0    0  0.29915497386E+01 -0.30321945929E+02  0.10339910202E+02  0.32175821948E+02  0.51100000000E-03 0.  1.
        -12    1    3    3    0    0 -0.11785331096E+02  0.11872002963E+02  0.62438921590E+01  0.17855662203E+02  0.00000000000E+00 0.  1.
</event>
<event>
 7    1  0.2577508E-013  0.7246156E+02  0.7816164E-02  0.1226708E+00
        -11   -1    0    0    0    0  0.00000000000E+00  0.00000000000E+00  0.45593999997E+02  0.45594000000E+02  0.51100000000E-03 0.  1.
         11   -1    0    0    0    0 -0.00000000000E+00 -0.00000000000E+00 -0.45593999997E+02  0.45594000000E+02  0.51100000000E-03 0. -1.
    9900012    2    1    2    0    0 -0.18387003345E+02  0.25438068808E+01  0.24751858865E+01  0.72461564391E+02  0.69999992310E+02 0.  0.
        -12    1    1    2    0    0  0.18387003345E+02 -0.25438068808E+01 -0.24751858865E+01  0.18726435609E+02  0.00000000000E+00 0.  1.
         11    1    3    3    0    0 -0.44622885714E+01 -0.81664679659E+01 -0.91017269974E+01  0.13017090801E+02  0.51100000000E-03 0. -1.
        -11    1    3    3    0    0 -0.18062367342E+02 -0.19994591254E+02  0.20155462413E+01  0.27020274246E+02  0.51100000000E-03 0.  1.
         12    1    3    3    0    0  0.41376525686E+01  0.30704866101E+02  0.95613666426E+01  0.32424199344E+02  0.00000000000E+00 0. -1.
</event>
<event>
 7    1  0.2577508E-013  0.7246142E+02  0.7816164E-02  0.1226708E+00
        -11   -1    0    0    0    0  0.00000000000E+00  0.00000000000E+00  0.45593999997E+02  0.45594000000E+02  0.51100000000E-03 0.  1.
         11   -1    0    0    0    0 -0.00000000000E+00 -0.00000000000E+00 -0.45593999997E+02  0.45594000000E+02  0.51100000000E-03 0. -1.
    9900012    2    1    2    0    0  0.12585162181E+01  0.13445941828E+02  0.12973334790E+02  0.72461424491E+02  0.69999810064E+02 0.  0.
        -12    1    1    2    0    0 -0.12585162181E+01 -0.13445941828E+02 -0.12973334790E+02  0.18726575509E+02  0.00000000000E+00 0.  1.
         11    1    3    3    0    0 -0.66325181691E+01 -0.60264483616E+00 -0.90597134782E+01  0.11244193463E+02  0.51100000000E-03 0. -1.
        -11    1    3    3    0    0  0.14517627670E+02  0.26357197412E+02 -0.52650207565E+01  0.30548057425E+02  0.51100000000E-03 0.  1.
        -12    1    3    3    0    0 -0.66265932830E+01 -0.12308610748E+02  0.27298069024E+02  0.30669173604E+02  0.00000000000E+00 0.  1.
</event>
<event>
 7    1  0.2577508E-013  0.7246149E+02  0.7816164E-02  0.1226708E+00
        -11   -1    0    0    0    0  0.00000000000E+00  0.00000000000E+00  0.45593999997E+02  0.45594000000E+02  0.51100000000E-03 0. -1.
         11   -1    0    0    0    0 -0.00000000000E+00 -0.00000000000E+00 -0.45593999997E+02  0.45594000000E+02  0.51100000000E-03 0.  1.
    9900012    2    1    2    0    0  0.26923713422E+01  0.16609027307E+02  0.82203203698E+01  0.72461486215E+02  0.69999890472E+02 0.  0.
        -12    1    1    2    0    0 -0.26923713422E+01 -0.16609027307E+02 -0.82203203698E+01  0.18726513785E+02  0.00000000000E+00 0.  1.
         11    1    3    3    0    0  0.19042181483E+02  0.61527584370E+01 -0.14633538744E+02  0.24791159079E+02  0.51100000000E-03 0. -1.
        -11    1    3    3    0    0  0.91509864231E+01  0.31201645036E+01 -0.34901253572E+01  0.10278956869E+02  0.51100000000E-03 0.  1.
        -12    1    3    3    0    0 -0.25500796564E+02  0.73361043668E+01  0.26343984471E+02  0.37391370268E+02  0.00000000000E+00 0.  1.
</event>
<event>
 7    1  0.2577508E-013  0.7246139E+02  0.7816164E-02  0.1226708E+00
        -11   -1    0    0    0    0  0.00000000000E+00  0.00000000000E+00  0.45593999997E+02  0.45594000000E+02  0.51100000000E-03 0.  1.
         11   -1    0    0    0    0 -0.00000000000E+00 -0.00000000000E+00 -0.45593999997E+02  0.45594000000E+02  0.51100000000E-03 0. -1.
    9900012    2    1    2    0    0 -0.17110608047E+02 -0.68789200340E+01 -0.32547696840E+01  0.72461388607E+02  0.69999763318E+02 0.  0.
        -12    1    1    2    0    0  0.17110608047E+02  0.68789200340E+01  0.32547696840E+01  0.18726611393E+02  0.00000000000E+00 0.  1.
         11    1    3    3    0    0  0.68920917456E+01  0.17944164284E+02  0.17788064929E+02  0.26189868550E+02  0.51100000000E-03 0. -1.
        -11    1    3    3    0    0 -0.17281876294E+02 -0.15504228280E+02 -0.10849373638E+01  0.23242664050E+02  0.51100000000E-03 0.  1.
        -12    1    3    3    0    0 -0.67208234983E+01 -0.93188560384E+01 -0.19957897249E+02  0.23028856007E+02  0.00000000000E+00 0.  1.
</event>
<event>
 7    1  0.2577508E-013  0.7246159E+02  0.7816164E-02  0.1226708E+00
        -11   -1    0    0    0    0  0.00000000000E+00  0.00000000000E+00  0.45593999997E+02  0.45594000000E+02  0.51100000000E-03 0. -1.
         11   -1    0    0    0    0 -0.00000000000E+00 -0.00000000000E+00 -0.45593999997E+02  0.45594000000E+02  0.51100000000E-03 0.  1.
    9900012    2    1    2    0    0  0.15231570797E+02  0.95119220340E+01  0.53104705057E+01  0.72461587992E+02  0.70000023054E+02 0.  0.
        -12    1    1    2    0    0 -0.15231570797E+02 -0.95119220340E+01 -0.53104705057E+01  0.18726412008E+02  0.00000000000E+00 0.  1.
         11    1    3    3    0    0  0.79570285282E+01 -0.12896675044E+02  0.16766312879E+02  0.22599729600E+02  0.51100000000E-03 0. -1.
        -11    1    3    3    0    0 -0.53036037850E+01  0.20279807788E+02  0.11270656162E+02  0.23799716545E+02  0.51100000000E-03 0.  1.
        -12    1    3    3    0    0  0.12578146053E+02  0.21287892895E+01 -0.22726498535E+02  0.26062141847E+02  0.00000000000E+00 0.  1.
</event>
<event>
 7    1  0.2577508E-013  0.7246157E+02  0.7816164E-02  0.1226708E+00
        -11   -1    0    0    0    0  0.00000000000E+00  0.00000000000E+00  0.45593999997E+02  0.45594000000E+02  0.51100000000E-03 0.  1.
         11   -1    0    0    0    0 -0.00000000000E+00 -0.00000000000E+00 -0.45593999997E+02  0.45594000000E+02  0.51100000000E-03 0. -1.
    9900012    2    1    2    0    0  0.83832959599E+01  0.91905829697E+01 -0.13997593533E+02  0.72461572386E+02  0.70000002725E+02 0.  0.
        -12    1    1    2    0    0 -0.83832959599E+01 -0.91905829697E+01  0.13997593533E+02  0.18726427614E+02  0.00000000000E+00 0.  1.
         11    1    3    3    0    0 -0.17422221995E+02  0.92176000077E+01 -0.55243562018E+01  0.20469892058E+02  0.51100000000E-03 0. -1.
        -11    1    3    3    0    0 -0.16268506443E+01 -0.17372488598E+02 -0.87823850842E+01  0.19534080248E+02  0.51100000000E-03 0.  1.
        -12    1    3    3    0    0  0.27432368599E+02  0.17345471560E+02  0.30914775318E+00  0.32457600080E+02  0.00000000000E+00 0.  1.
</event>
<event>
 7    1  0.2577508E-013  0.7246156E+02  0.7816164E-02  0.1226708E+00
        -11   -1    0    0    0    0  0.00000000000E+00  0.00000000000E+00  0.45593999997E+02  0.45594000000E+02  0.51100000000E-03 0.  1.
         11   -1    0    0    0    0 -0.00000000000E+00 -0.00000000000E+00 -0.45593999997E+02  0.45594000000E+02  0.51100000000E-03 0. -1.
    9900012    2    1    2    0    0 -0.87973550602E+01  0.14510670698E+02  0.79200059584E+01  0.72461561082E+02  0.69999988000E+02 0.  0.
        -12    1    1    2    0    0  0.87973550602E+01 -0.14510670698E+02 -0.79200059584E+01  0.18726438918E+02  0.00000000000E+00 0.  1.
         11    1    3    3    0    0  0.11261848823E+02 -0.88842862188E+01 -0.13737936400E+02  0.19861789378E+02  0.51100000000E-03 0. -1.
        -11    1    3    3    0    0  0.79269492273E+01  0.14401256672E+02  0.61828637556E+00  0.16450379816E+02  0.51100000000E-03 0.  1.
        -12    1    3    3    0    0 -0.27986153111E+02  0.89937002443E+01  0.21039655982E+02  0.36149391888E+02  0.00000000000E+00 0.  1.
</event>
<event>
 7    1  0.2577508E-013  0.7246161E+02  0.7816164E-02  0.1226708E+00
        -11   -1    0    0    0    0  0.00000000000E+00  0.00000000000E+00  0.45593999997E+02  0.45594000000E+02  0.51100000000E-03 0.  1.
         11   -1    0    0    0    0 -0.00000000000E+00 -0.00000000000E+00 -0.45593999997E+02  0.45594000000E+02  0.51100000000E-03 0. -1.
    9900012    2    1    2    0    0  0.46595522207E+01 -0.45555829697E+01 -0.17555991679E+02  0.72461612016E+02  0.70000054350E+02 0.  0.
        -12    1    1    2    0    0 -0.46595522207E+01  0.45555829697E+01  0.17555991679E+02  0.18726387984E+02  0.00000000000E+00 0.  1.
         11    1    3    3    0    0  0.36717427228E+01  0.63405975718E+01 -0.10563816874E+02  0.12856091918E+02  0.51100000000E-03 0. -1.
        -11    1    3    3    0    0 -0.18220253662E+02  0.14246939036E+02  0.81569869770E+01  0.24525279860E+02  0.51100000000E-03 0.  1.
         12    1    3    3    0    0  0.19208063160E+02 -0.25143119577E+02 -0.15149161782E+02  0.35080240238E+02  0.00000000000E+00 0. -1.
</event>
<event>
 7    1  0.2577508E-013  0.7246153E+02  0.7816164E-02  0.1226708E+00
        -11   -1    0    0    0    0  0.00000000000E+00  0.00000000000E+00  0.45593999997E+02  0.45594000000E+02  0.51100000000E-03 0. -1.
         11   -1    0    0    0    0 -0.00000000000E+00 -0.00000000000E+00 -0.45593999997E+02  0.45594000000E+02  0.51100000000E-03 0.  1.
    9900012    2    1    2    0    0 -0.77801340401E+01 -0.11208630517E+02  0.12826404322E+02  0.72461533927E+02  0.69999952625E+02 0.  0.
        -12    1    1    2    0    0  0.77801340401E+01  0.11208630517E+02 -0.12826404322E+02  0.18726466073E+02  0.00000000000E+00 0.  1.
         11    1    3    3    0    0  0.48828039561E+01  0.85139911589E+01 -0.14455715840E+02  0.17472765684E+02  0.51100000000E-03 0. -1.
        -11    1    3    3    0    0  0.12486312803E+02  0.40516479240E+01  0.79697986613E+01  0.15357133498E+02  0.51100000000E-03 0.  1.
         12    1    3    3    0    0 -0.25149250800E+02 -0.23774269600E+02  0.19312321501E+02  0.39631634745E+02  0.00000000000E+00 0. -1.
</event>
<event>
 7    1  0.2577508E-013  0.7246153E+02  0.7816164E-02  0.1226708E+00
        -11   -1    0    0    0    0  0.00000000000E+00  0.00000000000E+00  0.45593999997E+02  0.45594000000E+02  0.51100000000E-03 0.  1.
         11   -1    0    0    0    0 -0.00000000000E+00 -0.00000000000E+00 -0.45593999997E+02  0.45594000000E+02  0.51100000000E-03 0. -1.
    9900012    2    1    2    0    0  0.32922389600E+01 -0.18387821067E+02 -0.13152091914E+01  0.72461532736E+02  0.69999951074E+02 0.  0.
        -12    1    1    2    0    0 -0.32922389600E+01  0.18387821067E+02  0.13152091914E+01  0.18726467264E+02  0.00000000000E+00 0.  1.
         11    1    3    3    0    0  0.43823327730E+01 -0.93164195885E+01  0.67900478392E+01  0.12333096302E+02  0.51100000000E-03 0. -1.
        -11    1    3    3    0    0 -0.11157170606E+02 -0.94919416075E+01  0.23090955751E+02  0.27345413677E+02  0.51100000000E-03 0.  1.
         12    1    3    3    0    0  0.10067076793E+02  0.42054012899E+00 -0.31196212782E+02  0.32783022757E+02  0.00000000000E+00 0. -1.
</event>
<event>
 7    1  0.2577508E-013  0.7246150E+02  0.7816164E-02  0.1226708E+00
        -11   -1    0    0    0    0  0.00000000000E+00  0.00000000000E+00  0.45593999997E+02  0.45594000000E+02  0.51100000000E-03 0. -1.
         11   -1    0    0    0    0 -0.00000000000E+00 -0.00000000000E+00 -0.45593999997E+02  0.45594000000E+02  0.51100000000E-03 0.  1.
    9900012    2    1    2    0    0  0.74052889984E+01 -0.10166474140E+02  0.13873940113E+02  0.72461502307E+02  0.69999911434E+02 0.  0.
        -12    1    1    2    0    0 -0.74052889984E+01  0.10166474140E+02 -0.13873940113E+02  0.18726497693E+02  0.00000000000E+00 0.  1.
         11    1    3    3    0    0  0.67331889079E+01 -0.79401928854E+01  0.34504289273E+02  0.36040650305E+02  0.51100000000E-03 0. -1.
        -11    1    3    3    0    0  0.74029309009E+01  0.57496423284E+01  0.35980271584E+01  0.10040297432E+02  0.51100000000E-03 0.  1.
        -12    1    3    3    0    0 -0.67308308105E+01 -0.79759235833E+01 -0.24228376318E+02  0.26380554570E+02  0.00000000000E+00 0.  1.
</event>
<event>
 7    1  0.2577508E-013  0.7246160E+02  0.7816164E-02  0.1226708E+00
        -11   -1    0    0    0    0  0.00000000000E+00  0.00000000000E+00  0.45593999997E+02  0.45594000000E+02  0.51100000000E-03 0.  1.
         11   -1    0    0    0    0 -0.00000000000E+00 -0.00000000000E+00 -0.45593999997E+02  0.45594000000E+02  0.51100000000E-03 0. -1.
    9900012    2    1    2    0    0 -0.11917310894E+02 -0.18141934864E+01 -0.14330547187E+02  0.72461596725E+02  0.70000034431E+02 0.  0.
        -12    1    1    2    0    0  0.11917310894E+02  0.18141934864E+01  0.14330547187E+02  0.18726403275E+02  0.00000000000E+00 0.  1.
         11    1    3    3    0    0  0.68017740875E+01  0.16284963279E+02  0.10288402182E+02  0.20428298496E+02  0.51100000000E-03 0. -1.
        -11    1    3    3    0    0  0.58077939982E+01 -0.80718819330E+01  0.59424472888E+01  0.11584404564E+02  0.51100000000E-03 0.  1.
         12    1    3    3    0    0 -0.24526878979E+02 -0.10027274832E+02 -0.30561396658E+02  0.40448893665E+02  0.00000000000E+00 0. -1.
</event>
<event>
 7    1  0.2577508E-013  0.7246161E+02  0.7816164E-02  0.1226708E+00
        -11   -1    0    0    0    0  0.00000000000E+00  0.00000000000E+00  0.45593999997E+02  0.45594000000E+02  0.51100000000E-03 0.  1.
         11   -1    0    0    0    0 -0.00000000000E+00 -0.00000000000E+00 -0.45593999997E+02  0.45594000000E+02  0.51100000000E-03 0. -1.
    9900012    2    1    2    0    0 -0.16004219110E+02 -0.97075537619E+01 -0.55335204625E+00  0.72461606117E+02  0.70000046666E+02 0.  0.
        -12    1    1    2    0    0  0.16004219110E+02  0.97075537619E+01  0.55335204625E+00  0.18726393883E+02  0.00000000000E+00 0.  1.
         11    1    3    3    0    0 -0.18314703176E+02 -0.27349509070E+01  0.84190006113E+01  0.20341776728E+02  0.51100000000E-03 0. -1.
        -11    1    3    3    0    0  0.47271790052E+01 -0.28370227634E+02  0.78292843319E-01  0.28761470188E+02  0.51100000000E-03 0.  1.
         12    1    3    3    0    0 -0.24166949389E+01  0.21397624779E+02 -0.90506455009E+01  0.23358359201E+02  0.00000000000E+00 0. -1.
</event>
<event>
 7    1  0.2577508E-013  0.7246150E+02  0.7816164E-02  0.1226708E+00
        -11   -1    0    0    0    0  0.00000000000E+00  0.00000000000E+00  0.45593999997E+02  0.45594000000E+02  0.51100000000E-03 0. -1.
         11   -1    0    0    0    0 -0.00000000000E+00 -0.00000000000E+00 -0.45593999997E+02  0.45594000000E+02  0.51100000000E-03 0.  1.
    9900012    2    1    2    0    0  0.41598499139E+01  0.13544647232E+02  0.12244173925E+02  0.72461504998E+02  0.69999914940E+02 0.  0.
        -12    1    1    2    0    0 -0.41598499139E+01 -0.13544647232E+02 -0.12244173925E+02  0.18726495002E+02  0.00000000000E+00 0.  1.
         11    1    3    3    0    0 -0.16035979848E+02 -0.13970019402E+02  0.14670952331E+02  0.25837007070E+02  0.51100000000E-03 0. -1.
        -11    1    3    3    0    0 -0.65954000375E+01  0.72732075235E+01  0.66291185202E+01  0.11846689915E+02  0.51100000000E-03 0.  1.
        -12    1    3    3    0    0  0.26791229799E+02  0.20241459111E+02 -0.90558969265E+01  0.34777808013E+02  0.00000000000E+00 0.  1.
</event>
<event>
 7    1  0.2577508E-013  0.7246145E+02  0.7816164E-02  0.1226708E+00
        -11   -1    0    0    0    0  0.00000000000E+00  0.00000000000E+00  0.45593999997E+02  0.45594000000E+02  0.51100000000E-03 0.  1.
         11   -1    0    0    0    0 -0.00000000000E+00 -0.00000000000E+00 -0.45593999997E+02  0.45594000000E+02  0.51100000000E-03 0. -1.
    9900012    2    1    2    0    0  0.67145599930E+00 -0.64510077779E+01 -0.17567508123E+02  0.72461449432E+02  0.69999842555E+02 0.  0.
        -12    1    1    2    0    0 -0.67145599930E+00  0.64510077779E+01  0.17567508123E+02  0.18726550568E+02  0.00000000000E+00 0.  1.
         11    1    3    3    0    0  0.20734573133E+01  0.20255277568E+01  0.17721969062E+01  0.33974505234E+01  0.51100000000E-03 0. -1.
        -11    1    3    3    0    0  0.29263028559E+00  0.16956811178E+02  0.17432600343E+02  0.24321073841E+02  0.51100000000E-03 0.  1.
         12    1    3    3    0    0 -0.16946315995E+01 -0.25433346713E+02 -0.36772305372E+02  0.44742925068E+02  0.00000000000E+00 0. -1.
</event>
<event>
 7    1  0.2577508E-013  0.7246156E+02  0.7816164E-02  0.1226708E+00
        -11   -1    0    0    0    0  0.00000000000E+00  0.00000000000E+00  0.45593999997E+02  0.45594000000E+02  0.51100000000E-03 0.  1.
         11   -1    0    0    0    0 -0.00000000000E+00 -0.00000000000E+00 -0.45593999997E+02  0.45594000000E+02  0.51100000000E-03 0. -1.
    9900012    2    1    2    0    0  0.11859104296E+01 -0.12596014978E+02 -0.13806285808E+02  0.72461561346E+02  0.69999988343E+02 0.  0.
        -12    1    1    2    0    0 -0.11859104296E+01  0.12596014978E+02  0.13806285808E+02  0.18726438654E+02  0.00000000000E+00 0.  1.
         11    1    3    3    0    0 -0.18264648653E+02  0.14609270009E+02 -0.14214981583E+01  0.23431790753E+02  0.51100000000E-03 0. -1.
        -11    1    3    3    0    0  0.38398769124E+01  0.77764578067E+01 -0.50214982120E+01  0.10021646336E+02  0.51100000000E-03 0.  1.
        -12    1    3    3    0    0  0.15610682171E+02 -0.34981742794E+02 -0.73632894372E+01  0.39008124257E+02  0.00000000000E+00 0.  1.
</event>
<event>
 7    1  0.2577508E-013  0.7246158E+02  0.7816164E-02  0.1226708E+00
        -11   -1    0    0    0    0  0.00000000000E+00  0.00000000000E+00  0.45593999997E+02  0.45594000000E+02  0.51100000000E-03 0.  1.
         11   -1    0    0    0    0 -0.00000000000E+00 -0.00000000000E+00 -0.45593999997E+02  0.45594000000E+02  0.51100000000E-03 0. -1.
    9900012    2    1    2    0    0  0.65377843349E+01  0.11993149991E+02 -0.12810170584E+02  0.72461581733E+02  0.70000014901E+02 0.  0.
        -12    1    1    2    0    0 -0.65377843349E+01 -0.11993149991E+02  0.12810170584E+02  0.18726418267E+02  0.00000000000E+00 0.  1.
         11    1    3    3    0    0  0.12350424595E+02  0.30924872216E+02  0.76631823886E+01  0.34170236666E+02  0.51100000000E-03 0. -1.
        -11    1    3    3    0    0 -0.33542806277E+01  0.21347927819E+01  0.41807871152E+01  0.57695337692E+01  0.51100000000E-03 0.  1.
         12    1    3    3    0    0 -0.24583596326E+01 -0.21066515006E+02 -0.24654140088E+02  0.32521811297E+02  0.00000000000E+00 0. -1.
</event>
<event>
 7    1  0.2577508E-013  0.7246120E+02  0.7816164E-02  0.1226709E+00
        -11   -1    0    0    0    0  0.00000000000E+00  0.00000000000E+00  0.45593999997E+02  0.45594000000E+02  0.51100000000E-03 0.  1.
         11   -1    0    0    0    0 -0.00000000000E+00 -0.00000000000E+00 -0.45593999997E+02  0.45594000000E+02  0.51100000000E-03 0. -1.
    9900012    2    1    2    0    0  0.41578836021E+01  0.15269872427E+02 -0.10011800570E+02  0.72461196999E+02  0.69999513711E+02 0.  0.
        -12    1    1    2    0    0 -0.41578836021E+01 -0.15269872427E+02  0.10011800570E+02  0.18726803001E+02  0.00000000000E+00 0.  1.
         11    1    3    3    0    0 -0.13379202288E+02 -0.10664276332E+02 -0.18677037618E+02  0.25329065873E+02  0.51100000000E-03 0. -1.
        -11    1    3    3    0    0 -0.71857049733E+01  0.54289935130E+00 -0.53989064118E+01  0.90042926637E+01  0.51100000000E-03 0.  1.
         12    1    3    3    0    0  0.24722790863E+02  0.25391249408E+02  0.14064143460E+02  0.38127838462E+02  0.00000000000E+00 0. -1.
</event>
<event>
 7    1  0.2577508E-013  0.7246158E+02  0.7816164E-02  0.1226708E+00
        -11   -1    0    0    0    0  0.00000000000E+00  0.00000000000E+00  0.45593999997E+02  0.45594000000E+02  0.51100000000E-03 0. -1.
         11   -1    0    0    0    0 -0.00000000000E+00 -0.00000000000E+00 -0.45593999997E+02  0.45594000000E+02  0.51100000000E-03 0.  1.
    9900012    2    1    2    0    0  0.12985710848E+02  0.47040643096E+01  0.12646023173E+02  0.72461579911E+02  0.70000012528E+02 0.  0.
        -12    1    1    2    0    0 -0.12985710848E+02 -0.47040643096E+01 -0.12646023173E+02  0.18726420089E+02  0.00000000000E+00 0.  1.
         11    1    3    3    0    0  0.13568786186E+02 -0.28229191221E+02  0.19443587859E+02  0.36865326591E+02  0.51100000000E-03 0. -1.
        -11    1    3    3    0    0  0.22471214216E+01  0.22199762473E+01  0.17222447380E+01  0.35977738145E+01  0.51100000000E-03 0.  1.
        -12    1    3    3    0    0 -0.28301967590E+01  0.30713279283E+02 -0.85198094247E+01  0.31998479506E+02  0.00000000000E+00 0.  1.
</event>
<event>
 7    1  0.2577508E-013  0.7246155E+02  0.7816164E-02  0.1226708E+00
        -11   -1    0    0    0    0  0.00000000000E+00  0.00000000000E+00  0.45593999997E+02  0.45594000000E+02  0.51100000000E-03 0.  1.
         11   -1    0    0    0    0 -0.00000000000E+00 -0.00000000000E+00 -0.45593999997E+02  0.45594000000E+02  0.51100000000E-03 0. -1.
    9900012    2    1    2    0    0  0.14605846329E+02  0.11714824343E+02  0.33469227238E+00  0.72461551450E+02  0.69999975452E+02 0.  0.
        -12    1    1    2    0    0 -0.14605846329E+02 -0.11714824343E+02 -0.33469227238E+00  0.18726448550E+02  0.00000000000E+00 0.  1.
         11    1    3    3    0    0 -0.15074720147E+02 -0.14106257485E+02 -0.18339661793E+02  0.27614794635E+02  0.51100000000E-03 0.  1.
        -11    1    3    3    0    0  0.81244516891E+01  0.14004713051E+02  0.72865297736E+01  0.17754780181E+02  0.51100000000E-03 0. -1.
        -12    1    3    3    0    0  0.21556114787E+02  0.11816368778E+02  0.11387824292E+02  0.27091976634E+02  0.00000000000E+00 0.  1.
</event>
<event>
 7    1  0.2577508E-013  0.7246133E+02  0.7816164E-02  0.1226709E+00
        -11   -1    0    0    0    0  0.00000000000E+00  0.00000000000E+00  0.45593999997E+02  0.45594000000E+02  0.51100000000E-03 0.  1.
         11   -1    0    0    0    0 -0.00000000000E+00 -0.00000000000E+00 -0.45593999997E+02  0.45594000000E+02  0.51100000000E-03 0. -1.
    9900012    2    1    2    0    0  0.16151063668E+02  0.94379608527E+01 -0.86968209716E+00  0.72461326254E+02  0.69999682091E+02 0.  0.
        -12    1    1    2    0    0 -0.16151063668E+02 -0.94379608527E+01  0.86968209716E+00  0.18726673746E+02  0.00000000000E+00 0.  1.
         11    1    3    3    0    0 -0.76891999574E+01 -0.28068411567E+01  0.41137091490E+01  0.91610456001E+01  0.51100000000E-03 0. -1.
        -11    1    3    3    0    0 -0.13007019377E+02 -0.12678240518E+02  0.19900819121E+01  0.18272404384E+02  0.51100000000E-03 0.  1.
         12    1    3    3    0    0  0.36847283002E+02  0.24923042527E+02 -0.69734731583E+01  0.45027876269E+02  0.00000000000E+00 0. -1.
</event>
<event>
 7    1  0.2577508E-013  0.7246157E+02  0.7816164E-02  0.1226708E+00
        -11   -1    0    0    0    0  0.00000000000E+00  0.00000000000E+00  0.45593999997E+02  0.45594000000E+02  0.51100000000E-03 0.  1.
         11   -1    0    0    0    0 -0.00000000000E+00 -0.00000000000E+00 -0.45593999997E+02  0.45594000000E+02  0.51100000000E-03 0. -1.
    9900012    2    1    2    0    0  0.22671168434E+01  0.12378265618E+02 -0.13867874348E+02  0.72461569016E+02  0.69999998334E+02 0.  0.
        -12    1    1    2    0    0 -0.22671168434E+01 -0.12378265618E+02  0.13867874348E+02  0.18726430984E+02  0.00000000000E+00 0.  1.
         11    1    3    3    0    0 -0.12776065624E+02  0.29980590308E+02 -0.15073028615E+02  0.35906264633E+02  0.51100000000E-03 0. -1.
        -11    1    3    3    0    0 -0.17882366907E+01  0.53078307811E+01  0.54462458503E+01  0.78123269379E+01  0.51100000000E-03 0.  1.
        -12    1    3    3    0    0  0.16831419158E+02 -0.22910155471E+02 -0.42410915828E+01  0.28742977444E+02  0.00000000000E+00 0.  1.
</event>
<event>
 7    1  0.2577508E-013  0.7246155E+02  0.7816164E-02  0.1226708E+00
        -11   -1    0    0    0    0  0.00000000000E+00  0.00000000000E+00  0.45593999997E+02  0.45594000000E+02  0.51100000000E-03 0. -1.
         11   -1    0    0    0    0 -0.00000000000E+00 -0.00000000000E+00 -0.45593999997E+02  0.45594000000E+02  0.51100000000E-03 0.  1.
    9900012    2    1    2    0    0 -0.19344553764E+01  0.23061264085E+01  0.18482954095E+02  0.72461550025E+02  0.69999973595E+02 0.  0.
        -12    1    1    2    0    0  0.19344553764E+01 -0.23061264085E+01 -0.18482954095E+02  0.18726449975E+02  0.00000000000E+00 0.  1.
         11    1    3    3    0    0  0.10112981746E+02 -0.23559752977E+01  0.66457165404E+00  0.10405031242E+02  0.51100000000E-03 0. -1.
        -11    1    3    3    0    0  0.92949383652E+01 -0.21449606029E+02  0.15912069960E+02  0.28278533355E+02  0.51100000000E-03 0.  1.
         12    1    3    3    0    0 -0.21342375488E+02  0.26111707735E+02  0.19063124805E+01  0.33777985428E+02  0.00000000000E+00 0. -1.
</event>
<event>
 7    1  0.2577508E-013  0.7246145E+02  0.7816164E-02  0.1226708E+00
        -11   -1    0    0    0    0  0.00000000000E+00  0.00000000000E+00  0.45593999997E+02  0.45594000000E+02  0.51100000000E-03 0. -1.
         11   -1    0    0    0    0 -0.00000000000E+00 -0.00000000000E+00 -0.45593999997E+02  0.45594000000E+02  0.51100000000E-03 0.  1.
    9900012    2    1    2    0    0  0.12315975507E+02 -0.72763934752E+00  0.14087968617E+02  0.72461452762E+02  0.69999846892E+02 0.  0.
        -12    1    1    2    0    0 -0.12315975507E+02  0.72763934752E+00 -0.14087968617E+02  0.18726547238E+02  0.00000000000E+00 0.  1.
         11    1    3    3    0    0 -0.90426068335E+01 -0.13122230048E+02 -0.69989105790E+01  0.17405355766E+02  0.51100000000E-03 0. -1.
        -11    1    3    3    0    0 -0.13087353011E+02 -0.24496595221E+01  0.46349588364E+01  0.14098314945E+02  0.51100000000E-03 0.  1.
         12    1    3    3    0    0  0.34445935352E+02  0.14844250223E+02  0.16451920360E+02  0.40957782050E+02  0.00000000000E+00 0. -1.
</event>
<event>
 7    1  0.2577508E-013  0.7246135E+02  0.7816164E-02  0.1226709E+00
        -11   -1    0    0    0    0  0.00000000000E+00  0.00000000000E+00  0.45593999997E+02  0.45594000000E+02  0.51100000000E-03 0. -1.
         11   -1    0    0    0    0 -0.00000000000E+00 -0.00000000000E+00 -0.45593999997E+02  0.45594000000E+02  0.51100000000E-03 0.  1.
    9900012    2    1    2    0    0  0.17494608822E+02  0.62029599704E+01 -0.24798202997E+01  0.72461346296E+02  0.69999708200E+02 0.  0.
        -12    1    1    2    0    0 -0.17494608822E+02 -0.62029599704E+01  0.24798202997E+01  0.18726653704E+02  0.00000000000E+00 0.  1.
         11    1    3    3    0    0  0.51467702974E+01  0.15871093670E+02  0.92191992821E+00  0.16710200339E+02  0.51100000000E-03 0. -1.
        -11    1    3    3    0    0  0.27319663205E+01  0.18728635818E+02  0.11628686826E+02  0.22213774941E+02  0.51100000000E-03 0.  1.
        -12    1    3    3    0    0  0.96158722037E+01 -0.28396769517E+02 -0.15030427054E+02  0.33537371016E+02  0.00000000000E+00 0.  1.
</event>
<event>
 7    1  0.2577508E-013  0.7246156E+02  0.7816164E-02  0.1226708E+00
        -11   -1    0    0    0    0  0.00000000000E+00  0.00000000000E+00  0.45593999997E+02  0.45594000000E+02  0.51100000000E-03 0.  1.
         11   -1    0    0    0    0 -0.00000000000E+00 -0.00000000000E+00 -0.45593999997E+02  0.45594000000E+02  0.51100000000E-03 0. -1.
    9900012    2    1    2    0    0 -0.12895708511E+02  0.77100436913E+01 -0.11177459576E+02  0.72461556817E+02  0.69999982443E+02 0.  0.
        -12    1    1    2    0    0  0.12895708511E+02 -0.77100436913E+01  0.11177459576E+02  0.18726443183E+02  0.00000000000E+00 0.  1.
         11    1    3    3    0    0  0.68140086772E+01 -0.79887945620E+01 -0.11027851752E+02  0.15227116185E+02  0.51100000000E-03 0. -1.
        -11    1    3    3    0    0 -0.12802283139E+02 -0.48573961176E+01 -0.22343078819E+02  0.26205074356E+02  0.51100000000E-03 0.  1.
        -12    1    3    3    0    0 -0.69074340493E+01  0.20556234371E+02  0.22193470995E+02  0.31029366276E+02  0.00000000000E+00 0.  1.
</event>
<event>
 7    1  0.2577508E-013  0.7246178E+02  0.7816164E-02  0.1226707E+00
        -11   -1    0    0    0    0  0.00000000000E+00  0.00000000000E+00  0.45593999997E+02  0.45594000000E+02  0.51100000000E-03 0.  1.
         11   -1    0    0    0    0 -0.00000000000E+00 -0.00000000000E+00 -0.45593999997E+02  0.45594000000E+02  0.51100000000E-03 0. -1.
    9900012    2    1    2    0    0  0.56193240450E+01  0.22104288691E+01 -0.17725931836E+02  0.72461776196E+02  0.70000268224E+02 0.  0.
        -12    1    1    2    0    0 -0.56193240450E+01 -0.22104288691E+01  0.17725931836E+02  0.18726223804E+02  0.00000000000E+00 0.  1.
         11    1    3    3    0    0  0.12489310637E+02 -0.16694689388E+02 -0.50084963255E+01  0.21442494484E+02  0.51100000000E-03 0. -1.
        -11    1    3    3    0    0  0.48064149998E+01  0.20978809847E+02 -0.25642777933E+02  0.33477815762E+02  0.51100000000E-03 0.  1.
        -12    1    3    3    0    0 -0.11676401592E+02 -0.20736915899E+01  0.12925342423E+02  0.17541465951E+02  0.00000000000E+00 0.  1.
</event>
<event>
 7    1  0.2577508E-013  0.7246157E+02  0.7816164E-02  0.1226708E+00
        -11   -1    0    0    0    0  0.00000000000E+00  0.00000000000E+00  0.45593999997E+02  0.45594000000E+02  0.51100000000E-03 0.  1.
         11   -1    0    0    0    0 -0.00000000000E+00 -0.00000000000E+00 -0.45593999997E+02  0.45594000000E+02  0.51100000000E-03 0. -1.
    9900012    2    1    2    0    0 -0.46010688312E+01 -0.18133472754E+02 -0.82844969669E+00  0.72461574890E+02  0.70000005986E+02 0.  0.
        -12    1    1    2    0    0  0.46010688312E+01  0.18133472754E+02  0.82844969669E+00  0.18726425110E+02  0.00000000000E+00 0.  1.
         11    1    3    3    0    0 -0.38230459668E+01 -0.25348658511E+02  0.13551496826E+02  0.28996779739E+02  0.51100000000E-03 0. -1.
        -11    1    3    3    0    0  0.16251852046E+02 -0.75968614181E+01 -0.30030649422E+01  0.18189375955E+02  0.51100000000E-03 0.  1.
         12    1    3    3    0    0 -0.17029874911E+02  0.14812047175E+02 -0.11376881580E+02  0.25275419195E+02  0.00000000000E+00 0. -1.
</event>
<event>
 7    1  0.2577508E-013  0.7246151E+02  0.7816164E-02  0.1226708E+00
        -11   -1    0    0    0    0  0.00000000000E+00  0.00000000000E+00  0.45593999997E+02  0.45594000000E+02  0.51100000000E-03 0.  1.
         11   -1    0    0    0    0 -0.00000000000E+00 -0.00000000000E+00 -0.45593999997E+02  0.45594000000E+02  0.51100000000E-03 0. -1.
    9900012    2    1    2    0    0 -0.12656142811E+02  0.11308117629E+02 -0.79139170024E+01  0.72461506535E+02  0.69999916942E+02 0.  0.
        -12    1    1    2    0    0  0.12656142811E+02 -0.11308117629E+02  0.79139170024E+01  0.18726493465E+02  0.00000000000E+00 0.  1.
         11    1    3    3    0    0 -0.82890380933E+00 -0.14707171957E+02 -0.64863475415E+00  0.14744786055E+02  0.51100000000E-03 0. -1.
        -11    1    3    3    0    0 -0.25706027979E+02 -0.18123020693E+01  0.56195635481E-01  0.25769894673E+02  0.51100000000E-03 0.  1.
         12    1    3    3    0    0  0.13878788977E+02  0.27827591655E+02 -0.73214778837E+01  0.31946825808E+02  0.00000000000E+00 0. -1.
</event>
<event>
 7    1  0.2577508E-013  0.7246157E+02  0.7816164E-02  0.1226708E+00
        -11   -1    0    0    0    0  0.00000000000E+00  0.00000000000E+00  0.45593999997E+02  0.45594000000E+02  0.51100000000E-03 0. -1.
         11   -1    0    0    0    0 -0.00000000000E+00 -0.00000000000E+00 -0.45593999997E+02  0.45594000000E+02  0.51100000000E-03 0.  1.
    9900012    2    1    2    0    0  0.48065815783E+01 -0.37902609766E+01  0.17697740486E+02  0.72461566195E+02  0.69999994660E+02 0.  0.
        -12    1    1    2    0    0 -0.48065815783E+01  0.37902609766E+01 -0.17697740486E+02  0.18726433805E+02  0.00000000000E+00 0.  1.
         11    1    3    3    0    0 -0.44613504833E+01  0.31466745015E+02  0.57618986651E+01  0.32299522698E+02  0.51100000000E-03 0. -1.
        -11    1    3    3    0    0  0.61388674116E+01 -0.15062111669E+02  0.11133175160E+02  0.19710415785E+02  0.51100000000E-03 0.  1.
        -12    1    3    3    0    0  0.31290646501E+01 -0.20194894323E+02  0.80266666059E+00  0.20451627712E+02  0.00000000000E+00 0.  1.
</event>
<event>
 7    1  0.2577508E-013  0.7246158E+02  0.7816164E-02  0.1226708E+00
        -11   -1    0    0    0    0  0.00000000000E+00  0.00000000000E+00  0.45593999997E+02  0.45594000000E+02  0.51100000000E-03 0.  1.
         11   -1    0    0    0    0 -0.00000000000E+00 -0.00000000000E+00 -0.45593999997E+02  0.45594000000E+02  0.51100000000E-03 0. -1.
    9900012    2    1    2    0    0  0.96019495139E+01  0.16079317748E+01 -0.15996749733E+02  0.72461577996E+02  0.70000010033E+02 0.  0.
        -12    1    1    2    0    0 -0.96019495139E+01 -0.16079317748E+01  0.15996749733E+02  0.18726422004E+02  0.00000000000E+00 0.  1.
         11    1    3    3    0    0 -0.11167565581E+02  0.13542427181E+02 -0.19848797833E+02  0.26496917380E+02  0.51100000000E-03 0. -1.
        -11    1    3    3    0    0 -0.97061560673E+01 -0.11799238871E+02  0.28988646359E+00  0.15281215199E+02  0.51100000000E-03 0.  1.
         12    1    3    3    0    0  0.30475671162E+02 -0.13525653512E+00  0.35621616368E+01  0.30683445417E+02  0.00000000000E+00 0. -1.
</event>
<event>
 7    1  0.2577508E-013  0.7246159E+02  0.7816164E-02  0.1226708E+00
        -11   -1    0    0    0    0  0.00000000000E+00  0.00000000000E+00  0.45593999997E+02  0.45594000000E+02  0.51100000000E-03 0. -1.
         11   -1    0    0    0    0 -0.00000000000E+00 -0.00000000000E+00 -0.45593999997E+02  0.45594000000E+02  0.51100000000E-03 0.  1.
    9900012    2    1    2    0    0 -0.39407721631E+01 -0.17731181022E+02  0.45556556410E+01  0.72461589132E+02  0.70000024540E+02 0.  0.
        -12    1    1    2    0    0  0.39407721631E+01  0.17731181022E+02 -0.45556556410E+01  0.18726410868E+02  0.00000000000E+00 0.  1.
         11    1    3    3    0    0 -0.21989060910E+01 -0.19211273493E+01  0.10613344609E+02  0.11007679244E+02  0.51100000000E-03 0. -1.
        -11    1    3    3    0    0 -0.13646405334E+02 -0.19409787121E+02  0.20993265260E+02  0.31680931191E+02  0.51100000000E-03 0.  1.
        -12    1    3    3    0    0  0.11904539262E+02  0.35997334483E+01 -0.27050954227E+02  0.29772978698E+02  0.00000000000E+00 0.  1.
</event>
<event>
 7    1  0.2577508E-013  0.7246156E+02  0.7816164E-02  0.1226708E+00
        -11   -1    0    0    0    0  0.00000000000E+00  0.00000000000E+00  0.45593999997E+02  0.45594000000E+02  0.51100000000E-03 0.  1.
         11   -1    0    0    0    0 -0.00000000000E+00 -0.00000000000E+00 -0.45593999997E+02  0.45594000000E+02  0.51100000000E-03 0. -1.
    9900012    2    1    2    0    0  0.50976414705E+01 -0.18018978792E+02 -0.10006457593E+00  0.72461559916E+02  0.69999986481E+02 0.  0.
        -12    1    1    2    0    0 -0.50976414705E+01  0.18018978792E+02  0.10006457593E+00  0.18726440084E+02  0.00000000000E+00 0.  1.
         11    1    3    3    0    0 -0.14908478120E+01 -0.23116425963E+02  0.18698401167E+02  0.29769480730E+02  0.51100000000E-03 0. -1.
        -11    1    3    3    0    0 -0.37967367021E+01  0.10424605901E+02  0.78558854050E+01  0.13594210295E+02  0.51100000000E-03 0.  1.
         12    1    3    3    0    0  0.10385225985E+02 -0.53271587310E+01 -0.26654351148E+02  0.29097868891E+02  0.00000000000E+00 0. -1.
</event>
<event>
 7    1  0.2577508E-013  0.7246171E+02  0.7816164E-02  0.1226708E+00
        -11   -1    0    0    0    0  0.00000000000E+00  0.00000000000E+00  0.45593999997E+02  0.45594000000E+02  0.51100000000E-03 0.  1.
         11   -1    0    0    0    0 -0.00000000000E+00 -0.00000000000E+00 -0.45593999997E+02  0.45594000000E+02  0.51100000000E-03 0. -1.
    9900012    2    1    2    0    0 -0.11364190679E+02  0.11977147093E+02 -0.88361284030E+01  0.72461707056E+02  0.70000178158E+02 0.  0.
        -12    1    1    2    0    0  0.11364190679E+02 -0.11977147093E+02  0.88361284030E+01  0.18726292944E+02  0.00000000000E+00 0.  1.
         11    1    3    3    0    0  0.34014700141E+01  0.16650946610E-01 -0.41792034236E+01  0.53885078666E+01  0.51100000000E-03 0. -1.
        -11    1    3    3    0    0 -0.36008925628E+02  0.20386612456E+02  0.60792774011E+01  0.41823609436E+02  0.51100000000E-03 0.  1.
         12    1    3    3    0    0  0.21243264935E+02 -0.84261163099E+01 -0.10736202380E+02  0.25249589753E+02  0.00000000000E+00 0. -1.
</event>
<event>
 7    1  0.2577508E-013  0.7246200E+02  0.7816164E-02  0.1226707E+00
        -11   -1    0    0    0    0  0.00000000000E+00  0.00000000000E+00  0.45593999997E+02  0.45594000000E+02  0.51100000000E-03 0.  1.
         11   -1    0    0    0    0 -0.00000000000E+00 -0.00000000000E+00 -0.45593999997E+02  0.45594000000E+02  0.51100000000E-03 0. -1.
    9900012    2    1    2    0    0  0.17232553001E+02 -0.23063205879E+01 -0.69558040090E+01  0.72461996503E+02  0.70000555213E+02 0.  0.
        -12    1    1    2    0    0 -0.17232553001E+02  0.23063205879E+01  0.69558040090E+01  0.18726003497E+02  0.00000000000E+00 0.  1.
         11    1    3    3    0    0  0.16512128274E+01 -0.14917329951E+01  0.10254887333E+01  0.24501833673E+01  0.51100000000E-03 0. -1.
        -11    1    3    3    0    0  0.13358212059E+02 -0.33460693921E+02 -0.94828622372E+01  0.37255664583E+02  0.51100000000E-03 0.  1.
         12    1    3    3    0    0  0.22231281146E+01  0.32646106328E+02  0.15015694949E+01  0.32756148552E+02  0.00000000000E+00 0. -1.
</event>
<event>
 7    1  0.2577508E-013  0.7246153E+02  0.7816164E-02  0.1226708E+00
        -11   -1    0    0    0    0  0.00000000000E+00  0.00000000000E+00  0.45593999997E+02  0.45594000000E+02  0.51100000000E-03 0. -1.
         11   -1    0    0    0    0 -0.00000000000E+00 -0.00000000000E+00 -0.45593999997E+02  0.45594000000E+02  0.51100000000E-03 0.  1.
    9900012    2    1    2    0    0  0.84564035160E+01  0.10176155927E+01  0.16677359153E+02  0.72461531827E+02  0.69999949889E+02 0.  0.
        -12    1    1    2    0    0 -0.84564035160E+01 -0.10176155927E+01 -0.16677359153E+02  0.18726468173E+02  0.00000000000E+00 0.  1.
         11    1    3    3    0    0 -0.22268641146E+01  0.21976462315E+02  0.11980006770E+02  0.25128557104E+02  0.51100000000E-03 0. -1.
        -11    1    3    3    0    0 -0.14496630315E+02 -0.18754382369E+01  0.57833683080E+01  0.15719952555E+02  0.51100000000E-03 0.  1.
         12    1    3    3    0    0  0.25179897946E+02 -0.19083408485E+02 -0.10860159251E+01  0.31613022168E+02  0.00000000000E+00 0. -1.
</event>
<event>
 7    1  0.2577508E-013  0.7246155E+02  0.7816164E-02  0.1226708E+00
        -11   -1    0    0    0    0  0.00000000000E+00  0.00000000000E+00  0.45593999997E+02  0.45594000000E+02  0.51100000000E-03 0.  1.
         11   -1    0    0    0    0 -0.00000000000E+00 -0.00000000000E+00 -0.45593999997E+02  0.45594000000E+02  0.51100000000E-03 0. -1.
    9900012    2    1    2    0    0  0.84836085796E+01  0.13382161864E+02  0.99812922322E+01  0.72461546377E+02  0.69999968843E+02 0.  0.
        -12    1    1    2    0    0 -0.84836085796E+01 -0.13382161864E+02 -0.99812922322E+01  0.18726453623E+02  0.00000000000E+00 0.  1.
         11    1    3    3    0    0  0.11837841568E+01 -0.39129333634E+01 -0.13319999871E+02  0.13933226090E+02  0.51100000000E-03 0. -1.
        -11    1    3    3    0    0 -0.10076216918E+02  0.28806597239E+02  0.52734532472E+01  0.30970300310E+02  0.51100000000E-03 0.  1.
        -12    1    3    3    0    0  0.17376041341E+02 -0.11511502012E+02  0.18027838856E+02  0.27558019977E+02  0.00000000000E+00 0.  1.
</event>
<event>
 7    1  0.2577508E-013  0.7246174E+02  0.7816164E-02  0.1226708E+00
        -11   -1    0    0    0    0  0.00000000000E+00  0.00000000000E+00  0.45593999997E+02  0.45594000000E+02  0.51100000000E-03 0.  1.
         11   -1    0    0    0    0 -0.00000000000E+00 -0.00000000000E+00 -0.45593999997E+02  0.45594000000E+02  0.51100000000E-03 0. -1.
    9900012    2    1    2    0    0 -0.78691775167E+01  0.35212883502E+01 -0.16623754283E+02  0.72461744824E+02  0.70000227357E+02 0.  0.
        -12    1    1    2    0    0  0.78691775167E+01 -0.35212883502E+01  0.16623754283E+02  0.18726255176E+02  0.00000000000E+00 0.  1.
         11    1    3    3    0    0 -0.18594609757E+02 -0.72785569625E+01  0.12429501308E+02  0.23520829205E+02  0.51100000000E-03 0. -1.
        -11    1    3    3    0    0  0.68466385471E+01 -0.82913519855E+01 -0.27347047560E+02  0.29385098054E+02  0.51100000000E-03 0.  1.
        -12    1    3    3    0    0  0.38787936932E+01  0.19091197298E+02 -0.17062080313E+01  0.19555817565E+02  0.00000000000E+00 0.  1.
</event>
<event>
 7    1  0.2577508E-013  0.7246155E+02  0.7816164E-02  0.1226708E+00
        -11   -1    0    0    0    0  0.00000000000E+00  0.00000000000E+00  0.45593999997E+02  0.45594000000E+02  0.51100000000E-03 0. -1.
         11   -1    0    0    0    0 -0.00000000000E+00 -0.00000000000E+00 -0.45593999997E+02  0.45594000000E+02  0.51100000000E-03 0.  1.
    9900012    2    1    2    0    0 -0.14904306887E+02  0.84015083728E+01  0.76128961079E+01  0.72461550954E+02  0.69999974805E+02 0.  0.
        -12    1    1    2    0    0  0.14904306887E+02 -0.84015083728E+01 -0.76128961079E+01  0.18726449046E+02  0.00000000000E+00 0.  1.
         11    1    3    3    0    0 -0.24816436466E+02  0.10906852402E+02  0.17157746674E+02  0.32081197287E+02  0.51100000000E-03 0. -1.
        -11    1    3    3    0    0  0.34005499709E+01 -0.18666414571E+02  0.25869930826E+01  0.19149185532E+02  0.51100000000E-03 0.  1.
         12    1    3    3    0    0  0.65115796075E+01  0.16161070542E+02 -0.12131843649E+02  0.21231168135E+02  0.00000000000E+00 0. -1.
</event>
<event>
 7    1  0.2577508E-013  0.7246155E+02  0.7816164E-02  0.1226708E+00
        -11   -1    0    0    0    0  0.00000000000E+00  0.00000000000E+00  0.45593999997E+02  0.45594000000E+02  0.51100000000E-03 0. -1.
         11   -1    0    0    0    0 -0.00000000000E+00 -0.00000000000E+00 -0.45593999997E+02  0.45594000000E+02  0.51100000000E-03 0.  1.
    9900012    2    1    2    0    0 -0.11530200244E+02  0.14721615117E+02 -0.10042174798E+01  0.72461550201E+02  0.69999973825E+02 0.  0.
        -12    1    1    2    0    0  0.11530200244E+02 -0.14721615117E+02  0.10042174798E+01  0.18726449799E+02  0.00000000000E+00 0.  1.
         11    1    3    3    0    0  0.13022388142E+02  0.16050387610E+02  0.15398397062E+02  0.25774176373E+02  0.51100000000E-03 0. -1.
        -11    1    3    3    0    0  0.16028611139E+01 -0.73221160908E+01  0.76078745883E+01  0.10679995497E+02  0.51100000000E-03 0.  1.
        -12    1    3    3    0    0 -0.26155449500E+02  0.59933435975E+01 -0.24010489130E+02  0.36007378332E+02  0.00000000000E+00 0.  1.
</event>
<event>
 7    1  0.2577508E-013  0.7246154E+02  0.7816164E-02  0.1226708E+00
        -11   -1    0    0    0    0  0.00000000000E+00  0.00000000000E+00  0.45593999997E+02  0.45594000000E+02  0.51100000000E-03 0. -1.
         11   -1    0    0    0    0 -0.00000000000E+00 -0.00000000000E+00 -0.45593999997E+02  0.45594000000E+02  0.51100000000E-03 0.  1.
    9900012    2    1    2    0    0  0.23508828540E+01 -0.10278910000E+02  0.15475706294E+02  0.72461544748E+02  0.69999966721E+02 0.  0.
        -12    1    1    2    0    0 -0.23508828540E+01  0.10278910000E+02 -0.15475706294E+02  0.18726455252E+02  0.00000000000E+00 0.  1.
         11    1    3    3    0    0  0.24308375739E+02  0.23143626357E+01  0.48266450422E+01  0.24890759492E+02  0.51100000000E-03 0. -1.
        -11    1    3    3    0    0 -0.23596325693E+02  0.22784268545E+01 -0.67258669269E+01  0.24641734950E+02  0.51100000000E-03 0.  1.
         12    1    3    3    0    0  0.16388328081E+01 -0.14871699490E+02  0.17374928179E+02  0.22929050306E+02  0.00000000000E+00 0. -1.
</event>
<event>
 7    1  0.2577508E-013  0.7246156E+02  0.7816164E-02  0.1226708E+00
        -11   -1    0    0    0    0  0.00000000000E+00  0.00000000000E+00  0.45593999997E+02  0.45594000000E+02  0.51100000000E-03 0.  1.
         11   -1    0    0    0    0 -0.00000000000E+00 -0.00000000000E+00 -0.45593999997E+02  0.45594000000E+02  0.51100000000E-03 0. -1.
    9900012    2    1    2    0    0 -0.66657094244E+01 -0.14776745230E+01 -0.17437441297E+02  0.72461559785E+02  0.69999986310E+02 0.  0.
        -12    1    1    2    0    0  0.66657094244E+01  0.14776745230E+01  0.17437441297E+02  0.18726440215E+02  0.00000000000E+00 0.  1.
         11    1    3    3    0    0 -0.12505424698E+02 -0.21066280604E+02 -0.26431232885E+02  0.36038644501E+02  0.51100000000E-03 0. -1.
        -11    1    3    3    0    0  0.10241973663E+00 -0.56920529618E+00  0.14692269434E+02  0.14703648046E+02  0.51100000000E-03 0.  1.
        -12    1    3    3    0    0  0.57372955365E+01  0.20157811378E+02 -0.56984778458E+01  0.21719267238E+02  0.00000000000E+00 0.  1.
</event>
<event>
 7    1  0.2577508E-013  0.7246158E+02  0.7816164E-02  0.1226708E+00
        -11   -1    0    0    0    0  0.00000000000E+00  0.00000000000E+00  0.45593999997E+02  0.45594000000E+02  0.51100000000E-03 0.  1.
         11   -1    0    0    0    0 -0.00000000000E+00 -0.00000000000E+00 -0.45593999997E+02  0.45594000000E+02  0.51100000000E-03 0. -1.
    9900012    2    1    2    0    0 -0.18024389495E+02 -0.49963946006E+01  0.91452542507E+00  0.72461576624E+02  0.70000008246E+02 0.  0.
        -12    1    1    2    0    0  0.18024389495E+02  0.49963946006E+01 -0.91452542507E+00  0.18726423376E+02  0.00000000000E+00 0.  1.
         11    1    3    3    0    0 -0.31361672350E+01 -0.87934073456E+01 -0.89443723585E+00  0.93786766605E+01  0.51100000000E-03 0. -1.
        -11    1    3    3    0    0 -0.27719446604E+02 -0.20228870317E+02 -0.58000241930E+01  0.34802517081E+02  0.51100000000E-03 0.  1.
         12    1    3    3    0    0  0.12831224343E+02  0.24025883062E+02  0.76089868539E+01  0.28280382883E+02  0.00000000000E+00 0. -1.
</event>
<event>
 7    1  0.2577508E-013  0.7246150E+02  0.7816164E-02  0.1226708E+00
        -11   -1    0    0    0    0  0.00000000000E+00  0.00000000000E+00  0.45593999997E+02  0.45594000000E+02  0.51100000000E-03 0.  1.
         11   -1    0    0    0    0 -0.00000000000E+00 -0.00000000000E+00 -0.45593999997E+02  0.45594000000E+02  0.51100000000E-03 0. -1.
    9900012    2    1    2    0    0 -0.98336924020E+01  0.42886784799E+01 -0.15348856445E+02  0.72461503704E+02  0.69999913254E+02 0.  0.
        -12    1    1    2    0    0  0.98336924020E+01 -0.42886784799E+01  0.15348856445E+02  0.18726496296E+02  0.00000000000E+00 0.  1.
         11    1    3    3    0    0 -0.59152592956E+01  0.20781864629E+02 -0.18678417740E+02  0.28561503454E+02  0.51100000000E-03 0. -1.
        -11    1    3    3    0    0  0.82556173090E+01  0.14223991128E+01 -0.13895567036E+02  0.16225449760E+02  0.51100000000E-03 0.  1.
        -12    1    3    3    0    0 -0.12174050415E+02 -0.17915585262E+02  0.17225128332E+02  0.27674550490E+02  0.00000000000E+00 0.  1.
</event>
<event>
 7    1  0.2577508E-013  0.7246156E+02  0.7816164E-02  0.1226708E+00
        -11   -1    0    0    0    0  0.00000000000E+00  0.00000000000E+00  0.45593999997E+02  0.45594000000E+02  0.51100000000E-03 0. -1.
         11   -1    0    0    0    0 -0.00000000000E+00 -0.00000000000E+00 -0.45593999997E+02  0.45594000000E+02  0.51100000000E-03 0.  1.
    9900012    2    1    2    0    0 -0.31043734527E+01 -0.51564020949E+01  0.17732853039E+02  0.72461556290E+02  0.69999981757E+02 0.  0.
        -12    1    1    2    0    0  0.31043734527E+01  0.51564020949E+01 -0.17732853039E+02  0.18726443710E+02  0.00000000000E+00 0.  1.
         11    1    3    3    0    0  0.65090813603E+01  0.20382643014E+01  0.72489328366E+01  0.99533757614E+01  0.51100000000E-03 0. -1.
        -11    1    3    3    0    0  0.13180125043E+02 -0.27134039802E+02 -0.83673606024E+00  0.30177341494E+02  0.51100000000E-03 0.  1.
        -12    1    3    3    0    0 -0.22793579856E+02  0.19939373406E+02  0.11320656263E+02  0.32330839035E+02  0.00000000000E+00 0.  1.
</event>
<event>
 7    1  0.2577508E-013  0.7246155E+02  0.7816164E-02  0.1226708E+00
        -11   -1    0    0    0    0  0.00000000000E+00  0.00000000000E+00  0.45593999997E+02  0.45594000000E+02  0.51100000000E-03 0.  1.
         11   -1    0    0    0    0 -0.00000000000E+00 -0.00000000000E+00 -0.45593999997E+02  0.45594000000E+02  0.51100000000E-03 0. -1.
    9900012    2    1    2    0    0 -0.94414107305E+01 -0.13335191022E+02 -0.91494438250E+01  0.72461551365E+02  0.69999975341E+02 0.  0.
        -12    1    1    2    0    0  0.94414107305E+01  0.13335191022E+02  0.91494438250E+01  0.18726448635E+02  0.00000000000E+00 0.  1.
         11    1    3    3    0    0 -0.80343465996E+01  0.27133708847E+01  0.42932433815E+01  0.95050010960E+01  0.51100000000E-03 0. -1.
        -11    1    3    3    0    0 -0.15582240242E+02  0.17800008965E+02  0.60033754265E+00  0.23664465672E+02  0.51100000000E-03 0.  1.
         12    1    3    3    0    0  0.14175176111E+02 -0.33848570872E+02 -0.14043024749E+02  0.39292084597E+02  0.00000000000E+00 0. -1.
</event>
<event>
 7    1  0.2577508E-013  0.7246159E+02  0.7816164E-02  0.1226708E+00
        -11   -1    0    0    0    0  0.00000000000E+00  0.00000000000E+00  0.45593999997E+02  0.45594000000E+02  0.51100000000E-03 0.  1.
         11   -1    0    0    0    0 -0.00000000000E+00 -0.00000000000E+00 -0.45593999997E+02  0.45594000000E+02  0.51100000000E-03 0. -1.
    9900012    2    1    2    0    0 -0.15040977105E+02  0.10184331781E+02 -0.45526743756E+01  0.72461589503E+02  0.70000025023E+02 0.  0.
        -12    1    1    2    0    0  0.15040977105E+02 -0.10184331781E+02  0.45526743756E+01  0.18726410497E+02  0.00000000000E+00 0.  1.
         11    1    3    3    0    0 -0.16883700571E+02  0.98219744840E+01 -0.22883601247E+02  0.30086371234E+02  0.51100000000E-03 0. -1.
        -11    1    3    3    0    0  0.77785078114E+01 -0.15993695794E+02  0.99414704515E+00  0.17812686982E+02  0.51100000000E-03 0.  1.
         12    1    3    3    0    0 -0.59357843462E+01  0.16356053091E+02  0.17336779826E+02  0.24562531288E+02  0.00000000000E+00 0. -1.
</event>
<event>
 7    1  0.2577508E-013  0.7246158E+02  0.7816164E-02  0.1226708E+00
        -11   -1    0    0    0    0  0.00000000000E+00  0.00000000000E+00  0.45593999997E+02  0.45594000000E+02  0.51100000000E-03 0. -1.
         11   -1    0    0    0    0 -0.00000000000E+00 -0.00000000000E+00 -0.45593999997E+02  0.45594000000E+02  0.51100000000E-03 0.  1.
    9900012    2    1    2    0    0  0.44604634073E+01 -0.75646336386E+01  0.16539629816E+02  0.72461580952E+02  0.70000013884E+02 0.  0.
        -12    1    1    2    0    0 -0.44604634073E+01  0.75646336386E+01 -0.16539629816E+02  0.18726419048E+02  0.00000000000E+00 0.  1.
         11    1    3    3    0    0  0.15057219347E+02 -0.19793853244E+01 -0.41392345431E+01  0.15740745967E+02  0.51100000000E-03 0. -1.
        -11    1    3    3    0    0  0.61081602354E+01 -0.14095804935E+02 -0.11696969593E+02  0.19308558624E+02  0.51100000000E-03 0.  1.
        -12    1    3    3    0    0 -0.16704916175E+02  0.85105566208E+01  0.32375833953E+02  0.37412276361E+02  0.00000000000E+00 0.  1.
</event>
<event>
 7    1  0.2577508E-013  0.7246156E+02  0.7816164E-02  0.1226708E+00
        -11   -1    0    0    0    0  0.00000000000E+00  0.00000000000E+00  0.45593999997E+02  0.45594000000E+02  0.51100000000E-03 0. -1.
         11   -1    0    0    0    0 -0.00000000000E+00 -0.00000000000E+00 -0.45593999997E+02  0.45594000000E+02  0.51100000000E-03 0.  1.
    9900012    2    1    2    0    0  0.12335539476E+02 -0.70393023677E+01 -0.12205007183E+02  0.72461561141E+02  0.69999988076E+02 0.  0.
        -12    1    1    2    0    0 -0.12335539476E+02  0.70393023677E+01  0.12205007183E+02  0.18726438859E+02  0.00000000000E+00 0.  1.
         11    1    3    3    0    0 -0.44704815208E+01  0.93722748633E+01 -0.33094670354E+02  0.34685471703E+02  0.51100000000E-03 0.  1.
        -11    1    3    3    0    0 -0.90465273250E+00 -0.81139175461E+01  0.15451891690E+02  0.17476126905E+02  0.51100000000E-03 0. -1.
        -12    1    3    3    0    0  0.17710673730E+02 -0.82976596849E+01  0.54377714800E+01  0.20299962534E+02  0.00000000000E+00 0.  1.
</event>
<event>
 7    1  0.2577508E-013  0.7246156E+02  0.7816164E-02  0.1226708E+00
        -11   -1    0    0    0    0  0.00000000000E+00  0.00000000000E+00  0.45593999997E+02  0.45594000000E+02  0.51100000000E-03 0. -1.
         11   -1    0    0    0    0 -0.00000000000E+00 -0.00000000000E+00 -0.45593999997E+02  0.45594000000E+02  0.51100000000E-03 0.  1.
    9900012    2    1    2    0    0 -0.10084425078E+02  0.10938611771E+02  0.11372363155E+02  0.72461561461E+02  0.69999988493E+02 0.  0.
        -12    1    1    2    0    0  0.10084425078E+02 -0.10938611771E+02 -0.11372363155E+02  0.18726438539E+02  0.00000000000E+00 0.  1.
         11    1    3    3    0    0  0.11164303032E+02  0.19573840365E+02  0.24085265568E+02  0.32982979043E+02  0.51100000000E-03 0. -1.
        -11    1    3    3    0    0 -0.71254465669E+00  0.28032132874E+01  0.77755413922E+01  0.82960694805E+01  0.51100000000E-03 0.  1.
        -12    1    3    3    0    0 -0.20536183453E+02 -0.11438441882E+02 -0.20488443806E+02  0.31182512937E+02  0.00000000000E+00 0.  1.
</event>
<event>
 7    1  0.2577508E-013  0.7246150E+02  0.7816164E-02  0.1226708E+00
        -11   -1    0    0    0    0  0.00000000000E+00  0.00000000000E+00  0.45593999997E+02  0.45594000000E+02  0.51100000000E-03 0.  1.
         11   -1    0    0    0    0 -0.00000000000E+00 -0.00000000000E+00 -0.45593999997E+02  0.45594000000E+02  0.51100000000E-03 0. -1.
    9900012    2    1    2    0    0  0.10294573540E+02  0.15423984958E+02 -0.26084596083E+01  0.72461504923E+02  0.69999914841E+02 0.  0.
        -12    1    1    2    0    0 -0.10294573540E+02 -0.15423984958E+02  0.26084596083E+01  0.18726495077E+02  0.00000000000E+00 0.  1.
         11    1    3    3    0    0 -0.14223778492E+02  0.14550050911E+02 -0.21543361724E+02  0.29633364485E+02  0.51100000000E-03 0. -1.
        -11    1    3    3    0    0 -0.27974800654E+01 -0.28693604183E+01 -0.49368589772E+01  0.63585926704E+01  0.51100000000E-03 0.  1.
        -12    1    3    3    0    0  0.27315832097E+02  0.37432944654E+01  0.23871761093E+02  0.36469547767E+02  0.00000000000E+00 0.  1.
</event>
<event>
 7    1  0.2577508E-013  0.7246160E+02  0.7816164E-02  0.1226708E+00
        -11   -1    0    0    0    0  0.00000000000E+00  0.00000000000E+00  0.45593999997E+02  0.45594000000E+02  0.51100000000E-03 0.  1.
         11   -1    0    0    0    0 -0.00000000000E+00 -0.00000000000E+00 -0.45593999997E+02  0.45594000000E+02  0.51100000000E-03 0. -1.
    9900012    2    1    2    0    0  0.13544265960E+02  0.43306477367E+01 -0.12185086688E+02  0.72461601846E+02  0.70000041102E+02 0.  0.
        -12    1    1    2    0    0 -0.13544265960E+02 -0.43306477367E+01  0.12185086688E+02  0.18726398154E+02  0.00000000000E+00 0.  1.
         11    1    3    3    0    0  0.17277332444E+02 -0.36401878146E+01 -0.14662041543E+02  0.22950656770E+02  0.51100000000E-03 0. -1.
        -11    1    3    3    0    0 -0.16182638564E+02 -0.13007106980E+02 -0.89063334824E+01  0.22591710853E+02  0.51100000000E-03 0.  1.
        -12    1    3    3    0    0  0.12449572080E+02  0.20977942531E+02  0.11383288337E+02  0.26919234224E+02  0.00000000000E+00 0.  1.
</event>
<event>
 7    1  0.2577508E-013  0.7246165E+02  0.7816164E-02  0.1226708E+00
        -11   -1    0    0    0    0  0.00000000000E+00  0.00000000000E+00  0.45593999997E+02  0.45594000000E+02  0.51100000000E-03 0. -1.
         11   -1    0    0    0    0 -0.00000000000E+00 -0.00000000000E+00 -0.45593999997E+02  0.45594000000E+02  0.51100000000E-03 0.  1.
    9900012    2    1    2    0    0 -0.20516455724E+01 -0.16922254571E+02  0.77526841872E+01  0.72461653281E+02  0.70000108106E+02 0.  0.
        -12    1    1    2    0    0  0.20516455724E+01  0.16922254571E+02 -0.77526841872E+01  0.18726346719E+02  0.00000000000E+00 0.  1.
         11    1    3    3    0    0  0.49324357495E+01 -0.11168339227E+02 -0.43937781824E+01  0.12975592877E+02  0.51100000000E-03 0. -1.
        -11    1    3    3    0    0  0.18374905780E+02  0.14544080560E+02  0.13371595339E+02  0.26980863662E+02  0.51100000000E-03 0.  1.
         12    1    3    3    0    0 -0.25358987102E+02 -0.20297995904E+02 -0.12251329691E+01  0.32505196743E+02  0.00000000000E+00 0. -1.
</event>
<event>
 7    1  0.2577508E-013  0.7246160E+02  0.7816164E-02  0.1226708E+00
        -11   -1    0    0    0    0  0.00000000000E+00  0.00000000000E+00  0.45593999997E+02  0.45594000000E+02  0.51100000000E-03 0.  1.
         11   -1    0    0    0    0 -0.00000000000E+00 -0.00000000000E+00 -0.45593999997E+02  0.45594000000E+02  0.51100000000E-03 0. -1.
    9900012    2    1    2    0    0 -0.12981604540E+02  0.38869571049E+01  0.12924688562E+02  0.72461599748E+02  0.70000038369E+02 0.  0.
        -12    1    1    2    0    0  0.12981604540E+02 -0.38869571049E+01 -0.12924688562E+02  0.18726400252E+02  0.00000000000E+00 0.  1.
         11    1    3    3    0    0 -0.78435926078E+01  0.15866867836E+02  0.32501964871E+01  0.17995644400E+02  0.51100000000E-03 0. -1.
        -11    1    3    3    0    0 -0.26251775522E+02 -0.11455215351E+02 -0.45511521539E+01  0.29001563113E+02  0.51100000000E-03 0.  1.
         12    1    3    3    0    0  0.21113763590E+02 -0.52469538044E+00  0.14225644229E+02  0.25464392235E+02  0.00000000000E+00 0. -1.
</event>
<event>
 7    1  0.2577508E-013  0.7246157E+02  0.7816164E-02  0.1226708E+00
        -11   -1    0    0    0    0  0.00000000000E+00  0.00000000000E+00  0.45593999997E+02  0.45594000000E+02  0.51100000000E-03 0.  1.
         11   -1    0    0    0    0 -0.00000000000E+00 -0.00000000000E+00 -0.45593999997E+02  0.45594000000E+02  0.51100000000E-03 0. -1.
    9900012    2    1    2    0    0 -0.10066563695E+02 -0.15347919151E+02  0.37128180579E+01  0.72461565614E+02  0.69999993903E+02 0.  0.
        -12    1    1    2    0    0  0.10066563695E+02  0.15347919151E+02 -0.37128180579E+01  0.18726434386E+02  0.00000000000E+00 0.  1.
         11    1    3    3    0    0 -0.82577108194E+01  0.30487795818E+01 -0.24315149814E+00  0.88059052816E+01  0.51100000000E-03 0. -1.
        -11    1    3    3    0    0 -0.14521366007E+02 -0.35501677392E+02  0.13006311014E+02  0.40501892484E+02  0.51100000000E-03 0.  1.
         12    1    3    3    0    0  0.12712513131E+02  0.17104978659E+02 -0.90503414579E+01  0.23153767848E+02  0.00000000000E+00 0. -1.
</event>
<event>
 7    1  0.2577508E-013  0.7246157E+02  0.7816164E-02  0.1226708E+00
        -11   -1    0    0    0    0  0.00000000000E+00  0.00000000000E+00  0.45593999997E+02  0.45594000000E+02  0.51100000000E-03 0.  1.
         11   -1    0    0    0    0 -0.00000000000E+00 -0.00000000000E+00 -0.45593999997E+02  0.45594000000E+02  0.51100000000E-03 0. -1.
    9900012    2    1    2    0    0  0.44536225367E+01  0.46674236613E+01 -0.17580094989E+02  0.72461565818E+02  0.69999994169E+02 0.  0.
        -12    1    1    2    0    0 -0.44536225367E+01 -0.46674236613E+01  0.17580094989E+02  0.18726434182E+02  0.00000000000E+00 0.  1.
         11    1    3    3    0    0  0.38951983875E+01 -0.14150667553E+02  0.77433060835E+01  0.16594359043E+02  0.51100000000E-03 0.  1.
        -11    1    3    3    0    0  0.16028920992E+02  0.14979813480E+02 -0.31823697128E+02  0.38653186404E+02  0.51100000000E-03 0. -1.
         12    1    3    3    0    0 -0.15470496843E+02  0.38382777346E+01  0.65002960549E+01  0.17214020371E+02  0.00000000000E+00 0. -1.
</event>
<event>
 7    1  0.2577508E-013  0.7246162E+02  0.7816164E-02  0.1226708E+00
        -11   -1    0    0    0    0  0.00000000000E+00  0.00000000000E+00  0.45593999997E+02  0.45594000000E+02  0.51100000000E-03 0.  1.
         11   -1    0    0    0    0 -0.00000000000E+00 -0.00000000000E+00 -0.45593999997E+02  0.45594000000E+02  0.51100000000E-03 0. -1.
    9900012    2    1    2    0    0 -0.67989673182E+01  0.71540983159E+01 -0.15914462654E+02  0.72461622858E+02  0.70000068474E+02 0.  0.
        -12    1    1    2    0    0  0.67989673182E+01 -0.71540983159E+01  0.15914462654E+02  0.18726377142E+02  0.00000000000E+00 0.  1.
         11    1    3    3    0    0 -0.15699363322E+02  0.14096413466E+02 -0.38063984837E+02  0.43520636752E+02  0.51100000000E-03 0. -1.
        -11    1    3    3    0    0  0.16705639305E+01 -0.89224538622E+01  0.53299406748E+01  0.10526596536E+02  0.51100000000E-03 0.  1.
        -12    1    3    3    0    0  0.72298320736E+01  0.19801387118E+01  0.16819581509E+02  0.18414389571E+02  0.00000000000E+00 0.  1.
</event>
<event>
 7    1  0.2577508E-013  0.7246154E+02  0.7816164E-02  0.1226708E+00
        -11   -1    0    0    0    0  0.00000000000E+00  0.00000000000E+00  0.45593999997E+02  0.45594000000E+02  0.51100000000E-03 0.  1.
         11   -1    0    0    0    0 -0.00000000000E+00 -0.00000000000E+00 -0.45593999997E+02  0.45594000000E+02  0.51100000000E-03 0. -1.
    9900012    2    1    2    0    0  0.19352804855E+01  0.18387109850E+02  0.29747483123E+01  0.72461541533E+02  0.69999962534E+02 0.  0.
        -12    1    1    2    0    0 -0.19352804855E+01 -0.18387109850E+02 -0.29747483123E+01  0.18726458467E+02  0.00000000000E+00 0.  1.
         11    1    3    3    0    0 -0.19187885243E+02  0.74987056046E+01 -0.10999724664E+02  0.23353789174E+02  0.51100000000E-03 0. -1.
        -11    1    3    3    0    0 -0.92437259337E+01  0.16538697520E+01 -0.64245130862E+01  0.11377878667E+02  0.51100000000E-03 0.  1.
        -12    1    3    3    0    0  0.30366891662E+02  0.92345344930E+01  0.20398986062E+02  0.37729873693E+02  0.00000000000E+00 0.  1.
</event>
<event>
 7    1  0.2577508E-013  0.7246183E+02  0.7816164E-02  0.1226707E+00
        -11   -1    0    0    0    0  0.00000000000E+00  0.00000000000E+00  0.45593999997E+02  0.45594000000E+02  0.51100000000E-03 0.  1.
         11   -1    0    0    0    0 -0.00000000000E+00 -0.00000000000E+00 -0.45593999997E+02  0.45594000000E+02  0.51100000000E-03 0. -1.
    9900012    2    1    2    0    0  0.17188131601E+02  0.10972344279E+01  0.73507696853E+01  0.72461825636E+02  0.70000332630E+02 0.  0.
        -12    1    1    2    0    0 -0.17188131601E+02 -0.10972344279E+01 -0.73507696853E+01  0.18726174364E+02  0.00000000000E+00 0.  1.
         11    1    3    3    0    0  0.74542617172E+01 -0.61362391826E+00 -0.60636391072E+01  0.96286173226E+01  0.51100000000E-03 0. -1.
        -11    1    3    3    0    0 -0.15566393426E+02  0.64839080231E+01 -0.16343497393E+02  0.23483261588E+02  0.51100000000E-03 0.  1.
         12    1    3    3    0    0  0.25300263309E+02 -0.47730496769E+01  0.29757906186E+02  0.39349946725E+02  0.00000000000E+00 0. -1.
</event>
<event>
 7    1  0.2577508E-013  0.7246158E+02  0.7816164E-02  0.1226708E+00
        -11   -1    0    0    0    0  0.00000000000E+00  0.00000000000E+00  0.45593999997E+02  0.45594000000E+02  0.51100000000E-03 0.  1.
         11   -1    0    0    0    0 -0.00000000000E+00 -0.00000000000E+00 -0.45593999997E+02  0.45594000000E+02  0.51100000000E-03 0. -1.
    9900012    2    1    2    0    0  0.14031916785E+01  0.13933784214E+02 -0.12432204163E+02  0.72461575094E+02  0.70000006252E+02 0.  0.
        -12    1    1    2    0    0 -0.14031916785E+01 -0.13933784214E+02  0.12432204163E+02  0.18726424906E+02  0.00000000000E+00 0.  1.
         11    1    3    3    0    0  0.35572698321E+01  0.53001057933E+01  0.26857763215E+01  0.69252209198E+01  0.51100000000E-03 0. -1.
        -11    1    3    3    0    0 -0.18279405380E+02  0.18819473820E+02  0.14750265658E+02  0.30097833695E+02  0.51100000000E-03 0.  1.
         12    1    3    3    0    0  0.16125327227E+02 -0.10185795399E+02 -0.29868246143E+02  0.35438520479E+02  0.00000000000E+00 0. -1.
</event>
<event>
 7    1  0.2577508E-013  0.7246168E+02  0.7816164E-02  0.1226708E+00
        -11   -1    0    0    0    0  0.00000000000E+00  0.00000000000E+00  0.45593999997E+02  0.45594000000E+02  0.51100000000E-03 0. -1.
         11   -1    0    0    0    0 -0.00000000000E+00 -0.00000000000E+00 -0.45593999997E+02  0.45594000000E+02  0.51100000000E-03 0.  1.
    9900012    2    1    2    0    0 -0.11561469019E+02 -0.78461417856E+01  0.12467782210E+02  0.72461678951E+02  0.70000141545E+02 0.  0.
        -12    1    1    2    0    0  0.11561469019E+02  0.78461417856E+01 -0.12467782210E+02  0.18726321049E+02  0.00000000000E+00 0.  1.
         11    1    3    3    0    0  0.52361765183E+01 -0.20126871803E+02  0.19451406176E+02  0.28475703952E+02  0.51100000000E-03 0. -1.
        -11    1    3    3    0    0  0.66198875906E+01  0.84269882238E+00 -0.15248823283E+02  0.16645109336E+02  0.51100000000E-03 0.  1.
        -12    1    3    3    0    0 -0.23417533128E+02  0.11438031195E+02  0.82651993177E+01  0.27340865662E+02  0.00000000000E+00 0.  1.
</event>
<event>
 7    1  0.2577508E-013  0.7246156E+02  0.7816164E-02  0.1226708E+00
        -11   -1    0    0    0    0  0.00000000000E+00  0.00000000000E+00  0.45593999997E+02  0.45594000000E+02  0.51100000000E-03 0.  1.
         11   -1    0    0    0    0 -0.00000000000E+00 -0.00000000000E+00 -0.45593999997E+02  0.45594000000E+02  0.51100000000E-03 0. -1.
    9900012    2    1    2    0    0 -0.93438774398E+00  0.51583222301E+01 -0.17977715614E+02  0.72461558070E+02  0.69999984075E+02 0.  0.
        -12    1    1    2    0    0  0.93438774398E+00 -0.51583222301E+01  0.17977715614E+02  0.18726441930E+02  0.00000000000E+00 0.  1.
         11    1    3    3    0    0 -0.72923786704E+00 -0.58916152849E+01  0.60422721107E+01  0.84706535198E+01  0.51100000000E-03 0. -1.
        -11    1    3    3    0    0 -0.56469402422E+01 -0.16867336450E+02  0.93898248862E+01  0.20113771021E+02  0.51100000000E-03 0.  1.
         12    1    3    3    0    0  0.54417903653E+01  0.27917273965E+02 -0.33409812611E+02  0.43877133529E+02  0.00000000000E+00 0. -1.
</event>
<event>
 7    1  0.2577508E-013  0.7246158E+02  0.7816164E-02  0.1226708E+00
        -11   -1    0    0    0    0  0.00000000000E+00  0.00000000000E+00  0.45593999997E+02  0.45594000000E+02  0.51100000000E-03 0.  1.
         11   -1    0    0    0    0 -0.00000000000E+00 -0.00000000000E+00 -0.45593999997E+02  0.45594000000E+02  0.51100000000E-03 0. -1.
    9900012    2    1    2    0    0  0.12389484402E+02 -0.10630782157E+02  0.91742074972E+01  0.72461576524E+02  0.70000008115E+02 0.  0.
        -12    1    1    2    0    0 -0.12389484402E+02  0.10630782157E+02 -0.91742074972E+01  0.18726423476E+02  0.00000000000E+00 0.  1.
         11    1    3    3    0    0 -0.13363539802E+02  0.19638609072E+01  0.19781763443E+02  0.23953269315E+02  0.51100000000E-03 0.  1.
        -11    1    3    3    0    0  0.64748946389E+01 -0.35361458092E+01 -0.22800977558E+02  0.23964831850E+02  0.51100000000E-03 0. -1.
        -12    1    3    3    0    0  0.19278129565E+02 -0.90584972546E+01  0.12193421612E+02  0.24543475358E+02  0.00000000000E+00 0.  1.
</event>
<event>
 7    1  0.2577508E-013  0.7246165E+02  0.7816164E-02  0.1226708E+00
        -11   -1    0    0    0    0  0.00000000000E+00  0.00000000000E+00  0.45593999997E+02  0.45594000000E+02  0.51100000000E-03 0. -1.
         11   -1    0    0    0    0 -0.00000000000E+00 -0.00000000000E+00 -0.45593999997E+02  0.45594000000E+02  0.51100000000E-03 0.  1.
    9900012    2    1    2    0    0 -0.45080275839E+00 -0.16799272214E+02 -0.82617950045E+01  0.72461654207E+02  0.70000109312E+02 0.  0.
        -12    1    1    2    0    0  0.45080275839E+00  0.16799272214E+02  0.82617950045E+01  0.18726345793E+02  0.00000000000E+00 0.  1.
         11    1    3    3    0    0  0.15493552698E+02 -0.24131191279E+02  0.32811579453E+01  0.28864001204E+02  0.51100000000E-03 0. -1.
        -11    1    3    3    0    0  0.89724762884E+00  0.18143170238E+02  0.35781327431E+01  0.18514392072E+02  0.51100000000E-03 0.  1.
         12    1    3    3    0    0 -0.16841603086E+02 -0.10811251173E+02 -0.15121085693E+02  0.25083260932E+02  0.00000000000E+00 0. -1.
</event>
<event>
 7    1  0.2577508E-013  0.7246150E+02  0.7816164E-02  0.1226708E+00
        -11   -1    0    0    0    0  0.00000000000E+00  0.00000000000E+00  0.45593999997E+02  0.45594000000E+02  0.51100000000E-03 0.  1.
         11   -1    0    0    0    0 -0.00000000000E+00 -0.00000000000E+00 -0.45593999997E+02  0.45594000000E+02  0.51100000000E-03 0. -1.
    9900012    2    1    2    0    0  0.79216251546E+01 -0.55623644848E+01 -0.16030899019E+02  0.72461500938E+02  0.69999909651E+02 0.  0.
        -12    1    1    2    0    0 -0.79216251546E+01  0.55623644848E+01  0.16030899019E+02  0.18726499062E+02  0.00000000000E+00 0.  1.
         11    1    3    3    0    0  0.17939729410E+02  0.97638902570E+01 -0.12450391376E+02  0.23920277798E+02  0.51100000000E-03 0. -1.
        -11    1    3    3    0    0 -0.98692816033E+01  0.10104976820E+02 -0.15052372483E+02  0.20641879603E+02  0.51100000000E-03 0.  1.
        -12    1    3    3    0    0 -0.14882265179E+00 -0.25431231562E+02  0.11471864840E+02  0.27899343538E+02  0.00000000000E+00 0.  1.
</event>
<event>
 7    1  0.2577508E-013  0.7246156E+02  0.7816164E-02  0.1226708E+00
        -11   -1    0    0    0    0  0.00000000000E+00  0.00000000000E+00  0.45593999997E+02  0.45594000000E+02  0.51100000000E-03 0.  1.
         11   -1    0    0    0    0 -0.00000000000E+00 -0.00000000000E+00 -0.45593999997E+02  0.45594000000E+02  0.51100000000E-03 0. -1.
    9900012    2    1    2    0    0 -0.33371174854E+01  0.10341904250E+02 -0.15250843076E+02  0.72461560105E+02  0.69999986727E+02 0.  0.
        -12    1    1    2    0    0  0.33371174854E+01 -0.10341904250E+02  0.15250843076E+02  0.18726439895E+02  0.00000000000E+00 0.  1.
         11    1    3    3    0    0  0.20904174805E+02 -0.50095504605E+01 -0.22136082399E+02  0.30855895131E+02  0.51100000000E-03 0. -1.
        -11    1    3    3    0    0  0.26452232430E+00 -0.73450184192E+01  0.31483447775E+01  0.79957077697E+01  0.51100000000E-03 0.  1.
        -12    1    3    3    0    0 -0.24505814615E+02  0.22696473129E+02  0.37368945463E+01  0.33609957204E+02  0.00000000000E+00 0.  1.
</event>
<event>
 7    1  0.2577508E-013  0.7246156E+02  0.7816164E-02  0.1226708E+00
        -11   -1    0    0    0    0  0.00000000000E+00  0.00000000000E+00  0.45593999997E+02  0.45594000000E+02  0.51100000000E-03 0. -1.
         11   -1    0    0    0    0 -0.00000000000E+00 -0.00000000000E+00 -0.45593999997E+02  0.45594000000E+02  0.51100000000E-03 0.  1.
    9900012    2    1    2    0    0 -0.48875685240E+01  0.17934144486E+02 -0.22710139032E+01  0.72461564977E+02  0.69999993073E+02 0.  0.
        -12    1    1    2    0    0  0.48875685240E+01 -0.17934144486E+02  0.22710139032E+01  0.18726435023E+02  0.00000000000E+00 0.  1.
         11    1    3    3    0    0 -0.13723465258E+02 -0.95400806665E+00  0.68183185771E+01  0.15353602136E+02  0.51100000000E-03 0. -1.
        -11    1    3    3    0    0  0.92223954389E+01 -0.13090832730E+02 -0.17818587199E+02  0.23956722005E+02  0.51100000000E-03 0.  1.
         12    1    3    3    0    0 -0.38649870480E+00  0.31978985283E+02  0.87292547186E+01  0.33151240835E+02  0.00000000000E+00 0. -1.
</event>
<event>
 7    1  0.2577508E-013  0.7246161E+02  0.7816164E-02  0.1226708E+00
        -11   -1    0    0    0    0  0.00000000000E+00  0.00000000000E+00  0.45593999997E+02  0.45594000000E+02  0.51100000000E-03 0. -1.
         11   -1    0    0    0    0 -0.00000000000E+00 -0.00000000000E+00 -0.45593999997E+02  0.45594000000E+02  0.51100000000E-03 0.  1.
    9900012    2    1    2    0    0  0.50096511407E+01 -0.40500545322E+01  0.17583463093E+02  0.72461608980E+02  0.70000050396E+02 0.  0.
        -12    1    1    2    0    0 -0.50096511407E+01  0.40500545322E+01 -0.17583463093E+02  0.18726391020E+02  0.00000000000E+00 0.  1.
         11    1    3    3    0    0  0.79371255388E+00  0.68899258635E+00 -0.10825622158E+01  0.15088510909E+01  0.51100000000E-03 0. -1.
        -11    1    3    3    0    0 -0.15797513223E+02 -0.26075323571E+01 -0.21038591353E+02  0.26438286166E+02  0.51100000000E-03 0.  1.
         12    1    3    3    0    0  0.20013451810E+02 -0.21315147614E+01  0.39704616662E+02  0.44514471723E+02  0.00000000000E+00 0. -1.
</event>
<event>
 7    1  0.2577508E-013  0.7246160E+02  0.7816164E-02  0.1226708E+00
        -11   -1    0    0    0    0  0.00000000000E+00  0.00000000000E+00  0.45593999997E+02  0.45594000000E+02  0.51100000000E-03 0. -1.
         11   -1    0    0    0    0 -0.00000000000E+00 -0.00000000000E+00 -0.45593999997E+02  0.45594000000E+02  0.51100000000E-03 0.  1.
    9900012    2    1    2    0    0  0.16339411511E+02  0.59106578693E+01 -0.69832524063E+01  0.72461599942E+02  0.70000038621E+02 0.  0.
        -12    1    1    2    0    0 -0.16339411511E+02 -0.59106578693E+01  0.69832524063E+01  0.18726400058E+02  0.00000000000E+00 0.  1.
         11    1    3    3    0    0  0.53908203144E+01 -0.46952544186E+01  0.44543027054E+01  0.84230143399E+01  0.51100000000E-03 0. -1.
        -11    1    3    3    0    0  0.34948671939E+02  0.74631291749E+00 -0.14633715275E+02  0.37896072043E+02  0.51100000000E-03 0.  1.
         12    1    3    3    0    0 -0.24000080742E+02  0.98595993704E+01  0.31961601637E+01  0.26142513559E+02  0.00000000000E+00 0. -1.
</event>
<event>
 7    1  0.2577508E-013  0.7246161E+02  0.7816164E-02  0.1226708E+00
        -11   -1    0    0    0    0  0.00000000000E+00  0.00000000000E+00  0.45593999997E+02  0.45594000000E+02  0.51100000000E-03 0. -1.
         11   -1    0    0    0    0 -0.00000000000E+00 -0.00000000000E+00 -0.45593999997E+02  0.45594000000E+02  0.51100000000E-03 0.  1.
    9900012    2    1    2    0    0 -0.29119151897E+01  0.11279846796E+02  0.14661629760E+02  0.72461612707E+02  0.70000055251E+02 0.  0.
        -12    1    1    2    0    0  0.29119151897E+01 -0.11279846796E+02 -0.14661629760E+02  0.18726387293E+02  0.00000000000E+00 0.  1.
         11    1    3    3    0    0  0.24408647706E+02  0.55020359158E+00  0.24072786520E+02  0.34286788387E+02  0.51100000000E-03 0. -1.
        -11    1    3    3    0    0 -0.14565512497E+02  0.11105977232E+02  0.49399112794E+01  0.18971020222E+02  0.51100000000E-03 0.  1.
        -12    1    3    3    0    0 -0.12755050399E+02 -0.37633402689E+00 -0.14351068039E+02  0.19203804098E+02  0.00000000000E+00 0.  1.
</event>
<event>
 7    1  0.2577508E-013  0.7246151E+02  0.7816164E-02  0.1226708E+00
        -11   -1    0    0    0    0  0.00000000000E+00  0.00000000000E+00  0.45593999997E+02  0.45594000000E+02  0.51100000000E-03 0.  1.
         11   -1    0    0    0    0 -0.00000000000E+00 -0.00000000000E+00 -0.45593999997E+02  0.45594000000E+02  0.51100000000E-03 0. -1.
    9900012    2    1    2    0    0  0.12216631998E+01 -0.13181252467E+02 -0.13245517621E+02  0.72461505010E+02  0.69999914954E+02 0.  0.
        -12    1    1    2    0    0 -0.12216631998E+01  0.13181252467E+02  0.13245517621E+02  0.18726494990E+02  0.00000000000E+00 0.  1.
         11    1    3    3    0    0  0.14481010096E+01 -0.15440718534E+02 -0.29089560646E+02  0.32965365525E+02  0.51100000000E-03 0. -1.
        -11    1    3    3    0    0 -0.17547619915E+02  0.29045973601E+01  0.32750073083E+01  0.18085389784E+02  0.51100000000E-03 0.  1.
        -12    1    3    3    0    0  0.17321182105E+02 -0.64513129283E+00  0.12569035717E+02  0.21410749701E+02  0.00000000000E+00 0.  1.
</event>
<event>
 7    1  0.2577508E-013  0.7246155E+02  0.7816164E-02  0.1226708E+00
        -11   -1    0    0    0    0  0.00000000000E+00  0.00000000000E+00  0.45593999997E+02  0.45594000000E+02  0.51100000000E-03 0. -1.
         11   -1    0    0    0    0 -0.00000000000E+00 -0.00000000000E+00 -0.45593999997E+02  0.45594000000E+02  0.51100000000E-03 0.  1.
    9900012    2    1    2    0    0 -0.12525673493E+02 -0.13560777885E+01  0.13854546658E+02  0.72461550616E+02  0.69999974366E+02 0.  0.
        -12    1    1    2    0    0  0.12525673493E+02  0.13560777885E+01 -0.13854546658E+02  0.18726449384E+02  0.00000000000E+00 0.  1.
         11    1    3    3    0    0 -0.17902898259E+02 -0.12487227770E+02  0.11845279238E+02  0.24834557857E+02  0.51100000000E-03 0. -1.
        -11    1    3    3    0    0 -0.48595160189E+00  0.98687595138E+01 -0.21341755022E+02  0.23518058402E+02  0.51100000000E-03 0.  1.
         12    1    3    3    0    0  0.58631763679E+01  0.12623904675E+01  0.23351022442E+02  0.24108934358E+02  0.00000000000E+00 0. -1.
</event>
<event>
 7    1  0.2577508E-013  0.7246163E+02  0.7816164E-02  0.1226708E+00
        -11   -1    0    0    0    0  0.00000000000E+00  0.00000000000E+00  0.45593999997E+02  0.45594000000E+02  0.51100000000E-03 0. -1.
         11   -1    0    0    0    0 -0.00000000000E+00 -0.00000000000E+00 -0.45593999997E+02  0.45594000000E+02  0.51100000000E-03 0.  1.
    9900012    2    1    2    0    0 -0.43875671138E+01 -0.12283542426E+02  0.13436543521E+02  0.72461631919E+02  0.70000080277E+02 0.  0.
        -12    1    1    2    0    0  0.43875671138E+01  0.12283542426E+02 -0.13436543521E+02  0.18726368081E+02  0.00000000000E+00 0.  1.
         11    1    3    3    0    0  0.11941927528E+02 -0.22551878770E+02  0.12221003289E+02  0.28293988598E+02  0.51100000000E-03 0. -1.
        -11    1    3    3    0    0 -0.24720353841E+02 -0.39294992648E+01  0.80822783055E+01  0.26303233288E+02  0.51100000000E-03 0.  1.
         12    1    3    3    0    0  0.83908591995E+01  0.14197835609E+02 -0.68667380730E+01  0.17864410033E+02  0.00000000000E+00 0. -1.
</event>
<event>
 7    1  0.2577508E-013  0.7246111E+02  0.7816164E-02  0.1226709E+00
        -11   -1    0    0    0    0  0.00000000000E+00  0.00000000000E+00  0.45593999997E+02  0.45594000000E+02  0.51100000000E-03 0. -1.
         11   -1    0    0    0    0 -0.00000000000E+00 -0.00000000000E+00 -0.45593999997E+02  0.45594000000E+02  0.51100000000E-03 0.  1.
    9900012    2    1    2    0    0 -0.34921702748E+01  0.11041444797E+02  0.14716914334E+02  0.72461112273E+02  0.69999403339E+02 0.  0.
        -12    1    1    2    0    0  0.34921702748E+01 -0.11041444797E+02 -0.14716914334E+02  0.18726887727E+02  0.00000000000E+00 0.  1.
         11    1    3    3    0    0 -0.74557765204E+01  0.93475637374E+01 -0.75372411825E+01  0.14134198111E+02  0.51100000000E-03 0. -1.
        -11    1    3    3    0    0 -0.65361766614E+01 -0.20282751375E+01 -0.16574504170E+02  0.17931806772E+02  0.51100000000E-03 0.  1.
         12    1    3    3    0    0  0.10499782907E+02  0.37221561969E+01  0.38828659687E+02  0.40395107389E+02  0.00000000000E+00 0. -1.
</event>
<event>
 7    1  0.2577508E-013  0.7246158E+02  0.7816164E-02  0.1226708E+00
        -11   -1    0    0    0    0  0.00000000000E+00  0.00000000000E+00  0.45593999997E+02  0.45594000000E+02  0.51100000000E-03 0. -1.
         11   -1    0    0    0    0 -0.00000000000E+00 -0.00000000000E+00 -0.45593999997E+02  0.45594000000E+02  0.51100000000E-03 0.  1.
    9900012    2    1    2    0    0  0.60311925736E+00  0.41896032946E+01  0.18241775197E+02  0.72461577733E+02  0.70000009690E+02 0.  0.
        -12    1    1    2    0    0 -0.60311925736E+00 -0.41896032946E+01 -0.18241775197E+02  0.18726422267E+02  0.00000000000E+00 0.  1.
         11    1    3    3    0    0  0.79843047635E+01  0.12297004145E+01 -0.56254513329E+01  0.98441347322E+01  0.51100000000E-03 0. -1.
        -11    1    3    3    0    0 -0.79635245943E+01 -0.17431292566E+02 -0.11091235333E+02  0.22142339216E+02  0.51100000000E-03 0.  1.
         12    1    3    3    0    0  0.58233908813E+00  0.20391195447E+02  0.34958461862E+02  0.40475103784E+02  0.00000000000E+00 0. -1.
</event>
<event>
 7    1  0.2577508E-013  0.7246157E+02  0.7816164E-02  0.1226708E+00
        -11   -1    0    0    0    0  0.00000000000E+00  0.00000000000E+00  0.45593999997E+02  0.45594000000E+02  0.51100000000E-03 0. -1.
         11   -1    0    0    0    0 -0.00000000000E+00 -0.00000000000E+00 -0.45593999997E+02  0.45594000000E+02  0.51100000000E-03 0.  1.
    9900012    2    1    2    0    0  0.15199195536E+02  0.99146493569E+01 -0.46220528166E+01  0.72461569773E+02  0.69999999321E+02 0.  0.
        -12    1    1    2    0    0 -0.15199195536E+02 -0.99146493569E+01  0.46220528166E+01  0.18726430227E+02  0.00000000000E+00 0.  1.
         11    1    3    3    0    0  0.55564796489E+01  0.22023309421E+02 -0.48247201385E+01  0.23220218531E+02  0.51100000000E-03 0.  1.
        -11    1    3    3    0    0  0.23554587421E+02 -0.16759195623E+02 -0.10847339169E+02  0.30876431041E+02  0.51100000000E-03 0. -1.
         12    1    3    3    0    0 -0.13911871534E+02  0.46505355591E+01  0.11050006491E+02  0.18364920201E+02  0.00000000000E+00 0. -1.
</event>
<event>
 7    1  0.2577508E-013  0.7246155E+02  0.7816164E-02  0.1226708E+00
        -11   -1    0    0    0    0  0.00000000000E+00  0.00000000000E+00  0.45593999997E+02  0.45594000000E+02  0.51100000000E-03 0.  1.
         11   -1    0    0    0    0 -0.00000000000E+00 -0.00000000000E+00 -0.45593999997E+02  0.45594000000E+02  0.51100000000E-03 0. -1.
    9900012    2    1    2    0    0  0.41891069170E+01  0.12543644596E+02 -0.13258515451E+02  0.72461551632E+02  0.69999975689E+02 0.  0.
        -12    1    1    2    0    0 -0.41891069170E+01 -0.12543644596E+02  0.13258515451E+02  0.18726448368E+02  0.00000000000E+00 0.  1.
         11    1    3    3    0    0  0.11245865813E+02 -0.92072061857E+01 -0.29836161321E+01  0.14837254096E+02  0.51100000000E-03 0. -1.
        -11    1    3    3    0    0 -0.80035366836E+01 -0.74951857259E+01  0.15257951615E+02  0.18789345285E+02  0.51100000000E-03 0.  1.
        -12    1    3    3    0    0  0.94677778773E+00  0.29246036507E+02 -0.25532850933E+02  0.38834952251E+02  0.00000000000E+00 0.  1.
</event>
<event>
 7    1  0.2577508E-013  0.7246153E+02  0.7816164E-02  0.1226708E+00
        -11   -1    0    0    0    0  0.00000000000E+00  0.00000000000E+00  0.45593999997E+02  0.45594000000E+02  0.51100000000E-03 0.  1.
         11   -1    0    0    0    0 -0.00000000000E+00 -0.00000000000E+00 -0.45593999997E+02  0.45594000000E+02  0.51100000000E-03 0. -1.
    9900012    2    1    2    0    0 -0.92834760962E+01 -0.16266233209E+00 -0.16262573164E+02  0.72461530141E+02  0.69999947693E+02 0.  0.
        -12    1    1    2    0    0  0.92834760962E+01  0.16266233209E+00  0.16262573164E+02  0.18726469859E+02  0.00000000000E+00 0.  1.
         11    1    3    3    0    0  0.77042390308E+01  0.16062155908E+02 -0.15559166196E+02  0.23652395321E+02  0.51100000000E-03 0. -1.
        -11    1    3    3    0    0 -0.17038180648E+02 -0.54975834485E+01 -0.19931189711E+02  0.26791329701E+02  0.51100000000E-03 0.  1.
        -12    1    3    3    0    0  0.50465521240E-01 -0.10727234792E+02  0.19227782743E+02  0.22017805119E+02  0.00000000000E+00 0.  1.
</event>
<event>
 7    1  0.2577508E-013  0.7246160E+02  0.7816164E-02  0.1226708E+00
        -11   -1    0    0    0    0  0.00000000000E+00  0.00000000000E+00  0.45593999997E+02  0.45594000000E+02  0.51100000000E-03 0.  1.
         11   -1    0    0    0    0 -0.00000000000E+00 -0.00000000000E+00 -0.45593999997E+02  0.45594000000E+02  0.51100000000E-03 0. -1.
    9900012    2    1    2    0    0 -0.18187589558E+02  0.17085960179E+01 -0.41195193838E+01  0.72461597403E+02  0.70000035314E+02 0.  0.
        -12    1    1    2    0    0  0.18187589558E+02 -0.17085960179E+01  0.41195193838E+01  0.18726402597E+02  0.00000000000E+00 0.  1.
         11    1    3    3    0    0 -0.90173183589E+01 -0.13421003031E+02  0.10934721133E+02  0.19519310420E+02  0.51100000000E-03 0. -1.
        -11    1    3    3    0    0  0.16413381778E+01 -0.16882260699E+02 -0.54365275760E+01  0.17811809275E+02  0.51100000000E-03 0.  1.
         12    1    3    3    0    0 -0.10811609377E+02  0.32011859747E+02 -0.96177129411E+01  0.35130477708E+02  0.00000000000E+00 0. -1.
</event>
<event>
 7    1  0.2577508E-013  0.7246156E+02  0.7816164E-02  0.1226708E+00
        -11   -1    0    0    0    0  0.00000000000E+00  0.00000000000E+00  0.45593999997E+02  0.45594000000E+02  0.51100000000E-03 0. -1.
         11   -1    0    0    0    0 -0.00000000000E+00 -0.00000000000E+00 -0.45593999997E+02  0.45594000000E+02  0.51100000000E-03 0.  1.
    9900012    2    1    2    0    0 -0.10720023734E+02  0.14824084885E+02  0.40009132162E+01  0.72461555914E+02  0.69999981267E+02 0.  0.
        -12    1    1    2    0    0  0.10720023734E+02 -0.14824084885E+02 -0.40009132162E+01  0.18726444086E+02  0.00000000000E+00 0.  1.
         11    1    3    3    0    0  0.49023416851E+01 -0.51903185613E+01  0.95123500232E+01  0.11893576585E+02  0.51100000000E-03 0. -1.
        -11    1    3    3    0    0  0.19452907272E+02  0.15431218089E+02 -0.44999610937E+00  0.24834262417E+02  0.51100000000E-03 0.  1.
        -12    1    3    3    0    0 -0.35075272691E+02  0.45831853574E+01 -0.50614406977E+01  0.35733716911E+02  0.00000000000E+00 0.  1.
</event>
<event>
 7    1  0.2577508E-013  0.7246146E+02  0.7816164E-02  0.1226708E+00
        -11   -1    0    0    0    0  0.00000000000E+00  0.00000000000E+00  0.45593999997E+02  0.45594000000E+02  0.51100000000E-03 0.  1.
         11   -1    0    0    0    0 -0.00000000000E+00 -0.00000000000E+00 -0.45593999997E+02  0.45594000000E+02  0.51100000000E-03 0. -1.
    9900012    2    1    2    0    0  0.19016339522E+01  0.12730317729E+01 -0.18586191001E+02  0.72461459542E+02  0.69999855724E+02 0.  0.
        -12    1    1    2    0    0 -0.19016339522E+01 -0.12730317729E+01  0.18586191001E+02  0.18726540458E+02  0.00000000000E+00 0.  1.
         11    1    3    3    0    0 -0.20848141490E+02 -0.20289424821E+01 -0.19619696110E+02  0.28700071200E+02  0.51100000000E-03 0. -1.
        -11    1    3    3    0    0  0.63944072141E+00 -0.70124939106E+01  0.14336502824E+02  0.15972453436E+02  0.51100000000E-03 0.  1.
        -12    1    3    3    0    0  0.22110334721E+02  0.10314468165E+02 -0.13302997716E+02  0.27788934906E+02  0.00000000000E+00 0.  1.
</event>
<event>
 7    1  0.2577508E-013  0.7246162E+02  0.7816164E-02  0.1226708E+00
        -11   -1    0    0    0    0  0.00000000000E+00  0.00000000000E+00  0.45593999997E+02  0.45594000000E+02  0.51100000000E-03 0.  1.
         11   -1    0    0    0    0 -0.00000000000E+00 -0.00000000000E+00 -0.45593999997E+02  0.45594000000E+02  0.51100000000E-03 0. -1.
    9900012    2    1    2    0    0  0.55971118691E+01 -0.13687420989E+02 -0.11489303556E+02  0.72461621525E+02  0.70000066737E+02 0.  0.
        -12    1    1    2    0    0 -0.55971118691E+01  0.13687420989E+02  0.11489303556E+02  0.18726378475E+02  0.00000000000E+00 0.  1.
         11    1    3    3    0    0  0.62602382500E+01  0.85076747508E+01 -0.28613744071E+01  0.10943426171E+02  0.51100000000E-03 0. -1.
        -11    1    3    3    0    0 -0.20916240517E+02  0.31987191484E+01 -0.17926323492E+02  0.27732183394E+02  0.51100000000E-03 0.  1.
        -12    1    3    3    0    0  0.20253114136E+02 -0.25393814888E+02  0.92983943434E+01  0.33786011960E+02  0.00000000000E+00 0.  1.
</event>
<event>
 7    1  0.2577508E-013  0.7246154E+02  0.7816164E-02  0.1226708E+00
        -11   -1    0    0    0    0  0.00000000000E+00  0.00000000000E+00  0.45593999997E+02  0.45594000000E+02  0.51100000000E-03 0.  1.
         11   -1    0    0    0    0 -0.00000000000E+00 -0.00000000000E+00 -0.45593999997E+02  0.45594000000E+02  0.51100000000E-03 0. -1.
    9900012    2    1    2    0    0 -0.12081859695E+02  0.15831772065E+01 -0.14219790291E+02  0.72461542254E+02  0.69999963473E+02 0.  0.
        -12    1    1    2    0    0  0.12081859695E+02 -0.15831772065E+01  0.14219790291E+02  0.18726457746E+02  0.00000000000E+00 0.  1.
         11    1    3    3    0    0 -0.15538086271E+02 -0.23471287792E+02 -0.11500336023E+02  0.30407091351E+02  0.51100000000E-03 0. -1.
        -11    1    3    3    0    0 -0.54035526126E+00 -0.64003662819E+01 -0.76246625198E+01  0.99695612317E+01  0.51100000000E-03 0.  1.
        -12    1    3    3    0    0  0.39965818366E+01  0.31454831280E+02  0.49052082511E+01  0.32084889671E+02  0.00000000000E+00 0.  1.
</event>
<event>
 7    1  0.2577508E-013  0.7246153E+02  0.7816164E-02  0.1226708E+00
        -11   -1    0    0    0    0  0.00000000000E+00  0.00000000000E+00  0.45593999997E+02  0.45594000000E+02  0.51100000000E-03 0.  1.
         11   -1    0    0    0    0 -0.00000000000E+00 -0.00000000000E+00 -0.45593999997E+02  0.45594000000E+02  0.51100000000E-03 0. -1.
    9900012    2    1    2    0    0 -0.31870275746E+01  0.16248264140E+01 -0.18381610842E+02  0.72461526152E+02  0.69999942497E+02 0.  0.
        -12    1    1    2    0    0  0.31870275746E+01 -0.16248264140E+01  0.18381610842E+02  0.18726473848E+02  0.00000000000E+00 0.  1.
         11    1    3    3    0    0 -0.13269810095E+02  0.19483198578E+02 -0.27018032025E+02  0.35856058645E+02  0.51100000000E-03 0. -1.
        -11    1    3    3    0    0  0.14627029855E+02  0.23337085886E+01  0.25317917140E+01  0.15026848229E+02  0.51100000000E-03 0.  1.
        -12    1    3    3    0    0 -0.45442473346E+01 -0.20192080753E+02  0.61046294697E+01  0.21578619278E+02  0.00000000000E+00 0.  1.
</event>
<event>
 7    1  0.2577508E-013  0.7246158E+02  0.7816164E-02  0.1226708E+00
        -11   -1    0    0    0    0  0.00000000000E+00  0.00000000000E+00  0.45593999997E+02  0.45594000000E+02  0.51100000000E-03 0. -1.
         11   -1    0    0    0    0 -0.00000000000E+00 -0.00000000000E+00 -0.45593999997E+02  0.45594000000E+02  0.51100000000E-03 0.  1.
    9900012    2    1    2    0    0  0.18360049275E+02 -0.21608191405E+01  0.29863691052E+01  0.72461576178E+02  0.70000007664E+02 0.  0.
        -12    1    1    2    0    0 -0.18360049275E+02  0.21608191405E+01 -0.29863691052E+01  0.18726423822E+02  0.00000000000E+00 0.  1.
         11    1    3    3    0    0  0.17892206149E+02 -0.88324011554E+01  0.17932243073E+01  0.20033921352E+02  0.51100000000E-03 0. -1.
        -11    1    3    3    0    0  0.25342375642E+02 -0.20474046271E+01  0.46400227376E+01  0.25844877252E+02  0.51100000000E-03 0.  1.
         12    1    3    3    0    0 -0.24874532517E+02  0.87189866420E+01 -0.34468779397E+01  0.26582777573E+02  0.00000000000E+00 0. -1.
</event>
<event>
 7    1  0.2577508E-013  0.7246154E+02  0.7816164E-02  0.1226708E+00
        -11   -1    0    0    0    0  0.00000000000E+00  0.00000000000E+00  0.45593999997E+02  0.45594000000E+02  0.51100000000E-03 0. -1.
         11   -1    0    0    0    0 -0.00000000000E+00 -0.00000000000E+00 -0.45593999997E+02  0.45594000000E+02  0.51100000000E-03 0.  1.
    9900012    2    1    2    0    0  0.10619896138E+01 -0.15419854749E+02  0.10572632140E+02  0.72461540303E+02  0.69999960931E+02 0.  0.
        -12    1    1    2    0    0 -0.10619896138E+01  0.15419854749E+02 -0.10572632140E+02  0.18726459697E+02  0.00000000000E+00 0.  1.
         11    1    3    3    0    0 -0.24522543797E+02 -0.13066600208E+01  0.11686868689E+02  0.27196422829E+02  0.51100000000E-03 0. -1.
        -11    1    3    3    0    0  0.24327567318E+00  0.64002834118E+01  0.90741387494E+01  0.11106880980E+02  0.51100000000E-03 0.  1.
        -12    1    3    3    0    0  0.25341257738E+02 -0.20513478140E+02 -0.10188375299E+02  0.34158236494E+02  0.00000000000E+00 0.  1.
</event>
<event>
 7    1  0.2577508E-013  0.7246157E+02  0.7816164E-02  0.1226708E+00
        -11   -1    0    0    0    0  0.00000000000E+00  0.00000000000E+00  0.45593999997E+02  0.45594000000E+02  0.51100000000E-03 0.  1.
         11   -1    0    0    0    0 -0.00000000000E+00 -0.00000000000E+00 -0.45593999997E+02  0.45594000000E+02  0.51100000000E-03 0. -1.
    9900012    2    1    2    0    0  0.11269905333E+02 -0.10886047641E+01 -0.14915875283E+02  0.72461570495E+02  0.70000000261E+02 0.  0.
        -12    1    1    2    0    0 -0.11269905333E+02  0.10886047641E+01  0.14915875283E+02  0.18726429505E+02  0.00000000000E+00 0.  1.
         11    1    3    3    0    0  0.17344373108E+02 -0.19110958968E+01  0.20589085000E+02  0.26988701107E+02  0.51100000000E-03 0.  1.
        -11    1    3    3    0    0  0.40967950395E+01 -0.83934798723E+01 -0.24118529746E+01  0.96463085683E+01  0.51100000000E-03 0. -1.
         12    1    3    3    0    0 -0.10171262815E+02  0.92159710051E+01 -0.33093107309E+02  0.35826560820E+02  0.00000000000E+00 0. -1.
</event>
<event>
 7    1  0.2577508E-013  0.7246166E+02  0.7816164E-02  0.1226708E+00
        -11   -1    0    0    0    0  0.00000000000E+00  0.00000000000E+00  0.45593999997E+02  0.45594000000E+02  0.51100000000E-03 0. -1.
         11   -1    0    0    0    0 -0.00000000000E+00 -0.00000000000E+00 -0.45593999997E+02  0.45594000000E+02  0.51100000000E-03 0.  1.
    9900012    2    1    2    0    0 -0.35162797285E-01  0.16957292181E+02  0.79451194727E+01  0.72461657112E+02  0.70000113096E+02 0.  0.
        -12    1    1    2    0    0  0.35162797285E-01 -0.16957292181E+02 -0.79451194727E+01  0.18726342888E+02  0.00000000000E+00 0.  1.
         11    1    3    3    0    0  0.44166296343E+01 -0.36232895205E+01  0.62677675821E+01  0.84805515740E+01  0.51100000000E-03 0. -1.
        -11    1    3    3    0    0  0.95194855504E+01  0.38614411239E+02 -0.53075392852E+01  0.40123102248E+02  0.51100000000E-03 0.  1.
         12    1    3    3    0    0 -0.13971277982E+02 -0.18033829537E+02  0.69848911759E+01  0.23858003290E+02  0.00000000000E+00 0. -1.
</event>
<event>
 7    1  0.2577508E-013  0.7246161E+02  0.7816164E-02  0.1226708E+00
        -11   -1    0    0    0    0  0.00000000000E+00  0.00000000000E+00  0.45593999997E+02  0.45594000000E+02  0.51100000000E-03 0.  1.
         11   -1    0    0    0    0 -0.00000000000E+00 -0.00000000000E+00 -0.45593999997E+02  0.45594000000E+02  0.51100000000E-03 0. -1.
    9900012    2    1    2    0    0  0.98254283202E+01 -0.81233102828E+01 -0.13716801113E+02  0.72461605676E+02  0.70000046091E+02 0.  0.
        -12    1    1    2    0    0 -0.98254283202E+01  0.81233102828E+01  0.13716801113E+02  0.18726394324E+02  0.00000000000E+00 0.  1.
         11    1    3    3    0    0  0.19803155269E+02 -0.13099333827E+02 -0.87819389785E+00  0.23759813343E+02  0.51100000000E-03 0.  1.
        -11    1    3    3    0    0  0.17010281401E+02 -0.57212154596E+01 -0.47028068785E+01  0.18552583984E+02  0.51100000000E-03 0. -1.
         12    1    3    3    0    0 -0.26988008349E+02  0.10697239003E+02 -0.81358003365E+01  0.30149208349E+02  0.00000000000E+00 0. -1.
</event>
<event>
 7    1  0.2577508E-013  0.7246151E+02  0.7816164E-02  0.1226708E+00
        -11   -1    0    0    0    0  0.00000000000E+00  0.00000000000E+00  0.45593999997E+02  0.45594000000E+02  0.51100000000E-03 0.  1.
         11   -1    0    0    0    0 -0.00000000000E+00 -0.00000000000E+00 -0.45593999997E+02  0.45594000000E+02  0.51100000000E-03 0. -1.
    9900012    2    1    2    0    0 -0.95159518748E+01  0.12997199778E+02  0.95499113906E+01  0.72461512082E+02  0.69999924168E+02 0.  0.
        -12    1    1    2    0    0  0.95159518748E+01 -0.12997199778E+02 -0.95499113906E+01  0.18726487918E+02  0.00000000000E+00 0.  1.
         11    1    3    3    0    0 -0.15311823852E+02  0.92623017022E+01 -0.39074790655E+01  0.18316947764E+02  0.51100000000E-03 0.  1.
        -11    1    3    3    0    0  0.28034909792E+02  0.32387525739E+01  0.14786314018E+02  0.31860332199E+02  0.51100000000E-03 0. -1.
         12    1    3    3    0    0 -0.22239037816E+02  0.49614550212E+00 -0.13289235619E+01  0.22284232120E+02  0.00000000000E+00 0. -1.
</event>
<event>
 7    1  0.2577508E-013  0.7246157E+02  0.7816164E-02  0.1226708E+00
        -11   -1    0    0    0    0  0.00000000000E+00  0.00000000000E+00  0.45593999997E+02  0.45594000000E+02  0.51100000000E-03 0.  1.
         11   -1    0    0    0    0 -0.00000000000E+00 -0.00000000000E+00 -0.45593999997E+02  0.45594000000E+02  0.51100000000E-03 0. -1.
    9900012    2    1    2    0    0 -0.15222316321E+02  0.35806457489E+01 -0.10302391720E+02  0.72461569125E+02  0.69999998477E+02 0.  0.
        -12    1    1    2    0    0  0.15222316321E+02 -0.35806457489E+01  0.10302391720E+02  0.18726430875E+02  0.00000000000E+00 0.  1.
         11    1    3    3    0    0 -0.31809522252E+02 -0.97735024142E+01 -0.68093717837E+01  0.33966668952E+02  0.51100000000E-03 0. -1.
        -11    1    3    3    0    0 -0.59290876825E+01 -0.54793470639E+01 -0.42644179563E+01  0.91303113726E+01  0.51100000000E-03 0.  1.
        -12    1    3    3    0    0  0.22516293613E+02  0.18833495227E+02  0.77139802020E+00  0.29364588801E+02  0.00000000000E+00 0.  1.
</event>
<event>
 7    1  0.2577508E-013  0.7246155E+02  0.7816164E-02  0.1226708E+00
        -11   -1    0    0    0    0  0.00000000000E+00  0.00000000000E+00  0.45593999997E+02  0.45594000000E+02  0.51100000000E-03 0.  1.
         11   -1    0    0    0    0 -0.00000000000E+00 -0.00000000000E+00 -0.45593999997E+02  0.45594000000E+02  0.51100000000E-03 0. -1.
    9900012    2    1    2    0    0  0.15551808649E+02  0.10044865627E+02  0.28146104321E+01  0.72461545194E+02  0.69999967302E+02 0.  0.
        -12    1    1    2    0    0 -0.15551808649E+02 -0.10044865627E+02 -0.28146104321E+01  0.18726454806E+02  0.00000000000E+00 0.  1.
         11    1    3    3    0    0 -0.13072203020E+01 -0.12002804908E+02 -0.53663701037E+01  0.13212648445E+02  0.51100000000E-03 0.  1.
        -11    1    3    3    0    0  0.68922695335E+01 -0.15707226855E+02 -0.52774817851E+01  0.17946369244E+02  0.51100000000E-03 0. -1.
        -12    1    3    3    0    0  0.99667594178E+01  0.37754897390E+02  0.13458462321E+02  0.41302527505E+02  0.00000000000E+00 0.  1.
</event>
<event>
 7    1  0.2577508E-013  0.7246155E+02  0.7816164E-02  0.1226708E+00
        -11   -1    0    0    0    0  0.00000000000E+00  0.00000000000E+00  0.45593999997E+02  0.45594000000E+02  0.51100000000E-03 0.  1.
         11   -1    0    0    0    0 -0.00000000000E+00 -0.00000000000E+00 -0.45593999997E+02  0.45594000000E+02  0.51100000000E-03 0. -1.
    9900012    2    1    2    0    0  0.11597549599E+01  0.75945317677E+01 -0.17077991968E+02  0.72461554689E+02  0.69999979671E+02 0.  0.
        -12    1    1    2    0    0 -0.11597549599E+01 -0.75945317677E+01  0.17077991968E+02  0.18726445311E+02  0.00000000000E+00 0.  1.
         11    1    3    3    0    0  0.16906595698E+01  0.22399749809E+02 -0.19839538483E+02  0.29970225371E+02  0.51100000000E-03 0. -1.
        -11    1    3    3    0    0  0.18984728637E+02 -0.21188245993E+01  0.56082379537E+00  0.19110831031E+02  0.51100000000E-03 0.  1.
        -12    1    3    3    0    0 -0.19515633247E+02 -0.12686393442E+02  0.22007227199E+01  0.23380498286E+02  0.00000000000E+00 0.  1.
</event>
<event>
 7    1  0.2577508E-013  0.7246154E+02  0.7816164E-02  0.1226708E+00
        -11   -1    0    0    0    0  0.00000000000E+00  0.00000000000E+00  0.45593999997E+02  0.45594000000E+02  0.51100000000E-03 0.  1.
         11   -1    0    0    0    0 -0.00000000000E+00 -0.00000000000E+00 -0.45593999997E+02  0.45594000000E+02  0.51100000000E-03 0. -1.
    9900012    2    1    2    0    0  0.53218272404E+01 -0.41186244811E+01 -0.17475562215E+02  0.72461543113E+02  0.69999964592E+02 0.  0.
        -12    1    1    2    0    0 -0.53218272404E+01  0.41186244811E+01  0.17475562215E+02  0.18726456887E+02  0.00000000000E+00 0.  1.
         11    1    3    3    0    0 -0.15150196725E+01 -0.14500662979E+02 -0.14642047643E+02  0.20662866957E+02  0.51100000000E-03 0. -1.
        -11    1    3    3    0    0 -0.59262880941E+01 -0.13774442114E+02  0.13322312911E+02  0.20058418873E+02  0.51100000000E-03 0.  1.
         12    1    3    3    0    0  0.12763135007E+02  0.24156480612E+02 -0.16155827483E+02  0.31740257283E+02  0.00000000000E+00 0. -1.
</event>
<event>
 7    1  0.2577508E-013  0.7246159E+02  0.7816164E-02  0.1226708E+00
        -11   -1    0    0    0    0  0.00000000000E+00  0.00000000000E+00  0.45593999997E+02  0.45594000000E+02  0.51100000000E-03 0.  1.
         11   -1    0    0    0    0 -0.00000000000E+00 -0.00000000000E+00 -0.45593999997E+02  0.45594000000E+02  0.51100000000E-03 0. -1.
    9900012    2    1    2    0    0  0.19074303135E+00  0.14005508792E+02 -0.12429318233E+02  0.72461585203E+02  0.70000019421E+02 0.  0.
        -12    1    1    2    0    0 -0.19074303135E+00 -0.14005508792E+02  0.12429318233E+02  0.18726414797E+02  0.00000000000E+00 0.  1.
         11    1    3    3    0    0 -0.14108365079E+02  0.12321847913E+02  0.38152052161E+01  0.19116215428E+02  0.51100000000E-03 0. -1.
        -11    1    3    3    0    0 -0.12688831276E+02 -0.14410157323E+02 -0.84072115242E+01  0.20960445584E+02  0.51100000000E-03 0.  1.
         12    1    3    3    0    0  0.26987939386E+02  0.16093818202E+02 -0.78373119247E+01  0.32384924191E+02  0.00000000000E+00 0. -1.
</event>
<event>
 7    1  0.2577508E-013  0.7246155E+02  0.7816164E-02  0.1226708E+00
        -11   -1    0    0    0    0  0.00000000000E+00  0.00000000000E+00  0.45593999997E+02  0.45594000000E+02  0.51100000000E-03 0.  1.
         11   -1    0    0    0    0 -0.00000000000E+00 -0.00000000000E+00 -0.45593999997E+02  0.45594000000E+02  0.51100000000E-03 0. -1.
    9900012    2    1    2    0    0  0.80972239430E+01 -0.16233384087E+02 -0.46467356479E+01  0.72461549544E+02  0.69999972969E+02 0.  0.
        -12    1    1    2    0    0 -0.80972239430E+01  0.16233384087E+02  0.46467356479E+01  0.18726450456E+02  0.00000000000E+00 0.  1.
         11    1    3    3    0    0 -0.98101271345E+01 -0.65445086915E+01  0.11603261013E+02  0.16544027769E+02  0.51100000000E-03 0. -1.
        -11    1    3    3    0    0 -0.11502517341E+02  0.80686771111E+01 -0.16356059637E+02  0.21562285190E+02  0.51100000000E-03 0.  1.
         12    1    3    3    0    0  0.29409868419E+02 -0.17757552507E+02  0.10606297598E+00  0.34355236585E+02  0.00000000000E+00 0. -1.
</event>
<event>
 7    1  0.2577508E-013  0.7246143E+02  0.7816164E-02  0.1226708E+00
        -11   -1    0    0    0    0  0.00000000000E+00  0.00000000000E+00  0.45593999997E+02  0.45594000000E+02  0.51100000000E-03 0. -1.
         11   -1    0    0    0    0 -0.00000000000E+00 -0.00000000000E+00 -0.45593999997E+02  0.45594000000E+02  0.51100000000E-03 0.  1.
    9900012    2    1    2    0    0  0.14418346693E+01 -0.14467127351E+01  0.18614847540E+02  0.72461430269E+02  0.69999817590E+02 0.  0.
        -12    1    1    2    0    0 -0.14418346693E+01  0.14467127351E+01 -0.18614847540E+02  0.18726569731E+02  0.00000000000E+00 0.  1.
         11    1    3    3    0    0 -0.19198036277E+02  0.15485013440E+02 -0.81363099759E+01  0.25972096149E+02  0.51100000000E-03 0. -1.
        -11    1    3    3    0    0  0.61919240020E+01  0.35234599959E+01 -0.28875145254E+01  0.76871603070E+01  0.51100000000E-03 0.  1.
         12    1    3    3    0    0  0.14447946944E+02 -0.20455186171E+02  0.29638672042E+02  0.38802173812E+02  0.00000000000E+00 0. -1.
</event>
<event>
 7    1  0.2577508E-013  0.7246153E+02  0.7816164E-02  0.1226708E+00
        -11   -1    0    0    0    0  0.00000000000E+00  0.00000000000E+00  0.45593999997E+02  0.45594000000E+02  0.51100000000E-03 0. -1.
         11   -1    0    0    0    0 -0.00000000000E+00 -0.00000000000E+00 -0.45593999997E+02  0.45594000000E+02  0.51100000000E-03 0.  1.
    9900012    2    1    2    0    0 -0.93169545747E+01  0.11840222031E+02  0.11121331224E+02  0.72461534544E+02  0.69999953428E+02 0.  0.
        -12    1    1    2    0    0  0.93169545747E+01 -0.11840222031E+02 -0.11121331224E+02  0.18726465456E+02  0.00000000000E+00 0.  1.
         11    1    3    3    0    0  0.10807553134E+02  0.14103678698E+01  0.56773795443E+01  0.12289222149E+02  0.51100000000E-03 0. -1.
        -11    1    3    3    0    0 -0.66725377489E+01 -0.17057427722E+02 -0.14742158658E+02  0.23511908529E+02  0.51100000000E-03 0.  1.
         12    1    3    3    0    0 -0.13451969960E+02  0.27487281883E+02  0.20186110338E+02  0.36660403867E+02  0.00000000000E+00 0. -1.
</event>
<event>
 7    1  0.2577508E-013  0.7246154E+02  0.7816164E-02  0.1226708E+00
        -11   -1    0    0    0    0  0.00000000000E+00  0.00000000000E+00  0.45593999997E+02  0.45594000000E+02  0.51100000000E-03 0.  1.
         11   -1    0    0    0    0 -0.00000000000E+00 -0.00000000000E+00 -0.45593999997E+02  0.45594000000E+02  0.51100000000E-03 0. -1.
    9900012    2    1    2    0    0  0.14322540228E+02 -0.71279862649E+01  0.97332898282E+01  0.72461540707E+02  0.69999961457E+02 0.  0.
        -12    1    1    2    0    0 -0.14322540228E+02  0.71279862649E+01 -0.97332898282E+01  0.18726459293E+02  0.00000000000E+00 0.  1.
         11    1    3    3    0    0 -0.16945081759E+02  0.49074949642E+00 -0.18589505277E+01  0.17053806854E+02  0.51100000000E-03 0. -1.
        -11    1    3    3    0    0 -0.17286369886E+01  0.14125050182E+02  0.15363682723E-01  0.14230441482E+02  0.51100000000E-03 0.  1.
        -12    1    3    3    0    0  0.32996258975E+02 -0.21743785943E+02  0.11576876673E+02  0.41177292371E+02  0.00000000000E+00 0.  1.
</event>
<event>
 7    1  0.2577508E-013  0.7246154E+02  0.7816164E-02  0.1226708E+00
        -11   -1    0    0    0    0  0.00000000000E+00  0.00000000000E+00  0.45593999997E+02  0.45594000000E+02  0.51100000000E-03 0. -1.
         11   -1    0    0    0    0 -0.00000000000E+00 -0.00000000000E+00 -0.45593999997E+02  0.45594000000E+02  0.51100000000E-03 0.  1.
    9900012    2    1    2    0    0  0.59450834777E+01 -0.13231465919E+02  0.11843329707E+02  0.72461543675E+02  0.69999965324E+02 0.  0.
        -12    1    1    2    0    0 -0.59450834777E+01  0.13231465919E+02 -0.11843329707E+02  0.18726456325E+02  0.00000000000E+00 0.  1.
         11    1    3    3    0    0 -0.24021807920E+02 -0.15891022207E+01  0.74164631476E+00  0.24085733145E+02  0.51100000000E-03 0. -1.
        -11    1    3    3    0    0  0.14921244421E+02  0.10928986692E+02  0.10445944061E+02  0.21241563802E+02  0.51100000000E-03 0.  1.
        -12    1    3    3    0    0  0.15045646977E+02 -0.22571350390E+02  0.65573933047E+00  0.27134246728E+02  0.00000000000E+00 0.  1.
</event>
<event>
 7    1  0.2577508E-013  0.7246155E+02  0.7816164E-02  0.1226708E+00
        -11   -1    0    0    0    0  0.00000000000E+00  0.00000000000E+00  0.45593999997E+02  0.45594000000E+02  0.51100000000E-03 0.  1.
         11   -1    0    0    0    0 -0.00000000000E+00 -0.00000000000E+00 -0.45593999997E+02  0.45594000000E+02  0.51100000000E-03 0. -1.
    9900012    2    1    2    0    0  0.13964812345E+02  0.93092230441E+01 -0.83067552575E+01  0.72461553449E+02  0.69999978056E+02 0.  0.
        -12    1    1    2    0    0 -0.13964812345E+02 -0.93092230441E+01  0.83067552575E+01  0.18726446551E+02  0.00000000000E+00 0.  1.
         11    1    3    3    0    0 -0.12567026281E+02 -0.11056230095E+02 -0.22709869978E+02  0.28211851555E+02  0.51100000000E-03 0. -1.
        -11    1    3    3    0    0 -0.38023456172E+00  0.37724987245E+00  0.10484872762E+02  0.10498545275E+02  0.51100000000E-03 0.  1.
        -12    1    3    3    0    0  0.26912073188E+02  0.19988203267E+02  0.39182419587E+01  0.33751156619E+02  0.00000000000E+00 0.  1.
</event>
<event>
 7    1  0.2577508E-013  0.7246156E+02  0.7816164E-02  0.1226708E+00
        -11   -1    0    0    0    0  0.00000000000E+00  0.00000000000E+00  0.45593999997E+02  0.45594000000E+02  0.51100000000E-03 0.  1.
         11   -1    0    0    0    0 -0.00000000000E+00 -0.00000000000E+00 -0.45593999997E+02  0.45594000000E+02  0.51100000000E-03 0. -1.
    9900012    2    1    2    0    0 -0.17247802426E+02 -0.72294260774E+01 -0.96354502410E+00  0.72461555892E+02  0.69999981238E+02 0.  0.
        -12    1    1    2    0    0  0.17247802426E+02  0.72294260774E+01  0.96354502410E+00  0.18726444108E+02  0.00000000000E+00 0.  1.
         11    1    3    3    0    0  0.60867427278E+00 -0.16749367723E+02  0.69265468652E+01  0.18135293083E+02  0.51100000000E-03 0. -1.
        -11    1    3    3    0    0  0.13231700511E+02  0.16912957212E+02 -0.27190215953E+00  0.21475566375E+02  0.51100000000E-03 0.  1.
        -12    1    3    3    0    0 -0.31088177210E+02 -0.73930155665E+01 -0.76181897298E+01  0.32850696434E+02  0.00000000000E+00 0.  1.
</event>
<event>
 7    1  0.2577508E-013  0.7246157E+02  0.7816164E-02  0.1226708E+00
        -11   -1    0    0    0    0  0.00000000000E+00  0.00000000000E+00  0.45593999997E+02  0.45594000000E+02  0.51100000000E-03 0. -1.
         11   -1    0    0    0    0 -0.00000000000E+00 -0.00000000000E+00 -0.45593999997E+02  0.45594000000E+02  0.51100000000E-03 0.  1.
    9900012    2    1    2    0    0  0.11794699909E+02  0.24332498512E+01 -0.14340279455E+02  0.72461567728E+02  0.69999996657E+02 0.  0.
        -12    1    1    2    0    0 -0.11794699909E+02 -0.24332498512E+01  0.14340279455E+02  0.18726432272E+02  0.00000000000E+00 0.  1.
         11    1    3    3    0    0 -0.72576139665E-01  0.12493642549E+01  0.91556347921E+01  0.92407698296E+01  0.51100000000E-03 0. -1.
        -11    1    3    3    0    0 -0.20163180280E+02 -0.86655910132E+01  0.58651447665E+00  0.21954277627E+02  0.51100000000E-03 0.  1.
        -12    1    3    3    0    0  0.32030456329E+02  0.98494766095E+01 -0.24082428724E+02  0.41266520272E+02  0.00000000000E+00 0.  1.
</event>
<event>
 7    1  0.2577508E-013  0.7246165E+02  0.7816164E-02  0.1226708E+00
        -11   -1    0    0    0    0  0.00000000000E+00  0.00000000000E+00  0.45593999997E+02  0.45594000000E+02  0.51100000000E-03 0.  1.
         11   -1    0    0    0    0 -0.00000000000E+00 -0.00000000000E+00 -0.45593999997E+02  0.45594000000E+02  0.51100000000E-03 0. -1.
    9900012    2    1    2    0    0 -0.15255284531E+02  0.10820858342E+02 -0.92826066362E+00  0.72461645597E+02  0.70000098096E+02 0.  0.
        -12    1    1    2    0    0  0.15255284531E+02 -0.10820858342E+02  0.92826066362E+00  0.18726354403E+02  0.00000000000E+00 0.  1.
         11    1    3    3    0    0  0.14082008665E+02  0.94626789946E+01  0.38589238538E+01  0.17399326290E+02  0.51100000000E-03 0. -1.
        -11    1    3    3    0    0 -0.14614015728E+02  0.22751314785E+02  0.46369272808E+01  0.27435248769E+02  0.51100000000E-03 0.  1.
        -12    1    3    3    0    0 -0.14723277468E+02 -0.21393135438E+02 -0.94241117983E+01  0.27627070537E+02  0.00000000000E+00 0.  1.
</event>
<event>
 7    1  0.2577508E-013  0.7246155E+02  0.7816164E-02  0.1226708E+00
        -11   -1    0    0    0    0  0.00000000000E+00  0.00000000000E+00  0.45593999997E+02  0.45594000000E+02  0.51100000000E-03 0.  1.
         11   -1    0    0    0    0 -0.00000000000E+00 -0.00000000000E+00 -0.45593999997E+02  0.45594000000E+02  0.51100000000E-03 0. -1.
    9900012    2    1    2    0    0 -0.72644169653E+01 -0.88732455796E+00 -0.17237197562E+02  0.72461546024E+02  0.69999968383E+02 0.  0.
        -12    1    1    2    0    0  0.72644169653E+01  0.88732455796E+00  0.17237197562E+02  0.18726453976E+02  0.00000000000E+00 0.  1.
         11    1    3    3    0    0  0.95430265150E+01 -0.80209757041E+01 -0.10956146273E+02  0.16596461904E+02  0.51100000000E-03 0. -1.
        -11    1    3    3    0    0  0.60361596764E+01 -0.14590811989E+02 -0.16390858787E+02  0.22759333693E+02  0.51100000000E-03 0.  1.
        -12    1    3    3    0    0 -0.22843603157E+02  0.21724463135E+02  0.10109807497E+02  0.33105750427E+02  0.00000000000E+00 0.  1.
</event>
<event>
 7    1  0.2577508E-013  0.7246159E+02  0.7816164E-02  0.1226708E+00
        -11   -1    0    0    0    0  0.00000000000E+00  0.00000000000E+00  0.45593999997E+02  0.45594000000E+02  0.51100000000E-03 0. -1.
         11   -1    0    0    0    0 -0.00000000000E+00 -0.00000000000E+00 -0.45593999997E+02  0.45594000000E+02  0.51100000000E-03 0.  1.
    9900012    2    1    2    0    0  0.13509429911E+02 -0.47507337054E+01  0.12066662390E+02  0.72461587943E+02  0.70000022991E+02 0.  0.
        -12    1    1    2    0    0 -0.13509429911E+02  0.47507337054E+01 -0.12066662390E+02  0.18726412057E+02  0.00000000000E+00 0.  1.
         11    1    3    3    0    0  0.19833630102E+02 -0.25641173372E+02 -0.89410940355E+00  0.32429031543E+02  0.51100000000E-03 0. -1.
        -11    1    3    3    0    0  0.45786796964E+01  0.18508011394E+02  0.19356584587E+02  0.27169618338E+02  0.51100000000E-03 0.  1.
        -12    1    3    3    0    0 -0.10902879887E+02  0.23824282734E+01 -0.63958127932E+01  0.12862938062E+02  0.00000000000E+00 0.  1.
</event>
<event>
 7    1  0.2577508E-013  0.7246162E+02  0.7816164E-02  0.1226708E+00
        -11   -1    0    0    0    0  0.00000000000E+00  0.00000000000E+00  0.45593999997E+02  0.45594000000E+02  0.51100000000E-03 0.  1.
         11   -1    0    0    0    0 -0.00000000000E+00 -0.00000000000E+00 -0.45593999997E+02  0.45594000000E+02  0.51100000000E-03 0. -1.
    9900012    2    1    2    0    0  0.89424290099E+01 -0.88333834123E+01 -0.13880984095E+02  0.72461617046E+02  0.70000060903E+02 0.  0.
        -12    1    1    2    0    0 -0.89424290099E+01  0.88333834123E+01  0.13880984095E+02  0.18726382954E+02  0.00000000000E+00 0.  1.
         11    1    3    3    0    0  0.18202909814E+02 -0.15916554549E+02 -0.59713704839E+01  0.24906623619E+02  0.51100000000E-03 0. -1.
        -11    1    3    3    0    0 -0.82014661786E+01 -0.18358790883E+02  0.20518959925E+01  0.20211866009E+02  0.51100000000E-03 0.  1.
         12    1    3    3    0    0 -0.10590146253E+01  0.25441962019E+02 -0.99615096034E+01  0.27343127417E+02  0.00000000000E+00 0. -1.
</event>
<event>
 7    1  0.2577508E-013  0.7246154E+02  0.7816164E-02  0.1226708E+00
        -11   -1    0    0    0    0  0.00000000000E+00  0.00000000000E+00  0.45593999997E+02  0.45594000000E+02  0.51100000000E-03 0.  1.
         11   -1    0    0    0    0 -0.00000000000E+00 -0.00000000000E+00 -0.45593999997E+02  0.45594000000E+02  0.51100000000E-03 0. -1.
    9900012    2    1    2    0    0 -0.67013269815E+00 -0.15400135301E+02 -0.10633302672E+02  0.72461538219E+02  0.69999958216E+02 0.  0.
        -12    1    1    2    0    0  0.67013269815E+00  0.15400135301E+02  0.10633302672E+02  0.18726461781E+02  0.00000000000E+00 0.  1.
         11    1    3    3    0    0  0.93072847314E+01 -0.19608948781E+02 -0.30568119990E+02  0.37490617244E+02  0.51100000000E-03 0. -1.
        -11    1    3    3    0    0  0.38084860063E+01 -0.41946682912E+01 -0.33907295084E+01  0.66027914243E+01  0.51100000000E-03 0.  1.
        -12    1    3    3    0    0 -0.13785903436E+02  0.84034817718E+01  0.23325546827E+02  0.28368129550E+02  0.00000000000E+00 0.  1.
</event>
<event>
 7    1  0.2577508E-013  0.7246157E+02  0.7816164E-02  0.1226708E+00
        -11   -1    0    0    0    0  0.00000000000E+00  0.00000000000E+00  0.45593999997E+02  0.45594000000E+02  0.51100000000E-03 0.  1.
         11   -1    0    0    0    0 -0.00000000000E+00 -0.00000000000E+00 -0.45593999997E+02  0.45594000000E+02  0.51100000000E-03 0. -1.
    9900012    2    1    2    0    0  0.14419410896E+02 -0.10038003293E+02  0.64806019062E+01  0.72461571570E+02  0.70000001662E+02 0.  0.
        -12    1    1    2    0    0 -0.14419410896E+02  0.10038003293E+02 -0.64806019062E+01  0.18726428430E+02  0.00000000000E+00 0.  1.
         11    1    3    3    0    0  0.18441577559E+02 -0.14288385248E+02 -0.84659087765E+01  0.24817762742E+02  0.51100000000E-03 0. -1.
        -11    1    3    3    0    0  0.10601549884E+02 -0.12856378662E+02 -0.51813636528E+01  0.17450669380E+02  0.51100000000E-03 0.  1.
        -12    1    3    3    0    0 -0.14623716547E+02  0.17106760617E+02  0.20127874335E+02  0.30193139448E+02  0.00000000000E+00 0.  1.
</event>
<event>
 7    1  0.2577508E-013  0.7246159E+02  0.7816164E-02  0.1226708E+00
        -11   -1    0    0    0    0  0.00000000000E+00  0.00000000000E+00  0.45593999997E+02  0.45594000000E+02  0.51100000000E-03 0.  1.
         11   -1    0    0    0    0 -0.00000000000E+00 -0.00000000000E+00 -0.45593999997E+02  0.45594000000E+02  0.51100000000E-03 0. -1.
    9900012    2    1    2    0    0 -0.15780095960E+02  0.86589386290E+01  0.51662193449E+01  0.72461588999E+02  0.70000024366E+02 0.  0.
        -12    1    1    2    0    0  0.15780095960E+02 -0.86589386290E+01 -0.51662193449E+01  0.18726411001E+02  0.00000000000E+00 0.  1.
         11    1    3    3    0    0  0.22159517173E+01  0.84496275509E+01  0.91426969835E+01  0.12644981461E+02  0.51100000000E-03 0. -1.
        -11    1    3    3    0    0 -0.48932949567E+01  0.18672657586E+02  0.19334365337E+02  0.27320874073E+02  0.51100000000E-03 0.  1.
         12    1    3    3    0    0 -0.13102752720E+02 -0.18463346508E+02 -0.23310842976E+02  0.32495733464E+02  0.00000000000E+00 0. -1.
</event>
<event>
 7    1  0.2577508E-013  0.7246150E+02  0.7816164E-02  0.1226708E+00
        -11   -1    0    0    0    0  0.00000000000E+00  0.00000000000E+00  0.45593999997E+02  0.45594000000E+02  0.51100000000E-03 0. -1.
         11   -1    0    0    0    0 -0.00000000000E+00 -0.00000000000E+00 -0.45593999997E+02  0.45594000000E+02  0.51100000000E-03 0.  1.
    9900012    2    1    2    0    0  0.99684775251E+01 -0.98776921303E+01  0.12399297528E+02  0.72461496718E+02  0.69999904153E+02 0.  0.
        -12    1    1    2    0    0 -0.99684775251E+01  0.98776921303E+01 -0.12399297528E+02  0.18726503282E+02  0.00000000000E+00 0.  1.
         11    1    3    3    0    0  0.27792778464E+01  0.52821624095E+01  0.36890320368E+01  0.70167359006E+01  0.51100000000E-03 0. -1.
        -11    1    3    3    0    0  0.46960582322E+00  0.22717922539E+02  0.13884722453E+02  0.26629120376E+02  0.51100000000E-03 0.  1.
         12    1    3    3    0    0  0.67195938555E+01 -0.37877777079E+02 -0.51744569620E+01  0.38815640441E+02  0.00000000000E+00 0. -1.
</event>
<event>
 7    1  0.2577508E-013  0.7246162E+02  0.7816164E-02  0.1226708E+00
        -11   -1    0    0    0    0  0.00000000000E+00  0.00000000000E+00  0.45593999997E+02  0.45594000000E+02  0.51100000000E-03 0.  1.
         11   -1    0    0    0    0 -0.00000000000E+00 -0.00000000000E+00 -0.45593999997E+02  0.45594000000E+02  0.51100000000E-03 0. -1.
    9900012    2    1    2    0    0  0.61396403144E+01 -0.12239974679E+02 -0.12773610478E+02  0.72461620532E+02  0.70000065444E+02 0.  0.
        -12    1    1    2    0    0 -0.61396403144E+01  0.12239974679E+02  0.12773610478E+02  0.18726379468E+02  0.00000000000E+00 0.  1.
         11    1    3    3    0    0  0.28001583372E+01  0.13989208981E+01  0.10749268346E+01  0.33095822022E+01  0.51100000000E-03 0. -1.
        -11    1    3    3    0    0  0.99062506213E+01  0.14411725538E+02  0.18755427455E+02  0.25643667711E+02  0.51100000000E-03 0.  1.
         12    1    3    3    0    0 -0.65667686441E+01 -0.28050621115E+02 -0.32603964768E+02  0.43508370619E+02  0.00000000000E+00 0. -1.
</event>
<event>
 7    1  0.2577508E-013  0.7246148E+02  0.7816164E-02  0.1226708E+00
        -11   -1    0    0    0    0  0.00000000000E+00  0.00000000000E+00  0.45593999997E+02  0.45594000000E+02  0.51100000000E-03 0.  1.
         11   -1    0    0    0    0 -0.00000000000E+00 -0.00000000000E+00 -0.45593999997E+02  0.45594000000E+02  0.51100000000E-03 0. -1.
    9900012    2    1    2    0    0 -0.81722298265E+01  0.88820878453E+01  0.14318026897E+02  0.72461475521E+02  0.69999876540E+02 0.  0.
        -12    1    1    2    0    0  0.81722298265E+01 -0.88820878453E+01 -0.14318026897E+02  0.18726524479E+02  0.00000000000E+00 0.  1.
         11    1    3    3    0    0 -0.15480586442E+02 -0.11699020227E+02 -0.58775199795E+01  0.20274636180E+02  0.51100000000E-03 0. -1.
        -11    1    3    3    0    0 -0.11367203530E+02  0.13891115488E+01  0.22563706457E+02  0.25303434477E+02  0.51100000000E-03 0.  1.
        -12    1    3    3    0    0  0.18675560145E+02  0.19191996524E+02 -0.23681595797E+01  0.26883404865E+02  0.00000000000E+00 0.  1.
</event>
<event>
 7    1  0.2577508E-013  0.7246157E+02  0.7816164E-02  0.1226708E+00
        -11   -1    0    0    0    0  0.00000000000E+00  0.00000000000E+00  0.45593999997E+02  0.45594000000E+02  0.51100000000E-03 0. -1.
         11   -1    0    0    0    0 -0.00000000000E+00 -0.00000000000E+00 -0.45593999997E+02  0.45594000000E+02  0.51100000000E-03 0.  1.
    9900012    2    1    2    0    0 -0.76859992164E+01 -0.11046785762E+02  0.13022027895E+02  0.72461567608E+02  0.69999996501E+02 0.  0.
        -12    1    1    2    0    0  0.76859992164E+01  0.11046785762E+02 -0.13022027895E+02  0.18726432392E+02  0.00000000000E+00 0.  1.
         11    1    3    3    0    0  0.82821966803E+01 -0.88099374455E+01  0.14939280881E+02  0.19219570577E+02  0.51100000000E-03 0. -1.
        -11    1    3    3    0    0 -0.28899070691E+01  0.65909849358E+01  0.22804926968E+02  0.23913538834E+02  0.51100000000E-03 0.  1.
        -12    1    3    3    0    0 -0.13078288828E+02 -0.88278332521E+01 -0.24722179954E+02  0.29328458198E+02  0.00000000000E+00 0.  1.
</event>
<event>
 7    1  0.2577508E-013  0.7246156E+02  0.7816164E-02  0.1226708E+00
        -11   -1    0    0    0    0  0.00000000000E+00  0.00000000000E+00  0.45593999997E+02  0.45594000000E+02  0.51100000000E-03 0. -1.
         11   -1    0    0    0    0 -0.00000000000E+00 -0.00000000000E+00 -0.45593999997E+02  0.45594000000E+02  0.51100000000E-03 0.  1.
    9900012    2    1    2    0    0 -0.37265550360E+01  0.73049646970E+01  0.16835379800E+02  0.72461555205E+02  0.69999980343E+02 0.  0.
        -12    1    1    2    0    0  0.37265550360E+01 -0.73049646970E+01 -0.16835379800E+02  0.18726444795E+02  0.00000000000E+00 0.  1.
         11    1    3    3    0    0  0.79733840934E+01 -0.13810358177E+02  0.23799691838E+02  0.28648318951E+02  0.51100000000E-03 0. -1.
        -11    1    3    3    0    0 -0.10223357418E+02 -0.47856664361E+01 -0.12959708760E+02  0.17186439176E+02  0.51100000000E-03 0.  1.
        -12    1    3    3    0    0 -0.14765817110E+01  0.25900989310E+02  0.59953967225E+01  0.26626797078E+02  0.00000000000E+00 0.  1.
</event>
<event>
 7    1  0.2577508E-013  0.7246163E+02  0.7816164E-02  0.1226708E+00
        -11   -1    0    0    0    0  0.00000000000E+00  0.00000000000E+00  0.45593999997E+02  0.45594000000E+02  0.51100000000E-03 0. -1.
         11   -1    0    0    0    0 -0.00000000000E+00 -0.00000000000E+00 -0.45593999997E+02  0.45594000000E+02  0.51100000000E-03 0.  1.
    9900012    2    1    2    0    0 -0.17696130957E+02 -0.37570915842E+01  0.48381786839E+01  0.72461634603E+02  0.70000083774E+02 0.  0.
        -12    1    1    2    0    0  0.17696130957E+02  0.37570915842E+01 -0.48381786839E+01  0.18726365397E+02  0.00000000000E+00 0.  1.
         11    1    3    3    0    0 -0.38541346493E+01 -0.27393831235E+02  0.66892169091E+01  0.28460884855E+02  0.51100000000E-03 0. -1.
        -11    1    3    3    0    0  0.68253673031E+01 -0.25468232625E+01 -0.71703717691E+01  0.10221848126E+02  0.51100000000E-03 0.  1.
        -12    1    3    3    0    0 -0.20667363610E+02  0.26183562913E+02  0.53193335439E+01  0.33778901622E+02  0.00000000000E+00 0.  1.
</event>
<event>
 7    1  0.2577508E-013  0.7246153E+02  0.7816164E-02  0.1226708E+00
        -11   -1    0    0    0    0  0.00000000000E+00  0.00000000000E+00  0.45593999997E+02  0.45594000000E+02  0.51100000000E-03 0. -1.
         11   -1    0    0    0    0 -0.00000000000E+00 -0.00000000000E+00 -0.45593999997E+02  0.45594000000E+02  0.51100000000E-03 0.  1.
    9900012    2    1    2    0    0 -0.92305400002E+01 -0.54643857948E+01  0.15349857171E+02  0.72461534878E+02  0.69999953863E+02 0.  0.
        -12    1    1    2    0    0  0.92305400002E+01  0.54643857948E+01 -0.15349857171E+02  0.18726465122E+02  0.00000000000E+00 0.  1.
         11    1    3    3    0    0  0.10420614302E+02 -0.24535987600E+02  0.90621604149E+01  0.28155401642E+02  0.51100000000E-03 0. -1.
        -11    1    3    3    0    0 -0.86457816556E+01 -0.77078055959E+01 -0.57732497559E+01  0.12941801287E+02  0.51100000000E-03 0.  1.
        -12    1    3    3    0    0 -0.11005372647E+02  0.26779407401E+02  0.12060946512E+02  0.31364331949E+02  0.00000000000E+00 0.  1.
</event>
<event>
 7    1  0.2577508E-013  0.7246159E+02  0.7816164E-02  0.1226708E+00
        -11   -1    0    0    0    0  0.00000000000E+00  0.00000000000E+00  0.45593999997E+02  0.45594000000E+02  0.51100000000E-03 0.  1.
         11   -1    0    0    0    0 -0.00000000000E+00 -0.00000000000E+00 -0.45593999997E+02  0.45594000000E+02  0.51100000000E-03 0. -1.
    9900012    2    1    2    0    0 -0.21566581863E+01  0.48135627106E+01 -0.17968219986E+02  0.72461588438E+02  0.70000023636E+02 0.  0.
        -12    1    1    2    0    0  0.21566581863E+01 -0.48135627106E+01  0.17968219986E+02  0.18726411562E+02  0.00000000000E+00 0.  1.
         11    1    3    3    0    0  0.16170333819E+02  0.24214092293E+01 -0.77258148521E+01  0.18084002153E+02  0.51100000000E-03 0. -1.
        -11    1    3    3    0    0  0.13666620195E+01  0.22003598881E+01 -0.27843691388E+02  0.27963914230E+02  0.51100000000E-03 0.  1.
        -12    1    3    3    0    0 -0.19693654025E+02  0.19179359322E+00  0.17601286254E+02  0.26413672055E+02  0.00000000000E+00 0.  1.
</event>
<event>
 7    1  0.2577508E-013  0.7246154E+02  0.7816164E-02  0.1226708E+00
        -11   -1    0    0    0    0  0.00000000000E+00  0.00000000000E+00  0.45593999997E+02  0.45594000000E+02  0.51100000000E-03 0.  1.
         11   -1    0    0    0    0 -0.00000000000E+00 -0.00000000000E+00 -0.45593999997E+02  0.45594000000E+02  0.51100000000E-03 0. -1.
    9900012    2    1    2    0    0  0.58556286733E+01 -0.17157175150E+02 -0.46929034185E+01  0.72461537740E+02  0.69999957592E+02 0.  0.
        -12    1    1    2    0    0 -0.58556286733E+01  0.17157175150E+02  0.46929034185E+01  0.18726462260E+02  0.00000000000E+00 0.  1.
         11    1    3    3    0    0  0.99851304819E+00  0.62283501518E+01 -0.19396548869E+02  0.20396457590E+02  0.51100000000E-03 0. -1.
        -11    1    3    3    0    0 -0.89527472424E+01 -0.12082422630E+02 -0.12483464457E+02  0.19544142471E+02  0.51100000000E-03 0.  1.
        -12    1    3    3    0    0  0.13809862868E+02 -0.11303102671E+02  0.27187109908E+02  0.32520937680E+02  0.00000000000E+00 0.  1.
</event>
<event>
 7    1  0.2577508E-013  0.7246158E+02  0.7816164E-02  0.1226708E+00
        -11   -1    0    0    0    0  0.00000000000E+00  0.00000000000E+00  0.45593999997E+02  0.45594000000E+02  0.51100000000E-03 0.  1.
         11   -1    0    0    0    0 -0.00000000000E+00 -0.00000000000E+00 -0.45593999997E+02  0.45594000000E+02  0.51100000000E-03 0. -1.
    9900012    2    1    2    0    0  0.66514520868E+00  0.57148578609E+01 -0.17820685087E+02  0.72461579213E+02  0.70000011618E+02 0.  0.
        -12    1    1    2    0    0 -0.66514520868E+00 -0.57148578609E+01  0.17820685087E+02  0.18726420787E+02  0.00000000000E+00 0.  1.
         11    1    3    3    0    0  0.44765029930E+01 -0.90673011189E+01 -0.31638953998E+02  0.33215635460E+02  0.51100000000E-03 0. -1.
        -11    1    3    3    0    0 -0.97831800464E+01 -0.81852929707E+01  0.26953122455E+01  0.13037420803E+02  0.51100000000E-03 0.  1.
        -12    1    3    3    0    0  0.59718222621E+01  0.22967451951E+02  0.11122956665E+02  0.26208522950E+02  0.00000000000E+00 0.  1.
</event>
<event>
 7    1  0.2577508E-013  0.7246154E+02  0.7816164E-02  0.1226708E+00
        -11   -1    0    0    0    0  0.00000000000E+00  0.00000000000E+00  0.45593999997E+02  0.45594000000E+02  0.51100000000E-03 0.  1.
         11   -1    0    0    0    0 -0.00000000000E+00 -0.00000000000E+00 -0.45593999997E+02  0.45594000000E+02  0.51100000000E-03 0. -1.
    9900012    2    1    2    0    0  0.58224426418E+01 -0.15470524994E+02 -0.88001347598E+01  0.72461538676E+02  0.69999958812E+02 0.  0.
        -12    1    1    2    0    0 -0.58224426418E+01  0.15470524994E+02  0.88001347598E+01  0.18726461324E+02  0.00000000000E+00 0.  1.
         11    1    3    3    0    0  0.21556870911E+02 -0.65875324967E+01 -0.16214384112E+02  0.27766896122E+02  0.51100000000E-03 0. -1.
        -11    1    3    3    0    0 -0.32667507898E+01  0.15458835873E+02  0.71541081617E+01  0.17344409218E+02  0.51100000000E-03 0.  1.
        -12    1    3    3    0    0 -0.12467677479E+02 -0.24341828370E+02  0.26014119022E+00  0.27350233337E+02  0.00000000000E+00 0.  1.
</event>
<event>
 7    1  0.2577508E-013  0.7246155E+02  0.7816164E-02  0.1226708E+00
        -11   -1    0    0    0    0  0.00000000000E+00  0.00000000000E+00  0.45593999997E+02  0.45594000000E+02  0.51100000000E-03 0. -1.
         11   -1    0    0    0    0 -0.00000000000E+00 -0.00000000000E+00 -0.45593999997E+02  0.45594000000E+02  0.51100000000E-03 0.  1.
    9900012    2    1    2    0    0 -0.23779569382E+01  0.18311656560E+02 -0.31158534187E+01  0.72461548449E+02  0.69999971543E+02 0.  0.
        -12    1    1    2    0    0  0.23779569382E+01 -0.18311656560E+02  0.31158534187E+01  0.18726451551E+02  0.00000000000E+00 0.  1.
         11    1    3    3    0    0  0.11702138354E+02  0.67759413396E+01  0.26999804970E+01  0.13789246463E+02  0.51100000000E-03 0. -1.
        -11    1    3    3    0    0  0.69836147937E+01  0.28551540454E+02 -0.10459998501E+02  0.31198924770E+02  0.51100000000E-03 0.  1.
         12    1    3    3    0    0 -0.21063710085E+02 -0.17015825234E+02  0.46441645852E+01  0.27473377216E+02  0.00000000000E+00 0. -1.
</event>
<event>
 7    1  0.2577508E-013  0.7246161E+02  0.7816164E-02  0.1226708E+00
        -11   -1    0    0    0    0  0.00000000000E+00  0.00000000000E+00  0.45593999997E+02  0.45594000000E+02  0.51100000000E-03 0. -1.
         11   -1    0    0    0    0 -0.00000000000E+00 -0.00000000000E+00 -0.45593999997E+02  0.45594000000E+02  0.51100000000E-03 0.  1.
    9900012    2    1    2    0    0 -0.11593745648E+02  0.88190418788E+01  0.11768066178E+02  0.72461606343E+02  0.70000046960E+02 0.  0.
        -12    1    1    2    0    0  0.11593745648E+02 -0.88190418788E+01 -0.11768066178E+02  0.18726393657E+02  0.00000000000E+00 0.  1.
         11    1    3    3    0    0 -0.17234732208E+02  0.16128240208E+01  0.80210699360E+01  0.19078122517E+02  0.51100000000E-03 0. -1.
        -11    1    3    3    0    0 -0.58735890615E+01  0.39780974182E+01 -0.23008416266E+02  0.24077199315E+02  0.51100000000E-03 0.  1.
        -12    1    3    3    0    0  0.11514575621E+02  0.32281204398E+01  0.26755412508E+02  0.29306284510E+02  0.00000000000E+00 0.  1.
</event>
<event>
 7    1  0.2577508E-013  0.7246152E+02  0.7816164E-02  0.1226708E+00
        -11   -1    0    0    0    0  0.00000000000E+00  0.00000000000E+00  0.45593999997E+02  0.45594000000E+02  0.51100000000E-03 0. -1.
         11   -1    0    0    0    0 -0.00000000000E+00 -0.00000000000E+00 -0.45593999997E+02  0.45594000000E+02  0.51100000000E-03 0.  1.
    9900012    2    1    2    0    0 -0.17059427190E+02  0.20042873239E+01  0.74592184911E+01  0.72461517036E+02  0.69999930621E+02 0.  0.
        -12    1    1    2    0    0  0.17059427190E+02 -0.20042873239E+01 -0.74592184911E+01  0.18726482964E+02  0.00000000000E+00 0.  1.
         11    1    3    3    0    0 -0.14617760738E+02  0.23840021121E+02  0.26962383424E+02  0.38845793289E+02  0.51100000000E-03 0. -1.
        -11    1    3    3    0    0 -0.30667790061E+00 -0.16900992384E+00 -0.97550899926E+01  0.97613726859E+01  0.51100000000E-03 0.  1.
        -12    1    3    3    0    0 -0.21349885506E+01 -0.21666723873E+02 -0.97480749408E+01  0.23854351061E+02  0.00000000000E+00 0.  1.
</event>
<event>
 7    1  0.2577508E-013  0.7246149E+02  0.7816164E-02  0.1226708E+00
        -11   -1    0    0    0    0  0.00000000000E+00  0.00000000000E+00  0.45593999997E+02  0.45594000000E+02  0.51100000000E-03 0.  1.
         11   -1    0    0    0    0 -0.00000000000E+00 -0.00000000000E+00 -0.45593999997E+02  0.45594000000E+02  0.51100000000E-03 0. -1.
    9900012    2    1    2    0    0  0.84163517261E+01  0.21363681482E+00 -0.16727272340E+02  0.72461487858E+02  0.69999892611E+02 0.  0.
        -12    1    1    2    0    0 -0.84163517261E+01 -0.21363681482E+00  0.16727272340E+02  0.18726512142E+02  0.00000000000E+00 0.  1.
         11    1    3    3    0    0  0.49177251101E+01 -0.25153330893E+02 -0.15109930833E+02  0.29752043380E+02  0.51100000000E-03 0. -1.
        -11    1    3    3    0    0  0.10166555997E+02  0.20178858150E+01  0.11193040319E+02  0.15254995112E+02  0.51100000000E-03 0.  1.
        -12    1    3    3    0    0 -0.66679293810E+01  0.23349081893E+02 -0.12810381826E+02  0.27454449366E+02  0.00000000000E+00 0.  1.
</event>
<event>
 7    1  0.2577508E-013  0.7246165E+02  0.7816164E-02  0.1226708E+00
        -11   -1    0    0    0    0  0.00000000000E+00  0.00000000000E+00  0.45593999997E+02  0.45594000000E+02  0.51100000000E-03 0.  1.
         11   -1    0    0    0    0 -0.00000000000E+00 -0.00000000000E+00 -0.45593999997E+02  0.45594000000E+02  0.51100000000E-03 0. -1.
    9900012    2    1    2    0    0 -0.16648030883E+02 -0.83943038018E+01 -0.17478502561E+01  0.72461648270E+02  0.70000101578E+02 0.  0.
        -12    1    1    2    0    0  0.16648030883E+02  0.83943038018E+01  0.17478502561E+01  0.18726351730E+02  0.00000000000E+00 0.  1.
         11    1    3    3    0    0 -0.19092696266E+02  0.13072580428E+02 -0.34535736729E+01  0.23395524810E+02  0.51100000000E-03 0. -1.
        -11    1    3    3    0    0  0.20660611913E+02 -0.15794200806E+02 -0.85881431995E+01  0.27387476474E+02  0.51100000000E-03 0.  1.
         12    1    3    3    0    0 -0.18215946530E+02 -0.56726834240E+01  0.10293866616E+02  0.21678646986E+02  0.00000000000E+00 0. -1.
</event>
<event>
 7    1  0.2577508E-013  0.7246154E+02  0.7816164E-02  0.1226708E+00
        -11   -1    0    0    0    0  0.00000000000E+00  0.00000000000E+00  0.45593999997E+02  0.45594000000E+02  0.51100000000E-03 0.  1.
         11   -1    0    0    0    0 -0.00000000000E+00 -0.00000000000E+00 -0.45593999997E+02  0.45594000000E+02  0.51100000000E-03 0. -1.
    9900012    2    1    2    0    0  0.17035756582E+02 -0.68590545045E+01 -0.36628663011E+01  0.72461542231E+02  0.69999963443E+02 0.  0.
        -12    1    1    2    0    0 -0.17035756582E+02  0.68590545045E+01  0.36628663011E+01  0.18726457769E+02  0.00000000000E+00 0.  1.
         11    1    3    3    0    0 -0.82269735199E+01  0.58671325600E+01  0.46732664952E+01  0.11133092911E+02  0.51100000000E-03 0. -1.
        -11    1    3    3    0    0 -0.16955100150E+01  0.77223129358E+01 -0.23097009474E+02  0.24412716322E+02  0.51100000000E-03 0.  1.
         12    1    3    3    0    0  0.26958240117E+02 -0.20448500000E+02  0.14760876678E+02  0.36915732998E+02  0.00000000000E+00 0. -1.
</event>
<event>
 7    1  0.2577508E-013  0.7246151E+02  0.7816164E-02  0.1226708E+00
        -11   -1    0    0    0    0  0.00000000000E+00  0.00000000000E+00  0.45593999997E+02  0.45594000000E+02  0.51100000000E-03 0.  1.
         11   -1    0    0    0    0 -0.00000000000E+00 -0.00000000000E+00 -0.45593999997E+02  0.45594000000E+02  0.51100000000E-03 0. -1.
    9900012    2    1    2    0    0  0.14995560669E+02 -0.98056387243E+01 -0.54464791344E+01  0.72461507388E+02  0.69999918053E+02 0.  0.
        -12    1    1    2    0    0 -0.14995560669E+02  0.98056387243E+01  0.54464791344E+01  0.18726492612E+02  0.00000000000E+00 0.  1.
         11    1    3    3    0    0 -0.48182117778E+01  0.14064208881E+02 -0.23382783433E+02  0.27708693536E+02  0.51100000000E-03 0. -1.
        -11    1    3    3    0    0  0.15216280018E+01  0.43522359895E+01  0.87479652671E+01  0.98885897104E+01  0.51100000000E-03 0.  1.
        -12    1    3    3    0    0  0.18292144445E+02 -0.28222083595E+02  0.91883390312E+01  0.34864224141E+02  0.00000000000E+00 0.  1.
</event>
<event>
 7    1  0.2577508E-013  0.7246162E+02  0.7816164E-02  0.1226708E+00
        -11   -1    0    0    0    0  0.00000000000E+00  0.00000000000E+00  0.45593999997E+02  0.45594000000E+02  0.51100000000E-03 0. -1.
         11   -1    0    0    0    0 -0.00000000000E+00 -0.00000000000E+00 -0.45593999997E+02  0.45594000000E+02  0.51100000000E-03 0.  1.
    9900012    2    1    2    0    0  0.35982002455E+01 -0.33158162313E+01  0.18075827419E+02  0.72461622369E+02  0.70000067837E+02 0.  0.
        -12    1    1    2    0    0 -0.35982002455E+01  0.33158162313E+01 -0.18075827419E+02  0.18726377631E+02  0.00000000000E+00 0.  1.
         11    1    3    3    0    0 -0.14768265287E+02 -0.59233200684E+01  0.35310170780E+02  0.38729775896E+02  0.51100000000E-03 0. -1.
        -11    1    3    3    0    0  0.33760290981E+01  0.30356431824E+01  0.51010978893E+01  0.68289019571E+01  0.51100000000E-03 0.  1.
        -12    1    3    3    0    0  0.14990436435E+02 -0.42813934537E+00 -0.22335441250E+02  0.26902944516E+02  0.00000000000E+00 0.  1.
</event>
<event>
 7    1  0.2577508E-013  0.7246160E+02  0.7816164E-02  0.1226708E+00
        -11   -1    0    0    0    0  0.00000000000E+00  0.00000000000E+00  0.45593999997E+02  0.45594000000E+02  0.51100000000E-03 0.  1.
         11   -1    0    0    0    0 -0.00000000000E+00 -0.00000000000E+00 -0.45593999997E+02  0.45594000000E+02  0.51100000000E-03 0. -1.
    9900012    2    1    2    0    0  0.17467025875E+02  0.28591631812E+01 -0.61160675853E+01  0.72461599125E+02  0.70000037558E+02 0.  0.
        -12    1    1    2    0    0 -0.17467025875E+02 -0.28591631812E+01  0.61160675853E+01  0.18726400875E+02  0.00000000000E+00 0.  1.
         11    1    3    3    0    0  0.57948674567E+01  0.72910867163E+01  0.76799658512E+01  0.12071549614E+02  0.51100000000E-03 0. -1.
        -11    1    3    3    0    0 -0.95383737749E+01  0.15112282542E+02  0.12137925606E+02  0.21603029792E+02  0.51100000000E-03 0.  1.
         12    1    3    3    0    0  0.21210532193E+02 -0.19544206077E+02 -0.25933959043E+02  0.38787019720E+02  0.00000000000E+00 0. -1.
</event>
<event>
 7    1  0.2577508E-013  0.7246151E+02  0.7816164E-02  0.1226708E+00
        -11   -1    0    0    0    0  0.00000000000E+00  0.00000000000E+00  0.45593999997E+02  0.45594000000E+02  0.51100000000E-03 0. -1.
         11   -1    0    0    0    0 -0.00000000000E+00 -0.00000000000E+00 -0.45593999997E+02  0.45594000000E+02  0.51100000000E-03 0.  1.
    9900012    2    1    2    0    0 -0.85869470059E+00 -0.15135635729E+02  0.10993483350E+02  0.72461508025E+02  0.69999918883E+02 0.  0.
        -12    1    1    2    0    0  0.85869470059E+00  0.15135635729E+02 -0.10993483350E+02  0.18726491975E+02  0.00000000000E+00 0.  1.
         11    1    3    3    0    0  0.11949993091E+01 -0.34419079575E+02  0.24879833499E+02  0.42486552900E+02  0.51100000000E-03 0. -1.
        -11    1    3    3    0    0  0.63774175787E+01  0.36129220164E+01  0.11776875419E+00  0.73306568744E+01  0.51100000000E-03 0.  1.
        -12    1    3    3    0    0 -0.84311115885E+01  0.15670521830E+02 -0.14004118903E+02  0.22644298251E+02  0.00000000000E+00 0.  1.
</event>
<event>
 7    1  0.2577508E-013  0.7246159E+02  0.7816164E-02  0.1226708E+00
        -11   -1    0    0    0    0  0.00000000000E+00  0.00000000000E+00  0.45593999997E+02  0.45594000000E+02  0.51100000000E-03 0. -1.
         11   -1    0    0    0    0 -0.00000000000E+00 -0.00000000000E+00 -0.45593999997E+02  0.45594000000E+02  0.51100000000E-03 0.  1.
    9900012    2    1    2    0    0 -0.11375542238E+02 -0.70678644356E+01  0.13088960047E+02  0.72461586996E+02  0.70000021758E+02 0.  0.
        -12    1    1    2    0    0  0.11375542238E+02  0.70678644356E+01 -0.13088960047E+02  0.18726413004E+02  0.00000000000E+00 0.  1.
         11    1    3    3    0    0 -0.33361278586E+02  0.13410713635E+02  0.92998283864E+01  0.37139048956E+02  0.51100000000E-03 0. -1.
        -11    1    3    3    0    0 -0.24028791706E+01  0.52829032051E+00 -0.12209446475E+01  0.27465660496E+01  0.51100000000E-03 0.  1.
        -12    1    3    3    0    0  0.24388615519E+02 -0.21006868391E+02  0.50100763078E+01  0.32575971991E+02  0.00000000000E+00 0.  1.
</event>
<event>
 7    1  0.2577508E-013  0.7246158E+02  0.7816164E-02  0.1226708E+00
        -11   -1    0    0    0    0  0.00000000000E+00  0.00000000000E+00  0.45593999997E+02  0.45594000000E+02  0.51100000000E-03 0.  1.
         11   -1    0    0    0    0 -0.00000000000E+00 -0.00000000000E+00 -0.45593999997E+02  0.45594000000E+02  0.51100000000E-03 0. -1.
    9900012    2    1    2    0    0 -0.70419594754E+01  0.92274741267E+01 -0.14695008826E+02  0.72461581325E+02  0.70000014369E+02 0.  0.
        -12    1    1    2    0    0  0.70419594754E+01 -0.92274741267E+01  0.14695008826E+02  0.18726418675E+02  0.00000000000E+00 0.  1.
         11    1    3    3    0    0 -0.15957206069E+01 -0.13602939978E+01 -0.10810970375E+00  0.20996218671E+01  0.51100000000E-03 0. -1.
        -11    1    3    3    0    0 -0.31411441339E+02 -0.12682388233E+02 -0.90014162349E+01  0.35050636411E+02  0.51100000000E-03 0.  1.
         12    1    3    3    0    0  0.25965202471E+02  0.23270156357E+02 -0.55854828872E+01  0.35311323047E+02  0.00000000000E+00 0. -1.
</event>
<event>
 7    1  0.2577508E-013  0.7246158E+02  0.7816164E-02  0.1226708E+00
        -11   -1    0    0    0    0  0.00000000000E+00  0.00000000000E+00  0.45593999997E+02  0.45594000000E+02  0.51100000000E-03 0.  1.
         11   -1    0    0    0    0 -0.00000000000E+00 -0.00000000000E+00 -0.45593999997E+02  0.45594000000E+02  0.51100000000E-03 0. -1.
    9900012    2    1    2    0    0 -0.10789116016E+02  0.14105445500E+02  0.59422431549E+01  0.72461578268E+02  0.70000010388E+02 0.  0.
        -12    1    1    2    0    0  0.10789116016E+02 -0.14105445500E+02 -0.59422431549E+01  0.18726421732E+02  0.00000000000E+00 0.  1.
         11    1    3    3    0    0  0.50246064786E+01  0.59130709559E+01 -0.20087063086E+02  0.21533721974E+02  0.51100000000E-03 0. -1.
        -11    1    3    3    0    0  0.67149433886E+01 -0.10896454280E+02  0.22073149533E+01  0.12988280107E+02  0.51100000000E-03 0.  1.
        -12    1    3    3    0    0 -0.22528665883E+02  0.19088828824E+02  0.23821991287E+02  0.37939576187E+02  0.00000000000E+00 0.  1.
</event>
<event>
 7    1  0.2577508E-013  0.7246155E+02  0.7816164E-02  0.1226708E+00
        -11   -1    0    0    0    0  0.00000000000E+00  0.00000000000E+00  0.45593999997E+02  0.45594000000E+02  0.51100000000E-03 0. -1.
         11   -1    0    0    0    0 -0.00000000000E+00 -0.00000000000E+00 -0.45593999997E+02  0.45594000000E+02  0.51100000000E-03 0.  1.
    9900012    2    1    2    0    0  0.11045105703E+02  0.90581282517E+01  0.12109330601E+02  0.72461549855E+02  0.69999973374E+02 0.  0.
        -12    1    1    2    0    0 -0.11045105703E+02 -0.90581282517E+01 -0.12109330601E+02  0.18726450145E+02  0.00000000000E+00 0.  1.
         11    1    3    3    0    0  0.99076668150E+00 -0.60369026341E-01  0.29287948100E+00  0.10349114397E+01  0.51100000000E-03 0. -1.
        -11    1    3    3    0    0  0.39623501669E+02  0.37793965619E+01  0.21446673678E+01  0.39861075265E+02  0.51100000000E-03 0.  1.
         12    1    3    3    0    0 -0.29569162647E+02  0.53391007161E+01  0.96717837520E+01  0.31565563151E+02  0.00000000000E+00 0. -1.
</event>
<event>
 7    1  0.2577508E-013  0.7246162E+02  0.7816164E-02  0.1226708E+00
        -11   -1    0    0    0    0  0.00000000000E+00  0.00000000000E+00  0.45593999997E+02  0.45594000000E+02  0.51100000000E-03 0.  1.
         11   -1    0    0    0    0 -0.00000000000E+00 -0.00000000000E+00 -0.45593999997E+02  0.45594000000E+02  0.51100000000E-03 0. -1.
    9900012    2    1    2    0    0 -0.86163899771E+01  0.19126946714E+01 -0.16515953868E+02  0.72461619962E+02  0.70000064701E+02 0.  0.
        -12    1    1    2    0    0  0.86163899771E+01 -0.19126946714E+01  0.16515953868E+02  0.18726380038E+02  0.00000000000E+00 0.  1.
         11    1    3    3    0    0  0.17752911044E+02  0.17345326428E+02  0.61451221418E+01  0.25569292635E+02  0.51100000000E-03 0. -1.
        -11    1    3    3    0    0  0.29392612653E+01  0.13590306478E+01  0.30451769660E+01  0.44451461284E+01  0.51100000000E-03 0.  1.
         12    1    3    3    0    0 -0.29308562287E+02 -0.16791662405E+02 -0.25706252976E+02  0.42447181199E+02  0.00000000000E+00 0. -1.
</event>
<event>
 7    1  0.2577508E-013  0.7246159E+02  0.7816164E-02  0.1226708E+00
        -11   -1    0    0    0    0  0.00000000000E+00  0.00000000000E+00  0.45593999997E+02  0.45594000000E+02  0.51100000000E-03 0. -1.
         11   -1    0    0    0    0 -0.00000000000E+00 -0.00000000000E+00 -0.45593999997E+02  0.45594000000E+02  0.51100000000E-03 0.  1.
    9900012    2    1    2    0    0  0.17634687152E+01 -0.17981559227E+02  0.49226228086E+01  0.72461587918E+02  0.70000022959E+02 0.  0.
        -12    1    1    2    0    0 -0.17634687152E+01  0.17981559227E+02 -0.49226228086E+01  0.18726412082E+02  0.00000000000E+00 0.  1.
         11    1    3    3    0    0  0.32137740460E+01  0.79954398970E+00  0.16278987683E+02  0.16612436740E+02  0.51100000000E-03 0. -1.
        -11    1    3    3    0    0  0.18266114483E+02  0.26870021531E+01  0.87577868126E+01  0.20434523459E+02  0.51100000000E-03 0.  1.
        -12    1    3    3    0    0 -0.19716419814E+02 -0.21468105369E+02 -0.20114151687E+02  0.35414627719E+02  0.00000000000E+00 0.  1.
</event>
<event>
 7    1  0.2577508E-013  0.7246151E+02  0.7816164E-02  0.1226708E+00
        -11   -1    0    0    0    0  0.00000000000E+00  0.00000000000E+00  0.45593999997E+02  0.45594000000E+02  0.51100000000E-03 0.  1.
         11   -1    0    0    0    0 -0.00000000000E+00 -0.00000000000E+00 -0.45593999997E+02  0.45594000000E+02  0.51100000000E-03 0. -1.
    9900012    2    1    2    0    0  0.23730308263E+00 -0.49850888607E+01 -0.18049206026E+02  0.72461514428E+02  0.69999927224E+02 0.  0.
        -12    1    1    2    0    0 -0.23730308263E+00  0.49850888607E+01  0.18049206026E+02  0.18726485572E+02  0.00000000000E+00 0.  1.
         11    1    3    3    0    0 -0.10267623515E+02  0.59100700530E+01 -0.20452737926E+02  0.23636148366E+02  0.51100000000E-03 0. -1.
        -11    1    3    3    0    0 -0.84710080043E+01 -0.12128940152E+02  0.18656252947E+02  0.23810185638E+02  0.51100000000E-03 0.  1.
         12    1    3    3    0    0  0.18975934602E+02  0.12337812386E+01 -0.16252721048E+02  0.25015180424E+02  0.00000000000E+00 0. -1.
</event>
<event>
 7    1  0.2577508E-013  0.7246161E+02  0.7816164E-02  0.1226708E+00
        -11   -1    0    0    0    0  0.00000000000E+00  0.00000000000E+00  0.45593999997E+02  0.45594000000E+02  0.51100000000E-03 0.  1.
         11   -1    0    0    0    0 -0.00000000000E+00 -0.00000000000E+00 -0.45593999997E+02  0.45594000000E+02  0.51100000000E-03 0. -1.
    9900012    2    1    2    0    0 -0.41079819428E+01  0.36752392192E+01 -0.17896779054E+02  0.72461612215E+02  0.70000054610E+02 0.  0.
        -12    1    1    2    0    0  0.41079819428E+01 -0.36752392192E+01  0.17896779054E+02  0.18726387785E+02  0.00000000000E+00 0.  1.
         11    1    3    3    0    0 -0.10996770319E+02 -0.87658988558E+01 -0.83602438808E+01  0.16360428424E+02  0.51100000000E-03 0. -1.
        -11    1    3    3    0    0  0.54485520547E+01  0.24023874030E+02  0.15062099548E+02  0.28873865102E+02  0.51100000000E-03 0.  1.
         12    1    3    3    0    0  0.14402363215E+01 -0.11582735955E+02 -0.24598634721E+02  0.27227318689E+02  0.00000000000E+00 0. -1.
</event>
<event>
 7    1  0.2577508E-013  0.7246155E+02  0.7816164E-02  0.1226708E+00
        -11   -1    0    0    0    0  0.00000000000E+00  0.00000000000E+00  0.45593999997E+02  0.45594000000E+02  0.51100000000E-03 0.  1.
         11   -1    0    0    0    0 -0.00000000000E+00 -0.00000000000E+00 -0.45593999997E+02  0.45594000000E+02  0.51100000000E-03 0. -1.
    9900012    2    1    2    0    0 -0.11129351014E+02 -0.14379276781E+01 -0.14991660384E+02  0.72461548893E+02  0.69999972120E+02 0.  0.
        -12    1    1    2    0    0  0.11129351014E+02  0.14379276781E+01  0.14991660384E+02  0.18726451107E+02  0.00000000000E+00 0.  1.
         11    1    3    3    0    0  0.59782918737E+01  0.11993736750E+02 -0.11400494815E+02  0.17594345036E+02  0.51100000000E-03 0. -1.
        -11    1    3    3    0    0 -0.17192774961E+02 -0.25647431189E+02 -0.18186034063E+02  0.35834537428E+02  0.51100000000E-03 0.  1.
         12    1    3    3    0    0  0.85132073032E-01  0.12215766760E+02  0.14594868495E+02  0.19032666429E+02  0.00000000000E+00 0. -1.
</event>
<event>
 7    1  0.2577508E-013  0.7246157E+02  0.7816164E-02  0.1226708E+00
        -11   -1    0    0    0    0  0.00000000000E+00  0.00000000000E+00  0.45593999997E+02  0.45594000000E+02  0.51100000000E-03 0.  1.
         11   -1    0    0    0    0 -0.00000000000E+00 -0.00000000000E+00 -0.45593999997E+02  0.45594000000E+02  0.51100000000E-03 0. -1.
    9900012    2    1    2    0    0  0.12818821406E+02 -0.11788272515E+02 -0.68843004864E+01  0.72461570967E+02  0.70000000877E+02 0.  0.
        -12    1    1    2    0    0 -0.12818821406E+02  0.11788272515E+02  0.68843004864E+01  0.18726429033E+02  0.00000000000E+00 0.  1.
         11    1    3    3    0    0 -0.11490731086E+02 -0.10680060819E+01 -0.21574510947E+02  0.24467060730E+02  0.51100000000E-03 0. -1.
        -11    1    3    3    0    0  0.73952317972E+01 -0.22600330574E+02  0.22872334112E+01  0.23889240933E+02  0.51100000000E-03 0.  1.
        -12    1    3    3    0    0  0.16914320695E+02  0.11880064141E+02  0.12402977050E+02  0.24105269305E+02  0.00000000000E+00 0.  1.
</event>
<event>
 7    1  0.2577508E-013  0.7246154E+02  0.7816164E-02  0.1226708E+00
        -11   -1    0    0    0    0  0.00000000000E+00  0.00000000000E+00  0.45593999997E+02  0.45594000000E+02  0.51100000000E-03 0.  1.
         11   -1    0    0    0    0 -0.00000000000E+00 -0.00000000000E+00 -0.45593999997E+02  0.45594000000E+02  0.51100000000E-03 0. -1.
    9900012    2    1    2    0    0  0.43689321781E+01 -0.10833219727E+02 -0.14636731220E+02  0.72461544948E+02  0.69999966981E+02 0.  0.
        -12    1    1    2    0    0 -0.43689321781E+01  0.10833219727E+02  0.14636731220E+02  0.18726455052E+02  0.00000000000E+00 0.  1.
         11    1    3    3    0    0 -0.26358961791E+01  0.23652748572E+01  0.92473107088E+01  0.99022840508E+01  0.51100000000E-03 0. -1.
        -11    1    3    3    0    0 -0.32484364203E+01 -0.79269787989E+01  0.17561754269E+02  0.19539819481E+02  0.51100000000E-03 0.  1.
         12    1    3    3    0    0  0.10253264777E+02 -0.52715157856E+01 -0.41445796198E+02  0.43019441416E+02  0.00000000000E+00 0. -1.
</event>
<event>
 7    1  0.2577508E-013  0.7246162E+02  0.7816164E-02  0.1226708E+00
        -11   -1    0    0    0    0  0.00000000000E+00  0.00000000000E+00  0.45593999997E+02  0.45594000000E+02  0.51100000000E-03 0. -1.
         11   -1    0    0    0    0 -0.00000000000E+00 -0.00000000000E+00 -0.45593999997E+02  0.45594000000E+02  0.51100000000E-03 0.  1.
    9900012    2    1    2    0    0  0.11916781071E+02  0.12325249302E+02  0.75336530081E+01  0.72461618366E+02  0.70000062622E+02 0.  0.
        -12    1    1    2    0    0 -0.11916781071E+02 -0.12325249302E+02 -0.75336530081E+01  0.18726381634E+02  0.00000000000E+00 0.  1.
         11    1    3    3    0    0 -0.49430548582E+01 -0.14057723041E+02 -0.46513229876E+01  0.15610514861E+02  0.51100000000E-03 0. -1.
        -11    1    3    3    0    0 -0.44591383992E+01 -0.66677623322E+01 -0.91001634173E+01  0.12130784981E+02  0.51100000000E-03 0.  1.
         12    1    3    3    0    0  0.21318974328E+02  0.33050734676E+02  0.21285139413E+02  0.44720318524E+02  0.00000000000E+00 0. -1.
</event>
<event>
 7    1  0.2577508E-013  0.7246156E+02  0.7816164E-02  0.1226708E+00
        -11   -1    0    0    0    0  0.00000000000E+00  0.00000000000E+00  0.45593999997E+02  0.45594000000E+02  0.51100000000E-03 0. -1.
         11   -1    0    0    0    0 -0.00000000000E+00 -0.00000000000E+00 -0.45593999997E+02  0.45594000000E+02  0.51100000000E-03 0.  1.
    9900012    2    1    2    0    0 -0.23476555662E+01  0.15887408163E+02  0.96311151328E+01  0.72461558707E+02  0.69999984906E+02 0.  0.
        -12    1    1    2    0    0  0.23476555662E+01 -0.15887408163E+02 -0.96311151328E+01  0.18726441293E+02  0.00000000000E+00 0.  1.
         11    1    3    3    0    0  0.52747028431E+01 -0.10820484460E+02  0.36206725389E+01  0.12570387580E+02  0.51100000000E-03 0. -1.
        -11    1    3    3    0    0 -0.13603921205E+02 -0.79112800692E+01 -0.12576647837E+02  0.20145150672E+02  0.51100000000E-03 0.  1.
         12    1    3    3    0    0  0.59815627960E+01  0.34619172692E+02  0.18587090431E+02  0.39746020455E+02  0.00000000000E+00 0. -1.
</event>
<event>
 7    1  0.2577508E-013  0.7246132E+02  0.7816164E-02  0.1226709E+00
        -11   -1    0    0    0    0  0.00000000000E+00  0.00000000000E+00  0.45593999997E+02  0.45594000000E+02  0.51100000000E-03 0.  1.
         11   -1    0    0    0    0 -0.00000000000E+00 -0.00000000000E+00 -0.45593999997E+02  0.45594000000E+02  0.51100000000E-03 0. -1.
    9900012    2    1    2    0    0  0.68586394081E+01  0.62471136296E+01 -0.16267184688E+02  0.72461316874E+02  0.69999669872E+02 0.  0.
        -12    1    1    2    0    0 -0.68586394081E+01 -0.62471136296E+01  0.16267184688E+02  0.18726683126E+02  0.00000000000E+00 0.  1.
         11    1    3    3    0    0  0.14241634582E+02  0.24113530320E+02 -0.22406065898E+02  0.35865279720E+02  0.51100000000E-03 0. -1.
        -11    1    3    3    0    0  0.53772578272E+01  0.65632869122E+01  0.20937589432E+01  0.87393056707E+01  0.51100000000E-03 0.  1.
        -12    1    3    3    0    0 -0.12760253001E+02 -0.24429703603E+02  0.40451222667E+01  0.27856731483E+02  0.00000000000E+00 0.  1.
</event>
<event>
 7    1  0.2577508E-013  0.7246155E+02  0.7816164E-02  0.1226708E+00
        -11   -1    0    0    0    0  0.00000000000E+00  0.00000000000E+00  0.45593999997E+02  0.45594000000E+02  0.51100000000E-03 0. -1.
         11   -1    0    0    0    0 -0.00000000000E+00 -0.00000000000E+00 -0.45593999997E+02  0.45594000000E+02  0.51100000000E-03 0.  1.
    9900012    2    1    2    0    0 -0.11612745926E+02  0.54135120099E+01  0.13657164121E+02  0.72461545128E+02  0.69999967217E+02 0.  0.
        -12    1    1    2    0    0  0.11612745926E+02 -0.54135120099E+01 -0.13657164121E+02  0.18726454872E+02  0.00000000000E+00 0.  1.
         11    1    3    3    0    0  0.36558823271E+01 -0.10183976407E+02 -0.19950892746E+02  0.22696188505E+02  0.51100000000E-03 0. -1.
        -11    1    3    3    0    0  0.68811787713E+01  0.10534059143E+02  0.57990689790E+01  0.13854465872E+02  0.51100000000E-03 0.  1.
         12    1    3    3    0    0 -0.22149807025E+02  0.50634292744E+01  0.27808987888E+02  0.35910890752E+02  0.00000000000E+00 0. -1.
</event>
<event>
 7    1  0.2577508E-013  0.7246160E+02  0.7816164E-02  0.1226708E+00
        -11   -1    0    0    0    0  0.00000000000E+00  0.00000000000E+00  0.45593999997E+02  0.45594000000E+02  0.51100000000E-03 0.  1.
         11   -1    0    0    0    0 -0.00000000000E+00 -0.00000000000E+00 -0.45593999997E+02  0.45594000000E+02  0.51100000000E-03 0. -1.
    9900012    2    1    2    0    0 -0.65228206026E+01 -0.48106137636E+01 -0.16881617192E+02  0.72461596384E+02  0.70000033986E+02 0.  0.
        -12    1    1    2    0    0  0.65228206026E+01  0.48106137636E+01  0.16881617192E+02  0.18726403616E+02  0.00000000000E+00 0.  1.
         11    1    3    3    0    0  0.19355827336E+02  0.11044144368E+01 -0.27907548271E+02  0.33980862759E+02  0.51100000000E-03 0. -1.
        -11    1    3    3    0    0 -0.58892823666E+01  0.78305305432E+01 -0.32617287233E+01  0.10326651437E+02  0.51100000000E-03 0.  1.
        -12    1    3    3    0    0 -0.19989365572E+02 -0.13745558744E+02  0.14287659803E+02  0.28154082187E+02  0.00000000000E+00 0.  1.
</event>
<event>
 7    1  0.2577508E-013  0.7246158E+02  0.7816164E-02  0.1226708E+00
        -11   -1    0    0    0    0  0.00000000000E+00  0.00000000000E+00  0.45593999997E+02  0.45594000000E+02  0.51100000000E-03 0.  1.
         11   -1    0    0    0    0 -0.00000000000E+00 -0.00000000000E+00 -0.45593999997E+02  0.45594000000E+02  0.51100000000E-03 0. -1.
    9900012    2    1    2    0    0  0.14183970227E+02 -0.31055742637E+01 -0.11825787580E+02  0.72461578697E+02  0.70000010946E+02 0.  0.
        -12    1    1    2    0    0 -0.14183970227E+02  0.31055742637E+01  0.11825787580E+02  0.18726421303E+02  0.00000000000E+00 0.  1.
         11    1    3    3    0    0  0.37385438182E+02  0.49560895743E+01 -0.21971225596E+01  0.37776463039E+02  0.51100000000E-03 0. -1.
        -11    1    3    3    0    0  0.10177484541E+01 -0.19520922668E+00  0.51428427372E+01  0.52462129426E+01  0.51100000000E-03 0.  1.
         12    1    3    3    0    0 -0.24219216410E+02 -0.78664546113E+01 -0.14771507758E+02  0.29438902715E+02  0.00000000000E+00 0. -1.
</event>
<event>
 7    1  0.2577508E-013  0.7246158E+02  0.7816164E-02  0.1226708E+00
        -11   -1    0    0    0    0  0.00000000000E+00  0.00000000000E+00  0.45593999997E+02  0.45594000000E+02  0.51100000000E-03 0.  1.
         11   -1    0    0    0    0 -0.00000000000E+00 -0.00000000000E+00 -0.45593999997E+02  0.45594000000E+02  0.51100000000E-03 0. -1.
    9900012    2    1    2    0    0 -0.12051179383E+02  0.14244544109E+02  0.15940273169E+01  0.72461577905E+02  0.70000009914E+02 0.  0.
        -12    1    1    2    0    0  0.12051179383E+02 -0.14244544109E+02 -0.15940273169E+01  0.18726422095E+02  0.00000000000E+00 0.  1.
         11    1    3    3    0    0 -0.98798953643E+00 -0.79393661953E+01 -0.79586802172E+01  0.11284956800E+02  0.51100000000E-03 0. -1.
        -11    1    3    3    0    0 -0.31872357892E+02  0.80295139833E+01 -0.30891611523E+01  0.33013076338E+02  0.51100000000E-03 0.  1.
        -12    1    3    3    0    0  0.20809168046E+02  0.14154396321E+02  0.12641868686E+02  0.28163544767E+02  0.00000000000E+00 0.  1.
</event>
<event>
 7    1  0.2577508E-013  0.7246182E+02  0.7816164E-02  0.1226707E+00
        -11   -1    0    0    0    0  0.00000000000E+00  0.00000000000E+00  0.45593999997E+02  0.45594000000E+02  0.51100000000E-03 0. -1.
         11   -1    0    0    0    0 -0.00000000000E+00 -0.00000000000E+00 -0.45593999997E+02  0.45594000000E+02  0.51100000000E-03 0.  1.
    9900012    2    1    2    0    0 -0.27491063939E+00 -0.11956042797E+02  0.14409971522E+02  0.72461820078E+02  0.70000325389E+02 0.  0.
        -12    1    1    2    0    0  0.27491063939E+00  0.11956042797E+02 -0.14409971522E+02  0.18726179922E+02  0.00000000000E+00 0.  1.
         11    1    3    3    0    0 -0.43465760905E+01 -0.31168252693E+02  0.12764328396E+02  0.33959987916E+02  0.51100000000E-03 0.  1.
        -11    1    3    3    0    0 -0.24311904861E+01  0.25809989643E+01  0.15499970701E+02  0.15900356437E+02  0.51100000000E-03 0. -1.
        -12    1    3    3    0    0  0.65028559373E+01  0.16631210931E+02 -0.13854327575E+02  0.22601475725E+02  0.00000000000E+00 0.  1.
</event>
<event>
 7    1  0.2577508E-013  0.7246156E+02  0.7816164E-02  0.1226708E+00
        -11   -1    0    0    0    0  0.00000000000E+00  0.00000000000E+00  0.45593999997E+02  0.45594000000E+02  0.51100000000E-03 0. -1.
         11   -1    0    0    0    0 -0.00000000000E+00 -0.00000000000E+00 -0.45593999997E+02  0.45594000000E+02  0.51100000000E-03 0.  1.
    9900012    2    1    2    0    0  0.17611626082E+02 -0.49269625717E+01  0.40292793531E+01  0.72461563459E+02  0.69999991095E+02 0.  0.
        -12    1    1    2    0    0 -0.17611626082E+02  0.49269625717E+01 -0.40292793531E+01  0.18726436541E+02  0.00000000000E+00 0.  1.
         11    1    3    3    0    0  0.61939419226E+01 -0.56020250767E+01 -0.16240578659E+02  0.18262091801E+02  0.51100000000E-03 0. -1.
        -11    1    3    3    0    0 -0.15060813209E+02  0.81386757902E+01 -0.39249516148E+01  0.17563353426E+02  0.51100000000E-03 0.  1.
         12    1    3    3    0    0  0.26478497369E+02 -0.74636132851E+01  0.24194809627E+02  0.36636118231E+02  0.00000000000E+00 0. -1.
</event>
<event>
 7    1  0.2577508E-013  0.7246150E+02  0.7816164E-02  0.1226708E+00
        -11   -1    0    0    0    0  0.00000000000E+00  0.00000000000E+00  0.45593999997E+02  0.45594000000E+02  0.51100000000E-03 0.  1.
         11   -1    0    0    0    0 -0.00000000000E+00 -0.00000000000E+00 -0.45593999997E+02  0.45594000000E+02  0.51100000000E-03 0. -1.
    9900012    2    1    2    0    0 -0.11239518086E+02  0.10226070858E+02 -0.10944514520E+02  0.72461502995E+02  0.69999912330E+02 0.  0.
        -12    1    1    2    0    0  0.11239518086E+02 -0.10226070858E+02  0.10944514520E+02  0.18726497005E+02  0.00000000000E+00 0.  1.
         11    1    3    3    0    0 -0.86653635056E+01  0.11686929625E+02 -0.11819232073E+02  0.18744788497E+02  0.51100000000E-03 0. -1.
        -11    1    3    3    0    0  0.16556208459E+02 -0.19297151762E+02 -0.70530908222E+01  0.26386250114E+02  0.51100000000E-03 0.  1.
         12    1    3    3    0    0 -0.19130363039E+02  0.17836292996E+02  0.79278083752E+01  0.27330464385E+02  0.00000000000E+00 0. -1.
</event>
<event>
 7    1  0.2577508E-013  0.7246146E+02  0.7816164E-02  0.1226708E+00
        -11   -1    0    0    0    0  0.00000000000E+00  0.00000000000E+00  0.45593999997E+02  0.45594000000E+02  0.51100000000E-03 0.  1.
         11   -1    0    0    0    0 -0.00000000000E+00 -0.00000000000E+00 -0.45593999997E+02  0.45594000000E+02  0.51100000000E-03 0. -1.
    9900012    2    1    2    0    0 -0.12095955868E+02  0.14134954186E+02 -0.21387623679E+01  0.72461457802E+02  0.69999853458E+02 0.  0.
        -12    1    1    2    0    0  0.12095955868E+02 -0.14134954186E+02  0.21387623679E+01  0.18726542198E+02  0.00000000000E+00 0.  1.
         11    1    3    3    0    0 -0.34029145996E+02  0.81093702242E+00 -0.14809296646E+02  0.37120825199E+02  0.51100000000E-03 0. -1.
        -11    1    3    3    0    0 -0.22751908016E+00  0.82523842793E+01 -0.17231636363E+01  0.84334396544E+01  0.51100000000E-03 0.  1.
        -12    1    3    3    0    0  0.22160709208E+02  0.50716328846E+01  0.14393697914E+02  0.26907192948E+02  0.00000000000E+00 0.  1.
</event>
<event>
 7    1  0.2577508E-013  0.7246153E+02  0.7816164E-02  0.1226708E+00
        -11   -1    0    0    0    0  0.00000000000E+00  0.00000000000E+00  0.45593999997E+02  0.45594000000E+02  0.51100000000E-03 0. -1.
         11   -1    0    0    0    0 -0.00000000000E+00 -0.00000000000E+00 -0.45593999997E+02  0.45594000000E+02  0.51100000000E-03 0.  1.
    9900012    2    1    2    0    0 -0.16116844169E+02  0.93725608892E+01 -0.17559269870E+01  0.72461525607E+02  0.69999941787E+02 0.  0.
        -12    1    1    2    0    0  0.16116844169E+02 -0.93725608892E+01  0.17559269870E+01  0.18726474393E+02  0.00000000000E+00 0.  1.
         11    1    3    3    0    0 -0.31431163944E+02 -0.43312092246E+01 -0.61729590656E+01  0.32323101090E+02  0.51100000000E-03 0. -1.
        -11    1    3    3    0    0 -0.91425618211E+01  0.46749050288E+01  0.90168531526E+01  0.13665460648E+02  0.51100000000E-03 0.  1.
        -12    1    3    3    0    0  0.24456881596E+02  0.90288650850E+01 -0.45998210739E+01  0.26472963869E+02  0.00000000000E+00 0.  1.
</event>
