<event>
 7    1  0.5121289E-013  0.5052886E+02  0.7816164E-02  0.1300439E+00
        -11   -1    0    0    0    0  0.00000000000E+00  0.00000000000E+00  0.45593999997E+02  0.45594000000E+02  0.51100000000E-03 0.  1.
         11   -1    0    0    0    0 -0.00000000000E+00 -0.00000000000E+00 -0.45593999997E+02  0.45594000000E+02  0.51100000000E-03 0. -1.
    9900012    2    1    2    0    0  0.94913615349E+01  0.16251698112E+02  0.36041115861E+02  0.50528859972E+02  0.30000000371E+02 0.  0.
         12    1    1    2    0    0 -0.94913615349E+01 -0.16251698112E+02 -0.36041115861E+02  0.40659140028E+02  0.00000000000E+00 0. -1.
         11    1    3    3    0    0 -0.13436246620E+01 -0.27737592012E+01  0.67527871348E+01  0.74228836504E+01  0.51100000000E-03 0. -1.
        -11    1    3    3    0    0 -0.43674234299E+01  0.11653739133E+01  0.14945086511E+02  0.15613714960E+02  0.51100000000E-03 0.  1.
        -12    1    3    3    0    0  0.15202409627E+02  0.17860083400E+02  0.14343242215E+02  0.27492261361E+02  0.00000000000E+00 0.  1.
</event>
<event>
 7    1  0.5121289E-013  0.5052885E+02  0.7816164E-02  0.1300439E+00
        -11   -1    0    0    0    0  0.00000000000E+00  0.00000000000E+00  0.45593999997E+02  0.45594000000E+02  0.51100000000E-03 0.  1.
         11   -1    0    0    0    0 -0.00000000000E+00 -0.00000000000E+00 -0.45593999997E+02  0.45594000000E+02  0.51100000000E-03 0. -1.
    9900012    2    1    2    0    0  0.20770265710E+02 -0.33504962579E+02  0.99589326191E+01  0.50528846122E+02  0.29999958274E+02 0.  0.
         12    1    1    2    0    0 -0.20770265710E+02  0.33504962579E+02 -0.99589326191E+01  0.40659153878E+02  0.00000000000E+00 0. -1.
         11    1    3    3    0    0  0.10359486137E+02  0.99321596746E+00  0.18089169199E+01  0.10563030421E+02  0.51100000000E-03 0. -1.
        -11    1    3    3    0    0  0.18189291708E+01 -0.11049906118E+01  0.48878005861E+01  0.53310507792E+01  0.51100000000E-03 0.  1.
        -12    1    3    3    0    0  0.85918504025E+01 -0.33393187935E+02  0.32622151132E+01  0.34634764923E+02  0.00000000000E+00 0.  1.
</event>
<event>
 7    1  0.5121289E-013  0.5052887E+02  0.7816164E-02  0.1300439E+00
        -11   -1    0    0    0    0  0.00000000000E+00  0.00000000000E+00  0.45593999997E+02  0.45594000000E+02  0.51100000000E-03 0.  1.
         11   -1    0    0    0    0 -0.00000000000E+00 -0.00000000000E+00 -0.45593999997E+02  0.45594000000E+02  0.51100000000E-03 0. -1.
    9900012    2    1    2    0    0 -0.20245428645E+02  0.29534693518E+02  0.19261089827E+02  0.50528867157E+02  0.30000022211E+02 0.  0.
         12    1    1    2    0    0  0.20245428645E+02 -0.29534693518E+02 -0.19261089827E+02  0.40659132843E+02  0.00000000000E+00 0. -1.
         11    1    3    3    0    0 -0.11920463858E+02  0.15680288178E+01  0.22204009501E+01  0.12226461206E+02  0.51100000000E-03 0.  1.
        -11    1    3    3    0    0 -0.29109616251E+01 -0.15582263426E+01  0.49315329444E+01  0.59347943823E+01  0.51100000000E-03 0. -1.
        -12    1    3    3    0    0 -0.54140031619E+01  0.29524891042E+02  0.12109155932E+02  0.32367611569E+02  0.00000000000E+00 0.  1.
</event>
<event>
 7    1  0.5121289E-013  0.5052886E+02  0.7816164E-02  0.1300439E+00
        -11   -1    0    0    0    0  0.00000000000E+00  0.00000000000E+00  0.45593999997E+02  0.45594000000E+02  0.51100000000E-03 0.  1.
         11   -1    0    0    0    0 -0.00000000000E+00 -0.00000000000E+00 -0.45593999997E+02  0.45594000000E+02  0.51100000000E-03 0. -1.
    9900012    2    1    2    0    0  0.14189495113E+02 -0.98321022550E+01  0.36812413580E+02  0.50528858348E+02  0.29999995435E+02 0.  0.
         12    1    1    2    0    0 -0.14189495113E+02  0.98321022550E+01 -0.36812413580E+02  0.40659141652E+02  0.00000000000E+00 0. -1.
         11    1    3    3    0    0  0.89445313379E+01  0.69857846063E+01  0.19550186574E+02  0.22605654663E+02  0.51100000000E-03 0. -1.
        -11    1    3    3    0    0  0.43612454995E+01 -0.29131084703E+01  0.11881344222E+02  0.12987417143E+02  0.51100000000E-03 0.  1.
        -12    1    3    3    0    0  0.88371827544E+00 -0.13904778391E+02  0.53808827844E+01  0.14935786542E+02  0.00000000000E+00 0.  1.
</event>
<event>
 7    1  0.5121289E-013  0.5052887E+02  0.7816164E-02  0.1300439E+00
        -11   -1    0    0    0    0  0.00000000000E+00  0.00000000000E+00  0.45593999997E+02  0.45594000000E+02  0.51100000000E-03 0. -1.
         11   -1    0    0    0    0 -0.00000000000E+00 -0.00000000000E+00 -0.45593999997E+02  0.45594000000E+02  0.51100000000E-03 0.  1.
    9900012    2    1    2    0    0 -0.28283820838E+02  0.12708574857E+02 -0.26299854457E+02  0.50528871375E+02  0.30000035032E+02 0.  0.
         12    1    1    2    0    0  0.28283820838E+02 -0.12708574857E+02  0.26299854457E+02  0.40659128625E+02  0.00000000000E+00 0. -1.
         11    1    3    3    0    0 -0.15974061677E+01  0.46292168375E+01  0.35043088921E+01  0.60217552313E+01  0.51100000000E-03 0. -1.
        -11    1    3    3    0    0 -0.10811068513E+02  0.12088840960E+02 -0.11122276595E+02  0.19665307399E+02  0.51100000000E-03 0.  1.
         12    1    3    3    0    0 -0.15875346157E+02 -0.40094829406E+01 -0.18681886753E+02  0.24841808745E+02  0.00000000000E+00 0. -1.
</event>
<event>
 7    1  0.5121289E-013  0.5052883E+02  0.7816164E-02  0.1300439E+00
        -11   -1    0    0    0    0  0.00000000000E+00  0.00000000000E+00  0.45593999997E+02  0.45594000000E+02  0.51100000000E-03 0. -1.
         11   -1    0    0    0    0 -0.00000000000E+00 -0.00000000000E+00 -0.45593999997E+02  0.45594000000E+02  0.51100000000E-03 0.  1.
    9900012    2    1    2    0    0 -0.26097771988E+02  0.29058770255E+02  0.11298771831E+02  0.50528830353E+02  0.29999910340E+02 0.  0.
         12    1    1    2    0    0  0.26097771988E+02 -0.29058770255E+02 -0.11298771831E+02  0.40659169647E+02  0.00000000000E+00 0. -1.
         11    1    3    3    0    0 -0.17295479538E+01 -0.67373572223E+00 -0.53359602737E+01  0.56495777056E+01  0.51100000000E-03 0. -1.
        -11    1    3    3    0    0 -0.12806809325E+02  0.39219229479E+01  0.57309499275E+01  0.14568446452E+02  0.51100000000E-03 0.  1.
         12    1    3    3    0    0 -0.11561414709E+02  0.25810583030E+02  0.10903782178E+02  0.30310806195E+02  0.00000000000E+00 0. -1.
</event>
<event>
 7    1  0.5121289E-013  0.5052887E+02  0.7816164E-02  0.1300439E+00
        -11   -1    0    0    0    0  0.00000000000E+00  0.00000000000E+00  0.45593999997E+02  0.45594000000E+02  0.51100000000E-03 0. -1.
         11   -1    0    0    0    0 -0.00000000000E+00 -0.00000000000E+00 -0.45593999997E+02  0.45594000000E+02  0.51100000000E-03 0.  1.
    9900012    2    1    2    0    0 -0.35598729894E+02  0.18364485316E+02  0.69743152892E+01  0.50528868618E+02  0.30000026651E+02 0.  0.
         12    1    1    2    0    0  0.35598729894E+02 -0.18364485316E+02 -0.69743152892E+01  0.40659131382E+02  0.00000000000E+00 0. -1.
         11    1    3    3    0    0 -0.41470693518E+01  0.51417996999E+01  0.87450688051E+01  0.10959585623E+02  0.51100000000E-03 0. -1.
        -11    1    3    3    0    0 -0.27178426728E+02  0.16711317275E+02 -0.61911882865E+01  0.32500243340E+02  0.51100000000E-03 0.  1.
         12    1    3    3    0    0 -0.42732338143E+01 -0.34886316588E+01  0.44204347706E+01  0.70690396550E+01  0.00000000000E+00 0. -1.
</event>
<event>
 7    1  0.5121289E-013  0.5052876E+02  0.7816164E-02  0.1300439E+00
        -11   -1    0    0    0    0  0.00000000000E+00  0.00000000000E+00  0.45593999997E+02  0.45594000000E+02  0.51100000000E-03 0.  1.
         11   -1    0    0    0    0 -0.00000000000E+00 -0.00000000000E+00 -0.45593999997E+02  0.45594000000E+02  0.51100000000E-03 0. -1.
    9900012    2    1    2    0    0  0.28847213090E+02 -0.22442590621E+02  0.17814107258E+02  0.50528757580E+02  0.29999689137E+02 0.  0.
         12    1    1    2    0    0 -0.28847213090E+02  0.22442590621E+02 -0.17814107258E+02  0.40659242420E+02  0.00000000000E+00 0. -1.
         11    1    3    3    0    0  0.77476112431E+00 -0.21150726963E+01 -0.31920735477E+00  0.22750122872E+01  0.51100000000E-03 0. -1.
        -11    1    3    3    0    0  0.46659675379E+01 -0.82706651379E+01  0.19708971430E+02  0.21877356101E+02  0.51100000000E-03 0.  1.
        -12    1    3    3    0    0  0.23406484427E+02 -0.12056852787E+02 -0.15756568174E+01  0.26376389192E+02  0.00000000000E+00 0.  1.
</event>
<event>
 7    1  0.5121289E-013  0.5052887E+02  0.7816164E-02  0.1300439E+00
        -11   -1    0    0    0    0  0.00000000000E+00  0.00000000000E+00  0.45593999997E+02  0.45594000000E+02  0.51100000000E-03 0. -1.
         11   -1    0    0    0    0 -0.00000000000E+00 -0.00000000000E+00 -0.45593999997E+02  0.45594000000E+02  0.51100000000E-03 0.  1.
    9900012    2    1    2    0    0  0.24396685155E+02 -0.29995008840E+02 -0.12580375066E+02  0.50528872628E+02  0.30000038841E+02 0.  0.
         12    1    1    2    0    0 -0.24396685155E+02  0.29995008840E+02  0.12580375066E+02  0.40659127372E+02  0.00000000000E+00 0. -1.
         11    1    3    3    0    0  0.25995961920E+01 -0.83641904096E+01  0.13628850565E+01  0.88642561734E+01  0.51100000000E-03 0. -1.
        -11    1    3    3    0    0  0.89172561738E+01 -0.23889410703E+02 -0.54597163487E+01  0.26077383003E+02  0.51100000000E-03 0.  1.
         12    1    3    3    0    0  0.12879832789E+02  0.22585922728E+01 -0.84835437739E+01  0.15587233452E+02  0.00000000000E+00 0. -1.
</event>
<event>
 7    1  0.5121289E-013  0.5052887E+02  0.7816164E-02  0.1300439E+00
        -11   -1    0    0    0    0  0.00000000000E+00  0.00000000000E+00  0.45593999997E+02  0.45594000000E+02  0.51100000000E-03 0.  1.
         11   -1    0    0    0    0 -0.00000000000E+00 -0.00000000000E+00 -0.45593999997E+02  0.45594000000E+02  0.51100000000E-03 0. -1.
    9900012    2    1    2    0    0 -0.19354172084E+02 -0.65143924208E+01  0.35158828931E+02  0.50528873872E+02  0.30000042622E+02 0.  0.
         12    1    1    2    0    0  0.19354172084E+02  0.65143924208E+01 -0.35158828931E+02  0.40659126128E+02  0.00000000000E+00 0. -1.
         11    1    3    3    0    0 -0.60105837352E-01 -0.73038407815E+01  0.10118336488E+02  0.12479200152E+02  0.51100000000E-03 0. -1.
        -11    1    3    3    0    0 -0.33263370149E+01  0.63593697640E+01  0.18629288916E+02  0.19963880072E+02  0.51100000000E-03 0.  1.
         12    1    3    3    0    0 -0.15967729231E+02 -0.55699214033E+01  0.64112035268E+01  0.18085793649E+02  0.00000000000E+00 0. -1.
</event>
<event>
 7    1  0.5121289E-013  0.5052886E+02  0.7816164E-02  0.1300439E+00
        -11   -1    0    0    0    0  0.00000000000E+00  0.00000000000E+00  0.45593999997E+02  0.45594000000E+02  0.51100000000E-03 0.  1.
         11   -1    0    0    0    0 -0.00000000000E+00 -0.00000000000E+00 -0.45593999997E+02  0.45594000000E+02  0.51100000000E-03 0. -1.
    9900012    2    1    2    0    0  0.39309504377E+02 -0.55769328251E+01  0.87650873551E+01  0.50528855020E+02  0.29999985320E+02 0.  0.
         12    1    1    2    0    0 -0.39309504377E+02  0.55769328251E+01 -0.87650873551E+01  0.40659144980E+02  0.00000000000E+00 0. -1.
         11    1    3    3    0    0  0.26422984267E+02 -0.51359258921E+01 -0.15858514523E+01  0.26964175445E+02  0.51100000000E-03 0.  1.
        -11    1    3    3    0    0  0.16961612846E+02  0.56056655039E+00  0.84384960457E+01  0.18953067324E+02  0.51100000000E-03 0. -1.
         12    1    3    3    0    0 -0.40750927356E+01 -0.10015734834E+01  0.19124427618E+01  0.46116122521E+01  0.00000000000E+00 0. -1.
</event>
<event>
 7    1  0.5121289E-013  0.5052889E+02  0.7816164E-02  0.1300439E+00
        -11   -1    0    0    0    0  0.00000000000E+00  0.00000000000E+00  0.45593999997E+02  0.45594000000E+02  0.51100000000E-03 0. -1.
         11   -1    0    0    0    0 -0.00000000000E+00 -0.00000000000E+00 -0.45593999997E+02  0.45594000000E+02  0.51100000000E-03 0.  1.
    9900012    2    1    2    0    0  0.39587956886E+02  0.88745419246E+01 -0.26832233481E+01  0.50528886479E+02  0.30000080941E+02 0.  0.
         12    1    1    2    0    0 -0.39587956886E+02 -0.88745419246E+01  0.26832233481E+01  0.40659113521E+02  0.00000000000E+00 0. -1.
         11    1    3    3    0    0  0.12856232487E+02  0.48089484449E+00  0.98389074924E+01  0.16196236431E+02  0.51100000000E-03 0. -1.
        -11    1    3    3    0    0 -0.16080972342E+01  0.21070885762E+01 -0.24406787781E+01  0.36031530833E+01  0.51100000000E-03 0.  1.
        -12    1    3    3    0    0  0.28339821633E+02  0.62865585039E+01 -0.10081452062E+02  0.30729496965E+02  0.00000000000E+00 0.  1.
</event>
<event>
 7    1  0.5121289E-013  0.5052886E+02  0.7816164E-02  0.1300439E+00
        -11   -1    0    0    0    0  0.00000000000E+00  0.00000000000E+00  0.45593999997E+02  0.45594000000E+02  0.51100000000E-03 0. -1.
         11   -1    0    0    0    0 -0.00000000000E+00 -0.00000000000E+00 -0.45593999997E+02  0.45594000000E+02  0.51100000000E-03 0.  1.
    9900012    2    1    2    0    0  0.15102989611E+02 -0.37490356257E+02 -0.44202336976E+01  0.50528861133E+02  0.30000003901E+02 0.  0.
         12    1    1    2    0    0 -0.15102989611E+02  0.37490356257E+02  0.44202336976E+01  0.40659138867E+02  0.00000000000E+00 0. -1.
         11    1    3    3    0    0 -0.58231370343E+00 -0.27222122409E+02  0.37046760060E+00  0.27230870060E+02  0.51100000000E-03 0. -1.
        -11    1    3    3    0    0  0.24284423610E+01 -0.49499747175E+01 -0.69290030714E+01  0.88549797193E+01  0.51100000000E-03 0.  1.
         12    1    3    3    0    0  0.13256860953E+02 -0.53182591298E+01  0.21383017732E+01  0.14443011354E+02  0.00000000000E+00 0. -1.
</event>
<event>
 7    1  0.5121289E-013  0.5052886E+02  0.7816164E-02  0.1300439E+00
        -11   -1    0    0    0    0  0.00000000000E+00  0.00000000000E+00  0.45593999997E+02  0.45594000000E+02  0.51100000000E-03 0.  1.
         11   -1    0    0    0    0 -0.00000000000E+00 -0.00000000000E+00 -0.45593999997E+02  0.45594000000E+02  0.51100000000E-03 0. -1.
    9900012    2    1    2    0    0  0.43592110302E+01  0.25182751011E+02  0.31622649755E+02  0.50528860230E+02  0.30000001154E+02 0.  0.
         12    1    1    2    0    0 -0.43592110302E+01 -0.25182751011E+02 -0.31622649755E+02  0.40659139770E+02  0.00000000000E+00 0. -1.
         11    1    3    3    0    0 -0.87459169077E+01  0.66984991151E+01  0.20902893326E+02  0.23628201425E+02  0.51100000000E-03 0. -1.
        -11    1    3    3    0    0  0.28151137497E+01  0.71949934731E+01 -0.80164276694E+00  0.77675882929E+01  0.51100000000E-03 0.  1.
        -12    1    3    3    0    0  0.10290014188E+02  0.11289258423E+02  0.11521399197E+02  0.19133070511E+02  0.00000000000E+00 0.  1.
</event>
<event>
 7    1  0.5121289E-013  0.5052885E+02  0.7816164E-02  0.1300439E+00
        -11   -1    0    0    0    0  0.00000000000E+00  0.00000000000E+00  0.45593999997E+02  0.45594000000E+02  0.51100000000E-03 0.  1.
         11   -1    0    0    0    0 -0.00000000000E+00 -0.00000000000E+00 -0.45593999997E+02  0.45594000000E+02  0.51100000000E-03 0. -1.
    9900012    2    1    2    0    0 -0.27647840570E+02 -0.28734257345E+02 -0.79438952986E+01  0.50528854585E+02  0.29999983996E+02 0.  0.
         12    1    1    2    0    0  0.27647840570E+02  0.28734257345E+02  0.79438952986E+01  0.40659145415E+02  0.00000000000E+00 0. -1.
         11    1    3    3    0    0 -0.65133184690E+01 -0.42369201444E+01 -0.82347566792E+01  0.11321926851E+02  0.51100000000E-03 0. -1.
        -11    1    3    3    0    0  0.37766363570E+01  0.44919560663E-01 -0.17810590017E+01  0.41757839226E+01  0.51100000000E-03 0.  1.
        -12    1    3    3    0    0 -0.24911158458E+02 -0.24542256761E+02  0.20719203823E+01  0.35031143811E+02  0.00000000000E+00 0.  1.
</event>
<event>
 7    1  0.5121289E-013  0.5052887E+02  0.7816164E-02  0.1300439E+00
        -11   -1    0    0    0    0  0.00000000000E+00  0.00000000000E+00  0.45593999997E+02  0.45594000000E+02  0.51100000000E-03 0.  1.
         11   -1    0    0    0    0 -0.00000000000E+00 -0.00000000000E+00 -0.45593999997E+02  0.45594000000E+02  0.51100000000E-03 0. -1.
    9900012    2    1    2    0    0 -0.75495342748E+01 -0.39932314890E+02  0.12567489344E+01  0.50528872389E+02  0.30000038112E+02 0.  0.
         12    1    1    2    0    0  0.75495342748E+01  0.39932314890E+02 -0.12567489344E+01  0.40659127611E+02  0.00000000000E+00 0. -1.
         11    1    3    3    0    0 -0.20772270398E+00  0.13431226795E+01  0.73470392072E+00  0.15449651666E+01  0.51100000000E-03 0. -1.
        -11    1    3    3    0    0  0.65356364842E+01 -0.18045014119E+02  0.81780093033E+01  0.20861853111E+02  0.51100000000E-03 0.  1.
        -12    1    3    3    0    0 -0.13877448055E+02 -0.23230423450E+02 -0.76559642897E+01  0.28122054111E+02  0.00000000000E+00 0.  1.
</event>
<event>
 7    1  0.5121289E-013  0.5052886E+02  0.7816164E-02  0.1300439E+00
        -11   -1    0    0    0    0  0.00000000000E+00  0.00000000000E+00  0.45593999997E+02  0.45594000000E+02  0.51100000000E-03 0.  1.
         11   -1    0    0    0    0 -0.00000000000E+00 -0.00000000000E+00 -0.45593999997E+02  0.45594000000E+02  0.51100000000E-03 0. -1.
    9900012    2    1    2    0    0  0.31089235426E+02  0.55769361322E+01  0.25603185089E+02  0.50528857575E+02  0.29999993085E+02 0.  0.
         12    1    1    2    0    0 -0.31089235426E+02 -0.55769361322E+01 -0.25603185089E+02  0.40659142425E+02  0.00000000000E+00 0. -1.
         11    1    3    3    0    0  0.84303344548E+01 -0.68193322784E+00 -0.25772949216E+01  0.88418335949E+01  0.51100000000E-03 0. -1.
        -11    1    3    3    0    0  0.33499484436E+01 -0.64463467671E+01  0.95515824924E+01  0.12000427892E+02  0.51100000000E-03 0.  1.
        -12    1    3    3    0    0  0.19308952528E+02  0.12705216127E+02  0.18628897518E+02  0.29686596088E+02  0.00000000000E+00 0.  1.
</event>
<event>
 7    1  0.5121289E-013  0.5052886E+02  0.7816164E-02  0.1300439E+00
        -11   -1    0    0    0    0  0.00000000000E+00  0.00000000000E+00  0.45593999997E+02  0.45594000000E+02  0.51100000000E-03 0.  1.
         11   -1    0    0    0    0 -0.00000000000E+00 -0.00000000000E+00 -0.45593999997E+02  0.45594000000E+02  0.51100000000E-03 0. -1.
    9900012    2    1    2    0    0  0.83987577752E+01  0.39369987001E+02  0.57123506276E+01  0.50528856400E+02  0.29999989513E+02 0.  0.
         12    1    1    2    0    0 -0.83987577752E+01 -0.39369987001E+02 -0.57123506276E+01  0.40659143600E+02  0.00000000000E+00 0. -1.
         11    1    3    3    0    0  0.42555076560E+01  0.89350349004E+01  0.33589170160E+01  0.10451149117E+02  0.51100000000E-03 0. -1.
        -11    1    3    3    0    0  0.14317708132E+02  0.12159265281E+02 -0.13613241603E+01  0.18833419818E+02  0.51100000000E-03 0.  1.
        -12    1    3    3    0    0 -0.10174458013E+02  0.18275686820E+02  0.37147577719E+01  0.21244287465E+02  0.00000000000E+00 0.  1.
</event>
<event>
 7    1  0.5121289E-013  0.5052886E+02  0.7816164E-02  0.1300439E+00
        -11   -1    0    0    0    0  0.00000000000E+00  0.00000000000E+00  0.45593999997E+02  0.45594000000E+02  0.51100000000E-03 0. -1.
         11   -1    0    0    0    0 -0.00000000000E+00 -0.00000000000E+00 -0.45593999997E+02  0.45594000000E+02  0.51100000000E-03 0.  1.
    9900012    2    1    2    0    0  0.24157728427E+02  0.32690492194E+02  0.94942578236E+00  0.50528861643E+02  0.30000005450E+02 0.  0.
         12    1    1    2    0    0 -0.24157728427E+02 -0.32690492194E+02 -0.94942578236E+00  0.40659138357E+02  0.00000000000E+00 0. -1.
         11    1    3    3    0    0  0.42837793422E+01 -0.62268633194E+00  0.11072233519E+01  0.44681593003E+01  0.51100000000E-03 0. -1.
        -11    1    3    3    0    0 -0.25412417680E+01 -0.13300879306E+01 -0.36597627639E+01  0.46498287469E+01  0.51100000000E-03 0.  1.
        -12    1    3    3    0    0  0.22415190853E+02  0.34643266456E+02  0.35019651943E+01  0.41410873596E+02  0.00000000000E+00 0.  1.
</event>
<event>
 7    1  0.5121289E-013  0.5052887E+02  0.7816164E-02  0.1300439E+00
        -11   -1    0    0    0    0  0.00000000000E+00  0.00000000000E+00  0.45593999997E+02  0.45594000000E+02  0.51100000000E-03 0. -1.
         11   -1    0    0    0    0 -0.00000000000E+00 -0.00000000000E+00 -0.45593999997E+02  0.45594000000E+02  0.51100000000E-03 0.  1.
    9900012    2    1    2    0    0 -0.20934164194E+02  0.32035369045E+02 -0.13735392235E+02  0.50528866953E+02  0.30000021590E+02 0.  0.
         12    1    1    2    0    0  0.20934164194E+02 -0.32035369045E+02  0.13735392235E+02  0.40659133047E+02  0.00000000000E+00 0. -1.
         11    1    3    3    0    0 -0.86434186685E+01  0.26327747027E+02 -0.50179519684E+01  0.28160944445E+02  0.51100000000E-03 0. -1.
        -11    1    3    3    0    0  0.17115050747E+01  0.48586002682E+01  0.10723496165E+01  0.52616708513E+01  0.51100000000E-03 0.  1.
         12    1    3    3    0    0 -0.14002250600E+02  0.84902174942E+00 -0.97897898827E+01  0.17106251657E+02  0.00000000000E+00 0. -1.
</event>
<event>
 7    1  0.5121289E-013  0.5052885E+02  0.7816164E-02  0.1300439E+00
        -11   -1    0    0    0    0  0.00000000000E+00  0.00000000000E+00  0.45593999997E+02  0.45594000000E+02  0.51100000000E-03 0.  1.
         11   -1    0    0    0    0 -0.00000000000E+00 -0.00000000000E+00 -0.45593999997E+02  0.45594000000E+02  0.51100000000E-03 0. -1.
    9900012    2    1    2    0    0  0.17339921697E+02 -0.36620824465E+02 -0.33776779212E+01  0.50528851250E+02  0.29999973859E+02 0.  0.
         12    1    1    2    0    0 -0.17339921697E+02  0.36620824465E+02  0.33776779212E+01  0.40659148750E+02  0.00000000000E+00 0. -1.
         11    1    3    3    0    0  0.42393728972E+01 -0.16517269654E+01  0.40452470159E+01  0.60880627634E+01  0.51100000000E-03 0. -1.
        -11    1    3    3    0    0  0.51392909369E+01 -0.11414697328E+02  0.83029149778E+01  0.15021518692E+02  0.51100000000E-03 0.  1.
         12    1    3    3    0    0  0.79612578633E+01 -0.23554400171E+02 -0.15725839915E+02  0.29419269794E+02  0.00000000000E+00 0. -1.
</event>
<event>
 7    1  0.5121289E-013  0.5052886E+02  0.7816164E-02  0.1300439E+00
        -11   -1    0    0    0    0  0.00000000000E+00  0.00000000000E+00  0.45593999997E+02  0.45594000000E+02  0.51100000000E-03 0. -1.
         11   -1    0    0    0    0 -0.00000000000E+00 -0.00000000000E+00 -0.45593999997E+02  0.45594000000E+02  0.51100000000E-03 0.  1.
    9900012    2    1    2    0    0  0.17730879791E+02 -0.12260793295E+02 -0.34473965424E+02  0.50528862743E+02  0.30000008794E+02 0.  0.
         12    1    1    2    0    0 -0.17730879791E+02  0.12260793295E+02  0.34473965424E+02  0.40659137257E+02  0.00000000000E+00 0. -1.
         11    1    3    3    0    0  0.90549965770E+00 -0.66568354272E+00  0.20774216311E+01  0.23619367273E+01  0.51100000000E-03 0. -1.
        -11    1    3    3    0    0  0.64679295431E+01 -0.11883606165E+02 -0.41542137740E+01  0.14153151607E+02  0.51100000000E-03 0.  1.
        -12    1    3    3    0    0  0.10357450590E+02  0.28849641332E+00 -0.32397173281E+02  0.34013774409E+02  0.00000000000E+00 0.  1.
</event>
<event>
 7    1  0.5121289E-013  0.5052886E+02  0.7816164E-02  0.1300439E+00
        -11   -1    0    0    0    0  0.00000000000E+00  0.00000000000E+00  0.45593999997E+02  0.45594000000E+02  0.51100000000E-03 0. -1.
         11   -1    0    0    0    0 -0.00000000000E+00 -0.00000000000E+00 -0.45593999997E+02  0.45594000000E+02  0.51100000000E-03 0.  1.
    9900012    2    1    2    0    0  0.30170722226E+02  0.19911215684E+02 -0.18612810305E+02  0.50528859612E+02  0.29999999278E+02 0.  0.
         12    1    1    2    0    0 -0.30170722226E+02 -0.19911215684E+02  0.18612810305E+02  0.40659140388E+02  0.00000000000E+00 0. -1.
         11    1    3    3    0    0  0.15286212943E+02  0.50371326610E+01  0.54370816152E+01  0.16988315642E+02  0.51100000000E-03 0. -1.
        -11    1    3    3    0    0  0.18873200807E+01  0.53355580530E+01 -0.15626087683E+01  0.58712778207E+01  0.51100000000E-03 0.  1.
        -12    1    3    3    0    0  0.12997189202E+02  0.95385249695E+01 -0.22487283152E+02  0.27669266150E+02  0.00000000000E+00 0.  1.
</event>
<event>
 7    1  0.5121289E-013  0.5052885E+02  0.7816164E-02  0.1300439E+00
        -11   -1    0    0    0    0  0.00000000000E+00  0.00000000000E+00  0.45593999997E+02  0.45594000000E+02  0.51100000000E-03 0. -1.
         11   -1    0    0    0    0 -0.00000000000E+00 -0.00000000000E+00 -0.45593999997E+02  0.45594000000E+02  0.51100000000E-03 0.  1.
    9900012    2    1    2    0    0 -0.79790552125E+01  0.32759728931E+02 -0.22722255990E+02  0.50528854916E+02  0.29999985002E+02 0.  0.
         12    1    1    2    0    0  0.79790552125E+01 -0.32759728931E+02  0.22722255990E+02  0.40659145084E+02  0.00000000000E+00 0. -1.
         11    1    3    3    0    0 -0.83004783059E+01  0.44901792751E+01 -0.11957053371E+02  0.15232556437E+02  0.51100000000E-03 0.  1.
        -11    1    3    3    0    0 -0.66658479236E+01  0.45784651002E+01  0.59595889486E+00  0.81087014052E+01  0.51100000000E-03 0. -1.
        -12    1    3    3    0    0  0.69872710170E+01  0.23691084555E+02 -0.11361161513E+02  0.27187597073E+02  0.00000000000E+00 0.  1.
</event>
<event>
 7    1  0.5121289E-013  0.5052887E+02  0.7816164E-02  0.1300439E+00
        -11   -1    0    0    0    0  0.00000000000E+00  0.00000000000E+00  0.45593999997E+02  0.45594000000E+02  0.51100000000E-03 0.  1.
         11   -1    0    0    0    0 -0.00000000000E+00 -0.00000000000E+00 -0.45593999997E+02  0.45594000000E+02  0.51100000000E-03 0. -1.
    9900012    2    1    2    0    0 -0.22985024787E+02  0.27170042316E+02  0.19663217553E+02  0.50528872015E+02  0.30000036978E+02 0.  0.
         12    1    1    2    0    0  0.22985024787E+02 -0.27170042316E+02 -0.19663217553E+02  0.40659127985E+02  0.00000000000E+00 0. -1.
         11    1    3    3    0    0 -0.25025582526E-01 -0.63682911283E+00  0.11273290397E+00  0.64721446793E+00  0.51100000000E-03 0. -1.
        -11    1    3    3    0    0 -0.48920914510E+01  0.90082712913E+01  0.21414357980E+02  0.23741445583E+02  0.51100000000E-03 0.  1.
         12    1    3    3    0    0 -0.18067907754E+02  0.18798600138E+02 -0.18638733313E+01  0.26140211964E+02  0.00000000000E+00 0. -1.
</event>
<event>
 7    1  0.5121289E-013  0.5052887E+02  0.7816164E-02  0.1300439E+00
        -11   -1    0    0    0    0  0.00000000000E+00  0.00000000000E+00  0.45593999997E+02  0.45594000000E+02  0.51100000000E-03 0.  1.
         11   -1    0    0    0    0 -0.00000000000E+00 -0.00000000000E+00 -0.45593999997E+02  0.45594000000E+02  0.51100000000E-03 0. -1.
    9900012    2    1    2    0    0  0.65946440248E+01  0.31407787609E+02  0.24964505439E+02  0.50528868380E+02  0.30000025927E+02 0.  0.
         12    1    1    2    0    0 -0.65946440248E+01 -0.31407787609E+02 -0.24964505439E+02  0.40659131620E+02  0.00000000000E+00 0. -1.
         11    1    3    3    0    0  0.14747169004E+01  0.59073861757E+01 -0.42131995110E+01  0.74042590275E+01  0.51100000000E-03 0. -1.
        -11    1    3    3    0    0  0.11899182833E+02  0.17427469463E+02  0.17724298258E+02  0.27558265420E+02  0.51100000000E-03 0.  1.
         12    1    3    3    0    0 -0.67792557087E+01  0.80729319698E+01  0.11453406692E+02  0.15566343932E+02  0.00000000000E+00 0. -1.
</event>
<event>
 7    1  0.5121289E-013  0.5052886E+02  0.7816164E-02  0.1300439E+00
        -11   -1    0    0    0    0  0.00000000000E+00  0.00000000000E+00  0.45593999997E+02  0.45594000000E+02  0.51100000000E-03 0.  1.
         11   -1    0    0    0    0 -0.00000000000E+00 -0.00000000000E+00 -0.45593999997E+02  0.45594000000E+02  0.51100000000E-03 0. -1.
    9900012    2    1    2    0    0 -0.12150239110E+01 -0.10349523111E+02  0.39301104277E+02  0.50528859464E+02  0.29999998828E+02 0.  0.
         12    1    1    2    0    0  0.12150239110E+01  0.10349523111E+02 -0.39301104277E+02  0.40659140536E+02  0.00000000000E+00 0. -1.
         11    1    3    3    0    0 -0.40584345460E+01 -0.10506782235E+01 -0.24035546175E+01  0.48323794092E+01  0.51100000000E-03 0. -1.
        -11    1    3    3    0    0 -0.38288450762E+01  0.87440821090E-01  0.19308811158E+01  0.42890561502E+01  0.51100000000E-03 0.  1.
        -12    1    3    3    0    0  0.66722557113E+01 -0.93862857087E+01  0.39773777778E+02  0.41407423905E+02  0.00000000000E+00 0.  1.
</event>
<event>
 7    1  0.5121289E-013  0.5052886E+02  0.7816164E-02  0.1300439E+00
        -11   -1    0    0    0    0  0.00000000000E+00  0.00000000000E+00  0.45593999997E+02  0.45594000000E+02  0.51100000000E-03 0.  1.
         11   -1    0    0    0    0 -0.00000000000E+00 -0.00000000000E+00 -0.45593999997E+02  0.45594000000E+02  0.51100000000E-03 0. -1.
    9900012    2    1    2    0    0 -0.18670562220E+02  0.18878705234E+02  0.30792373197E+02  0.50528860166E+02  0.30000000961E+02 0.  0.
         12    1    1    2    0    0  0.18670562220E+02 -0.18878705234E+02 -0.30792373197E+02  0.40659139834E+02  0.00000000000E+00 0. -1.
         11    1    3    3    0    0 -0.13890680388E+02  0.14466681035E+02  0.78480459199E+01  0.21536659138E+02  0.51100000000E-03 0. -1.
        -11    1    3    3    0    0 -0.89544393904E+01  0.34505856873E+01  0.55659477319E+01  0.11093615317E+02  0.51100000000E-03 0.  1.
         12    1    3    3    0    0  0.41745575587E+01  0.96143851161E+00  0.17378379545E+02  0.17898585711E+02  0.00000000000E+00 0. -1.
</event>
<event>
 7    1  0.5121289E-013  0.5052888E+02  0.7816164E-02  0.1300439E+00
        -11   -1    0    0    0    0  0.00000000000E+00  0.00000000000E+00  0.45593999997E+02  0.45594000000E+02  0.51100000000E-03 0.  1.
         11   -1    0    0    0    0 -0.00000000000E+00 -0.00000000000E+00 -0.45593999997E+02  0.45594000000E+02  0.51100000000E-03 0. -1.
    9900012    2    1    2    0    0 -0.96934680152E+01  0.24870275406E+02  0.30670351229E+02  0.50528875988E+02  0.30000049053E+02 0.  0.
         12    1    1    2    0    0  0.96934680152E+01 -0.24870275406E+02 -0.30670351229E+02  0.40659124012E+02  0.00000000000E+00 0. -1.
         11    1    3    3    0    0 -0.81993367076E+01  0.73646675324E+01  0.19101076038E+02  0.22052631507E+02  0.51100000000E-03 0. -1.
        -11    1    3    3    0    0  0.32552938855E+01  0.27548685887E+01  0.12243656729E+02  0.12965082707E+02  0.51100000000E-03 0.  1.
         12    1    3    3    0    0 -0.47494251931E+01  0.14750739285E+02 -0.67438153915E+00  0.15511161774E+02  0.00000000000E+00 0. -1.
</event>
<event>
 7    1  0.5121289E-013  0.5052886E+02  0.7816164E-02  0.1300439E+00
        -11   -1    0    0    0    0  0.00000000000E+00  0.00000000000E+00  0.45593999997E+02  0.45594000000E+02  0.51100000000E-03 0.  1.
         11   -1    0    0    0    0 -0.00000000000E+00 -0.00000000000E+00 -0.45593999997E+02  0.45594000000E+02  0.51100000000E-03 0. -1.
    9900012    2    1    2    0    0  0.21439888859E+02 -0.22822429043E+02  0.25935176643E+02  0.50528862168E+02  0.30000007047E+02 0.  0.
         12    1    1    2    0    0 -0.21439888859E+02  0.22822429043E+02 -0.25935176643E+02  0.40659137832E+02  0.00000000000E+00 0. -1.
         11    1    3    3    0    0  0.96630267732E+01 -0.91332496369E+01 -0.98495932096E+00  0.13332684669E+02  0.51100000000E-03 0. -1.
        -11    1    3    3    0    0  0.11089343189E+02 -0.63149982010E+01  0.44146677916E+01  0.13503407963E+02  0.51100000000E-03 0.  1.
         12    1    3    3    0    0  0.68751889711E+00 -0.73741812048E+01  0.22505468172E+02  0.23692769537E+02  0.00000000000E+00 0. -1.
</event>
<event>
 7    1  0.5121289E-013  0.5052887E+02  0.7816164E-02  0.1300439E+00
        -11   -1    0    0    0    0  0.00000000000E+00  0.00000000000E+00  0.45593999997E+02  0.45594000000E+02  0.51100000000E-03 0. -1.
         11   -1    0    0    0    0 -0.00000000000E+00 -0.00000000000E+00 -0.45593999997E+02  0.45594000000E+02  0.51100000000E-03 0.  1.
    9900012    2    1    2    0    0 -0.36354613641E+02  0.87001024256E+01 -0.15994232503E+02  0.50528865865E+02  0.30000018284E+02 0.  0.
         12    1    1    2    0    0  0.36354613641E+02 -0.87001024256E+01  0.15994232503E+02  0.40659134135E+02  0.00000000000E+00 0. -1.
         11    1    3    3    0    0 -0.14312821402E+01  0.52860972786E+01 -0.11888189468E+01  0.56039882006E+01  0.51100000000E-03 0.  1.
        -11    1    3    3    0    0  0.12514083655E+01  0.14825943380E+00 -0.78406885483E+01  0.79413097741E+01  0.51100000000E-03 0. -1.
         12    1    3    3    0    0 -0.36174739866E+02  0.32657457132E+01 -0.69647250082E+01  0.36983567891E+02  0.00000000000E+00 0. -1.
</event>
<event>
 7    1  0.5121289E-013  0.5052886E+02  0.7816164E-02  0.1300439E+00
        -11   -1    0    0    0    0  0.00000000000E+00  0.00000000000E+00  0.45593999997E+02  0.45594000000E+02  0.51100000000E-03 0.  1.
         11   -1    0    0    0    0 -0.00000000000E+00 -0.00000000000E+00 -0.45593999997E+02  0.45594000000E+02  0.51100000000E-03 0. -1.
    9900012    2    1    2    0    0  0.38269347775E+02 -0.11844032410E+02 -0.69527851627E+01  0.50528864442E+02  0.30000013957E+02 0.  0.
         12    1    1    2    0    0 -0.38269347775E+02  0.11844032410E+02  0.69527851627E+01  0.40659135558E+02  0.00000000000E+00 0. -1.
         11    1    3    3    0    0 -0.13051897626E+01 -0.68985963476E+01  0.55669896650E+00  0.70430153971E+01  0.51100000000E-03 0. -1.
        -11    1    3    3    0    0  0.34002285924E+01 -0.29009278289E+01 -0.56527271550E+01  0.72062654197E+01  0.51100000000E-03 0.  1.
        -12    1    3    3    0    0  0.36174308945E+02 -0.20445082336E+01 -0.18567569742E+01  0.36279583625E+02  0.00000000000E+00 0.  1.
</event>
<event>
 7    1  0.5121289E-013  0.5052888E+02  0.7816164E-02  0.1300439E+00
        -11   -1    0    0    0    0  0.00000000000E+00  0.00000000000E+00  0.45593999997E+02  0.45594000000E+02  0.51100000000E-03 0.  1.
         11   -1    0    0    0    0 -0.00000000000E+00 -0.00000000000E+00 -0.45593999997E+02  0.45594000000E+02  0.51100000000E-03 0. -1.
    9900012    2    1    2    0    0 -0.82716120097E+01 -0.36040282871E+02  0.16906882644E+02  0.50528877587E+02  0.30000053912E+02 0.  0.
         12    1    1    2    0    0  0.82716120097E+01  0.36040282871E+02 -0.16906882644E+02  0.40659122413E+02  0.00000000000E+00 0. -1.
         11    1    3    3    0    0  0.41018286330E+01 -0.14824264639E+02  0.10106138036E+02  0.18404288807E+02  0.51100000000E-03 0. -1.
        -11    1    3    3    0    0 -0.26337904731E+01 -0.98662340515E+01  0.12481118978E+02  0.16126306391E+02  0.51100000000E-03 0.  1.
         12    1    3    3    0    0 -0.97396501695E+01 -0.11349784180E+02 -0.56803743707E+01  0.15998282388E+02  0.00000000000E+00 0. -1.
</event>
<event>
 7    1  0.5121289E-013  0.5052886E+02  0.7816164E-02  0.1300439E+00
        -11   -1    0    0    0    0  0.00000000000E+00  0.00000000000E+00  0.45593999997E+02  0.45594000000E+02  0.51100000000E-03 0.  1.
         11   -1    0    0    0    0 -0.00000000000E+00 -0.00000000000E+00 -0.45593999997E+02  0.45594000000E+02  0.51100000000E-03 0. -1.
    9900012    2    1    2    0    0 -0.16649661972E+02  0.32920311170E+02  0.17094067322E+02  0.50528864877E+02  0.30000015281E+02 0.  0.
         12    1    1    2    0    0  0.16649661972E+02 -0.32920311170E+02 -0.17094067322E+02  0.40659135123E+02  0.00000000000E+00 0. -1.
         11    1    3    3    0    0 -0.39046924832E+00  0.31663159167E+01 -0.55907923107E+01  0.64370009819E+01  0.51100000000E-03 0. -1.
        -11    1    3    3    0    0 -0.12611804232E+02  0.21117565889E+02  0.65879886779E+01  0.25463911525E+02  0.51100000000E-03 0.  1.
         12    1    3    3    0    0 -0.36473884918E+01  0.86364293638E+01  0.16096870955E+02  0.18627952370E+02  0.00000000000E+00 0. -1.
</event>
<event>
 7    1  0.5121289E-013  0.5052885E+02  0.7816164E-02  0.1300439E+00
        -11   -1    0    0    0    0  0.00000000000E+00  0.00000000000E+00  0.45593999997E+02  0.45594000000E+02  0.51100000000E-03 0. -1.
         11   -1    0    0    0    0 -0.00000000000E+00 -0.00000000000E+00 -0.45593999997E+02  0.45594000000E+02  0.51100000000E-03 0.  1.
    9900012    2    1    2    0    0  0.24895466656E+02  0.30063826344E+02  0.11381938225E+02  0.50528850572E+02  0.29999971798E+02 0.  0.
         12    1    1    2    0    0 -0.24895466656E+02 -0.30063826344E+02 -0.11381938225E+02  0.40659149428E+02  0.00000000000E+00 0. -1.
         11    1    3    3    0    0  0.64762963078E+01  0.15533001708E+01  0.47654289112E+01  0.81892898506E+01  0.51100000000E-03 0. -1.
        -11    1    3    3    0    0  0.11390882072E+02  0.15728840528E+02  0.15857545722E+02  0.25072103528E+02  0.51100000000E-03 0.  1.
        -12    1    3    3    0    0  0.70282882763E+01  0.12781685645E+02 -0.92410364079E+01  0.17267457193E+02  0.00000000000E+00 0.  1.
</event>
<event>
 7    1  0.5121289E-013  0.5052886E+02  0.7816164E-02  0.1300439E+00
        -11   -1    0    0    0    0  0.00000000000E+00  0.00000000000E+00  0.45593999997E+02  0.45594000000E+02  0.51100000000E-03 0.  1.
         11   -1    0    0    0    0 -0.00000000000E+00 -0.00000000000E+00 -0.45593999997E+02  0.45594000000E+02  0.51100000000E-03 0. -1.
    9900012    2    1    2    0    0  0.60158465729E+01 -0.13504497838E+02  0.37876162731E+02  0.50528861113E+02  0.30000003839E+02 0.  0.
         12    1    1    2    0    0 -0.60158465729E+01  0.13504497838E+02 -0.37876162731E+02  0.40659138887E+02  0.00000000000E+00 0. -1.
         11    1    3    3    0    0  0.49085293539E+01 -0.29713537069E+01 -0.33777012750E+01  0.66581881495E+01  0.51100000000E-03 0. -1.
        -11    1    3    3    0    0 -0.28199829927E+00 -0.73017560841E+01  0.98188572198E+01  0.12239490280E+02  0.51100000000E-03 0.  1.
        -12    1    3    3    0    0  0.13893155182E+01 -0.32313880471E+01  0.31435006786E+02  0.31631182683E+02  0.00000000000E+00 0.  1.
</event>
<event>
 7    1  0.5121289E-013  0.5052885E+02  0.7816164E-02  0.1300439E+00
        -11   -1    0    0    0    0  0.00000000000E+00  0.00000000000E+00  0.45593999997E+02  0.45594000000E+02  0.51100000000E-03 0.  1.
         11   -1    0    0    0    0 -0.00000000000E+00 -0.00000000000E+00 -0.45593999997E+02  0.45594000000E+02  0.51100000000E-03 0. -1.
    9900012    2    1    2    0    0  0.26744021985E+02 -0.29603118040E+02  0.78472281474E+01  0.50528852207E+02  0.29999976770E+02 0.  0.
         12    1    1    2    0    0 -0.26744021985E+02  0.29603118040E+02 -0.78472281474E+01  0.40659147793E+02  0.00000000000E+00 0. -1.
         11    1    3    3    0    0  0.21427891254E+02 -0.20610676142E+02  0.95437056530E+01  0.31225579458E+02  0.51100000000E-03 0.  1.
        -11    1    3    3    0    0  0.25091205747E+01 -0.89573398689E+01  0.60279973836E+01  0.11084510648E+02  0.51100000000E-03 0. -1.
         12    1    3    3    0    0  0.28070101557E+01 -0.35102028928E-01 -0.77244748891E+01  0.82187621014E+01  0.00000000000E+00 0. -1.
</event>
<event>
 7    1  0.5121289E-013  0.5052886E+02  0.7816164E-02  0.1300439E+00
        -11   -1    0    0    0    0  0.00000000000E+00  0.00000000000E+00  0.45593999997E+02  0.45594000000E+02  0.51100000000E-03 0.  1.
         11   -1    0    0    0    0 -0.00000000000E+00 -0.00000000000E+00 -0.45593999997E+02  0.45594000000E+02  0.51100000000E-03 0. -1.
    9900012    2    1    2    0    0 -0.79782411807E+00  0.43906584059E+01  0.40413503567E+02  0.50528859882E+02  0.30000000098E+02 0.  0.
         12    1    1    2    0    0  0.79782411807E+00 -0.43906584059E+01 -0.40413503567E+02  0.40659140118E+02  0.00000000000E+00 0. -1.
         11    1    3    3    0    0 -0.10888572500E+00  0.42168047442E+01 -0.13774646860E+01  0.44374212752E+01  0.51100000000E-03 0. -1.
        -11    1    3    3    0    0 -0.81469765564E+01  0.37970415289E+01  0.32113541779E+02  0.33347718321E+02  0.51100000000E-03 0.  1.
         12    1    3    3    0    0  0.74580381633E+01 -0.36231878671E+01  0.96774264743E+01  0.12743720286E+02  0.00000000000E+00 0. -1.
</event>
<event>
 7    1  0.5121289E-013  0.5052885E+02  0.7816164E-02  0.1300439E+00
        -11   -1    0    0    0    0  0.00000000000E+00  0.00000000000E+00  0.45593999997E+02  0.45594000000E+02  0.51100000000E-03 0. -1.
         11   -1    0    0    0    0 -0.00000000000E+00 -0.00000000000E+00 -0.45593999997E+02  0.45594000000E+02  0.51100000000E-03 0.  1.
    9900012    2    1    2    0    0 -0.25317925166E+02 -0.18932041900E+02 -0.25568468715E+02  0.50528854194E+02  0.29999982808E+02 0.  0.
         12    1    1    2    0    0  0.25317925166E+02  0.18932041900E+02  0.25568468715E+02  0.40659145806E+02  0.00000000000E+00 0. -1.
         11    1    3    3    0    0  0.91090339294E+00 -0.98183290083E+00  0.45148416656E+00  0.14133573682E+01  0.51100000000E-03 0. -1.
        -11    1    3    3    0    0 -0.15735264282E+02 -0.19548533879E+02 -0.50293673891E+01  0.25593715155E+02  0.51100000000E-03 0.  1.
        -12    1    3    3    0    0 -0.10493564277E+02  0.15983248795E+01 -0.20990585493E+02  0.23521781671E+02  0.00000000000E+00 0.  1.
</event>
<event>
 7    1  0.5121289E-013  0.5052888E+02  0.7816164E-02  0.1300439E+00
        -11   -1    0    0    0    0  0.00000000000E+00  0.00000000000E+00  0.45593999997E+02  0.45594000000E+02  0.51100000000E-03 0.  1.
         11   -1    0    0    0    0 -0.00000000000E+00 -0.00000000000E+00 -0.45593999997E+02  0.45594000000E+02  0.51100000000E-03 0. -1.
    9900012    2    1    2    0    0  0.93361922528E+01 -0.35461183062E+02  0.17564282474E+02  0.50528880374E+02  0.30000062385E+02 0.  0.
         12    1    1    2    0    0 -0.93361922528E+01  0.35461183062E+02 -0.17564282474E+02  0.40659119626E+02  0.00000000000E+00 0. -1.
         11    1    3    3    0    0  0.43796477645E+01 -0.11887088043E+02 -0.13671712517E+01  0.12741794778E+02  0.51100000000E-03 0. -1.
        -11    1    3    3    0    0  0.59850364748E+01 -0.18818460078E+02  0.16299413104E+01  0.19814434391E+02  0.51100000000E-03 0.  1.
        -12    1    3    3    0    0 -0.10284919865E+01 -0.47556349411E+01  0.17301512416E+02  0.17972651205E+02  0.00000000000E+00 0.  1.
</event>
<event>
 7    1  0.5121289E-013  0.5052886E+02  0.7816164E-02  0.1300439E+00
        -11   -1    0    0    0    0  0.00000000000E+00  0.00000000000E+00  0.45593999997E+02  0.45594000000E+02  0.51100000000E-03 0.  1.
         11   -1    0    0    0    0 -0.00000000000E+00 -0.00000000000E+00 -0.45593999997E+02  0.45594000000E+02  0.51100000000E-03 0. -1.
    9900012    2    1    2    0    0  0.21602372416E+02 -0.24549269521E+01  0.34358062372E+02  0.50528860679E+02  0.30000002520E+02 0.  0.
         12    1    1    2    0    0 -0.21602372416E+02  0.24549269521E+01 -0.34358062372E+02  0.40659139321E+02  0.00000000000E+00 0. -1.
         11    1    3    3    0    0  0.22860532123E+01 -0.72131890124E+01  0.73577395411E+01  0.10554262951E+02  0.51100000000E-03 0. -1.
        -11    1    3    3    0    0  0.16710367788E+02  0.78532900720E+01  0.29798594817E+02  0.35055196618E+02  0.51100000000E-03 0.  1.
         12    1    3    3    0    0  0.26059514161E+01 -0.30950280117E+01 -0.27982719864E+01  0.49194011106E+01  0.00000000000E+00 0. -1.
</event>
<event>
 7    1  0.5121289E-013  0.5052886E+02  0.7816164E-02  0.1300439E+00
        -11   -1    0    0    0    0  0.00000000000E+00  0.00000000000E+00  0.45593999997E+02  0.45594000000E+02  0.51100000000E-03 0.  1.
         11   -1    0    0    0    0 -0.00000000000E+00 -0.00000000000E+00 -0.45593999997E+02  0.45594000000E+02  0.51100000000E-03 0. -1.
    9900012    2    1    2    0    0  0.20517489396E+02 -0.76125522356E+01  0.34267295277E+02  0.50528857753E+02  0.29999993626E+02 0.  0.
         12    1    1    2    0    0 -0.20517489396E+02  0.76125522356E+01 -0.34267295277E+02  0.40659142247E+02  0.00000000000E+00 0. -1.
         11    1    3    3    0    0 -0.30034469741E+01 -0.58327200565E+01  0.13455191316E+01  0.66971440912E+01  0.51100000000E-03 0. -1.
        -11    1    3    3    0    0  0.20172648896E+02 -0.36105607292E+01  0.34146369296E+02  0.39823943158E+02  0.51100000000E-03 0.  1.
         12    1    3    3    0    0  0.33482874738E+01  0.18307285501E+01 -0.12245931504E+01  0.40077705043E+01  0.00000000000E+00 0. -1.
</event>
<event>
 7    1  0.5121289E-013  0.5052886E+02  0.7816164E-02  0.1300439E+00
        -11   -1    0    0    0    0  0.00000000000E+00  0.00000000000E+00  0.45593999997E+02  0.45594000000E+02  0.51100000000E-03 0. -1.
         11   -1    0    0    0    0 -0.00000000000E+00 -0.00000000000E+00 -0.45593999997E+02  0.45594000000E+02  0.51100000000E-03 0.  1.
    9900012    2    1    2    0    0 -0.13265865192E+02  0.32085515387E+02 -0.21158975898E+02  0.50528859109E+02  0.29999997747E+02 0.  0.
         12    1    1    2    0    0  0.13265865192E+02 -0.32085515387E+02  0.21158975898E+02  0.40659140891E+02  0.00000000000E+00 0. -1.
         11    1    3    3    0    0 -0.13583364234E+02  0.15165850425E+02 -0.20616155881E+02  0.28974759474E+02  0.51100000000E-03 0. -1.
        -11    1    3    3    0    0 -0.63999972207E+01  0.95878238508E+01  0.60917441026E+00  0.11543717960E+02  0.51100000000E-03 0.  1.
         12    1    3    3    0    0  0.67174962619E+01  0.73318411117E+01 -0.11519944273E+01  0.10010381675E+02  0.00000000000E+00 0. -1.
</event>
<event>
 7    1  0.5121289E-013  0.5052884E+02  0.7816164E-02  0.1300439E+00
        -11   -1    0    0    0    0  0.00000000000E+00  0.00000000000E+00  0.45593999997E+02  0.45594000000E+02  0.51100000000E-03 0.  1.
         11   -1    0    0    0    0 -0.00000000000E+00 -0.00000000000E+00 -0.45593999997E+02  0.45594000000E+02  0.51100000000E-03 0. -1.
    9900012    2    1    2    0    0 -0.98560327576E+01  0.38688643460E+02  0.76951213079E+01  0.50528838592E+02  0.29999935384E+02 0.  0.
         12    1    1    2    0    0  0.98560327576E+01 -0.38688643460E+02 -0.76951213079E+01  0.40659161408E+02  0.00000000000E+00 0. -1.
         11    1    3    3    0    0 -0.54791442318E+01  0.85104857798E+01  0.22324059009E+01  0.10364990405E+02  0.51100000000E-03 0. -1.
        -11    1    3    3    0    0 -0.14237773642E+02  0.20220355466E+02 -0.95860228291E+00  0.24748654348E+02  0.51100000000E-03 0.  1.
         12    1    3    3    0    0  0.98608851165E+01  0.99578022142E+01  0.64213176900E+01  0.15415193839E+02  0.00000000000E+00 0. -1.
</event>
<event>
 7    1  0.5121289E-013  0.5052885E+02  0.7816164E-02  0.1300439E+00
        -11   -1    0    0    0    0  0.00000000000E+00  0.00000000000E+00  0.45593999997E+02  0.45594000000E+02  0.51100000000E-03 0.  1.
         11   -1    0    0    0    0 -0.00000000000E+00 -0.00000000000E+00 -0.45593999997E+02  0.45594000000E+02  0.51100000000E-03 0. -1.
    9900012    2    1    2    0    0 -0.53562740306E+01  0.21076729855E+02  0.34354737879E+02  0.50528853088E+02  0.29999979445E+02 0.  0.
         12    1    1    2    0    0  0.53562740306E+01 -0.21076729855E+02 -0.34354737879E+02  0.40659146912E+02  0.00000000000E+00 0. -1.
         11    1    3    3    0    0 -0.95664125579E+01  0.83032399021E+00  0.12819839022E+02  0.16017301894E+02  0.51100000000E-03 0. -1.
        -11    1    3    3    0    0 -0.12244682312E+01  0.13672152020E+02  0.22041945735E+02  0.25966794861E+02  0.51100000000E-03 0.  1.
         12    1    3    3    0    0  0.54346067584E+01  0.65742538454E+01 -0.50704687805E+00  0.85447563324E+01  0.00000000000E+00 0. -1.
</event>
<event>
 7    1  0.5121289E-013  0.5052885E+02  0.7816164E-02  0.1300439E+00
        -11   -1    0    0    0    0  0.00000000000E+00  0.00000000000E+00  0.45593999997E+02  0.45594000000E+02  0.51100000000E-03 0.  1.
         11   -1    0    0    0    0 -0.00000000000E+00 -0.00000000000E+00 -0.45593999997E+02  0.45594000000E+02  0.51100000000E-03 0. -1.
    9900012    2    1    2    0    0  0.23855040505E+02  0.30109721603E+02  0.13323210271E+02  0.50528853127E+02  0.29999979564E+02 0.  0.
         12    1    1    2    0    0 -0.23855040505E+02 -0.30109721603E+02 -0.13323210271E+02  0.40659146873E+02  0.00000000000E+00 0. -1.
         11    1    3    3    0    0  0.16494110032E+02  0.19210426049E+02  0.41471527266E+01  0.25657260390E+02  0.51100000000E-03 0. -1.
        -11    1    3    3    0    0  0.12747346411E+02  0.10720317769E+02  0.99883886039E+01  0.19421327472E+02  0.51100000000E-03 0.  1.
         12    1    3    3    0    0 -0.53864159381E+01  0.17897778539E+00 -0.81233105913E+00  0.54502652647E+01  0.00000000000E+00 0. -1.
</event>
<event>
 7    1  0.5121289E-013  0.5052886E+02  0.7816164E-02  0.1300439E+00
        -11   -1    0    0    0    0  0.00000000000E+00  0.00000000000E+00  0.45593999997E+02  0.45594000000E+02  0.51100000000E-03 0.  1.
         11   -1    0    0    0    0 -0.00000000000E+00 -0.00000000000E+00 -0.45593999997E+02  0.45594000000E+02  0.51100000000E-03 0. -1.
    9900012    2    1    2    0    0  0.30713185454E+02  0.83609166208E+01  0.25297453685E+02  0.50528857726E+02  0.29999993545E+02 0.  0.
         12    1    1    2    0    0 -0.30713185454E+02 -0.83609166208E+01 -0.25297453685E+02  0.40659142274E+02  0.00000000000E+00 0. -1.
         11    1    3    3    0    0  0.12173468073E+02  0.12082774744E+02  0.54965817509E+01  0.18011084966E+02  0.51100000000E-03 0.  1.
        -11    1    3    3    0    0  0.62213335105E+01  0.82270378391E+00 -0.24050012677E+01  0.67205552988E+01  0.51100000000E-03 0. -1.
         12    1    3    3    0    0  0.12318383871E+02 -0.45445619070E+01  0.22205873202E+02  0.25797217462E+02  0.00000000000E+00 0. -1.
</event>
<event>
 7    1  0.5121289E-013  0.5052888E+02  0.7816164E-02  0.1300439E+00
        -11   -1    0    0    0    0  0.00000000000E+00  0.00000000000E+00  0.45593999997E+02  0.45594000000E+02  0.51100000000E-03 0.  1.
         11   -1    0    0    0    0 -0.00000000000E+00 -0.00000000000E+00 -0.45593999997E+02  0.45594000000E+02  0.51100000000E-03 0. -1.
    9900012    2    1    2    0    0  0.32866556367E+01  0.17414485857E+02  0.36593679536E+02  0.50528882881E+02  0.30000070004E+02 0.  0.
         12    1    1    2    0    0 -0.32866556367E+01 -0.17414485857E+02 -0.36593679536E+02  0.40659117119E+02  0.00000000000E+00 0. -1.
         11    1    3    3    0    0 -0.26880940521E+01 -0.65084725956E+00 -0.25799681556E+01  0.37822860459E+01  0.51100000000E-03 0. -1.
        -11    1    3    3    0    0 -0.57743977778E+01  0.34239095578E+01  0.94727488003E+01  0.11610331453E+02  0.51100000000E-03 0.  1.
         12    1    3    3    0    0  0.11749147467E+02  0.14641423559E+02  0.29700898891E+02  0.35136265382E+02  0.00000000000E+00 0. -1.
</event>
<event>
 7    1  0.5121289E-013  0.5052887E+02  0.7816164E-02  0.1300439E+00
        -11   -1    0    0    0    0  0.00000000000E+00  0.00000000000E+00  0.45593999997E+02  0.45594000000E+02  0.51100000000E-03 0. -1.
         11   -1    0    0    0    0 -0.00000000000E+00 -0.00000000000E+00 -0.45593999997E+02  0.45594000000E+02  0.51100000000E-03 0.  1.
    9900012    2    1    2    0    0 -0.18706850635E+02  0.10168881177E+02 -0.34638311522E+02  0.50528867814E+02  0.30000024207E+02 0.  0.
         12    1    1    2    0    0  0.18706850635E+02 -0.10168881177E+02  0.34638311522E+02  0.40659132186E+02  0.00000000000E+00 0. -1.
         11    1    3    3    0    0  0.22013605370E+00  0.31506074900E+01 -0.81508004656E+01  0.87413005857E+01  0.51100000000E-03 0.  1.
        -11    1    3    3    0    0 -0.18907052428E+02  0.46823822643E+01 -0.31054605261E+02  0.36657739201E+02  0.51100000000E-03 0. -1.
         12    1    3    3    0    0 -0.19934260253E-01  0.23358914224E+01  0.45670942045E+01  0.51298280268E+01  0.00000000000E+00 0. -1.
</event>
<event>
 7    1  0.5752288E-013  0.5052886E+02  0.7816164E-02  0.1300439E+00
        -11   -1    0    0    0    0  0.00000000000E+00  0.00000000000E+00  0.45593999997E+02  0.45594000000E+02  0.51100000000E-03 0.  1.
         11   -1    0    0    0    0 -0.00000000000E+00 -0.00000000000E+00 -0.45593999997E+02  0.45594000000E+02  0.51100000000E-03 0. -1.
    9900012    2    1    2    0    0  0.39843687426E+02 -0.57700310083E+01  0.56879667888E+01  0.50528860169E+02  0.30000000971E+02 0.  0.
         12    1    1    2    0    0 -0.39843687426E+02  0.57700310083E+01 -0.56879667888E+01  0.40659139831E+02  0.00000000000E+00 0. -1.
         11    1    3    3    0    0  0.11646715188E+01 -0.11908790235E+01 -0.45708436233E+01  0.48649012616E+01  0.51100000000E-03 0. -1.
        -11    1    3    3    0    0  0.68747471058E+01  0.74135450668E+01 -0.16311466273E+00  0.10111844781E+02  0.51100000000E-03 0.  1.
        -12    1    3    3    0    0  0.31804268802E+02 -0.11992697052E+02  0.10421925075E+02  0.35552114126E+02  0.00000000000E+00 0.  1.
</event>
<event>
 7    1  0.5121289E-013  0.5052886E+02  0.7816164E-02  0.1300439E+00
        -11   -1    0    0    0    0  0.00000000000E+00  0.00000000000E+00  0.45593999997E+02  0.45594000000E+02  0.51100000000E-03 0.  1.
         11   -1    0    0    0    0 -0.00000000000E+00 -0.00000000000E+00 -0.45593999997E+02  0.45594000000E+02  0.51100000000E-03 0. -1.
    9900012    2    1    2    0    0  0.94671730446E+01 -0.36528115009E+02  0.15140514872E+02  0.50528859057E+02  0.29999997591E+02 0.  0.
         12    1    1    2    0    0 -0.94671730446E+01  0.36528115009E+02 -0.15140514872E+02  0.40659140943E+02  0.00000000000E+00 0. -1.
         11    1    3    3    0    0  0.55604706539E+01 -0.87669977558E+01 -0.20923362248E+01  0.10590418060E+02  0.51100000000E-03 0. -1.
        -11    1    3    3    0    0  0.27122254407E+01 -0.24914776332E+02  0.28447042116E+01  0.25222898105E+02  0.51100000000E-03 0.  1.
        -12    1    3    3    0    0  0.11944769500E+01 -0.28463409220E+01  0.14388146886E+02  0.14715542893E+02  0.00000000000E+00 0.  1.
</event>
<event>
 7    1  0.5121289E-013  0.5052886E+02  0.7816164E-02  0.1300439E+00
        -11   -1    0    0    0    0  0.00000000000E+00  0.00000000000E+00  0.45593999997E+02  0.45594000000E+02  0.51100000000E-03 0.  1.
         11   -1    0    0    0    0 -0.00000000000E+00 -0.00000000000E+00 -0.45593999997E+02  0.45594000000E+02  0.51100000000E-03 0. -1.
    9900012    2    1    2    0    0  0.26464122199E+02  0.30750208299E+02 -0.26908270508E+01  0.50528860506E+02  0.30000001995E+02 0.  0.
         12    1    1    2    0    0 -0.26464122199E+02 -0.30750208299E+02  0.26908270508E+01  0.40659139494E+02  0.00000000000E+00 0. -1.
         11    1    3    3    0    0  0.71572359902E+01 -0.20202234758E+01 -0.26685130181E+01  0.79011576304E+01  0.51100000000E-03 0. -1.
        -11    1    3    3    0    0  0.15366055951E+02  0.17318424786E+02  0.83556569396E+01  0.24614234006E+02  0.51100000000E-03 0.  1.
        -12    1    3    3    0    0  0.39408302569E+01  0.15452006989E+02 -0.83779709724E+01  0.18013468869E+02  0.00000000000E+00 0.  1.
</event>
<event>
 7    1  0.5121289E-013  0.5052886E+02  0.7816164E-02  0.1300439E+00
        -11   -1    0    0    0    0  0.00000000000E+00  0.00000000000E+00  0.45593999997E+02  0.45594000000E+02  0.51100000000E-03 0. -1.
         11   -1    0    0    0    0 -0.00000000000E+00 -0.00000000000E+00 -0.45593999997E+02  0.45594000000E+02  0.51100000000E-03 0.  1.
    9900012    2    1    2    0    0  0.86801668006E+01 -0.31381599427E+02 -0.24351909203E+02  0.50528861296E+02  0.30000004396E+02 0.  0.
         12    1    1    2    0    0 -0.86801668006E+01  0.31381599427E+02  0.24351909203E+02  0.40659138704E+02  0.00000000000E+00 0. -1.
         11    1    3    3    0    0 -0.19712574253E+01  0.44542709287E+00  0.34441407047E+01  0.39932901956E+01  0.51100000000E-03 0. -1.
        -11    1    3    3    0    0  0.55071768258E+01 -0.56741414269E+01  0.16075497134E+00  0.79089013109E+01  0.51100000000E-03 0.  1.
        -12    1    3    3    0    0  0.51442474001E+01 -0.26152885093E+02 -0.27956804879E+02  0.38626669790E+02  0.00000000000E+00 0.  1.
</event>
<event>
 7    1  0.5121289E-013  0.5052887E+02  0.7816164E-02  0.1300439E+00
        -11   -1    0    0    0    0  0.00000000000E+00  0.00000000000E+00  0.45593999997E+02  0.45594000000E+02  0.51100000000E-03 0.  1.
         11   -1    0    0    0    0 -0.00000000000E+00 -0.00000000000E+00 -0.45593999997E+02  0.45594000000E+02  0.51100000000E-03 0. -1.
    9900012    2    1    2    0    0  0.33535298318E+02  0.21973058010E+02 -0.67626275997E+01  0.50528872566E+02  0.30000038653E+02 0.  0.
         12    1    1    2    0    0 -0.33535298318E+02 -0.21973058010E+02  0.67626275997E+01  0.40659127434E+02  0.00000000000E+00 0. -1.
         11    1    3    3    0    0  0.12253510394E+02  0.11046775652E+02 -0.14731801887E+02  0.22117996211E+02  0.51100000000E-03 0. -1.
        -11    1    3    3    0    0  0.58644540857E+01  0.99849332447E+01  0.15458749395E+01  0.11682484462E+02  0.51100000000E-03 0.  1.
        -12    1    3    3    0    0  0.15417333838E+02  0.94134911338E+00  0.64232993473E+01  0.16728391893E+02  0.00000000000E+00 0.  1.
</event>
<event>
 7    1  0.5121289E-013  0.5052886E+02  0.7816164E-02  0.1300439E+00
        -11   -1    0    0    0    0  0.00000000000E+00  0.00000000000E+00  0.45593999997E+02  0.45594000000E+02  0.51100000000E-03 0. -1.
         11   -1    0    0    0    0 -0.00000000000E+00 -0.00000000000E+00 -0.45593999997E+02  0.45594000000E+02  0.51100000000E-03 0.  1.
    9900012    2    1    2    0    0 -0.30557710895E+02 -0.25317462240E+02 -0.88553803591E+01  0.50528863872E+02  0.30000012224E+02 0.  0.
         12    1    1    2    0    0  0.30557710895E+02  0.25317462240E+02  0.88553803591E+01  0.40659136128E+02  0.00000000000E+00 0. -1.
         11    1    3    3    0    0 -0.45906900580E+01 -0.69544796128E+01  0.34779934208E+01  0.90297098730E+01  0.51100000000E-03 0. -1.
        -11    1    3    3    0    0 -0.17438966885E+01  0.40494141625E+00  0.56788204739E+01  0.59543392115E+01  0.51100000000E-03 0.  1.
        -12    1    3    3    0    0 -0.24223124148E+02 -0.18767924044E+02 -0.18012194254E+02  0.35544814787E+02  0.00000000000E+00 0.  1.
</event>
<event>
 7    1  0.5121289E-013  0.5052890E+02  0.7816164E-02  0.1300439E+00
        -11   -1    0    0    0    0  0.00000000000E+00  0.00000000000E+00  0.45593999997E+02  0.45594000000E+02  0.51100000000E-03 0.  1.
         11   -1    0    0    0    0 -0.00000000000E+00 -0.00000000000E+00 -0.45593999997E+02  0.45594000000E+02  0.51100000000E-03 0. -1.
    9900012    2    1    2    0    0  0.10378153576E+02 -0.30018234354E+02  0.25384287458E+02  0.50528898742E+02  0.30000118216E+02 0.  0.
         12    1    1    2    0    0 -0.10378153576E+02  0.30018234354E+02 -0.25384287458E+02  0.40659101258E+02  0.00000000000E+00 0. -1.
         11    1    3    3    0    0 -0.63985047528E+01 -0.56676550315E+01  0.77233395743E+01  0.11520119403E+02  0.51100000000E-03 0. -1.
        -11    1    3    3    0    0 -0.21801447398E+01  0.10878737486E+01  0.35053202965E+01  0.42689308991E+01  0.51100000000E-03 0.  1.
        -12    1    3    3    0    0  0.18956803069E+02 -0.25438453071E+02  0.14155627587E+02  0.34739848440E+02  0.00000000000E+00 0.  1.
</event>
<event>
 7    1  0.5121289E-013  0.5052885E+02  0.7816164E-02  0.1300439E+00
        -11   -1    0    0    0    0  0.00000000000E+00  0.00000000000E+00  0.45593999997E+02  0.45594000000E+02  0.51100000000E-03 0.  1.
         11   -1    0    0    0    0 -0.00000000000E+00 -0.00000000000E+00 -0.45593999997E+02  0.45594000000E+02  0.51100000000E-03 0. -1.
    9900012    2    1    2    0    0  0.19526273285E+02  0.34847575714E+02 -0.75853416976E+01  0.50528852318E+02  0.29999977106E+02 0.  0.
         12    1    1    2    0    0 -0.19526273285E+02 -0.34847575714E+02  0.75853416976E+01  0.40659147682E+02  0.00000000000E+00 0. -1.
         11    1    3    3    0    0  0.11767183487E+02  0.18446774854E+02  0.21747274941E+01  0.21988168402E+02  0.51100000000E-03 0. -1.
        -11    1    3    3    0    0  0.71159609186E+01  0.10304552451E+02  0.42692721645E+01  0.13230547460E+02  0.51100000000E-03 0.  1.
         12    1    3    3    0    0  0.64312887957E+00  0.60962484090E+01 -0.14029341356E+02  0.15310136456E+02  0.00000000000E+00 0. -1.
</event>
<event>
 7    1  0.5121289E-013  0.5052886E+02  0.7816164E-02  0.1300439E+00
        -11   -1    0    0    0    0  0.00000000000E+00  0.00000000000E+00  0.45593999997E+02  0.45594000000E+02  0.51100000000E-03 0.  1.
         11   -1    0    0    0    0 -0.00000000000E+00 -0.00000000000E+00 -0.45593999997E+02  0.45594000000E+02  0.51100000000E-03 0. -1.
    9900012    2    1    2    0    0 -0.18790091761E+02 -0.65579285841E+01  0.35455486865E+02  0.50528861734E+02  0.30000005727E+02 0.  0.
         12    1    1    2    0    0  0.18790091761E+02  0.65579285841E+01 -0.35455486865E+02  0.40659138266E+02  0.00000000000E+00 0. -1.
         11    1    3    3    0    0 -0.11073609095E+02 -0.15740310413E+01  0.87662095352E+01  0.14210869853E+02  0.51100000000E-03 0. -1.
        -11    1    3    3    0    0 -0.10768622394E+02  0.65642682843E+01  0.15116085129E+02  0.19686261105E+02  0.51100000000E-03 0.  1.
         12    1    3    3    0    0  0.30521397288E+01 -0.11548165827E+02  0.11573192200E+02  0.16631730776E+02  0.00000000000E+00 0. -1.
</event>
<event>
 7    1  0.5121289E-013  0.5052886E+02  0.7816164E-02  0.1300439E+00
        -11   -1    0    0    0    0  0.00000000000E+00  0.00000000000E+00  0.45593999997E+02  0.45594000000E+02  0.51100000000E-03 0.  1.
         11   -1    0    0    0    0 -0.00000000000E+00 -0.00000000000E+00 -0.45593999997E+02  0.45594000000E+02  0.51100000000E-03 0. -1.
    9900012    2    1    2    0    0  0.23133269094E+02 -0.32785613442E+02  0.65666783805E+01  0.50528857698E+02  0.29999993460E+02 0.  0.
         12    1    1    2    0    0 -0.23133269094E+02  0.32785613442E+02 -0.65666783805E+01  0.40659142302E+02  0.00000000000E+00 0. -1.
         11    1    3    3    0    0 -0.71254941388E+00 -0.23691642598E+01  0.50901045856E+00  0.25258182566E+01  0.51100000000E-03 0. -1.
        -11    1    3    3    0    0  0.10343365157E+02 -0.79534225097E+01 -0.10717711648E+02  0.16885244316E+02  0.51100000000E-03 0.  1.
        -12    1    3    3    0    0  0.13502453352E+02 -0.22463026672E+02  0.16775379570E+02  0.31117795126E+02  0.00000000000E+00 0.  1.
</event>
<event>
 7    1  0.5121289E-013  0.5052885E+02  0.7816164E-02  0.1300439E+00
        -11   -1    0    0    0    0  0.00000000000E+00  0.00000000000E+00  0.45593999997E+02  0.45594000000E+02  0.51100000000E-03 0. -1.
         11   -1    0    0    0    0 -0.00000000000E+00 -0.00000000000E+00 -0.45593999997E+02  0.45594000000E+02  0.51100000000E-03 0.  1.
    9900012    2    1    2    0    0  0.39065699832E+02 -0.22403129935E+00 -0.11268864256E+02  0.50528851030E+02  0.29999973190E+02 0.  0.
         12    1    1    2    0    0 -0.39065699832E+02  0.22403129935E+00  0.11268864256E+02  0.40659148970E+02  0.00000000000E+00 0. -1.
         11    1    3    3    0    0  0.66350684800E+01  0.28398374092E+01  0.81097944748E+01  0.10856222959E+02  0.51100000000E-03 0. -1.
        -11    1    3    3    0    0  0.38025837415E+01 -0.21107573277E+01  0.10697030485E+01  0.44787503257E+01  0.51100000000E-03 0.  1.
        -12    1    3    3    0    0  0.28628047610E+02 -0.95311138085E+00 -0.20448361779E+02  0.35193877745E+02  0.00000000000E+00 0.  1.
</event>
<event>
 7    1  0.5121289E-013  0.5052890E+02  0.7816164E-02  0.1300439E+00
        -11   -1    0    0    0    0  0.00000000000E+00  0.00000000000E+00  0.45593999997E+02  0.45594000000E+02  0.51100000000E-03 0.  1.
         11   -1    0    0    0    0 -0.00000000000E+00 -0.00000000000E+00 -0.45593999997E+02  0.45594000000E+02  0.51100000000E-03 0. -1.
    9900012    2    1    2    0    0  0.56691531827E+01 -0.25431726439E+02  0.31212988786E+02  0.50528896758E+02  0.30000112185E+02 0.  0.
         12    1    1    2    0    0 -0.56691531827E+01  0.25431726439E+02 -0.31212988786E+02  0.40659103242E+02  0.00000000000E+00 0. -1.
         11    1    3    3    0    0 -0.16105765889E+01 -0.36676639566E+01  0.82065943871E+01  0.91320264751E+01  0.51100000000E-03 0. -1.
        -11    1    3    3    0    0 -0.96657242808E+01 -0.71170276778E+01  0.74745132663E+01  0.14140249562E+02  0.51100000000E-03 0.  1.
         12    1    3    3    0    0  0.16945454052E+02 -0.14647034804E+02  0.15531881133E+02  0.27256620721E+02  0.00000000000E+00 0. -1.
</event>
<event>
 7    1  0.5121289E-013  0.5052886E+02  0.7816164E-02  0.1300439E+00
        -11   -1    0    0    0    0  0.00000000000E+00  0.00000000000E+00  0.45593999997E+02  0.45594000000E+02  0.51100000000E-03 0.  1.
         11   -1    0    0    0    0 -0.00000000000E+00 -0.00000000000E+00 -0.45593999997E+02  0.45594000000E+02  0.51100000000E-03 0. -1.
    9900012    2    1    2    0    0 -0.28962158871E+02  0.10718945768E+02  0.26447365759E+02  0.50528860801E+02  0.30000002891E+02 0.  0.
         12    1    1    2    0    0  0.28962158871E+02 -0.10718945768E+02 -0.26447365759E+02  0.40659139199E+02  0.00000000000E+00 0. -1.
         11    1    3    3    0    0 -0.22523791992E+02  0.33820894461E+01  0.12916568732E+02  0.26183916490E+02  0.51100000000E-03 0. -1.
        -11    1    3    3    0    0 -0.65290056767E+01  0.28695608142E+01 -0.26120913009E+01  0.75950849645E+01  0.51100000000E-03 0.  1.
        -12    1    3    3    0    0  0.90638797752E-01  0.44672955082E+01  0.16142888328E+02  0.16749859346E+02  0.00000000000E+00 0.  1.
</event>
<event>
 7    1  0.5121289E-013  0.5052886E+02  0.7816164E-02  0.1300439E+00
        -11   -1    0    0    0    0  0.00000000000E+00  0.00000000000E+00  0.45593999997E+02  0.45594000000E+02  0.51100000000E-03 0. -1.
         11   -1    0    0    0    0 -0.00000000000E+00 -0.00000000000E+00 -0.45593999997E+02  0.45594000000E+02  0.51100000000E-03 0.  1.
    9900012    2    1    2    0    0  0.46302957670E+01  0.24085631299E+02 -0.32428517371E+02  0.50528855729E+02  0.29999987474E+02 0.  0.
         12    1    1    2    0    0 -0.46302957670E+01 -0.24085631299E+02  0.32428517371E+02  0.40659144271E+02  0.00000000000E+00 0. -1.
         11    1    3    3    0    0 -0.45197901132E+01  0.19933814365E+02 -0.18104857945E+02  0.27305152248E+02  0.51100000000E-03 0.  1.
        -11    1    3    3    0    0  0.20402586155E+01  0.92632123414E+01 -0.82011336962E+01  0.12539073022E+02  0.51100000000E-03 0. -1.
         12    1    3    3    0    0  0.71098272647E+01 -0.51113954068E+01 -0.61225257292E+01  0.10684630459E+02  0.00000000000E+00 0. -1.
</event>
<event>
 7    1  0.5121289E-013  0.5052900E+02  0.7816164E-02  0.1300438E+00
        -11   -1    0    0    0    0  0.00000000000E+00  0.00000000000E+00  0.45593999997E+02  0.45594000000E+02  0.51100000000E-03 0.  1.
         11   -1    0    0    0    0 -0.00000000000E+00 -0.00000000000E+00 -0.45593999997E+02  0.45594000000E+02  0.51100000000E-03 0. -1.
    9900012    2    1    2    0    0 -0.23524868874E+02  0.21517696246E+02  0.25233384595E+02  0.50528998470E+02  0.30000421347E+02 0.  0.
         12    1    1    2    0    0  0.23524868874E+02 -0.21517696246E+02 -0.25233384595E+02  0.40659001530E+02  0.00000000000E+00 0. -1.
         11    1    3    3    0    0 -0.72473907775E+01  0.66946834337E+01 -0.30167079324E+01  0.10317169494E+02  0.51100000000E-03 0. -1.
        -11    1    3    3    0    0  0.21800285659E+01  0.88208931543E+01  0.73242552249E+01  0.11670706724E+02  0.51100000000E-03 0.  1.
         12    1    3    3    0    0 -0.18457506662E+02  0.60021196585E+01  0.20925837302E+02  0.28541122252E+02  0.00000000000E+00 0. -1.
</event>
<event>
 7    1  0.5121289E-013  0.5052886E+02  0.7816164E-02  0.1300439E+00
        -11   -1    0    0    0    0  0.00000000000E+00  0.00000000000E+00  0.45593999997E+02  0.45594000000E+02  0.51100000000E-03 0.  1.
         11   -1    0    0    0    0 -0.00000000000E+00 -0.00000000000E+00 -0.45593999997E+02  0.45594000000E+02  0.51100000000E-03 0. -1.
    9900012    2    1    2    0    0  0.29008910041E+02 -0.52645712472E+01  0.27998808456E+02  0.50528857766E+02  0.29999993667E+02 0.  0.
         12    1    1    2    0    0 -0.29008910041E+02  0.52645712472E+01 -0.27998808456E+02  0.40659142234E+02  0.00000000000E+00 0. -1.
         11    1    3    3    0    0  0.45828950187E+01 -0.57513645153E+01 -0.33673895666E+01  0.80882898868E+01  0.51100000000E-03 0. -1.
        -11    1    3    3    0    0  0.23263814601E+01 -0.25747390100E+01 -0.53570305071E+00  0.35111692763E+01  0.51100000000E-03 0.  1.
        -12    1    3    3    0    0  0.22099633563E+02  0.30615322781E+01  0.31901901074E+02  0.38929398603E+02  0.00000000000E+00 0.  1.
</event>
<event>
 7    1  0.5121289E-013  0.5052887E+02  0.7816164E-02  0.1300439E+00
        -11   -1    0    0    0    0  0.00000000000E+00  0.00000000000E+00  0.45593999997E+02  0.45594000000E+02  0.51100000000E-03 0.  1.
         11   -1    0    0    0    0 -0.00000000000E+00 -0.00000000000E+00 -0.45593999997E+02  0.45594000000E+02  0.51100000000E-03 0. -1.
    9900012    2    1    2    0    0 -0.23262524457E+02  0.38212476527E+01  0.33127297382E+02  0.50528870526E+02  0.30000032451E+02 0.  0.
         12    1    1    2    0    0  0.23262524457E+02 -0.38212476527E+01 -0.33127297382E+02  0.40659129474E+02  0.00000000000E+00 0. -1.
         11    1    3    3    0    0 -0.39940379816E+01 -0.75253548283E+01  0.13574010227E+02  0.16026136733E+02  0.51100000000E-03 0. -1.
        -11    1    3    3    0    0 -0.58814419991E+01 -0.46312607061E+01  0.39444582915E+01  0.84616007464E+01  0.51100000000E-03 0.  1.
         12    1    3    3    0    0 -0.13387044476E+02  0.15977863187E+02  0.15608828864E+02  0.26041133046E+02  0.00000000000E+00 0. -1.
</event>
<event>
 7    1  0.5121289E-013  0.5052886E+02  0.7816164E-02  0.1300439E+00
        -11   -1    0    0    0    0  0.00000000000E+00  0.00000000000E+00  0.45593999997E+02  0.45594000000E+02  0.51100000000E-03 0.  1.
         11   -1    0    0    0    0 -0.00000000000E+00 -0.00000000000E+00 -0.45593999997E+02  0.45594000000E+02  0.51100000000E-03 0. -1.
    9900012    2    1    2    0    0 -0.29244720169E+02  0.23796336651E+02  0.15219945069E+02  0.50528855596E+02  0.29999987070E+02 0.  0.
         12    1    1    2    0    0  0.29244720169E+02 -0.23796336651E+02 -0.15219945069E+02  0.40659144404E+02  0.00000000000E+00 0. -1.
         11    1    3    3    0    0 -0.14311188823E+01  0.30030787096E+01  0.42633241326E+01  0.54076349647E+01  0.51100000000E-03 0. -1.
        -11    1    3    3    0    0  0.37546485397E+01  0.91365952173E+01  0.45047389503E+01  0.10856676798E+02  0.51100000000E-03 0.  1.
         12    1    3    3    0    0 -0.31568249826E+02  0.11656662724E+02  0.64518819864E+01  0.34264543834E+02  0.00000000000E+00 0. -1.
</event>
<event>
 7    1  0.5121289E-013  0.5052886E+02  0.7816164E-02  0.1300439E+00
        -11   -1    0    0    0    0  0.00000000000E+00  0.00000000000E+00  0.45593999997E+02  0.45594000000E+02  0.51100000000E-03 0. -1.
         11   -1    0    0    0    0 -0.00000000000E+00 -0.00000000000E+00 -0.45593999997E+02  0.45594000000E+02  0.51100000000E-03 0.  1.
    9900012    2    1    2    0    0  0.22798327391E+02  0.16652292435E+02 -0.29259240255E+02  0.50528859386E+02  0.29999998588E+02 0.  0.
         12    1    1    2    0    0 -0.22798327391E+02 -0.16652292435E+02  0.29259240255E+02  0.40659140614E+02  0.00000000000E+00 0. -1.
         11    1    3    3    0    0  0.13037756925E+02  0.37988601084E+01 -0.14308508272E+02  0.19726830789E+02  0.51100000000E-03 0. -1.
        -11    1    3    3    0    0  0.69596126703E+01  0.84940926350E+01 -0.20471337913E+02  0.23230615455E+02  0.51100000000E-03 0.  1.
        -12    1    3    3    0    0  0.28009577959E+01  0.43593396919E+01  0.55206059296E+01  0.75714131411E+01  0.00000000000E+00 0.  1.
</event>
<event>
 7    1  0.5121289E-013  0.5052886E+02  0.7816164E-02  0.1300439E+00
        -11   -1    0    0    0    0  0.00000000000E+00  0.00000000000E+00  0.45593999997E+02  0.45594000000E+02  0.51100000000E-03 0.  1.
         11   -1    0    0    0    0 -0.00000000000E+00 -0.00000000000E+00 -0.45593999997E+02  0.45594000000E+02  0.51100000000E-03 0. -1.
    9900012    2    1    2    0    0 -0.33378032949E+02  0.83082721891E+01  0.21680535000E+02  0.50528855048E+02  0.29999985405E+02 0.  0.
         12    1    1    2    0    0  0.33378032949E+02 -0.83082721891E+01 -0.21680535000E+02  0.40659144952E+02  0.00000000000E+00 0. -1.
         11    1    3    3    0    0  0.41300531666E+00  0.91867042770E+01  0.15607697375E+01  0.93274922299E+01  0.51100000000E-03 0. -1.
        -11    1    3    3    0    0 -0.11856266125E+02  0.41048939766E+01  0.29115258402E+01  0.12880146892E+02  0.51100000000E-03 0.  1.
        -12    1    3    3    0    0 -0.21934772141E+02 -0.49833260645E+01  0.17208239422E+02  0.28321215926E+02  0.00000000000E+00 0.  1.
</event>
<event>
 7    1  0.5121289E-013  0.5052886E+02  0.7816164E-02  0.1300439E+00
        -11   -1    0    0    0    0  0.00000000000E+00  0.00000000000E+00  0.45593999997E+02  0.45594000000E+02  0.51100000000E-03 0.  1.
         11   -1    0    0    0    0 -0.00000000000E+00 -0.00000000000E+00 -0.45593999997E+02  0.45594000000E+02  0.51100000000E-03 0. -1.
    9900012    2    1    2    0    0 -0.12032713348E+02  0.79740658039E+01  0.38010442747E+02  0.50528859898E+02  0.30000000147E+02 0.  0.
         12    1    1    2    0    0  0.12032713348E+02 -0.79740658039E+01 -0.38010442747E+02  0.40659140102E+02  0.00000000000E+00 0. -1.
         11    1    3    3    0    0  0.78585209901E+00 -0.50534155180E+01 -0.11985457717E+01  0.52527215943E+01  0.51100000000E-03 0. -1.
        -11    1    3    3    0    0  0.75875764159E+00  0.75648083726E+01  0.95838983469E+01  0.12233280290E+02  0.51100000000E-03 0.  1.
        -12    1    3    3    0    0 -0.13577323089E+02  0.54626729494E+01  0.29625090172E+02  0.33042858014E+02  0.00000000000E+00 0.  1.
</event>
<event>
 7    1  0.5121289E-013  0.5052887E+02  0.7816164E-02  0.1300439E+00
        -11   -1    0    0    0    0  0.00000000000E+00  0.00000000000E+00  0.45593999997E+02  0.45594000000E+02  0.51100000000E-03 0. -1.
         11   -1    0    0    0    0 -0.00000000000E+00 -0.00000000000E+00 -0.45593999997E+02  0.45594000000E+02  0.51100000000E-03 0.  1.
    9900012    2    1    2    0    0 -0.12147994509E+02  0.99675543234E+01 -0.37499851224E+02  0.50528871238E+02  0.30000034616E+02 0.  0.
         12    1    1    2    0    0  0.12147994509E+02 -0.99675543234E+01  0.37499851224E+02  0.40659128762E+02  0.00000000000E+00 0. -1.
         11    1    3    3    0    0 -0.84153042656E+01  0.85784114405E+00 -0.14470571435E+02  0.16761583315E+02  0.51100000000E-03 0. -1.
        -11    1    3    3    0    0 -0.59318750649E+01 -0.19499577545E+01 -0.21499369836E+02  0.22387773017E+02  0.51100000000E-03 0.  1.
         12    1    3    3    0    0  0.21991848212E+01  0.11059670934E+02 -0.15299099531E+01  0.11379514907E+02  0.00000000000E+00 0. -1.
</event>
<event>
 7    1  0.5121289E-013  0.5052886E+02  0.7816164E-02  0.1300439E+00
        -11   -1    0    0    0    0  0.00000000000E+00  0.00000000000E+00  0.45593999997E+02  0.45594000000E+02  0.51100000000E-03 0. -1.
         11   -1    0    0    0    0 -0.00000000000E+00 -0.00000000000E+00 -0.45593999997E+02  0.45594000000E+02  0.51100000000E-03 0.  1.
    9900012    2    1    2    0    0  0.35613985271E+02 -0.10930086831E+02  0.16289348820E+02  0.50528860437E+02  0.30000001785E+02 0.  0.
         12    1    1    2    0    0 -0.35613985271E+02  0.10930086831E+02 -0.16289348820E+02  0.40659139563E+02  0.00000000000E+00 0. -1.
         11    1    3    3    0    0  0.16339240181E+02  0.39165105940E+01  0.21994388866E+01  0.16945422881E+02  0.51100000000E-03 0.  1.
        -11    1    3    3    0    0  0.22813366526E+02 -0.14164077250E+02  0.11945891610E+02  0.29390051093E+02  0.51100000000E-03 0. -1.
         12    1    3    3    0    0 -0.35386214370E+01 -0.68252017457E+00  0.21440183238E+01  0.41933864639E+01  0.00000000000E+00 0. -1.
</event>
<event>
 7    1  0.5121289E-013  0.5052884E+02  0.7816164E-02  0.1300439E+00
        -11   -1    0    0    0    0  0.00000000000E+00  0.00000000000E+00  0.45593999997E+02  0.45594000000E+02  0.51100000000E-03 0.  1.
         11   -1    0    0    0    0 -0.00000000000E+00 -0.00000000000E+00 -0.45593999997E+02  0.45594000000E+02  0.51100000000E-03 0. -1.
    9900012    2    1    2    0    0 -0.30052918198E+02 -0.13546460780E+02  0.23800891864E+02  0.50528844261E+02  0.29999952616E+02 0.  0.
         12    1    1    2    0    0  0.30052918198E+02  0.13546460780E+02 -0.23800891864E+02  0.40659155739E+02  0.00000000000E+00 0. -1.
         11    1    3    3    0    0 -0.10855831573E+01 -0.73199312510E+01  0.71721399903E+01  0.10305313028E+02  0.51100000000E-03 0. -1.
        -11    1    3    3    0    0 -0.23948895982E+02 -0.10709703602E+02  0.19718599809E+02  0.32818753004E+02  0.51100000000E-03 0.  1.
        -12    1    3    3    0    0 -0.50184390587E+01  0.44831740737E+01 -0.30898479354E+01  0.74047782293E+01  0.00000000000E+00 0.  1.
</event>
<event>
 7    1  0.5121289E-013  0.5052885E+02  0.7816164E-02  0.1300439E+00
        -11   -1    0    0    0    0  0.00000000000E+00  0.00000000000E+00  0.45593999997E+02  0.45594000000E+02  0.51100000000E-03 0.  1.
         11   -1    0    0    0    0 -0.00000000000E+00 -0.00000000000E+00 -0.45593999997E+02  0.45594000000E+02  0.51100000000E-03 0. -1.
    9900012    2    1    2    0    0  0.87767637505E+01 -0.26554456740E+02  0.29512633743E+02  0.50528852135E+02  0.29999976548E+02 0.  0.
         12    1    1    2    0    0 -0.87767637505E+01  0.26554456740E+02 -0.29512633743E+02  0.40659147865E+02  0.00000000000E+00 0. -1.
         11    1    3    3    0    0  0.44594999104E+01 -0.27305566332E+01 -0.33217357641E+01  0.61949178950E+01  0.51100000000E-03 0. -1.
        -11    1    3    3    0    0 -0.36841256156E+01  0.36377368505E+00  0.16160355598E+01  0.40393915429E+01  0.51100000000E-03 0.  1.
        -12    1    3    3    0    0  0.80013894557E+01 -0.24187673792E+02  0.31218333947E+02  0.40294542697E+02  0.00000000000E+00 0.  1.
</event>
<event>
 7    1  0.5121289E-013  0.5052886E+02  0.7816164E-02  0.1300439E+00
        -11   -1    0    0    0    0  0.00000000000E+00  0.00000000000E+00  0.45593999997E+02  0.45594000000E+02  0.51100000000E-03 0. -1.
         11   -1    0    0    0    0 -0.00000000000E+00 -0.00000000000E+00 -0.45593999997E+02  0.45594000000E+02  0.51100000000E-03 0.  1.
    9900012    2    1    2    0    0 -0.75172427500E+01  0.97773597925E+01 -0.38743513963E+02  0.50528861085E+02  0.30000003754E+02 0.  0.
         12    1    1    2    0    0  0.75172427500E+01 -0.97773597925E+01  0.38743513963E+02  0.40659138915E+02  0.00000000000E+00 0. -1.
         11    1    3    3    0    0 -0.50076714041E+01 -0.28615858749E+01 -0.34666444427E+00  0.57780293447E+01  0.51100000000E-03 0. -1.
        -11    1    3    3    0    0 -0.91748198720E+01  0.64566526005E+01 -0.31200581403E+02  0.33156326133E+02  0.51100000000E-03 0.  1.
        -12    1    3    3    0    0  0.66652485260E+01  0.61822930670E+01 -0.71962681164E+01  0.11594505608E+02  0.00000000000E+00 0.  1.
</event>
<event>
 7    1  0.5121289E-013  0.5052887E+02  0.7816164E-02  0.1300439E+00
        -11   -1    0    0    0    0  0.00000000000E+00  0.00000000000E+00  0.45593999997E+02  0.45594000000E+02  0.51100000000E-03 0.  1.
         11   -1    0    0    0    0 -0.00000000000E+00 -0.00000000000E+00 -0.45593999997E+02  0.45594000000E+02  0.51100000000E-03 0. -1.
    9900012    2    1    2    0    0  0.30283430951E+00  0.38551082345E+02  0.12918483503E+02  0.50528869727E+02  0.30000030022E+02 0.  0.
         12    1    1    2    0    0 -0.30283430951E+00 -0.38551082345E+02 -0.12918483503E+02  0.40659130273E+02  0.00000000000E+00 0. -1.
         11    1    3    3    0    0  0.69344036423E+01  0.16693276457E+02  0.10344939711E+02  0.20827126798E+02  0.51100000000E-03 0. -1.
        -11    1    3    3    0    0 -0.34875741782E+01  0.17839889198E+02  0.99578700222E+01  0.20726408176E+02  0.51100000000E-03 0.  1.
         12    1    3    3    0    0 -0.31439951546E+01  0.40179166894E+01 -0.73843262304E+01  0.89753347532E+01  0.00000000000E+00 0. -1.
</event>
<event>
 7    1  0.5121289E-013  0.5052885E+02  0.7816164E-02  0.1300439E+00
        -11   -1    0    0    0    0  0.00000000000E+00  0.00000000000E+00  0.45593999997E+02  0.45594000000E+02  0.51100000000E-03 0. -1.
         11   -1    0    0    0    0 -0.00000000000E+00 -0.00000000000E+00 -0.45593999997E+02  0.45594000000E+02  0.51100000000E-03 0.  1.
    9900012    2    1    2    0    0 -0.13404769568E+02 -0.37154812306E+02 -0.96435612531E+01  0.50528853448E+02  0.29999980541E+02 0.  0.
         12    1    1    2    0    0  0.13404769568E+02  0.37154812306E+02  0.96435612531E+01  0.40659146552E+02  0.00000000000E+00 0. -1.
         11    1    3    3    0    0 -0.14015962116E+02 -0.84425957107E+01 -0.12991196209E+02  0.20892481796E+02  0.51100000000E-03 0.  1.
        -11    1    3    3    0    0 -0.86369468941E+00 -0.14790005817E+02 -0.13317513595E+01  0.14874938740E+02  0.51100000000E-03 0. -1.
        -12    1    3    3    0    0  0.14748872377E+01 -0.13922210779E+02  0.46793863156E+01  0.14761432912E+02  0.00000000000E+00 0.  1.
</event>
<event>
 7    1  0.5121289E-013  0.5052886E+02  0.7816164E-02  0.1300439E+00
        -11   -1    0    0    0    0  0.00000000000E+00  0.00000000000E+00  0.45593999997E+02  0.45594000000E+02  0.51100000000E-03 0.  1.
         11   -1    0    0    0    0 -0.00000000000E+00 -0.00000000000E+00 -0.45593999997E+02  0.45594000000E+02  0.51100000000E-03 0. -1.
    9900012    2    1    2    0    0  0.27022926062E+02  0.18063051747E+01  0.30325965972E+02  0.50528862240E+02  0.30000007263E+02 0.  0.
         12    1    1    2    0    0 -0.27022926062E+02 -0.18063051747E+01 -0.30325965972E+02  0.40659137760E+02  0.00000000000E+00 0. -1.
         11    1    3    3    0    0  0.29851217449E+01 -0.43210452637E+01 -0.47494734523E-01  0.52521081495E+01  0.51100000000E-03 0. -1.
        -11    1    3    3    0    0  0.17234308522E+02 -0.44924418976E+00  0.46325733494E+01  0.17851721112E+02  0.51100000000E-03 0.  1.
        -12    1    3    3    0    0  0.68034957951E+01  0.65765946282E+01  0.25740887357E+02  0.27425032978E+02  0.00000000000E+00 0.  1.
</event>
<event>
 7    1  0.5121289E-013  0.5052890E+02  0.7816164E-02  0.1300439E+00
        -11   -1    0    0    0    0  0.00000000000E+00  0.00000000000E+00  0.45593999997E+02  0.45594000000E+02  0.51100000000E-03 0. -1.
         11   -1    0    0    0    0 -0.00000000000E+00 -0.00000000000E+00 -0.45593999997E+02  0.45594000000E+02  0.51100000000E-03 0.  1.
    9900012    2    1    2    0    0  0.32598110220E+02 -0.22446667618E+02 -0.93098170855E+01  0.50528900511E+02  0.30000123594E+02 0.  0.
         12    1    1    2    0    0 -0.32598110220E+02  0.22446667618E+02  0.93098170855E+01  0.40659099489E+02  0.00000000000E+00 0. -1.
         11    1    3    3    0    0  0.57572149453E+01 -0.19726040589E+01 -0.92144857710E+01  0.11042800323E+02  0.51100000000E-03 0. -1.
        -11    1    3    3    0    0  0.19879142517E+02 -0.11184938937E+02 -0.93384721610E+01  0.24647316868E+02  0.51100000000E-03 0.  1.
         12    1    3    3    0    0  0.69617527576E+01 -0.92891246225E+01  0.92431408465E+01  0.14838783320E+02  0.00000000000E+00 0. -1.
</event>
<event>
 7    1  0.5121289E-013  0.5052885E+02  0.7816164E-02  0.1300439E+00
        -11   -1    0    0    0    0  0.00000000000E+00  0.00000000000E+00  0.45593999997E+02  0.45594000000E+02  0.51100000000E-03 0.  1.
         11   -1    0    0    0    0 -0.00000000000E+00 -0.00000000000E+00 -0.45593999997E+02  0.45594000000E+02  0.51100000000E-03 0. -1.
    9900012    2    1    2    0    0 -0.10475436742E+02  0.41106373008E+01  0.39070894143E+02  0.50528845027E+02  0.29999954944E+02 0.  0.
         12    1    1    2    0    0  0.10475436742E+02 -0.41106373008E+01 -0.39070894143E+02  0.40659154973E+02  0.00000000000E+00 0. -1.
         11    1    3    3    0    0 -0.16809487933E+01  0.69079123620E+01  0.46987068787E+01  0.85218946626E+01  0.51100000000E-03 0. -1.
        -11    1    3    3    0    0 -0.10979637682E+02  0.60665487317E+01  0.10198191197E+02  0.16166587800E+02  0.51100000000E-03 0.  1.
        -12    1    3    3    0    0  0.21851497331E+01 -0.88638237929E+01  0.24173996068E+02  0.25840362565E+02  0.00000000000E+00 0.  1.
</event>
<event>
 7    1  0.5121289E-013  0.5052886E+02  0.7816164E-02  0.1300439E+00
        -11   -1    0    0    0    0  0.00000000000E+00  0.00000000000E+00  0.45593999997E+02  0.45594000000E+02  0.51100000000E-03 0.  1.
         11   -1    0    0    0    0 -0.00000000000E+00 -0.00000000000E+00 -0.45593999997E+02  0.45594000000E+02  0.51100000000E-03 0. -1.
    9900012    2    1    2    0    0  0.37307932271E+02 -0.14384597884E+02 -0.73734258134E+01  0.50528857426E+02  0.29999992631E+02 0.  0.
         12    1    1    2    0    0 -0.37307932271E+02  0.14384597884E+02  0.73734258134E+01  0.40659142574E+02  0.00000000000E+00 0. -1.
         11    1    3    3    0    0  0.68076364177E+01 -0.15466244402E+02  0.14840189292E+01  0.16963223218E+02  0.51100000000E-03 0. -1.
        -11    1    3    3    0    0  0.47052750557E+01 -0.36024584974E+01 -0.10684928404E+00  0.59269501099E+01  0.51100000000E-03 0.  1.
         12    1    3    3    0    0  0.25795020798E+02  0.46841050152E+01 -0.87505954586E+01  0.27638684098E+02  0.00000000000E+00 0. -1.
</event>
<event>
 7    1  0.5121289E-013  0.5052889E+02  0.7816164E-02  0.1300439E+00
        -11   -1    0    0    0    0  0.00000000000E+00  0.00000000000E+00  0.45593999997E+02  0.45594000000E+02  0.51100000000E-03 0. -1.
         11   -1    0    0    0    0 -0.00000000000E+00 -0.00000000000E+00 -0.45593999997E+02  0.45594000000E+02  0.51100000000E-03 0.  1.
    9900012    2    1    2    0    0  0.13439994517E+02 -0.22202838754E+02 -0.31297981220E+02  0.50528891182E+02  0.30000095237E+02 0.  0.
         12    1    1    2    0    0 -0.13439994517E+02  0.22202838754E+02  0.31297981220E+02  0.40659108818E+02  0.00000000000E+00 0. -1.
         11    1    3    3    0    0  0.67846723164E+01 -0.63882144505E+01 -0.44641649477E+01  0.10332948817E+02  0.51100000000E-03 0. -1.
        -11    1    3    3    0    0  0.14623468197E+02 -0.14015044973E+02 -0.12808349189E+02  0.23964997744E+02  0.51100000000E-03 0.  1.
        -12    1    3    3    0    0 -0.79681459955E+01 -0.17995793314E+01 -0.14025467084E+02  0.16230944621E+02  0.00000000000E+00 0.  1.
</event>
<event>
 7    1  0.5121289E-013  0.5052886E+02  0.7816164E-02  0.1300439E+00
        -11   -1    0    0    0    0  0.00000000000E+00  0.00000000000E+00  0.45593999997E+02  0.45594000000E+02  0.51100000000E-03 0.  1.
         11   -1    0    0    0    0 -0.00000000000E+00 -0.00000000000E+00 -0.45593999997E+02  0.45594000000E+02  0.51100000000E-03 0. -1.
    9900012    2    1    2    0    0  0.22242829696E+01  0.58128060255E+01  0.40179962995E+02  0.50528861115E+02  0.30000003845E+02 0.  0.
         12    1    1    2    0    0 -0.22242829696E+01 -0.58128060255E+01 -0.40179962995E+02  0.40659138885E+02  0.00000000000E+00 0. -1.
         11    1    3    3    0    0 -0.44186208075E+01  0.67566698150E+00  0.14263623207E+02  0.14947631350E+02  0.51100000000E-03 0.  1.
        -11    1    3    3    0    0 -0.50742990722E+01  0.10093470944E+02  0.15253134442E+02  0.18981169019E+02  0.51100000000E-03 0. -1.
         12    1    3    3    0    0  0.11717202849E+02 -0.49563319004E+01  0.10663205346E+02  0.16600060746E+02  0.00000000000E+00 0. -1.
</event>
<event>
 7    1  0.5121289E-013  0.5052886E+02  0.7816164E-02  0.1300439E+00
        -11   -1    0    0    0    0  0.00000000000E+00  0.00000000000E+00  0.45593999997E+02  0.45594000000E+02  0.51100000000E-03 0.  1.
         11   -1    0    0    0    0 -0.00000000000E+00 -0.00000000000E+00 -0.45593999997E+02  0.45594000000E+02  0.51100000000E-03 0. -1.
    9900012    2    1    2    0    0  0.38864297643E+02 -0.11190980693E+02  0.41825995669E+01  0.50528858109E+02  0.29999994708E+02 0.  0.
         12    1    1    2    0    0 -0.38864297643E+02  0.11190980693E+02 -0.41825995669E+01  0.40659141891E+02  0.00000000000E+00 0. -1.
         11    1    3    3    0    0  0.17896325610E+02 -0.13548976352E+02  0.60423976532E+01  0.23245726493E+02  0.51100000000E-03 0.  1.
        -11    1    3    3    0    0  0.17903070171E+02 -0.30524502661E+01  0.41563192263E+01  0.18630951773E+02  0.51100000000E-03 0. -1.
         12    1    3    3    0    0  0.30649018615E+01  0.54104459244E+01 -0.60161173127E+01  0.86521798433E+01  0.00000000000E+00 0. -1.
</event>
<event>
 7    1  0.5121289E-013  0.5052876E+02  0.7816164E-02  0.1300439E+00
        -11   -1    0    0    0    0  0.00000000000E+00  0.00000000000E+00  0.45593999997E+02  0.45594000000E+02  0.51100000000E-03 0.  1.
         11   -1    0    0    0    0 -0.00000000000E+00 -0.00000000000E+00 -0.45593999997E+02  0.45594000000E+02  0.51100000000E-03 0. -1.
    9900012    2    1    2    0    0  0.17532578812E+02  0.18214979932E+02  0.31843322611E+02  0.50528757402E+02  0.29999688598E+02 0.  0.
         12    1    1    2    0    0 -0.17532578812E+02 -0.18214979932E+02 -0.31843322611E+02  0.40659242598E+02  0.00000000000E+00 0. -1.
         11    1    3    3    0    0  0.13900367724E+02  0.87012532228E+01  0.70855613578E+01  0.17864411844E+02  0.51100000000E-03 0. -1.
        -11    1    3    3    0    0  0.10789553967E+02  0.20837239688E+01  0.12543496381E+02  0.16676201069E+02  0.51100000000E-03 0.  1.
         12    1    3    3    0    0 -0.71573428796E+01  0.74300027404E+01  0.12214264873E+02  0.15988144489E+02  0.00000000000E+00 0. -1.
</event>
<event>
 7    1  0.5121289E-013  0.5052885E+02  0.7816164E-02  0.1300439E+00
        -11   -1    0    0    0    0  0.00000000000E+00  0.00000000000E+00  0.45593999997E+02  0.45594000000E+02  0.51100000000E-03 0.  1.
         11   -1    0    0    0    0 -0.00000000000E+00 -0.00000000000E+00 -0.45593999997E+02  0.45594000000E+02  0.51100000000E-03 0. -1.
    9900012    2    1    2    0    0  0.26083908136E+02  0.13263564852E+02  0.28228964925E+02  0.50528845102E+02  0.29999955172E+02 0.  0.
         12    1    1    2    0    0 -0.26083908136E+02 -0.13263564852E+02 -0.28228964925E+02  0.40659154898E+02  0.00000000000E+00 0. -1.
         11    1    3    3    0    0  0.10403518322E+01 -0.45993285279E+01  0.46171726524E+01  0.65995786537E+01  0.51100000000E-03 0. -1.
        -11    1    3    3    0    0  0.69702372575E+01  0.10216545869E+02  0.20667421787E+02  0.24085355312E+02  0.51100000000E-03 0.  1.
         12    1    3    3    0    0  0.18073319047E+02  0.76463475108E+01  0.29443704855E+01  0.19843911136E+02  0.00000000000E+00 0. -1.
</event>
<event>
 7    1  0.5121289E-013  0.5052886E+02  0.7816164E-02  0.1300439E+00
        -11   -1    0    0    0    0  0.00000000000E+00  0.00000000000E+00  0.45593999997E+02  0.45594000000E+02  0.51100000000E-03 0.  1.
         11   -1    0    0    0    0 -0.00000000000E+00 -0.00000000000E+00 -0.45593999997E+02  0.45594000000E+02  0.51100000000E-03 0. -1.
    9900012    2    1    2    0    0 -0.67583662346E+01 -0.26884907500E+02 -0.29743775270E+02  0.50528856714E+02  0.29999990468E+02 0.  0.
         12    1    1    2    0    0  0.67583662346E+01  0.26884907500E+02  0.29743775270E+02  0.40659143286E+02  0.00000000000E+00 0. -1.
         11    1    3    3    0    0 -0.13972879101E+02 -0.15970817852E+02 -0.10410669288E+02  0.23636632767E+02  0.51100000000E-03 0. -1.
        -11    1    3    3    0    0  0.19902227969E+01 -0.69147411522E+01 -0.81671838238E+00  0.72416614917E+01  0.51100000000E-03 0.  1.
         12    1    3    3    0    0  0.52242900697E+01 -0.39993484958E+01 -0.18516387599E+02  0.19650562456E+02  0.00000000000E+00 0. -1.
</event>
<event>
 7    1  0.5121289E-013  0.5052885E+02  0.7816164E-02  0.1300439E+00
        -11   -1    0    0    0    0  0.00000000000E+00  0.00000000000E+00  0.45593999997E+02  0.45594000000E+02  0.51100000000E-03 0. -1.
         11   -1    0    0    0    0 -0.00000000000E+00 -0.00000000000E+00 -0.45593999997E+02  0.45594000000E+02  0.51100000000E-03 0.  1.
    9900012    2    1    2    0    0 -0.33351063777E+02 -0.18380624488E+02  0.14248715396E+02  0.50528847254E+02  0.29999961712E+02 0.  0.
         12    1    1    2    0    0  0.33351063777E+02  0.18380624488E+02 -0.14248715396E+02  0.40659152746E+02  0.00000000000E+00 0. -1.
         11    1    3    3    0    0 -0.25854785007E+02 -0.13879702203E+02  0.80941338388E+01  0.30440615038E+02  0.51100000000E-03 0. -1.
        -11    1    3    3    0    0 -0.12111262717E+02 -0.66875097734E+01  0.32437268329E+01  0.14210110330E+02  0.51100000000E-03 0.  1.
         12    1    3    3    0    0  0.46149839468E+01  0.21865874891E+01  0.29108547241E+01  0.58781218856E+01  0.00000000000E+00 0. -1.
</event>
<event>
 7    1  0.5121289E-013  0.5052886E+02  0.7816164E-02  0.1300439E+00
        -11   -1    0    0    0    0  0.00000000000E+00  0.00000000000E+00  0.45593999997E+02  0.45594000000E+02  0.51100000000E-03 0.  1.
         11   -1    0    0    0    0 -0.00000000000E+00 -0.00000000000E+00 -0.45593999997E+02  0.45594000000E+02  0.51100000000E-03 0. -1.
    9900012    2    1    2    0    0 -0.97255151259E+01 -0.50304575460E+01  0.39157052697E+02  0.50528856828E+02  0.29999990813E+02 0.  0.
         12    1    1    2    0    0  0.97255151259E+01  0.50304575460E+01 -0.39157052697E+02  0.40659143172E+02  0.00000000000E+00 0. -1.
         11    1    3    3    0    0  0.28612118855E+01 -0.33080453727E+01  0.88865983252E+01  0.99046114359E+01  0.51100000000E-03 0. -1.
        -11    1    3    3    0    0 -0.89208741634E+01  0.58991097684E+01  0.30336671448E+02  0.32166677271E+02  0.51100000000E-03 0.  1.
         12    1    3    3    0    0 -0.36658528480E+01 -0.76215219416E+01 -0.66217075706E-01  0.84575681204E+01  0.00000000000E+00 0. -1.
</event>
<event>
 7    1  0.5121289E-013  0.5052886E+02  0.7816164E-02  0.1300439E+00
        -11   -1    0    0    0    0  0.00000000000E+00  0.00000000000E+00  0.45593999997E+02  0.45594000000E+02  0.51100000000E-03 0.  1.
         11   -1    0    0    0    0 -0.00000000000E+00 -0.00000000000E+00 -0.45593999997E+02  0.45594000000E+02  0.51100000000E-03 0. -1.
    9900012    2    1    2    0    0 -0.14277066199E+02  0.36983745306E+02 -0.90296173044E+01  0.50528855582E+02  0.29999987028E+02 0.  0.
         12    1    1    2    0    0  0.14277066199E+02 -0.36983745306E+02  0.90296173044E+01  0.40659144418E+02  0.00000000000E+00 0. -1.
         11    1    3    3    0    0 -0.85954692850E+01  0.19047898824E+02  0.18497892064E+01  0.20979186405E+02  0.51100000000E-03 0.  1.
        -11    1    3    3    0    0 -0.11343583008E+02  0.18354304147E+02 -0.70413537598E+01  0.22696652158E+02  0.51100000000E-03 0. -1.
         12    1    3    3    0    0  0.56619860936E+01 -0.41845766498E+00 -0.38380527510E+01  0.68530170189E+01  0.00000000000E+00 0. -1.
</event>
<event>
 7    1  0.5121289E-013  0.5052886E+02  0.7816164E-02  0.1300439E+00
        -11   -1    0    0    0    0  0.00000000000E+00  0.00000000000E+00  0.45593999997E+02  0.45594000000E+02  0.51100000000E-03 0.  1.
         11   -1    0    0    0    0 -0.00000000000E+00 -0.00000000000E+00 -0.45593999997E+02  0.45594000000E+02  0.51100000000E-03 0. -1.
    9900012    2    1    2    0    0 -0.48928941286E+01  0.17657993528E+02  0.36296288968E+02  0.50528859069E+02  0.29999997625E+02 0.  0.
         12    1    1    2    0    0  0.48928941286E+01 -0.17657993528E+02 -0.36296288968E+02  0.40659140931E+02  0.00000000000E+00 0. -1.
         11    1    3    3    0    0 -0.38660620636E+01  0.75809563800E+00  0.23245246513E+01  0.45743371096E+01  0.51100000000E-03 0. -1.
        -11    1    3    3    0    0 -0.23833744356E+01  0.10150709878E+02 -0.84758755504E+00  0.10461156230E+02  0.51100000000E-03 0.  1.
        -12    1    3    3    0    0  0.13565423706E+01  0.67491880118E+01  0.34819351872E+02  0.35493365730E+02  0.00000000000E+00 0.  1.
</event>
<event>
 7    1  0.5121289E-013  0.5052887E+02  0.7816164E-02  0.1300439E+00
        -11   -1    0    0    0    0  0.00000000000E+00  0.00000000000E+00  0.45593999997E+02  0.45594000000E+02  0.51100000000E-03 0.  1.
         11   -1    0    0    0    0 -0.00000000000E+00 -0.00000000000E+00 -0.45593999997E+02  0.45594000000E+02  0.51100000000E-03 0. -1.
    9900012    2    1    2    0    0 -0.13749159655E+02  0.94210086000E+01  0.37085982441E+02  0.50528869563E+02  0.30000029525E+02 0.  0.
         12    1    1    2    0    0  0.13749159655E+02 -0.94210086000E+01 -0.37085982441E+02  0.40659130437E+02  0.00000000000E+00 0. -1.
         11    1    3    3    0    0 -0.14517876554E+02  0.16917785118E+01  0.50370091469E+01  0.15459699725E+02  0.51100000000E-03 0. -1.
        -11    1    3    3    0    0 -0.85287700317E+00 -0.26999433144E+01  0.28337323983E+01  0.40058872487E+01  0.51100000000E-03 0.  1.
        -12    1    3    3    0    0  0.16215939030E+01  0.10429173403E+02  0.29215240896E+02  0.31063282590E+02  0.00000000000E+00 0.  1.
</event>
<event>
 7    1  0.5121289E-013  0.5052887E+02  0.7816164E-02  0.1300439E+00
        -11   -1    0    0    0    0  0.00000000000E+00  0.00000000000E+00  0.45593999997E+02  0.45594000000E+02  0.51100000000E-03 0. -1.
         11   -1    0    0    0    0 -0.00000000000E+00 -0.00000000000E+00 -0.45593999997E+02  0.45594000000E+02  0.51100000000E-03 0.  1.
    9900012    2    1    2    0    0 -0.19411402485E+02 -0.35509141759E+02  0.39323617590E+01  0.50528866169E+02  0.30000019206E+02 0.  0.
         12    1    1    2    0    0  0.19411402485E+02  0.35509141759E+02 -0.39323617590E+01  0.40659133831E+02  0.00000000000E+00 0. -1.
         11    1    3    3    0    0 -0.99229294917E+01 -0.13777538571E+02 -0.66652777461E+01  0.18240368046E+02  0.51100000000E-03 0. -1.
        -11    1    3    3    0    0 -0.51934164573E+01 -0.76015678325E+01 -0.52729910825E+01  0.10609422380E+02  0.51100000000E-03 0.  1.
         12    1    3    3    0    0 -0.42950565359E+01 -0.14130035356E+02  0.15870630588E+02  0.21679075743E+02  0.00000000000E+00 0. -1.
</event>
<event>
 7    1  0.5121289E-013  0.5052886E+02  0.7816164E-02  0.1300439E+00
        -11   -1    0    0    0    0  0.00000000000E+00  0.00000000000E+00  0.45593999997E+02  0.45594000000E+02  0.51100000000E-03 0.  1.
         11   -1    0    0    0    0 -0.00000000000E+00 -0.00000000000E+00 -0.45593999997E+02  0.45594000000E+02  0.51100000000E-03 0. -1.
    9900012    2    1    2    0    0  0.13164675916E+02 -0.27557802666E+02  0.26840729891E+02  0.50528856369E+02  0.29999989419E+02 0.  0.
         12    1    1    2    0    0 -0.13164675916E+02  0.27557802666E+02 -0.26840729891E+02  0.40659143631E+02  0.00000000000E+00 0. -1.
         11    1    3    3    0    0 -0.25598253109E+01 -0.36471136511E+01  0.16155540903E+00  0.44587267260E+01  0.51100000000E-03 0.  1.
        -11    1    3    3    0    0 -0.22139916688E+01 -0.18272116576E+01  0.15071044774E+02  0.15341996363E+02  0.51100000000E-03 0. -1.
        -12    1    3    3    0    0  0.17938492895E+02 -0.22083477357E+02  0.11608129708E+02  0.30728133280E+02  0.00000000000E+00 0.  1.
</event>
<event>
 7    1  0.5121289E-013  0.5052887E+02  0.7816164E-02  0.1300439E+00
        -11   -1    0    0    0    0  0.00000000000E+00  0.00000000000E+00  0.45593999997E+02  0.45594000000E+02  0.51100000000E-03 0.  1.
         11   -1    0    0    0    0 -0.00000000000E+00 -0.00000000000E+00 -0.45593999997E+02  0.45594000000E+02  0.51100000000E-03 0. -1.
    9900012    2    1    2    0    0  0.93608409582E+01 -0.16490942217E+01  0.39532514411E+02  0.50528873708E+02  0.30000042123E+02 0.  0.
         12    1    1    2    0    0 -0.93608409582E+01  0.16490942217E+01 -0.39532514411E+02  0.40659126292E+02  0.00000000000E+00 0. -1.
         11    1    3    3    0    0  0.36568701231E+01  0.26109884953E+01 -0.37629718053E+00  0.45090530989E+01  0.51100000000E-03 0. -1.
        -11    1    3    3    0    0  0.63088480340E+01 -0.12808961437E+02  0.23211450403E+02  0.27251467606E+02  0.51100000000E-03 0.  1.
         12    1    3    3    0    0 -0.60487719886E+00  0.85488787201E+01  0.16697361188E+02  0.18768353003E+02  0.00000000000E+00 0. -1.
</event>
<event>
 7    1  0.5121289E-013  0.5052886E+02  0.7816164E-02  0.1300439E+00
        -11   -1    0    0    0    0  0.00000000000E+00  0.00000000000E+00  0.45593999997E+02  0.45594000000E+02  0.51100000000E-03 0.  1.
         11   -1    0    0    0    0 -0.00000000000E+00 -0.00000000000E+00 -0.45593999997E+02  0.45594000000E+02  0.51100000000E-03 0. -1.
    9900012    2    1    2    0    0  0.25279787624E+02 -0.20205441461E+01  0.31780738782E+02  0.50528860578E+02  0.30000002214E+02 0.  0.
         12    1    1    2    0    0 -0.25279787624E+02  0.20205441461E+01 -0.31780738782E+02  0.40659139422E+02  0.00000000000E+00 0. -1.
         11    1    3    3    0    0  0.26242555132E+02 -0.28653586270E+01  0.22846892955E+02  0.34912211301E+02  0.51100000000E-03 0. -1.
        -11    1    3    3    0    0  0.36824454789E+01 -0.41594452485E+01  0.20516432871E+01  0.59220460923E+01  0.51100000000E-03 0.  1.
        -12    1    3    3    0    0 -0.46452129866E+01  0.50042597295E+01  0.68822025395E+01  0.96946031855E+01  0.00000000000E+00 0.  1.
</event>
<event>
 7    1  0.5121289E-013  0.5052886E+02  0.7816164E-02  0.1300439E+00
        -11   -1    0    0    0    0  0.00000000000E+00  0.00000000000E+00  0.45593999997E+02  0.45594000000E+02  0.51100000000E-03 0.  1.
         11   -1    0    0    0    0 -0.00000000000E+00 -0.00000000000E+00 -0.45593999997E+02  0.45594000000E+02  0.51100000000E-03 0. -1.
    9900012    2    1    2    0    0 -0.33825542761E+02 -0.13846552725E+02  0.17812115147E+02  0.50528858205E+02  0.29999995001E+02 0.  0.
         12    1    1    2    0    0  0.33825542761E+02  0.13846552725E+02 -0.17812115147E+02  0.40659141795E+02  0.00000000000E+00 0. -1.
         11    1    3    3    0    0  0.21825073806E+01 -0.21720516691E+01  0.69688205040E+00  0.31570226121E+01  0.51100000000E-03 0. -1.
        -11    1    3    3    0    0  0.26044143533E+01 -0.76856333909E+00  0.46008465654E+01  0.53424201547E+01  0.51100000000E-03 0.  1.
        -12    1    3    3    0    0 -0.38612464495E+02 -0.10905937717E+02  0.12514386531E+02  0.42029415439E+02  0.00000000000E+00 0.  1.
</event>
<event>
 7    1  0.5121289E-013  0.5052886E+02  0.7816164E-02  0.1300439E+00
        -11   -1    0    0    0    0  0.00000000000E+00  0.00000000000E+00  0.45593999997E+02  0.45594000000E+02  0.51100000000E-03 0.  1.
         11   -1    0    0    0    0 -0.00000000000E+00 -0.00000000000E+00 -0.45593999997E+02  0.45594000000E+02  0.51100000000E-03 0. -1.
    9900012    2    1    2    0    0  0.25237404901E+02  0.60121181445E+01  0.31306446189E+02  0.50528859038E+02  0.29999997533E+02 0.  0.
         12    1    1    2    0    0 -0.25237404901E+02 -0.60121181445E+01 -0.31306446189E+02  0.40659140962E+02  0.00000000000E+00 0. -1.
         11    1    3    3    0    0  0.12434594663E+01 -0.19488326655E+01 -0.30277252751E+01  0.38093648821E+01  0.51100000000E-03 0. -1.
        -11    1    3    3    0    0  0.51712868779E+01 -0.60108607803E+01  0.59881133787E+01  0.99363050170E+01  0.51100000000E-03 0.  1.
        -12    1    3    3    0    0  0.18822658557E+02  0.13971811590E+02  0.28346058086E+02  0.36783189139E+02  0.00000000000E+00 0.  1.
</event>
<event>
 7    1  0.5121289E-013  0.5052885E+02  0.7816164E-02  0.1300439E+00
        -11   -1    0    0    0    0  0.00000000000E+00  0.00000000000E+00  0.45593999997E+02  0.45594000000E+02  0.51100000000E-03 0.  1.
         11   -1    0    0    0    0 -0.00000000000E+00 -0.00000000000E+00 -0.45593999997E+02  0.45594000000E+02  0.51100000000E-03 0. -1.
    9900012    2    1    2    0    0  0.30397948093E+02 -0.66369110420E+01  0.26174078322E+02  0.50528853275E+02  0.29999980014E+02 0.  0.
         12    1    1    2    0    0 -0.30397948093E+02  0.66369110420E+01 -0.26174078322E+02  0.40659146725E+02  0.00000000000E+00 0. -1.
         11    1    3    3    0    0  0.86916874882E+00  0.24658958555E+01  0.87607810772E+01  0.91426135229E+01  0.51100000000E-03 0. -1.
        -11    1    3    3    0    0  0.23813378561E+02 -0.59160475522E+01  0.22349062053E+02  0.33189715155E+02  0.51100000000E-03 0.  1.
        -12    1    3    3    0    0  0.57154007824E+01 -0.31867593454E+01 -0.49357648084E+01  0.81965245972E+01  0.00000000000E+00 0.  1.
</event>
<event>
 7    1  0.5121289E-013  0.5052886E+02  0.7816164E-02  0.1300439E+00
        -11   -1    0    0    0    0  0.00000000000E+00  0.00000000000E+00  0.45593999997E+02  0.45594000000E+02  0.51100000000E-03 0.  1.
         11   -1    0    0    0    0 -0.00000000000E+00 -0.00000000000E+00 -0.45593999997E+02  0.45594000000E+02  0.51100000000E-03 0. -1.
    9900012    2    1    2    0    0  0.19700749252E+02  0.78594780028E+01  0.34688249875E+02  0.50528860868E+02  0.30000003095E+02 0.  0.
         12    1    1    2    0    0 -0.19700749252E+02 -0.78594780028E+01 -0.34688249875E+02  0.40659139132E+02  0.00000000000E+00 0. -1.
         11    1    3    3    0    0 -0.32350953464E+01  0.10568138005E+01  0.37339878657E+01  0.50522631514E+01  0.51100000000E-03 0.  1.
        -11    1    3    3    0    0  0.73389882308E+01 -0.76043284688E+01  0.43256153275E+01  0.11419172822E+02  0.51100000000E-03 0. -1.
        -12    1    3    3    0    0  0.15596856368E+02  0.14406992671E+02  0.26628646682E+02  0.34057424895E+02  0.00000000000E+00 0.  1.
</event>
<event>
 7    1  0.5121289E-013  0.5052884E+02  0.7816164E-02  0.1300439E+00
        -11   -1    0    0    0    0  0.00000000000E+00  0.00000000000E+00  0.45593999997E+02  0.45594000000E+02  0.51100000000E-03 0.  1.
         11   -1    0    0    0    0 -0.00000000000E+00 -0.00000000000E+00 -0.45593999997E+02  0.45594000000E+02  0.51100000000E-03 0. -1.
    9900012    2    1    2    0    0 -0.17675407033E+02  0.14563499250E+02  0.33595407025E+02  0.50528844852E+02  0.29999954411E+02 0.  0.
         12    1    1    2    0    0  0.17675407033E+02 -0.14563499250E+02 -0.33595407025E+02  0.40659155148E+02  0.00000000000E+00 0. -1.
         11    1    3    3    0    0 -0.73095981143E+01  0.10714606241E+02  0.18809366183E+02  0.22847872285E+02  0.51100000000E-03 0.  1.
        -11    1    3    3    0    0 -0.87420060702E+01  0.11015701794E+02  0.14683791441E+02  0.20331799907E+02  0.51100000000E-03 0. -1.
         12    1    3    3    0    0 -0.16238028487E+01 -0.71668087840E+01  0.10224940152E+00  0.73491726594E+01  0.00000000000E+00 0. -1.
</event>
<event>
 7    1  0.5121289E-013  0.5052887E+02  0.7816164E-02  0.1300439E+00
        -11   -1    0    0    0    0  0.00000000000E+00  0.00000000000E+00  0.45593999997E+02  0.45594000000E+02  0.51100000000E-03 0.  1.
         11   -1    0    0    0    0 -0.00000000000E+00 -0.00000000000E+00 -0.45593999997E+02  0.45594000000E+02  0.51100000000E-03 0. -1.
    9900012    2    1    2    0    0 -0.23207444754E+01 -0.18629622520E+02  0.36065438983E+02  0.50528873359E+02  0.30000041062E+02 0.  0.
         12    1    1    2    0    0  0.23207444754E+01  0.18629622520E+02 -0.36065438983E+02  0.40659126641E+02  0.00000000000E+00 0. -1.
         11    1    3    3    0    0  0.14111522196E+01 -0.18058277805E+01  0.54267331235E+01  0.58908231356E+01  0.51100000000E-03 0. -1.
        -11    1    3    3    0    0 -0.55442250633E+01 -0.22549325645E+02  0.14397622702E+02  0.27322189852E+02  0.51100000000E-03 0.  1.
        -12    1    3    3    0    0  0.18123283683E+01  0.57255309053E+01  0.16241083158E+02  0.17315860372E+02  0.00000000000E+00 0.  1.
</event>
<event>
 7    1  0.5121289E-013  0.5052886E+02  0.7816164E-02  0.1300439E+00
        -11   -1    0    0    0    0  0.00000000000E+00  0.00000000000E+00  0.45593999997E+02  0.45594000000E+02  0.51100000000E-03 0.  1.
         11   -1    0    0    0    0 -0.00000000000E+00 -0.00000000000E+00 -0.45593999997E+02  0.45594000000E+02  0.51100000000E-03 0. -1.
    9900012    2    1    2    0    0 -0.26855820556E+02  0.13951263490E+02  0.27153137101E+02  0.50528859513E+02  0.29999998976E+02 0.  0.
         12    1    1    2    0    0  0.26855820556E+02 -0.13951263490E+02 -0.27153137101E+02  0.40659140487E+02  0.00000000000E+00 0. -1.
         11    1    3    3    0    0 -0.11315454463E+02  0.18562178824E+02  0.17807955293E+02  0.28101908554E+02  0.51100000000E-03 0. -1.
        -11    1    3    3    0    0 -0.38502318448E+01  0.12361697671E+01  0.83991185369E+01  0.93218878673E+01  0.51100000000E-03 0.  1.
         12    1    3    3    0    0 -0.11690134249E+02 -0.58470851005E+01  0.94606327052E+00  0.13105063092E+02  0.00000000000E+00 0. -1.
</event>
<event>
 7    1  0.5121289E-013  0.5052887E+02  0.7816164E-02  0.1300439E+00
        -11   -1    0    0    0    0  0.00000000000E+00  0.00000000000E+00  0.45593999997E+02  0.45594000000E+02  0.51100000000E-03 0.  1.
         11   -1    0    0    0    0 -0.00000000000E+00 -0.00000000000E+00 -0.45593999997E+02  0.45594000000E+02  0.51100000000E-03 0. -1.
    9900012    2    1    2    0    0 -0.46686927939E+00 -0.48053828199E+01  0.40371461328E+02  0.50528873587E+02  0.30000041754E+02 0.  0.
         12    1    1    2    0    0  0.46686927939E+00  0.48053828199E+01 -0.40371461328E+02  0.40659126413E+02  0.00000000000E+00 0. -1.
         11    1    3    3    0    0 -0.16402962953E+01 -0.66082212403E+01  0.11777098614E+02  0.13603647008E+02  0.51100000000E-03 0. -1.
        -11    1    3    3    0    0 -0.67518599742E+01 -0.72283421667E+01  0.19468237361E+02  0.21836868132E+02  0.51100000000E-03 0.  1.
         12    1    3    3    0    0  0.79252869902E+01  0.90311805872E+01  0.91261253525E+01  0.15088358447E+02  0.00000000000E+00 0. -1.
</event>
<event>
 7    1  0.5121289E-013  0.5052886E+02  0.7816164E-02  0.1300439E+00
        -11   -1    0    0    0    0  0.00000000000E+00  0.00000000000E+00  0.45593999997E+02  0.45594000000E+02  0.51100000000E-03 0.  1.
         11   -1    0    0    0    0 -0.00000000000E+00 -0.00000000000E+00 -0.45593999997E+02  0.45594000000E+02  0.51100000000E-03 0. -1.
    9900012    2    1    2    0    0  0.15595930848E+02 -0.35150618533E+02  0.13204794008E+02  0.50528860473E+02  0.30000001894E+02 0.  0.
         12    1    1    2    0    0 -0.15595930848E+02  0.35150618533E+02 -0.13204794008E+02  0.40659139527E+02  0.00000000000E+00 0. -1.
         11    1    3    3    0    0 -0.25828103598E+01 -0.16691517614E+02  0.28179898144E+01  0.17123630937E+02  0.51100000000E-03 0. -1.
        -11    1    3    3    0    0 -0.22226165011E+01 -0.83826549270E+01  0.50431585226E+01  0.10032067378E+02  0.51100000000E-03 0.  1.
        -12    1    3    3    0    0  0.20401357709E+02 -0.10076445992E+02  0.53436456711E+01  0.23373162158E+02  0.00000000000E+00 0.  1.
</event>
<event>
 7    1  0.5587081E-013  0.5052896E+02  0.7816164E-02  0.1300438E+00
        -11   -1    0    0    0    0  0.00000000000E+00  0.00000000000E+00  0.45593999997E+02  0.45594000000E+02  0.51100000000E-03 0.  1.
         11   -1    0    0    0    0 -0.00000000000E+00 -0.00000000000E+00 -0.45593999997E+02  0.45594000000E+02  0.51100000000E-03 0. -1.
    9900012    2    1    2    0    0 -0.13689387539E+02  0.38189777205E+02  0.27017536042E+01  0.50528955660E+02  0.30000291222E+02 0.  0.
         12    1    1    2    0    0  0.13689387539E+02 -0.38189777205E+02 -0.27017536042E+01  0.40659044340E+02  0.00000000000E+00 0. -1.
         11    1    3    3    0    0 -0.11799378727E+02  0.11082195445E+02  0.76406607732E+01  0.17900281885E+02  0.51100000000E-03 0. -1.
        -11    1    3    3    0    0 -0.39201688041E+01  0.25144051262E+02  0.16079634355E+01  0.25498560429E+02  0.51100000000E-03 0.  1.
         12    1    3    3    0    0  0.20301599925E+01  0.19635304977E+01 -0.65468706044E+01  0.71301133456E+01  0.00000000000E+00 0. -1.
</event>
<event>
 7    1  0.5121289E-013  0.5052885E+02  0.7816164E-02  0.1300439E+00
        -11   -1    0    0    0    0  0.00000000000E+00  0.00000000000E+00  0.45593999997E+02  0.45594000000E+02  0.51100000000E-03 0.  1.
         11   -1    0    0    0    0 -0.00000000000E+00 -0.00000000000E+00 -0.45593999997E+02  0.45594000000E+02  0.51100000000E-03 0. -1.
    9900012    2    1    2    0    0 -0.15974683970E+02  0.29943564910E+02  0.22391037794E+02  0.50528853662E+02  0.29999981190E+02 0.  0.
         12    1    1    2    0    0  0.15974683970E+02 -0.29943564910E+02 -0.22391037794E+02  0.40659146338E+02  0.00000000000E+00 0. -1.
         11    1    3    3    0    0  0.35054547333E+01  0.82771435595E-01  0.19027181373E+00  0.35115904690E+01  0.51100000000E-03 0. -1.
        -11    1    3    3    0    0 -0.56074350648E+01  0.15034849796E+02  0.21333271038E+02  0.26694540450E+02  0.51100000000E-03 0.  1.
         12    1    3    3    0    0 -0.13872703639E+02  0.14825943678E+02  0.86749494220E+00  0.20322722743E+02  0.00000000000E+00 0. -1.
</event>
<event>
 7    1  0.5121289E-013  0.5052886E+02  0.7816164E-02  0.1300439E+00
        -11   -1    0    0    0    0  0.00000000000E+00  0.00000000000E+00  0.45593999997E+02  0.45594000000E+02  0.51100000000E-03 0.  1.
         11   -1    0    0    0    0 -0.00000000000E+00 -0.00000000000E+00 -0.45593999997E+02  0.45594000000E+02  0.51100000000E-03 0. -1.
    9900012    2    1    2    0    0 -0.26636708817E+02 -0.10877812605E+02 -0.28728468656E+02  0.50528856195E+02  0.29999988890E+02 0.  0.
         12    1    1    2    0    0  0.26636708817E+02  0.10877812605E+02  0.28728468656E+02  0.40659143805E+02  0.00000000000E+00 0. -1.
         11    1    3    3    0    0 -0.20819085598E+01 -0.12833674666E+02 -0.65358507332E+01  0.14551800361E+02  0.51100000000E-03 0. -1.
        -11    1    3    3    0    0 -0.49552555115E+01 -0.31193599736E+01  0.10888353546E+00  0.58563486674E+01  0.51100000000E-03 0.  1.
         12    1    3    3    0    0 -0.19599544746E+02  0.50752220345E+01 -0.22301501458E+02  0.30120707167E+02  0.00000000000E+00 0. -1.
</event>
<event>
 7    1  0.5121289E-013  0.5052885E+02  0.7816164E-02  0.1300439E+00
        -11   -1    0    0    0    0  0.00000000000E+00  0.00000000000E+00  0.45593999997E+02  0.45594000000E+02  0.51100000000E-03 0.  1.
         11   -1    0    0    0    0 -0.00000000000E+00 -0.00000000000E+00 -0.45593999997E+02  0.45594000000E+02  0.51100000000E-03 0. -1.
    9900012    2    1    2    0    0  0.32404176966E+02 -0.17359124946E+02  0.17372282149E+02  0.50528854770E+02  0.29999984560E+02 0.  0.
         12    1    1    2    0    0 -0.32404176966E+02  0.17359124946E+02 -0.17372282149E+02  0.40659145230E+02  0.00000000000E+00 0. -1.
         11    1    3    3    0    0  0.38684369424E+01 -0.13749325099E+02  0.12769791284E+02  0.19159235756E+02  0.51100000000E-03 0.  1.
        -11    1    3    3    0    0  0.61705182648E+01 -0.59132000751E+01  0.12162472016E+01  0.86325250246E+01  0.51100000000E-03 0. -1.
        -12    1    3    3    0    0  0.22365221759E+02  0.23034002280E+01  0.33862436630E+01  0.22737093990E+02  0.00000000000E+00 0.  1.
</event>
<event>
 7    1  0.5121289E-013  0.5052898E+02  0.7816164E-02  0.1300438E+00
        -11   -1    0    0    0    0  0.00000000000E+00  0.00000000000E+00  0.45593999997E+02  0.45594000000E+02  0.51100000000E-03 0.  1.
         11   -1    0    0    0    0 -0.00000000000E+00 -0.00000000000E+00 -0.45593999997E+02  0.45594000000E+02  0.51100000000E-03 0. -1.
    9900012    2    1    2    0    0  0.36416756698E+02  0.14522062511E+02  0.10774302044E+02  0.50528978215E+02  0.30000359779E+02 0.  0.
         12    1    1    2    0    0 -0.36416756698E+02 -0.14522062511E+02 -0.10774302044E+02  0.40659021785E+02  0.00000000000E+00 0. -1.
         11    1    3    3    0    0  0.23394187210E+00  0.52152185476E+01  0.52225518710E+01  0.73843267537E+01  0.51100000000E-03 0. -1.
        -11    1    3    3    0    0 -0.70342356642E+00  0.41120839024E+00 -0.39468458096E+01  0.40300730961E+01  0.51100000000E-03 0.  1.
        -12    1    3    3    0    0  0.36886238393E+02  0.88956355729E+01  0.94985959830E+01  0.39114578365E+02  0.00000000000E+00 0.  1.
</event>
<event>
 7    1  0.5121289E-013  0.5052887E+02  0.7816164E-02  0.1300439E+00
        -11   -1    0    0    0    0  0.00000000000E+00  0.00000000000E+00  0.45593999997E+02  0.45594000000E+02  0.51100000000E-03 0.  1.
         11   -1    0    0    0    0 -0.00000000000E+00 -0.00000000000E+00 -0.45593999997E+02  0.45594000000E+02  0.51100000000E-03 0. -1.
    9900012    2    1    2    0    0 -0.40652975686E+01 -0.28395285775E+02  0.28815730693E+02  0.50528865308E+02  0.30000016590E+02 0.  0.
         12    1    1    2    0    0  0.40652975686E+01  0.28395285775E+02 -0.28815730693E+02  0.40659134692E+02  0.00000000000E+00 0. -1.
         11    1    3    3    0    0 -0.62857635740E+01 -0.59671114696E+01 -0.82919687280E+00  0.87065958166E+01  0.51100000000E-03 0. -1.
        -11    1    3    3    0    0 -0.10268175471E+00 -0.11291033475E+02  0.14072060511E+01  0.11378849222E+02  0.51100000000E-03 0.  1.
        -12    1    3    3    0    0  0.23231477601E+01 -0.11137140830E+02  0.28237721514E+02  0.30443420269E+02  0.00000000000E+00 0.  1.
</event>
<event>
 7    1  0.5121289E-013  0.5052891E+02  0.7816164E-02  0.1300439E+00
        -11   -1    0    0    0    0  0.00000000000E+00  0.00000000000E+00  0.45593999997E+02  0.45594000000E+02  0.51100000000E-03 0.  1.
         11   -1    0    0    0    0 -0.00000000000E+00 -0.00000000000E+00 -0.45593999997E+02  0.45594000000E+02  0.51100000000E-03 0. -1.
    9900012    2    1    2    0    0 -0.79524281419E+01  0.39845428268E+02 -0.15041655631E+01  0.50528907766E+02  0.30000145645E+02 0.  0.
         12    1    1    2    0    0  0.79524281419E+01 -0.39845428268E+02  0.15041655631E+01  0.40659092234E+02  0.00000000000E+00 0. -1.
         11    1    3    3    0    0 -0.87678366786E+01  0.12894854582E+02 -0.13582472397E+01  0.15652382264E+02  0.51100000000E-03 0. -1.
        -11    1    3    3    0    0 -0.66644550663E+01  0.12099977469E+02  0.84139668836E+01  0.16174648530E+02  0.51100000000E-03 0.  1.
        -12    1    3    3    0    0  0.74798636030E+01  0.14850596217E+02 -0.85598852071E+01  0.18701876972E+02  0.00000000000E+00 0.  1.
</event>
<event>
 7    1  0.5121289E-013  0.5052886E+02  0.7816164E-02  0.1300439E+00
        -11   -1    0    0    0    0  0.00000000000E+00  0.00000000000E+00  0.45593999997E+02  0.45594000000E+02  0.51100000000E-03 0.  1.
         11   -1    0    0    0    0 -0.00000000000E+00 -0.00000000000E+00 -0.45593999997E+02  0.45594000000E+02  0.51100000000E-03 0. -1.
    9900012    2    1    2    0    0 -0.14322759971E+02  0.34653724641E+02  0.15720806229E+02  0.50528857939E+02  0.29999994190E+02 0.  0.
         12    1    1    2    0    0  0.14322759971E+02 -0.34653724641E+02 -0.15720806229E+02  0.40659142061E+02  0.00000000000E+00 0. -1.
         11    1    3    3    0    0  0.13850676742E+01  0.50337563221E+00 -0.14253655763E-02  0.14737034241E+01  0.51100000000E-03 0. -1.
        -11    1    3    3    0    0 -0.63462964653E+01  0.89795231781E+01 -0.76975676842E+01  0.13422364317E+02  0.51100000000E-03 0.  1.
         12    1    3    3    0    0 -0.93615311802E+01  0.25170825831E+02  0.23419799279E+02  0.35632790198E+02  0.00000000000E+00 0. -1.
</event>
<event>
 7    1  0.5121289E-013  0.5052887E+02  0.7816164E-02  0.1300439E+00
        -11   -1    0    0    0    0  0.00000000000E+00  0.00000000000E+00  0.45593999997E+02  0.45594000000E+02  0.51100000000E-03 0.  1.
         11   -1    0    0    0    0 -0.00000000000E+00 -0.00000000000E+00 -0.45593999997E+02  0.45594000000E+02  0.51100000000E-03 0. -1.
    9900012    2    1    2    0    0  0.39713771700E+02 -0.19748527681E+01  0.84900647801E+01  0.50528869340E+02  0.30000028845E+02 0.  0.
         12    1    1    2    0    0 -0.39713771700E+02  0.19748527681E+01 -0.84900647801E+01  0.40659130660E+02  0.00000000000E+00 0. -1.
         11    1    3    3    0    0  0.11172853228E+02 -0.60360161908E+00  0.47762267906E+01  0.12165908383E+02  0.51100000000E-03 0. -1.
        -11    1    3    3    0    0  0.82971565324E+01 -0.92396561420E+01  0.97862327926E+01  0.15810895126E+02  0.51100000000E-03 0.  1.
         12    1    3    3    0    0  0.20243761939E+02  0.78684049929E+01 -0.60723948031E+01  0.22552065830E+02  0.00000000000E+00 0. -1.
</event>
<event>
 7    1  0.5121289E-013  0.5052885E+02  0.7816164E-02  0.1300439E+00
        -11   -1    0    0    0    0  0.00000000000E+00  0.00000000000E+00  0.45593999997E+02  0.45594000000E+02  0.51100000000E-03 0.  1.
         11   -1    0    0    0    0 -0.00000000000E+00 -0.00000000000E+00 -0.45593999997E+02  0.45594000000E+02  0.51100000000E-03 0. -1.
    9900012    2    1    2    0    0  0.37055661681E+02  0.28055768051E+01  0.16497659968E+02  0.50528854556E+02  0.29999983910E+02 0.  0.
         12    1    1    2    0    0 -0.37055661681E+02 -0.28055768051E+01 -0.16497659968E+02  0.40659145444E+02  0.00000000000E+00 0. -1.
         11    1    3    3    0    0  0.12618644266E+02  0.28203390254E+01  0.10859534582E+02  0.16885318680E+02  0.51100000000E-03 0. -1.
        -11    1    3    3    0    0  0.11711222246E+02  0.41716251519E+01  0.13304031517E+02  0.18208581432E+02  0.51100000000E-03 0.  1.
         12    1    3    3    0    0  0.12725795168E+02 -0.41863873721E+01 -0.76659061308E+01  0.15434954444E+02  0.00000000000E+00 0. -1.
</event>
<event>
 7    1  0.5121289E-013  0.5052886E+02  0.7816164E-02  0.1300439E+00
        -11   -1    0    0    0    0  0.00000000000E+00  0.00000000000E+00  0.45593999997E+02  0.45594000000E+02  0.51100000000E-03 0. -1.
         11   -1    0    0    0    0 -0.00000000000E+00 -0.00000000000E+00 -0.45593999997E+02  0.45594000000E+02  0.51100000000E-03 0.  1.
    9900012    2    1    2    0    0 -0.29592200894E+02 -0.27179372994E+02  0.62248715775E+01  0.50528859622E+02  0.29999999308E+02 0.  0.
         12    1    1    2    0    0  0.29592200894E+02  0.27179372994E+02 -0.62248715775E+01  0.40659140378E+02  0.00000000000E+00 0. -1.
         11    1    3    3    0    0  0.36503806003E+01 -0.18768132043E+00 -0.24582430633E+01  0.44049360976E+01  0.51100000000E-03 0. -1.
        -11    1    3    3    0    0 -0.13666604223E+02 -0.19895354764E+02  0.18458757758E+01  0.24207611815E+02  0.51100000000E-03 0.  1.
        -12    1    3    3    0    0 -0.19575977271E+02 -0.70963369098E+01  0.68372388651E+01  0.21916311709E+02  0.00000000000E+00 0.  1.
</event>
<event>
 7    1  0.5121289E-013  0.5052888E+02  0.7816164E-02  0.1300439E+00
        -11   -1    0    0    0    0  0.00000000000E+00  0.00000000000E+00  0.45593999997E+02  0.45594000000E+02  0.51100000000E-03 0.  1.
         11   -1    0    0    0    0 -0.00000000000E+00 -0.00000000000E+00 -0.45593999997E+02  0.45594000000E+02  0.51100000000E-03 0. -1.
    9900012    2    1    2    0    0 -0.16787287816E+02 -0.36373225046E+02  0.69526742714E+01  0.50528877875E+02  0.30000054789E+02 0.  0.
         12    1    1    2    0    0  0.16787287816E+02  0.36373225046E+02 -0.69526742714E+01  0.40659122125E+02  0.00000000000E+00 0. -1.
         11    1    3    3    0    0 -0.10472914521E+02 -0.35224359307E+01  0.51547996795E+00  0.11061429080E+02  0.51100000000E-03 0. -1.
        -11    1    3    3    0    0 -0.56086529127E+00 -0.55181229776E+01  0.98739483451E+01  0.11325153741E+02  0.51100000000E-03 0.  1.
        -12    1    3    3    0    0 -0.57535080037E+01 -0.27332666138E+02 -0.34367540417E+01  0.28142295054E+02  0.00000000000E+00 0.  1.
</event>
<event>
 7    1  0.5121289E-013  0.5052885E+02  0.7816164E-02  0.1300439E+00
        -11   -1    0    0    0    0  0.00000000000E+00  0.00000000000E+00  0.45593999997E+02  0.45594000000E+02  0.51100000000E-03 0.  1.
         11   -1    0    0    0    0 -0.00000000000E+00 -0.00000000000E+00 -0.45593999997E+02  0.45594000000E+02  0.51100000000E-03 0. -1.
    9900012    2    1    2    0    0  0.59251739026E+01  0.24462716205E+02  0.31931707695E+02  0.50528854335E+02  0.29999983236E+02 0.  0.
         12    1    1    2    0    0 -0.59251739026E+01 -0.24462716205E+02 -0.31931707695E+02  0.40659145665E+02  0.00000000000E+00 0. -1.
         11    1    3    3    0    0  0.32021669959E+01  0.86652564115E+00  0.14572161121E+01  0.36232884532E+01  0.51100000000E-03 0. -1.
        -11    1    3    3    0    0  0.12411331236E+02  0.11246657219E+02  0.25370021238E+02  0.30400105584E+02  0.51100000000E-03 0.  1.
        -12    1    3    3    0    0 -0.96883243289E+01  0.12349533344E+02  0.51044703451E+01  0.16505460297E+02  0.00000000000E+00 0.  1.
</event>
<event>
 7    1  0.5121289E-013  0.5052886E+02  0.7816164E-02  0.1300439E+00
        -11   -1    0    0    0    0  0.00000000000E+00  0.00000000000E+00  0.45593999997E+02  0.45594000000E+02  0.51100000000E-03 0. -1.
         11   -1    0    0    0    0 -0.00000000000E+00 -0.00000000000E+00 -0.45593999997E+02  0.45594000000E+02  0.51100000000E-03 0.  1.
    9900012    2    1    2    0    0  0.74085354806E+01 -0.15810670650E+02 -0.36719233427E+02  0.50528858250E+02  0.29999995136E+02 0.  0.
         12    1    1    2    0    0 -0.74085354806E+01  0.15810670650E+02  0.36719233427E+02  0.40659141750E+02  0.00000000000E+00 0. -1.
         11    1    3    3    0    0  0.85222446614E+01 -0.87275570702E+01 -0.34977043183E+01  0.12689871640E+02  0.51100000000E-03 0. -1.
        -11    1    3    3    0    0  0.68395499995E+01 -0.48490624836E+01 -0.92514010024E+01  0.12485242166E+02  0.51100000000E-03 0.  1.
        -12    1    3    3    0    0 -0.79532591803E+01 -0.22340510961E+01 -0.23970128107E+02  0.25353744444E+02  0.00000000000E+00 0.  1.
</event>
<event>
 7    1  0.5121289E-013  0.5052892E+02  0.7816164E-02  0.1300439E+00
        -11   -1    0    0    0    0  0.00000000000E+00  0.00000000000E+00  0.45593999997E+02  0.45594000000E+02  0.51100000000E-03 0.  1.
         11   -1    0    0    0    0 -0.00000000000E+00 -0.00000000000E+00 -0.45593999997E+02  0.45594000000E+02  0.51100000000E-03 0. -1.
    9900012    2    1    2    0    0  0.22914585512E+02  0.27147711982E+02 -0.19775851883E+02  0.50528919677E+02  0.30000181849E+02 0.  0.
         12    1    1    2    0    0 -0.22914585512E+02 -0.27147711982E+02  0.19775851883E+02  0.40659080323E+02  0.00000000000E+00 0. -1.
         11    1    3    3    0    0  0.44601607749E+01 -0.30250245783E+01  0.20487873082E+01  0.57655301172E+01  0.51100000000E-03 0.  1.
        -11    1    3    3    0    0  0.46085186882E+01  0.35445147043E+01  0.23043039442E+01  0.62539464274E+01  0.51100000000E-03 0. -1.
         12    1    3    3    0    0  0.13845906049E+02  0.26628221856E+02 -0.24128943135E+02  0.38509443132E+02  0.00000000000E+00 0. -1.
</event>
<event>
 7    1  0.5121289E-013  0.5052886E+02  0.7816164E-02  0.1300439E+00
        -11   -1    0    0    0    0  0.00000000000E+00  0.00000000000E+00  0.45593999997E+02  0.45594000000E+02  0.51100000000E-03 0. -1.
         11   -1    0    0    0    0 -0.00000000000E+00 -0.00000000000E+00 -0.45593999997E+02  0.45594000000E+02  0.51100000000E-03 0.  1.
    9900012    2    1    2    0    0 -0.13581552279E+02 -0.16342831862E+02 -0.34664375111E+02  0.50528860592E+02  0.30000002255E+02 0.  0.
         12    1    1    2    0    0  0.13581552279E+02  0.16342831862E+02  0.34664375111E+02  0.40659139408E+02  0.00000000000E+00 0. -1.
         11    1    3    3    0    0 -0.95312283315E+01  0.23368374116E+01 -0.94491925882E+01  0.13623228818E+02  0.51100000000E-03 0. -1.
        -11    1    3    3    0    0  0.38252071962E+01  0.16294438580E+01 -0.88823081855E+00  0.42516175308E+01  0.51100000000E-03 0.  1.
        -12    1    3    3    0    0 -0.78755311432E+01 -0.20309113131E+02 -0.24326951705E+02  0.32654014243E+02  0.00000000000E+00 0.  1.
</event>
<event>
 7    1  0.5121289E-013  0.5052886E+02  0.7816164E-02  0.1300439E+00
        -11   -1    0    0    0    0  0.00000000000E+00  0.00000000000E+00  0.45593999997E+02  0.45594000000E+02  0.51100000000E-03 0. -1.
         11   -1    0    0    0    0 -0.00000000000E+00 -0.00000000000E+00 -0.45593999997E+02  0.45594000000E+02  0.51100000000E-03 0.  1.
    9900012    2    1    2    0    0  0.39783852315E+02  0.48298314744E+01 -0.68617414484E+01  0.50528859911E+02  0.30000000186E+02 0.  0.
         12    1    1    2    0    0 -0.39783852315E+02 -0.48298314744E+01  0.68617414484E+01  0.40659140089E+02  0.00000000000E+00 0. -1.
         11    1    3    3    0    0  0.15903727544E+02  0.97526229655E+00 -0.11234884286E+02  0.19496212748E+02  0.51100000000E-03 0. -1.
        -11    1    3    3    0    0  0.21425639688E+02 -0.16760031210E+01 -0.27726437326E+01  0.21669208015E+02  0.51100000000E-03 0.  1.
         12    1    3    3    0    0  0.24544850831E+01  0.55305722988E+01  0.71457865697E+01  0.93634391478E+01  0.00000000000E+00 0. -1.
</event>
<event>
 7    1  0.5121289E-013  0.5052886E+02  0.7816164E-02  0.1300439E+00
        -11   -1    0    0    0    0  0.00000000000E+00  0.00000000000E+00  0.45593999997E+02  0.45594000000E+02  0.51100000000E-03 0.  1.
         11   -1    0    0    0    0 -0.00000000000E+00 -0.00000000000E+00 -0.45593999997E+02  0.45594000000E+02  0.51100000000E-03 0. -1.
    9900012    2    1    2    0    0 -0.50840353718E+01 -0.19806259692E+02  0.35142999550E+02  0.50528858888E+02  0.29999997075E+02 0.  0.
         12    1    1    2    0    0  0.50840353718E+01  0.19806259692E+02 -0.35142999550E+02  0.40659141112E+02  0.00000000000E+00 0. -1.
         11    1    3    3    0    0 -0.57209615363E+01  0.23060939661E+01  0.21173701857E+02  0.22053868615E+02  0.51100000000E-03 0. -1.
        -11    1    3    3    0    0 -0.57424508899E+00 -0.11187954155E+02  0.13404125743E+02  0.17469134575E+02  0.51100000000E-03 0.  1.
        -12    1    3    3    0    0  0.12111712535E+01 -0.10924399503E+02  0.56517194949E+00  0.11005855698E+02  0.00000000000E+00 0.  1.
</event>
<event>
 7    1  0.5121289E-013  0.5052886E+02  0.7816164E-02  0.1300439E+00
        -11   -1    0    0    0    0  0.00000000000E+00  0.00000000000E+00  0.45593999997E+02  0.45594000000E+02  0.51100000000E-03 0.  1.
         11   -1    0    0    0    0 -0.00000000000E+00 -0.00000000000E+00 -0.45593999997E+02  0.45594000000E+02  0.51100000000E-03 0. -1.
    9900012    2    1    2    0    0 -0.85791067532E+01  0.37399579567E+02  0.13447525942E+02  0.50528861071E+02  0.30000003713E+02 0.  0.
         12    1    1    2    0    0  0.85791067532E+01 -0.37399579567E+02 -0.13447525942E+02  0.40659138929E+02  0.00000000000E+00 0. -1.
         11    1    3    3    0    0 -0.92735455580E+01  0.47960528128E+01 -0.39046421601E+01  0.11146613856E+02  0.51100000000E-03 0. -1.
        -11    1    3    3    0    0 -0.44094478444E+01  0.10571977418E+02  0.11025857174E+02  0.15899039704E+02  0.51100000000E-03 0.  1.
        -12    1    3    3    0    0  0.51038866492E+01  0.22031549335E+02  0.63263109283E+01  0.23483207511E+02  0.00000000000E+00 0.  1.
</event>
<event>
 7    1  0.5121289E-013  0.5052886E+02  0.7816164E-02  0.1300439E+00
        -11   -1    0    0    0    0  0.00000000000E+00  0.00000000000E+00  0.45593999997E+02  0.45594000000E+02  0.51100000000E-03 0.  1.
         11   -1    0    0    0    0 -0.00000000000E+00 -0.00000000000E+00 -0.45593999997E+02  0.45594000000E+02  0.51100000000E-03 0. -1.
    9900012    2    1    2    0    0 -0.35317195727E+01  0.24567945748E+02  0.32204172567E+02  0.50528859182E+02  0.29999997968E+02 0.  0.
         12    1    1    2    0    0  0.35317195727E+01 -0.24567945748E+02 -0.32204172567E+02  0.40659140818E+02  0.00000000000E+00 0. -1.
         11    1    3    3    0    0  0.22626637755E+00  0.22455685876E+01 -0.18837433043E+01  0.29397727553E+01  0.51100000000E-03 0. -1.
        -11    1    3    3    0    0 -0.11944165099E+02  0.77754237327E+01  0.72661777606E+01  0.15997425844E+02  0.51100000000E-03 0.  1.
         12    1    3    3    0    0  0.81861791486E+01  0.14546953427E+02  0.26821738110E+02  0.31591660582E+02  0.00000000000E+00 0. -1.
</event>
<event>
 7    1  0.5121289E-013  0.5052886E+02  0.7816164E-02  0.1300439E+00
        -11   -1    0    0    0    0  0.00000000000E+00  0.00000000000E+00  0.45593999997E+02  0.45594000000E+02  0.51100000000E-03 0. -1.
         11   -1    0    0    0    0 -0.00000000000E+00 -0.00000000000E+00 -0.45593999997E+02  0.45594000000E+02  0.51100000000E-03 0.  1.
    9900012    2    1    2    0    0  0.36553683253E+02  0.93172852419E+01 -0.15171755137E+02  0.50528859360E+02  0.29999998509E+02 0.  0.
         12    1    1    2    0    0 -0.36553683253E+02 -0.93172852419E+01  0.15171755137E+02  0.40659140640E+02  0.00000000000E+00 0. -1.
         11    1    3    3    0    0 -0.18916004399E+00  0.21119894233E+01 -0.24660400179E+01  0.32523275476E+01  0.51100000000E-03 0.  1.
        -11    1    3    3    0    0  0.12269681619E+01 -0.71318589403E+01 -0.20067578892E+01  0.75097230509E+01  0.51100000000E-03 0. -1.
        -12    1    3    3    0    0  0.35515875135E+02  0.14337154759E+02 -0.10698957230E+02  0.39766808761E+02  0.00000000000E+00 0.  1.
</event>
<event>
 7    1  0.5121289E-013  0.5052885E+02  0.7816164E-02  0.1300439E+00
        -11   -1    0    0    0    0  0.00000000000E+00  0.00000000000E+00  0.45593999997E+02  0.45594000000E+02  0.51100000000E-03 0.  1.
         11   -1    0    0    0    0 -0.00000000000E+00 -0.00000000000E+00 -0.45593999997E+02  0.45594000000E+02  0.51100000000E-03 0. -1.
    9900012    2    1    2    0    0  0.18781018385E+02  0.23612873991E+02  0.27255672068E+02  0.50528854294E+02  0.29999983111E+02 0.  0.
         12    1    1    2    0    0 -0.18781018385E+02 -0.23612873991E+02 -0.27255672068E+02  0.40659145706E+02  0.00000000000E+00 0. -1.
         11    1    3    3    0    0  0.30460072615E+01  0.75990627441E+01  0.94258479731E+01  0.12484811777E+02  0.51100000000E-03 0. -1.
        -11    1    3    3    0    0 -0.16052674455E+01  0.15002769141E+02  0.13250700825E+02  0.20080862484E+02  0.51100000000E-03 0.  1.
         12    1    3    3    0    0  0.17340278569E+02  0.10110421060E+01  0.45791232697E+01  0.17963180033E+02  0.00000000000E+00 0. -1.
</event>
<event>
 7    1  0.5121289E-013  0.5052886E+02  0.7816164E-02  0.1300439E+00
        -11   -1    0    0    0    0  0.00000000000E+00  0.00000000000E+00  0.45593999997E+02  0.45594000000E+02  0.51100000000E-03 0.  1.
         11   -1    0    0    0    0 -0.00000000000E+00 -0.00000000000E+00 -0.45593999997E+02  0.45594000000E+02  0.51100000000E-03 0. -1.
    9900012    2    1    2    0    0  0.32951748047E+02  0.17791968595E+02  0.15836465797E+02  0.50528862101E+02  0.30000006841E+02 0.  0.
         12    1    1    2    0    0 -0.32951748047E+02 -0.17791968595E+02 -0.15836465797E+02  0.40659137899E+02  0.00000000000E+00 0. -1.
         11    1    3    3    0    0  0.14768337085E+00  0.23342596358E+00  0.17806589685E+01  0.18019557935E+01  0.51100000000E-03 0. -1.
        -11    1    3    3    0    0  0.27213085514E+02  0.12104908548E+02 -0.30329202108E+01  0.29937926438E+02  0.51100000000E-03 0.  1.
        -12    1    3    3    0    0  0.55909791618E+01  0.54536340835E+01  0.17088727039E+02  0.18788979869E+02  0.00000000000E+00 0.  1.
</event>
<event>
 7    1  0.5121289E-013  0.5052889E+02  0.7816164E-02  0.1300439E+00
        -11   -1    0    0    0    0  0.00000000000E+00  0.00000000000E+00  0.45593999997E+02  0.45594000000E+02  0.51100000000E-03 0.  1.
         11   -1    0    0    0    0 -0.00000000000E+00 -0.00000000000E+00 -0.45593999997E+02  0.45594000000E+02  0.51100000000E-03 0. -1.
    9900012    2    1    2    0    0 -0.18669359535E+02  0.25579608293E+02  0.25501009709E+02  0.50528894721E+02  0.30000105994E+02 0.  0.
         12    1    1    2    0    0  0.18669359535E+02 -0.25579608293E+02 -0.25501009709E+02  0.40659105279E+02  0.00000000000E+00 0. -1.
         11    1    3    3    0    0  0.15916719271E+01 -0.36557256708E+00  0.47836673995E+01  0.50547538887E+01  0.51100000000E-03 0. -1.
        -11    1    3    3    0    0 -0.96886613509E+01 -0.25237126517E+01  0.65440617645E+01  0.11960937629E+02  0.51100000000E-03 0.  1.
         12    1    3    3    0    0 -0.10572370111E+02  0.28468893512E+02  0.14173280545E+02  0.33513203204E+02  0.00000000000E+00 0. -1.
</event>
<event>
 7    1  0.5121289E-013  0.5052886E+02  0.7816164E-02  0.1300439E+00
        -11   -1    0    0    0    0  0.00000000000E+00  0.00000000000E+00  0.45593999997E+02  0.45594000000E+02  0.51100000000E-03 0.  1.
         11   -1    0    0    0    0 -0.00000000000E+00 -0.00000000000E+00 -0.45593999997E+02  0.45594000000E+02  0.51100000000E-03 0. -1.
    9900012    2    1    2    0    0  0.28713112305E+02  0.18302592873E+02  0.22220206629E+02  0.50528864412E+02  0.30000013867E+02 0.  0.
         12    1    1    2    0    0 -0.28713112305E+02 -0.18302592873E+02 -0.22220206629E+02  0.40659135588E+02  0.00000000000E+00 0. -1.
         11    1    3    3    0    0  0.17262577885E+02  0.44625675607E+01  0.50642232388E+01  0.18535303119E+02  0.51100000000E-03 0.  1.
        -11    1    3    3    0    0  0.74998525055E+01  0.59752761274E+01 -0.29606958448E+01  0.10035807519E+02  0.51100000000E-03 0. -1.
        -12    1    3    3    0    0  0.39506819147E+01  0.78647491851E+01  0.20116679235E+02  0.21957753774E+02  0.00000000000E+00 0.  1.
</event>
<event>
 7    1  0.5121289E-013  0.5052885E+02  0.7816164E-02  0.1300439E+00
        -11   -1    0    0    0    0  0.00000000000E+00  0.00000000000E+00  0.45593999997E+02  0.45594000000E+02  0.51100000000E-03 0.  1.
         11   -1    0    0    0    0 -0.00000000000E+00 -0.00000000000E+00 -0.45593999997E+02  0.45594000000E+02  0.51100000000E-03 0. -1.
    9900012    2    1    2    0    0  0.10574256764E+02 -0.38433272923E+02  0.80147051822E+01  0.50528845154E+02  0.29999955329E+02 0.  0.
         12    1    1    2    0    0 -0.10574256764E+02  0.38433272923E+02 -0.80147051822E+01  0.40659154846E+02  0.00000000000E+00 0. -1.
         11    1    3    3    0    0 -0.83934477354E+00 -0.28507655924E+01 -0.68109560418E+00  0.30488121613E+01  0.51100000000E-03 0. -1.
        -11    1    3    3    0    0  0.10363059950E+02 -0.39265671865E+02  0.31392047781E+01  0.40731322166E+02  0.51100000000E-03 0.  1.
         12    1    3    3    0    0  0.10505415883E+01  0.36831645344E+01  0.55565960082E+01  0.67487108261E+01  0.00000000000E+00 0. -1.
</event>
<event>
 7    1  0.5121289E-013  0.5052887E+02  0.7816164E-02  0.1300439E+00
        -11   -1    0    0    0    0  0.00000000000E+00  0.00000000000E+00  0.45593999997E+02  0.45594000000E+02  0.51100000000E-03 0. -1.
         11   -1    0    0    0    0 -0.00000000000E+00 -0.00000000000E+00 -0.45593999997E+02  0.45594000000E+02  0.51100000000E-03 0.  1.
    9900012    2    1    2    0    0  0.40622763566E+02 -0.17129345110E+01  0.14659868925E+00  0.50528873650E+02  0.30000041947E+02 0.  0.
         12    1    1    2    0    0 -0.40622763566E+02  0.17129345110E+01 -0.14659868925E+00  0.40659126350E+02  0.00000000000E+00 0. -1.
         11    1    3    3    0    0  0.21832720700E+02  0.86657397851E+01  0.30660082762E+01  0.23688882334E+02  0.51100000000E-03 0. -1.
        -11    1    3    3    0    0  0.15044931202E+02 -0.30269742679E+01 -0.78404139345E+01  0.17233241686E+02  0.51100000000E-03 0.  1.
         12    1    3    3    0    0  0.37451116638E+01 -0.73517000281E+01  0.49210043476E+01  0.96067496307E+01  0.00000000000E+00 0. -1.
</event>
<event>
 7    1  0.5121289E-013  0.5052886E+02  0.7816164E-02  0.1300439E+00
        -11   -1    0    0    0    0  0.00000000000E+00  0.00000000000E+00  0.45593999997E+02  0.45594000000E+02  0.51100000000E-03 0.  1.
         11   -1    0    0    0    0 -0.00000000000E+00 -0.00000000000E+00 -0.45593999997E+02  0.45594000000E+02  0.51100000000E-03 0. -1.
    9900012    2    1    2    0    0  0.21680200082E+02 -0.11766844589E+02  0.32321442749E+02  0.50528863652E+02  0.30000011557E+02 0.  0.
         12    1    1    2    0    0 -0.21680200082E+02  0.11766844589E+02 -0.32321442749E+02  0.40659136348E+02  0.00000000000E+00 0. -1.
         11    1    3    3    0    0  0.20940574597E+02 -0.10675222516E+02  0.16299013393E+02  0.28602899819E+02  0.51100000000E-03 0. -1.
        -11    1    3    3    0    0  0.65985944746E+01 -0.30469764776E+01  0.13341066772E+02  0.15192418424E+02  0.51100000000E-03 0.  1.
         12    1    3    3    0    0 -0.58589689900E+01  0.19553544041E+01  0.26813625840E+01  0.67335454092E+01  0.00000000000E+00 0. -1.
</event>
<event>
 7    1  0.5121289E-013  0.5052883E+02  0.7816164E-02  0.1300439E+00
        -11   -1    0    0    0    0  0.00000000000E+00  0.00000000000E+00  0.45593999997E+02  0.45594000000E+02  0.51100000000E-03 0.  1.
         11   -1    0    0    0    0 -0.00000000000E+00 -0.00000000000E+00 -0.45593999997E+02  0.45594000000E+02  0.51100000000E-03 0. -1.
    9900012    2    1    2    0    0 -0.37798544225E+02  0.10145384015E+02  0.11023135004E+02  0.50528828000E+02  0.29999903190E+02 0.  0.
         12    1    1    2    0    0  0.37798544225E+02 -0.10145384015E+02 -0.11023135004E+02  0.40659172000E+02  0.00000000000E+00 0. -1.
         11    1    3    3    0    0 -0.24055751775E+02  0.11947277513E+02 -0.36286431674E+00  0.26861651182E+02  0.51100000000E-03 0. -1.
        -11    1    3    3    0    0 -0.15597716888E+02 -0.31347447232E+01  0.46812176580E+01  0.16584004210E+02  0.51100000000E-03 0.  1.
         12    1    3    3    0    0  0.18549244379E+01  0.13328512245E+01  0.67047816631E+01  0.70831726089E+01  0.00000000000E+00 0. -1.
</event>
<event>
 7    1  0.5121289E-013  0.5052887E+02  0.7816164E-02  0.1300439E+00
        -11   -1    0    0    0    0  0.00000000000E+00  0.00000000000E+00  0.45593999997E+02  0.45594000000E+02  0.51100000000E-03 0.  1.
         11   -1    0    0    0    0 -0.00000000000E+00 -0.00000000000E+00 -0.45593999997E+02  0.45594000000E+02  0.51100000000E-03 0. -1.
    9900012    2    1    2    0    0  0.97779308342E+01 -0.55025529416E+01  0.39080419159E+02  0.50528865947E+02  0.30000018533E+02 0.  0.
         12    1    1    2    0    0 -0.97779308342E+01  0.55025529416E+01 -0.39080419159E+02  0.40659134053E+02  0.00000000000E+00 0. -1.
         11    1    3    3    0    0 -0.33152348123E+01  0.29770812657E+01 -0.15720451319E+01  0.47249466537E+01  0.51100000000E-03 0. -1.
        -11    1    3    3    0    0  0.82138273157E+01 -0.58927432101E+01  0.85794365624E+01  0.13258888102E+02  0.51100000000E-03 0.  1.
        -12    1    3    3    0    0  0.48793383308E+01 -0.25868909972E+01  0.32073027729E+02  0.32545031191E+02  0.00000000000E+00 0.  1.
</event>
<event>
 7    1  0.5121289E-013  0.5052886E+02  0.7816164E-02  0.1300439E+00
        -11   -1    0    0    0    0  0.00000000000E+00  0.00000000000E+00  0.45593999997E+02  0.45594000000E+02  0.51100000000E-03 0.  1.
         11   -1    0    0    0    0 -0.00000000000E+00 -0.00000000000E+00 -0.45593999997E+02  0.45594000000E+02  0.51100000000E-03 0. -1.
    9900012    2    1    2    0    0 -0.26717676385E+02  0.19745113916E+02  0.23440599107E+02  0.50528862756E+02  0.30000008832E+02 0.  0.
         12    1    1    2    0    0  0.26717676385E+02 -0.19745113916E+02 -0.23440599107E+02  0.40659137244E+02  0.00000000000E+00 0. -1.
         11    1    3    3    0    0 -0.13675650391E+02  0.41508221477E+01 -0.40646808803E+01  0.14858478019E+02  0.51100000000E-03 0. -1.
        -11    1    3    3    0    0  0.16398483945E+01  0.18399255127E+01  0.19285126364E+01  0.31294711852E+01  0.51100000000E-03 0.  1.
        -12    1    3    3    0    0 -0.14681874388E+02  0.13754366256E+02  0.25576767351E+02  0.32540913551E+02  0.00000000000E+00 0.  1.
</event>
<event>
 7    1  0.5121289E-013  0.5052887E+02  0.7816164E-02  0.1300439E+00
        -11   -1    0    0    0    0  0.00000000000E+00  0.00000000000E+00  0.45593999997E+02  0.45594000000E+02  0.51100000000E-03 0. -1.
         11   -1    0    0    0    0 -0.00000000000E+00 -0.00000000000E+00 -0.45593999997E+02  0.45594000000E+02  0.51100000000E-03 0.  1.
    9900012    2    1    2    0    0  0.39972166297E+02 -0.41381931891E+01  0.61859709081E+01  0.50528868708E+02  0.30000026925E+02 0.  0.
         12    1    1    2    0    0 -0.39972166297E+02  0.41381931891E+01 -0.61859709081E+01  0.40659131292E+02  0.00000000000E+00 0. -1.
         11    1    3    3    0    0  0.83702475012E+01  0.22322276599E+01 -0.27825618298E+01  0.90987105765E+01  0.51100000000E-03 0.  1.
        -11    1    3    3    0    0  0.32009901858E+02 -0.44547321697E+01  0.69847732813E-01  0.32318467393E+02  0.51100000000E-03 0. -1.
         12    1    3    3    0    0 -0.40798306238E+00 -0.19156886793E+01  0.88986850051E+01  0.91116907385E+01  0.00000000000E+00 0. -1.
</event>
<event>
 7    1  0.5121289E-013  0.5052886E+02  0.7816164E-02  0.1300439E+00
        -11   -1    0    0    0    0  0.00000000000E+00  0.00000000000E+00  0.45593999997E+02  0.45594000000E+02  0.51100000000E-03 0. -1.
         11   -1    0    0    0    0 -0.00000000000E+00 -0.00000000000E+00 -0.45593999997E+02  0.45594000000E+02  0.51100000000E-03 0.  1.
    9900012    2    1    2    0    0 -0.38401505415E+02  0.13279408790E+02 -0.14653322316E+01  0.50528861857E+02  0.30000006101E+02 0.  0.
         12    1    1    2    0    0  0.38401505415E+02 -0.13279408790E+02  0.14653322316E+01  0.40659138143E+02  0.00000000000E+00 0. -1.
         11    1    3    3    0    0 -0.84827989893E+01 -0.48138008437E+01  0.47423332595E+01  0.10845288482E+02  0.51100000000E-03 0. -1.
        -11    1    3    3    0    0 -0.43440478333E+01  0.22654785479E+01  0.55389706062E+01  0.73948184741E+01  0.51100000000E-03 0.  1.
        -12    1    3    3    0    0 -0.25574658593E+02  0.15827731085E+02 -0.11746636097E+02  0.32288754901E+02  0.00000000000E+00 0.  1.
</event>
<event>
 7    1  0.5121289E-013  0.5052886E+02  0.7816164E-02  0.1300439E+00
        -11   -1    0    0    0    0  0.00000000000E+00  0.00000000000E+00  0.45593999997E+02  0.45594000000E+02  0.51100000000E-03 0.  1.
         11   -1    0    0    0    0 -0.00000000000E+00 -0.00000000000E+00 -0.45593999997E+02  0.45594000000E+02  0.51100000000E-03 0. -1.
    9900012    2    1    2    0    0 -0.12689628576E+02  0.12015615043E+02  0.36711908401E+02  0.50528857157E+02  0.29999991816E+02 0.  0.
         12    1    1    2    0    0  0.12689628576E+02 -0.12015615043E+02 -0.36711908401E+02  0.40659142843E+02  0.00000000000E+00 0. -1.
         11    1    3    3    0    0  0.27663372170E+01  0.58078258439E+01  0.11090217062E+02  0.12820935121E+02  0.51100000000E-03 0. -1.
        -11    1    3    3    0    0 -0.48434457000E+01  0.54861460326E+01  0.26053821357E+02  0.27062120613E+02  0.51100000000E-03 0.  1.
        -12    1    3    3    0    0 -0.10612520093E+02  0.72164316667E+00 -0.43213001814E+00  0.10645801423E+02  0.00000000000E+00 0.  1.
</event>
<event>
 7    1  0.5121289E-013  0.5052886E+02  0.7816164E-02  0.1300439E+00
        -11   -1    0    0    0    0  0.00000000000E+00  0.00000000000E+00  0.45593999997E+02  0.45594000000E+02  0.51100000000E-03 0. -1.
         11   -1    0    0    0    0 -0.00000000000E+00 -0.00000000000E+00 -0.45593999997E+02  0.45594000000E+02  0.51100000000E-03 0.  1.
    9900012    2    1    2    0    0  0.15873336592E+02 -0.18272380359E+02 -0.32669910063E+02  0.50528859305E+02  0.29999998344E+02 0.  0.
         12    1    1    2    0    0 -0.15873336592E+02  0.18272380359E+02  0.32669910063E+02  0.40659140695E+02  0.00000000000E+00 0. -1.
         11    1    3    3    0    0  0.40352926262E+01  0.46472351693E+01  0.13951290971E+01  0.63108451698E+01  0.51100000000E-03 0. -1.
        -11    1    3    3    0    0  0.64338598985E+01 -0.41871179270E+01 -0.48006426453E+01  0.90538765066E+01  0.51100000000E-03 0.  1.
         12    1    3    3    0    0  0.54041840670E+01 -0.18732497601E+02 -0.29264396515E+02  0.35164137629E+02  0.00000000000E+00 0. -1.
</event>
<event>
 7    1  0.5121289E-013  0.5052886E+02  0.7816164E-02  0.1300439E+00
        -11   -1    0    0    0    0  0.00000000000E+00  0.00000000000E+00  0.45593999997E+02  0.45594000000E+02  0.51100000000E-03 0.  1.
         11   -1    0    0    0    0 -0.00000000000E+00 -0.00000000000E+00 -0.45593999997E+02  0.45594000000E+02  0.51100000000E-03 0. -1.
    9900012    2    1    2    0    0  0.20277261528E+02 -0.32249341870E+02  0.14211901507E+02  0.50528861660E+02  0.30000005501E+02 0.  0.
         12    1    1    2    0    0 -0.20277261528E+02  0.32249341870E+02 -0.14211901507E+02  0.40659138340E+02  0.00000000000E+00 0. -1.
         11    1    3    3    0    0  0.79969083195E+01 -0.55648160111E+00  0.44549301906E+01  0.91709660182E+01  0.51100000000E-03 0. -1.
        -11    1    3    3    0    0  0.45921793046E+01 -0.23779340638E+02  0.15664129159E+02  0.28842851705E+02  0.51100000000E-03 0.  1.
         12    1    3    3    0    0  0.76881739038E+01 -0.79135196317E+01 -0.59071578431E+01  0.12515043936E+02  0.00000000000E+00 0. -1.
</event>
<event>
 7    1  0.5121289E-013  0.5052886E+02  0.7816164E-02  0.1300439E+00
        -11   -1    0    0    0    0  0.00000000000E+00  0.00000000000E+00  0.45593999997E+02  0.45594000000E+02  0.51100000000E-03 0.  1.
         11   -1    0    0    0    0 -0.00000000000E+00 -0.00000000000E+00 -0.45593999997E+02  0.45594000000E+02  0.51100000000E-03 0. -1.
    9900012    2    1    2    0    0  0.14009249298E+02  0.20690897921E+02  0.32074807496E+02  0.50528860824E+02  0.30000002961E+02 0.  0.
         12    1    1    2    0    0 -0.14009249298E+02 -0.20690897921E+02 -0.32074807496E+02  0.40659139176E+02  0.00000000000E+00 0. -1.
         11    1    3    3    0    0 -0.73533627688E+01  0.30072307215E+01  0.34485374146E+01  0.86607038503E+01  0.51100000000E-03 0. -1.
        -11    1    3    3    0    0  0.10121172390E+02  0.90275502533E+01  0.52901586966E+01  0.14557492003E+02  0.51100000000E-03 0.  1.
         12    1    3    3    0    0  0.11241439676E+02  0.86561169462E+01  0.23336111384E+02  0.27310664970E+02  0.00000000000E+00 0. -1.
</event>
<event>
 7    1  0.5121289E-013  0.5052885E+02  0.7816164E-02  0.1300439E+00
        -11   -1    0    0    0    0  0.00000000000E+00  0.00000000000E+00  0.45593999997E+02  0.45594000000E+02  0.51100000000E-03 0. -1.
         11   -1    0    0    0    0 -0.00000000000E+00 -0.00000000000E+00 -0.45593999997E+02  0.45594000000E+02  0.51100000000E-03 0.  1.
    9900012    2    1    2    0    0  0.39239262282E+02 -0.31394971808E+01 -0.10177918046E+02  0.50528853886E+02  0.29999981872E+02 0.  0.
         12    1    1    2    0    0 -0.39239262282E+02  0.31394971808E+01  0.10177918046E+02  0.40659146114E+02  0.00000000000E+00 0. -1.
         11    1    3    3    0    0  0.22041102375E+02  0.11377937930E+02  0.40269505915E+00  0.24807858210E+02  0.51100000000E-03 0. -1.
        -11    1    3    3    0    0  0.48556828087E+01 -0.90671435890E+00 -0.33874800677E+01  0.59895582423E+01  0.51100000000E-03 0.  1.
         12    1    3    3    0    0  0.12342477098E+02 -0.13610720751E+02 -0.71931330377E+01  0.19731437433E+02  0.00000000000E+00 0. -1.
</event>
<event>
 7    1  0.5121289E-013  0.5052885E+02  0.7816164E-02  0.1300439E+00
        -11   -1    0    0    0    0  0.00000000000E+00  0.00000000000E+00  0.45593999997E+02  0.45594000000E+02  0.51100000000E-03 0.  1.
         11   -1    0    0    0    0 -0.00000000000E+00 -0.00000000000E+00 -0.45593999997E+02  0.45594000000E+02  0.51100000000E-03 0. -1.
    9900012    2    1    2    0    0 -0.13562212176E+02  0.23719541206E+02  0.30110065701E+02  0.50528852313E+02  0.29999977091E+02 0.  0.
         12    1    1    2    0    0  0.13562212176E+02 -0.23719541206E+02 -0.30110065701E+02  0.40659147687E+02  0.00000000000E+00 0. -1.
         11    1    3    3    0    0 -0.70246988840E+00  0.13851368174E+02  0.23970745954E+02  0.27693871634E+02  0.51100000000E-03 0. -1.
        -11    1    3    3    0    0 -0.94978359377E+01 -0.87596697739E+00  0.65484329673E+01  0.11569709600E+02  0.51100000000E-03 0.  1.
         12    1    3    3    0    0 -0.33619063504E+01  0.10744140009E+02 -0.40911322084E+00  0.11265271079E+02  0.00000000000E+00 0. -1.
</event>
<event>
 7    1  0.5121289E-013  0.5052886E+02  0.7816164E-02  0.1300439E+00
        -11   -1    0    0    0    0  0.00000000000E+00  0.00000000000E+00  0.45593999997E+02  0.45594000000E+02  0.51100000000E-03 0.  1.
         11   -1    0    0    0    0 -0.00000000000E+00 -0.00000000000E+00 -0.45593999997E+02  0.45594000000E+02  0.51100000000E-03 0. -1.
    9900012    2    1    2    0    0  0.14348578199E+02  0.37886733575E+02  0.34466053303E+01  0.50528863688E+02  0.30000011666E+02 0.  0.
         12    1    1    2    0    0 -0.14348578199E+02 -0.37886733575E+02 -0.34466053303E+01  0.40659136312E+02  0.00000000000E+00 0. -1.
         11    1    3    3    0    0  0.95218394976E+01  0.17701503858E+01  0.10296124823E+01  0.97395565572E+01  0.51100000000E-03 0. -1.
        -11    1    3    3    0    0 -0.37504391562E+01  0.24658367572E+01 -0.33319606096E+01  0.55900005852E+01  0.51100000000E-03 0.  1.
        -12    1    3    3    0    0  0.85771778578E+01  0.33650746432E+02  0.57489534576E+01  0.35199306546E+02  0.00000000000E+00 0.  1.
</event>
<event>
 7    1  0.5121289E-013  0.5052887E+02  0.7816164E-02  0.1300439E+00
        -11   -1    0    0    0    0  0.00000000000E+00  0.00000000000E+00  0.45593999997E+02  0.45594000000E+02  0.51100000000E-03 0. -1.
         11   -1    0    0    0    0 -0.00000000000E+00 -0.00000000000E+00 -0.45593999997E+02  0.45594000000E+02  0.51100000000E-03 0.  1.
    9900012    2    1    2    0    0 -0.15740071887E+02  0.35334700662E+02  0.12524945648E+02  0.50528865757E+02  0.30000017955E+02 0.  0.
         12    1    1    2    0    0  0.15740071887E+02 -0.35334700662E+02 -0.12524945648E+02  0.40659134243E+02  0.00000000000E+00 0. -1.
         11    1    3    3    0    0 -0.61592060969E+01  0.20641507661E+02  0.17645179509E+02  0.27845287185E+02  0.51100000000E-03 0. -1.
        -11    1    3    3    0    0 -0.11911780321E+02  0.73101306176E+01 -0.12609958389E+01  0.14032769892E+02  0.51100000000E-03 0.  1.
         12    1    3    3    0    0  0.23309145310E+01  0.73830623832E+01 -0.38592380218E+01  0.86508086798E+01  0.00000000000E+00 0. -1.
</event>
<event>
 7    1  0.5121289E-013  0.5052886E+02  0.7816164E-02  0.1300439E+00
        -11   -1    0    0    0    0  0.00000000000E+00  0.00000000000E+00  0.45593999997E+02  0.45594000000E+02  0.51100000000E-03 0.  1.
         11   -1    0    0    0    0 -0.00000000000E+00 -0.00000000000E+00 -0.45593999997E+02  0.45594000000E+02  0.51100000000E-03 0. -1.
    9900012    2    1    2    0    0 -0.12075964856E+02 -0.15051128420E+02  0.35788271013E+02  0.50528859133E+02  0.29999997821E+02 0.  0.
         12    1    1    2    0    0  0.12075964856E+02  0.15051128420E+02 -0.35788271013E+02  0.40659140867E+02  0.00000000000E+00 0. -1.
         11    1    3    3    0    0  0.52952040195E+01 -0.60966996494E+01  0.19874998674E+02  0.21452843746E+02  0.51100000000E-03 0. -1.
        -11    1    3    3    0    0 -0.78661506487E+01 -0.97760062262E+01  0.14903414621E+02  0.19482258375E+02  0.51100000000E-03 0.  1.
        -12    1    3    3    0    0 -0.95050182266E+01  0.82157745600E+00  0.10098577186E+01  0.95937570125E+01  0.00000000000E+00 0.  1.
</event>
<event>
 7    1  0.5121289E-013  0.5052886E+02  0.7816164E-02  0.1300439E+00
        -11   -1    0    0    0    0  0.00000000000E+00  0.00000000000E+00  0.45593999997E+02  0.45594000000E+02  0.51100000000E-03 0.  1.
         11   -1    0    0    0    0 -0.00000000000E+00 -0.00000000000E+00 -0.45593999997E+02  0.45594000000E+02  0.51100000000E-03 0. -1.
    9900012    2    1    2    0    0  0.32232467507E+02 -0.21611382834E+02  0.12131855661E+02  0.50528858945E+02  0.29999997249E+02 0.  0.
         12    1    1    2    0    0 -0.32232467507E+02  0.21611382834E+02 -0.12131855661E+02  0.40659141055E+02  0.00000000000E+00 0. -1.
         11    1    3    3    0    0  0.13248705096E+02  0.29689062501E+01 -0.98046120030E+00  0.13612637344E+02  0.51100000000E-03 0. -1.
        -11    1    3    3    0    0  0.80478025563E+01 -0.77247449415E+00  0.49277680950E+01  0.94681963166E+01  0.51100000000E-03 0.  1.
        -12    1    3    3    0    0  0.10935959855E+02 -0.23807814590E+02  0.81845487659E+01  0.27448025284E+02  0.00000000000E+00 0.  1.
</event>
<event>
 7    1  0.5121289E-013  0.5052885E+02  0.7816164E-02  0.1300439E+00
        -11   -1    0    0    0    0  0.00000000000E+00  0.00000000000E+00  0.45593999997E+02  0.45594000000E+02  0.51100000000E-03 0.  1.
         11   -1    0    0    0    0 -0.00000000000E+00 -0.00000000000E+00 -0.45593999997E+02  0.45594000000E+02  0.51100000000E-03 0. -1.
    9900012    2    1    2    0    0 -0.82276810106E+00  0.11094448935E+02  0.39107576055E+02  0.50528852820E+02  0.29999978632E+02 0.  0.
         12    1    1    2    0    0  0.82276810106E+00 -0.11094448935E+02 -0.39107576055E+02  0.40659147180E+02  0.00000000000E+00 0. -1.
         11    1    3    3    0    0 -0.20593694191E+01 -0.59812243019E+01  0.57889046434E+01  0.85748156706E+01  0.51100000000E-03 0. -1.
        -11    1    3    3    0    0  0.26877179704E+01 -0.15612312350E+01  0.16557525687E+02  0.16846748291E+02  0.51100000000E-03 0.  1.
         12    1    3    3    0    0 -0.14511166523E+01  0.18636904472E+02  0.16761145725E+02  0.25107288858E+02  0.00000000000E+00 0. -1.
</event>
<event>
 7    1  0.5121289E-013  0.5052883E+02  0.7816164E-02  0.1300439E+00
        -11   -1    0    0    0    0  0.00000000000E+00  0.00000000000E+00  0.45593999997E+02  0.45594000000E+02  0.51100000000E-03 0.  1.
         11   -1    0    0    0    0 -0.00000000000E+00 -0.00000000000E+00 -0.45593999997E+02  0.45594000000E+02  0.51100000000E-03 0. -1.
    9900012    2    1    2    0    0  0.10443222852E+02 -0.27196919735E+02  0.28362563249E+02  0.50528827104E+02  0.29999900464E+02 0.  0.
         12    1    1    2    0    0 -0.10443222852E+02  0.27196919735E+02 -0.28362563249E+02  0.40659172896E+02  0.00000000000E+00 0. -1.
         11    1    3    3    0    0  0.11244672172E+02 -0.27293003447E+02  0.15455394502E+02  0.33319962618E+02  0.51100000000E-03 0. -1.
        -11    1    3    3    0    0  0.47551811435E+01  0.24475556268E+01  0.61147520373E+01  0.81235748900E+01  0.51100000000E-03 0.  1.
        -12    1    3    3    0    0 -0.55566304642E+01 -0.23514719147E+01  0.67924167093E+01  0.90852895954E+01  0.00000000000E+00 0.  1.
</event>
<event>
 7    1  0.5121289E-013  0.5052886E+02  0.7816164E-02  0.1300439E+00
        -11   -1    0    0    0    0  0.00000000000E+00  0.00000000000E+00  0.45593999997E+02  0.45594000000E+02  0.51100000000E-03 0. -1.
         11   -1    0    0    0    0 -0.00000000000E+00 -0.00000000000E+00 -0.45593999997E+02  0.45594000000E+02  0.51100000000E-03 0.  1.
    9900012    2    1    2    0    0  0.22478285178E+02 -0.88493938542E+01 -0.32704438226E+02  0.50528863809E+02  0.30000012034E+02 0.  0.
         12    1    1    2    0    0 -0.22478285178E+02  0.88493938542E+01  0.32704438226E+02  0.40659136191E+02  0.00000000000E+00 0. -1.
         11    1    3    3    0    0  0.10093024052E+02 -0.10275928938E+02  0.21147220496E+00  0.14405157785E+02  0.51100000000E-03 0. -1.
        -11    1    3    3    0    0 -0.74429964808E+00 -0.10259517468E+01 -0.13685713241E+01  0.18653543050E+01  0.51100000000E-03 0.  1.
        -12    1    3    3    0    0  0.13129560774E+02  0.24524868306E+01 -0.31547339107E+02  0.34258351719E+02  0.00000000000E+00 0.  1.
</event>
<event>
 7    1  0.5121289E-013  0.5052888E+02  0.7816164E-02  0.1300439E+00
        -11   -1    0    0    0    0  0.00000000000E+00  0.00000000000E+00  0.45593999997E+02  0.45594000000E+02  0.51100000000E-03 0.  1.
         11   -1    0    0    0    0 -0.00000000000E+00 -0.00000000000E+00 -0.45593999997E+02  0.45594000000E+02  0.51100000000E-03 0. -1.
    9900012    2    1    2    0    0 -0.83431981397E+01  0.35646969028E+02  0.17687537982E+02  0.50528876105E+02  0.30000049408E+02 0.  0.
         12    1    1    2    0    0  0.83431981397E+01 -0.35646969028E+02 -0.17687537982E+02  0.40659123895E+02  0.00000000000E+00 0. -1.
         11    1    3    3    0    0 -0.41048918332E+01  0.55777503875E+01 -0.40269105654E+01  0.80110826553E+01  0.51100000000E-03 0. -1.
        -11    1    3    3    0    0 -0.31149045479E+01  0.11383475005E+02 -0.23461101018E+01  0.12032886869E+02  0.51100000000E-03 0.  1.
         12    1    3    3    0    0 -0.11234017587E+01  0.18685743636E+02  0.24060558649E+02  0.30484906581E+02  0.00000000000E+00 0. -1.
</event>
<event>
 7    1  0.5121289E-013  0.5052886E+02  0.7816164E-02  0.1300439E+00
        -11   -1    0    0    0    0  0.00000000000E+00  0.00000000000E+00  0.45593999997E+02  0.45594000000E+02  0.51100000000E-03 0.  1.
         11   -1    0    0    0    0 -0.00000000000E+00 -0.00000000000E+00 -0.45593999997E+02  0.45594000000E+02  0.51100000000E-03 0. -1.
    9900012    2    1    2    0    0 -0.50255333807E+01  0.27883344267E+02 -0.29162112325E+02  0.50528859963E+02  0.30000000344E+02 0.  0.
         12    1    1    2    0    0  0.50255333807E+01 -0.27883344267E+02  0.29162112325E+02  0.40659140037E+02  0.00000000000E+00 0. -1.
         11    1    3    3    0    0 -0.39255676261E+01  0.66843064726E+01  0.40337259919E+01  0.87384769752E+01  0.51100000000E-03 0. -1.
        -11    1    3    3    0    0 -0.19989098104E+01  0.14934058714E+02 -0.10854702402E+02  0.18570038088E+02  0.51100000000E-03 0.  1.
         12    1    3    3    0    0  0.89894405576E+00  0.62649790809E+01 -0.22341135915E+02  0.23220344900E+02  0.00000000000E+00 0. -1.
</event>
<event>
 7    1  0.5121289E-013  0.5052887E+02  0.7816164E-02  0.1300439E+00
        -11   -1    0    0    0    0  0.00000000000E+00  0.00000000000E+00  0.45593999997E+02  0.45594000000E+02  0.51100000000E-03 0.  1.
         11   -1    0    0    0    0 -0.00000000000E+00 -0.00000000000E+00 -0.45593999997E+02  0.45594000000E+02  0.51100000000E-03 0. -1.
    9900012    2    1    2    0    0  0.83570018151E+01 -0.12084242051E+02  0.37911694218E+02  0.50528868876E+02  0.30000027436E+02 0.  0.
         12    1    1    2    0    0 -0.83570018151E+01  0.12084242051E+02 -0.37911694218E+02  0.40659131124E+02  0.00000000000E+00 0. -1.
         11    1    3    3    0    0 -0.28980726666E+01 -0.10728268767E+02  0.26688147992E+02  0.28909372519E+02  0.51100000000E-03 0. -1.
        -11    1    3    3    0    0  0.24183444540E+01 -0.50574194903E+01 -0.13941934746E+01  0.57766476009E+01  0.51100000000E-03 0.  1.
         12    1    3    3    0    0  0.88367300277E+01  0.37014462056E+01  0.12617739700E+02  0.15842848757E+02  0.00000000000E+00 0. -1.
</event>
<event>
 7    1  0.5121289E-013  0.5052886E+02  0.7816164E-02  0.1300439E+00
        -11   -1    0    0    0    0  0.00000000000E+00  0.00000000000E+00  0.45593999997E+02  0.45594000000E+02  0.51100000000E-03 0. -1.
         11   -1    0    0    0    0 -0.00000000000E+00 -0.00000000000E+00 -0.45593999997E+02  0.45594000000E+02  0.51100000000E-03 0.  1.
    9900012    2    1    2    0    0  0.20494911151E+02 -0.23559417823E+02 -0.26039931826E+02  0.50528860797E+02  0.30000002879E+02 0.  0.
         12    1    1    2    0    0 -0.20494911151E+02  0.23559417823E+02  0.26039931826E+02  0.40659139203E+02  0.00000000000E+00 0. -1.
         11    1    3    3    0    0  0.34664512532E+01 -0.21082317657E+01 -0.28876418249E+00  0.40674697888E+01  0.51100000000E-03 0.  1.
        -11    1    3    3    0    0  0.18331527185E+02 -0.14272933956E+02 -0.40711567735E+01  0.23586772785E+02  0.51100000000E-03 0. -1.
        -12    1    3    3    0    0 -0.13030672875E+01 -0.71782521007E+01 -0.21680010870E+02  0.22874618224E+02  0.00000000000E+00 0.  1.
</event>
<event>
 7    1  0.5121289E-013  0.5052886E+02  0.7816164E-02  0.1300439E+00
        -11   -1    0    0    0    0  0.00000000000E+00  0.00000000000E+00  0.45593999997E+02  0.45594000000E+02  0.51100000000E-03 0.  1.
         11   -1    0    0    0    0 -0.00000000000E+00 -0.00000000000E+00 -0.45593999997E+02  0.45594000000E+02  0.51100000000E-03 0. -1.
    9900012    2    1    2    0    0 -0.25020243461E+01 -0.35839947405E+02  0.19036906689E+02  0.50528858689E+02  0.29999996472E+02 0.  0.
         12    1    1    2    0    0  0.25020243461E+01  0.35839947405E+02 -0.19036906689E+02  0.40659141311E+02  0.00000000000E+00 0. -1.
         11    1    3    3    0    0  0.18780782707E+01  0.16457556811E+01  0.19962559222E+01  0.31969872882E+01  0.51100000000E-03 0. -1.
        -11    1    3    3    0    0  0.65938025037E+01 -0.19215624712E+01  0.16985071987E+01  0.70749954596E+01  0.51100000000E-03 0.  1.
        -12    1    3    3    0    0 -0.10973905120E+02 -0.35564140615E+02  0.15342143568E+02  0.40256875941E+02  0.00000000000E+00 0.  1.
</event>
<event>
 7    1  0.5121289E-013  0.5052888E+02  0.7816164E-02  0.1300439E+00
        -11   -1    0    0    0    0  0.00000000000E+00  0.00000000000E+00  0.45593999997E+02  0.45594000000E+02  0.51100000000E-03 0.  1.
         11   -1    0    0    0    0 -0.00000000000E+00 -0.00000000000E+00 -0.45593999997E+02  0.45594000000E+02  0.51100000000E-03 0. -1.
    9900012    2    1    2    0    0  0.25544330301E+02  0.16498479771E+02  0.26989846094E+02  0.50528875102E+02  0.30000046361E+02 0.  0.
         12    1    1    2    0    0 -0.25544330301E+02 -0.16498479771E+02 -0.26989846094E+02  0.40659124898E+02  0.00000000000E+00 0. -1.
         11    1    3    3    0    0  0.25054304083E+01  0.30660992690E+01 -0.42559822320E+01  0.58130483637E+01  0.51100000000E-03 0. -1.
        -11    1    3    3    0    0 -0.58499747756E+00  0.37168213597E+01 -0.68561792145E+00  0.38245333394E+01  0.51100000000E-03 0.  1.
        -12    1    3    3    0    0  0.23623897371E+02  0.97155591422E+01  0.31931446247E+02  0.40891293399E+02  0.00000000000E+00 0.  1.
</event>
<event>
 7    1  0.5121289E-013  0.5052885E+02  0.7816164E-02  0.1300439E+00
        -11   -1    0    0    0    0  0.00000000000E+00  0.00000000000E+00  0.45593999997E+02  0.45594000000E+02  0.51100000000E-03 0.  1.
         11   -1    0    0    0    0 -0.00000000000E+00 -0.00000000000E+00 -0.45593999997E+02  0.45594000000E+02  0.51100000000E-03 0. -1.
    9900012    2    1    2    0    0 -0.90826644171E+01 -0.23917151428E+02  0.31601284101E+02  0.50528854876E+02  0.29999984882E+02 0.  0.
         12    1    1    2    0    0  0.90826644171E+01  0.23917151428E+02 -0.31601284101E+02  0.40659145124E+02  0.00000000000E+00 0. -1.
         11    1    3    3    0    0 -0.43632830067E+01 -0.45226276151E+01  0.34877658394E+01  0.71872741671E+01  0.51100000000E-03 0. -1.
        -11    1    3    3    0    0 -0.96095025199E+01 -0.15235692309E+02  0.40851018260E+01  0.18470433563E+02  0.51100000000E-03 0.  1.
         12    1    3    3    0    0  0.48901211095E+01 -0.41588315033E+01  0.24028416436E+02  0.24871147146E+02  0.00000000000E+00 0. -1.
</event>
<event>
 7    1  0.5121289E-013  0.5052885E+02  0.7816164E-02  0.1300439E+00
        -11   -1    0    0    0    0  0.00000000000E+00  0.00000000000E+00  0.45593999997E+02  0.45594000000E+02  0.51100000000E-03 0. -1.
         11   -1    0    0    0    0 -0.00000000000E+00 -0.00000000000E+00 -0.45593999997E+02  0.45594000000E+02  0.51100000000E-03 0.  1.
    9900012    2    1    2    0    0 -0.14787739950E+02 -0.29988003766E+02 -0.23134582531E+02  0.50528849350E+02  0.29999968083E+02 0.  0.
         12    1    1    2    0    0  0.14787739950E+02  0.29988003766E+02  0.23134582531E+02  0.40659150650E+02  0.00000000000E+00 0. -1.
         11    1    3    3    0    0 -0.85003637173E+01 -0.26893328531E+01 -0.97019151554E+01  0.13176336838E+02  0.51100000000E-03 0. -1.
        -11    1    3    3    0    0 -0.93338157839E+01 -0.95188422954E+01 -0.13963671410E+02  0.19305765855E+02  0.51100000000E-03 0.  1.
         12    1    3    3    0    0  0.30464395515E+01 -0.17779828618E+02  0.53100403432E+00  0.18046746657E+02  0.00000000000E+00 0. -1.
</event>
<event>
 7    1  0.5121289E-013  0.5052886E+02  0.7816164E-02  0.1300439E+00
        -11   -1    0    0    0    0  0.00000000000E+00  0.00000000000E+00  0.45593999997E+02  0.45594000000E+02  0.51100000000E-03 0.  1.
         11   -1    0    0    0    0 -0.00000000000E+00 -0.00000000000E+00 -0.45593999997E+02  0.45594000000E+02  0.51100000000E-03 0. -1.
    9900012    2    1    2    0    0  0.38961171738E+02 -0.10722987603E+00 -0.11626756669E+02  0.50528857460E+02  0.29999992736E+02 0.  0.
         12    1    1    2    0    0 -0.38961171738E+02  0.10722987603E+00  0.11626756669E+02  0.40659142540E+02  0.00000000000E+00 0. -1.
         11    1    3    3    0    0  0.11184003424E+02  0.56837523020E+01 -0.80102380645E+01  0.14884585548E+02  0.51100000000E-03 0. -1.
        -11    1    3    3    0    0  0.70149878696E+01  0.21762798879E+01 -0.10092475947E+02  0.12482160068E+02  0.51100000000E-03 0.  1.
        -12    1    3    3    0    0  0.20762180444E+02 -0.79672620660E+01  0.64759573419E+01  0.23162111845E+02  0.00000000000E+00 0.  1.
</event>
<event>
 7    1  0.5121289E-013  0.5052886E+02  0.7816164E-02  0.1300439E+00
        -11   -1    0    0    0    0  0.00000000000E+00  0.00000000000E+00  0.45593999997E+02  0.45594000000E+02  0.51100000000E-03 0. -1.
         11   -1    0    0    0    0 -0.00000000000E+00 -0.00000000000E+00 -0.45593999997E+02  0.45594000000E+02  0.51100000000E-03 0.  1.
    9900012    2    1    2    0    0 -0.37550696389E+02 -0.15571468345E+02  0.80004571721E+00  0.50528862050E+02  0.30000006687E+02 0.  0.
         12    1    1    2    0    0  0.37550696389E+02  0.15571468345E+02 -0.80004571721E+00  0.40659137950E+02  0.00000000000E+00 0. -1.
         11    1    3    3    0    0 -0.18959360283E+02 -0.37071530698E+01 -0.32285753751E+01  0.19586322407E+02  0.51100000000E-03 0.  1.
        -11    1    3    3    0    0 -0.53031314947E+00 -0.54842529872E+01 -0.69464860832E+01  0.88663370131E+01  0.51100000000E-03 0. -1.
         12    1    3    3    0    0 -0.18061022957E+02 -0.63800622877E+01  0.10975107176E+02  0.22076202630E+02  0.00000000000E+00 0. -1.
</event>
<event>
 7    1  0.5121289E-013  0.5052886E+02  0.7816164E-02  0.1300439E+00
        -11   -1    0    0    0    0  0.00000000000E+00  0.00000000000E+00  0.45593999997E+02  0.45594000000E+02  0.51100000000E-03 0. -1.
         11   -1    0    0    0    0 -0.00000000000E+00 -0.00000000000E+00 -0.45593999997E+02  0.45594000000E+02  0.51100000000E-03 0.  1.
    9900012    2    1    2    0    0 -0.15903848815E+02  0.16779345461E+02 -0.33446776858E+02  0.50528859288E+02  0.29999998292E+02 0.  0.
         12    1    1    2    0    0  0.15903848815E+02 -0.16779345461E+02  0.33446776858E+02  0.40659140712E+02  0.00000000000E+00 0. -1.
         11    1    3    3    0    0 -0.19501435948E+01 -0.44564752654E+01 -0.13994204470E+01  0.50617792998E+01  0.51100000000E-03 0. -1.
        -11    1    3    3    0    0 -0.10282252332E+02  0.20726425095E+01 -0.38419439734E+01  0.11170545812E+02  0.51100000000E-03 0.  1.
        -12    1    3    3    0    0 -0.36714528881E+01  0.19163178217E+02 -0.28205412438E+02  0.34296534176E+02  0.00000000000E+00 0.  1.
</event>
<event>
 7    1  0.5121289E-013  0.5052884E+02  0.7816164E-02  0.1300439E+00
        -11   -1    0    0    0    0  0.00000000000E+00  0.00000000000E+00  0.45593999997E+02  0.45594000000E+02  0.51100000000E-03 0.  1.
         11   -1    0    0    0    0 -0.00000000000E+00 -0.00000000000E+00 -0.45593999997E+02  0.45594000000E+02  0.51100000000E-03 0. -1.
    9900012    2    1    2    0    0  0.15599338382E+02  0.18573654923E+01  0.37501705183E+02  0.50528842899E+02  0.29999948474E+02 0.  0.
         12    1    1    2    0    0 -0.15599338382E+02 -0.18573654923E+01 -0.37501705183E+02  0.40659157101E+02  0.00000000000E+00 0. -1.
         11    1    3    3    0    0  0.62012166121E+01 -0.44913978700E+01  0.14753838539E+02  0.16622379318E+02  0.51100000000E-03 0. -1.
        -11    1    3    3    0    0  0.69496330988E+01 -0.74607700434E+01  0.52090724346E+01  0.11449669241E+02  0.51100000000E-03 0.  1.
        -12    1    3    3    0    0  0.24484886714E+01  0.13809533406E+02  0.17538794210E+02  0.22456794339E+02  0.00000000000E+00 0.  1.
</event>
<event>
 7    1  0.5121289E-013  0.5052886E+02  0.7816164E-02  0.1300439E+00
        -11   -1    0    0    0    0  0.00000000000E+00  0.00000000000E+00  0.45593999997E+02  0.45594000000E+02  0.51100000000E-03 0. -1.
         11   -1    0    0    0    0 -0.00000000000E+00 -0.00000000000E+00 -0.45593999997E+02  0.45594000000E+02  0.51100000000E-03 0.  1.
    9900012    2    1    2    0    0 -0.13404829239E+02 -0.95882110506E+01 -0.37169107332E+02  0.50528858617E+02  0.29999996254E+02 0.  0.
         12    1    1    2    0    0  0.13404829239E+02  0.95882110506E+01  0.37169107332E+02  0.40659141383E+02  0.00000000000E+00 0. -1.
         11    1    3    3    0    0 -0.18437039494E+01 -0.11656216902E+02 -0.83853091446E+01  0.14476879720E+02  0.51100000000E-03 0. -1.
        -11    1    3    3    0    0  0.39480364711E+01 -0.54602327449E+00 -0.13670375844E+02  0.14239533327E+02  0.51100000000E-03 0.  1.
         12    1    3    3    0    0 -0.15509161761E+02  0.26140291262E+01 -0.15113422344E+02  0.21812445570E+02  0.00000000000E+00 0. -1.
</event>
<event>
 7    1  0.5121289E-013  0.5052886E+02  0.7816164E-02  0.1300439E+00
        -11   -1    0    0    0    0  0.00000000000E+00  0.00000000000E+00  0.45593999997E+02  0.45594000000E+02  0.51100000000E-03 0.  1.
         11   -1    0    0    0    0 -0.00000000000E+00 -0.00000000000E+00 -0.45593999997E+02  0.45594000000E+02  0.51100000000E-03 0. -1.
    9900012    2    1    2    0    0 -0.68995144351E+01 -0.10764160630E+02  0.38596566648E+02  0.50528863136E+02  0.30000009989E+02 0.  0.
         12    1    1    2    0    0  0.68995144351E+01  0.10764160630E+02 -0.38596566648E+02  0.40659136864E+02  0.00000000000E+00 0. -1.
         11    1    3    3    0    0 -0.54037196853E+01 -0.34227210351E+01  0.54462425900E+00  0.64196434142E+01  0.51100000000E-03 0. -1.
        -11    1    3    3    0    0 -0.66179894996E+01 -0.57546120474E+01  0.40026452213E+01  0.96402548650E+01  0.51100000000E-03 0.  1.
        -12    1    3    3    0    0  0.51221947497E+01 -0.15868275472E+01  0.34049297168E+02  0.34468964857E+02  0.00000000000E+00 0.  1.
</event>
<event>
 7    1  0.5121289E-013  0.5052885E+02  0.7816164E-02  0.1300439E+00
        -11   -1    0    0    0    0  0.00000000000E+00  0.00000000000E+00  0.45593999997E+02  0.45594000000E+02  0.51100000000E-03 0.  1.
         11   -1    0    0    0    0 -0.00000000000E+00 -0.00000000000E+00 -0.45593999997E+02  0.45594000000E+02  0.51100000000E-03 0. -1.
    9900012    2    1    2    0    0 -0.38470782900E+02  0.12715359671E+02  0.33889414103E+01  0.50528850570E+02  0.29999971792E+02 0.  0.
         12    1    1    2    0    0  0.38470782900E+02 -0.12715359671E+02 -0.33889414103E+01  0.40659149430E+02  0.00000000000E+00 0. -1.
         11    1    3    3    0    0 -0.12231992250E+02 -0.61520878402E+01  0.29205840803E+01  0.13999986816E+02  0.51100000000E-03 0. -1.
        -11    1    3    3    0    0 -0.15616538763E+02  0.10214668479E+01  0.15905766347E+01  0.15730531198E+02  0.51100000000E-03 0.  1.
         12    1    3    3    0    0 -0.10622251887E+02  0.17845980663E+02 -0.11222193048E+01  0.20798332557E+02  0.00000000000E+00 0. -1.
</event>
<event>
 7    1  0.5121289E-013  0.5052891E+02  0.7816164E-02  0.1300439E+00
        -11   -1    0    0    0    0  0.00000000000E+00  0.00000000000E+00  0.45593999997E+02  0.45594000000E+02  0.51100000000E-03 0. -1.
         11   -1    0    0    0    0 -0.00000000000E+00 -0.00000000000E+00 -0.45593999997E+02  0.45594000000E+02  0.51100000000E-03 0.  1.
    9900012    2    1    2    0    0  0.32706894606E+02  0.18427976783E+02  0.15615065394E+02  0.50528910606E+02  0.30000154278E+02 0.  0.
         12    1    1    2    0    0 -0.32706894606E+02 -0.18427976783E+02 -0.15615065394E+02  0.40659089394E+02  0.00000000000E+00 0. -1.
         11    1    3    3    0    0  0.12140865277E+02  0.11223698529E+00  0.42343568701E+01  0.12858576328E+02  0.51100000000E-03 0. -1.
        -11    1    3    3    0    0  0.92489512207E+01 -0.18910134582E+01 -0.35823240707E+01  0.10097132097E+02  0.51100000000E-03 0.  1.
        -12    1    3    3    0    0  0.11317078108E+02  0.20206753256E+02  0.14963032595E+02  0.27573202181E+02  0.00000000000E+00 0.  1.
</event>
<event>
 7    1  0.5121289E-013  0.5052886E+02  0.7816164E-02  0.1300439E+00
        -11   -1    0    0    0    0  0.00000000000E+00  0.00000000000E+00  0.45593999997E+02  0.45594000000E+02  0.51100000000E-03 0.  1.
         11   -1    0    0    0    0 -0.00000000000E+00 -0.00000000000E+00 -0.45593999997E+02  0.45594000000E+02  0.51100000000E-03 0. -1.
    9900012    2    1    2    0    0  0.76084163184E+01 -0.26732792141E+01  0.39851366849E+02  0.50528857604E+02  0.29999993173E+02 0.  0.
         12    1    1    2    0    0 -0.76084163184E+01  0.26732792141E+01 -0.39851366849E+02  0.40659142396E+02  0.00000000000E+00 0. -1.
         11    1    3    3    0    0 -0.55925591095E+01  0.67190415557E+00  0.45091221303E+01  0.72152862199E+01  0.51100000000E-03 0. -1.
        -11    1    3    3    0    0 -0.17630657535E+01  0.39561500412E+01  0.20676819158E+02  0.21125585785E+02  0.51100000000E-03 0.  1.
        -12    1    3    3    0    0  0.14964041181E+02 -0.73013334109E+01  0.14665425561E+02  0.22187985599E+02  0.00000000000E+00 0.  1.
</event>
<event>
 7    1  0.5121289E-013  0.5052882E+02  0.7816164E-02  0.1300439E+00
        -11   -1    0    0    0    0  0.00000000000E+00  0.00000000000E+00  0.45593999997E+02  0.45594000000E+02  0.51100000000E-03 0.  1.
         11   -1    0    0    0    0 -0.00000000000E+00 -0.00000000000E+00 -0.45593999997E+02  0.45594000000E+02  0.51100000000E-03 0. -1.
    9900012    2    1    2    0    0 -0.13740089422E+02 -0.95798061706E+01  0.37048699819E+02  0.50528820202E+02  0.29999879486E+02 0.  0.
         12    1    1    2    0    0  0.13740089422E+02  0.95798061706E+01 -0.37048699819E+02  0.40659179798E+02  0.00000000000E+00 0. -1.
         11    1    3    3    0    0 -0.33912531607E-01 -0.33625704475E+01  0.15209260690E+02  0.15576573470E+02  0.51100000000E-03 0. -1.
        -11    1    3    3    0    0 -0.61147831112E+01 -0.14558237428E+02  0.10523858174E+02  0.18975891037E+02  0.51100000000E-03 0.  1.
        -12    1    3    3    0    0 -0.75913937794E+01  0.83410017050E+01  0.11315580955E+02  0.15976355695E+02  0.00000000000E+00 0.  1.
</event>
<event>
 7    1  0.5121289E-013  0.5052884E+02  0.7816164E-02  0.1300439E+00
        -11   -1    0    0    0    0  0.00000000000E+00  0.00000000000E+00  0.45593999997E+02  0.45594000000E+02  0.51100000000E-03 0.  1.
         11   -1    0    0    0    0 -0.00000000000E+00 -0.00000000000E+00 -0.45593999997E+02  0.45594000000E+02  0.51100000000E-03 0. -1.
    9900012    2    1    2    0    0 -0.11197233265E+02 -0.16198931043E+02  0.35572238966E+02  0.50528836398E+02  0.29999928716E+02 0.  0.
         12    1    1    2    0    0  0.11197233265E+02  0.16198931043E+02 -0.35572238966E+02  0.40659163602E+02  0.00000000000E+00 0. -1.
         11    1    3    3    0    0 -0.22170747577E+01  0.11278920691E+01 -0.28694925981E+01  0.37975714651E+01  0.51100000000E-03 0. -1.
        -11    1    3    3    0    0 -0.63223973207E+01  0.88836654693E+00  0.18601583478E+02  0.19666743786E+02  0.51100000000E-03 0.  1.
        -12    1    3    3    0    0 -0.26577611861E+01 -0.18215189659E+02  0.19840148087E+02  0.27064521147E+02  0.00000000000E+00 0.  1.
</event>
<event>
 7    1  0.5121289E-013  0.5052886E+02  0.7816164E-02  0.1300439E+00
        -11   -1    0    0    0    0  0.00000000000E+00  0.00000000000E+00  0.45593999997E+02  0.45594000000E+02  0.51100000000E-03 0.  1.
         11   -1    0    0    0    0 -0.00000000000E+00 -0.00000000000E+00 -0.45593999997E+02  0.45594000000E+02  0.51100000000E-03 0. -1.
    9900012    2    1    2    0    0 -0.14631865313E+02  0.17339847187E+01  0.37895476947E+02  0.50528863775E+02  0.30000011929E+02 0.  0.
         12    1    1    2    0    0  0.14631865313E+02 -0.17339847187E+01 -0.37895476947E+02  0.40659136225E+02  0.00000000000E+00 0. -1.
         11    1    3    3    0    0 -0.16252640057E+01 -0.18647288990E+01  0.20404672843E+02  0.20554059722E+02  0.51100000000E-03 0. -1.
        -11    1    3    3    0    0 -0.95160575470E+01 -0.26474736400E+01  0.20069904419E+02  0.22368851816E+02  0.51100000000E-03 0.  1.
         12    1    3    3    0    0 -0.34905437607E+01  0.62461872577E+01 -0.25791003145E+01  0.76059522373E+01  0.00000000000E+00 0. -1.
</event>
<event>
 7    1  0.5121289E-013  0.5052886E+02  0.7816164E-02  0.1300439E+00
        -11   -1    0    0    0    0  0.00000000000E+00  0.00000000000E+00  0.45593999997E+02  0.45594000000E+02  0.51100000000E-03 0.  1.
         11   -1    0    0    0    0 -0.00000000000E+00 -0.00000000000E+00 -0.45593999997E+02  0.45594000000E+02  0.51100000000E-03 0. -1.
    9900012    2    1    2    0    0 -0.37600579767E+02 -0.15348581077E+02 -0.19449523812E+01  0.50528863515E+02  0.30000011141E+02 0.  0.
         12    1    1    2    0    0  0.37600579767E+02  0.15348581077E+02  0.19449523812E+01  0.40659136485E+02  0.00000000000E+00 0. -1.
         11    1    3    3    0    0  0.92190814493E+00 -0.22745635591E+01 -0.12587029438E+01  0.27582399051E+01  0.51100000000E-03 0. -1.
        -11    1    3    3    0    0 -0.63298878902E+01  0.72634933847E+01 -0.10384714043E+01  0.96904200100E+01  0.51100000000E-03 0.  1.
        -12    1    3    3    0    0 -0.32192600022E+02 -0.20337510903E+02  0.35222196685E+00  0.38080203600E+02  0.00000000000E+00 0.  1.
</event>
<event>
 7    1  0.5121289E-013  0.5052886E+02  0.7816164E-02  0.1300439E+00
        -11   -1    0    0    0    0  0.00000000000E+00  0.00000000000E+00  0.45593999997E+02  0.45594000000E+02  0.51100000000E-03 0.  1.
         11   -1    0    0    0    0 -0.00000000000E+00 -0.00000000000E+00 -0.45593999997E+02  0.45594000000E+02  0.51100000000E-03 0. -1.
    9900012    2    1    2    0    0 -0.87587110322E+01  0.75404448423E+01  0.38981948017E+02  0.50528860824E+02  0.30000002960E+02 0.  0.
         12    1    1    2    0    0  0.87587110322E+01 -0.75404448423E+01 -0.38981948017E+02  0.40659139176E+02  0.00000000000E+00 0. -1.
         11    1    3    3    0    0  0.47615841764E+01  0.74549960649E+01  0.15744234000E+02  0.18059085102E+02  0.51100000000E-03 0.  1.
        -11    1    3    3    0    0 -0.94658472403E+01  0.25430462599E+00  0.25926647960E+02  0.27601775478E+02  0.51100000000E-03 0. -1.
         12    1    3    3    0    0 -0.40544479684E+01 -0.16885584860E+00 -0.26889339436E+01  0.48680002444E+01  0.00000000000E+00 0. -1.
</event>
<event>
 7    1  0.5121289E-013  0.5052885E+02  0.7816164E-02  0.1300439E+00
        -11   -1    0    0    0    0  0.00000000000E+00  0.00000000000E+00  0.45593999997E+02  0.45594000000E+02  0.51100000000E-03 0.  1.
         11   -1    0    0    0    0 -0.00000000000E+00 -0.00000000000E+00 -0.45593999997E+02  0.45594000000E+02  0.51100000000E-03 0. -1.
    9900012    2    1    2    0    0  0.34321475047E+02  0.10218378291E+01  0.21775178794E+02  0.50528853262E+02  0.29999979976E+02 0.  0.
         12    1    1    2    0    0 -0.34321475047E+02 -0.10218378291E+01 -0.21775178794E+02  0.40659146738E+02  0.00000000000E+00 0. -1.
         11    1    3    3    0    0  0.91090774147E+01  0.42409619047E+01 -0.36426821413E+01  0.10687852107E+02  0.51100000000E-03 0. -1.
        -11    1    3    3    0    0 -0.23506797128E+01 -0.25930691506E+00  0.46025004328E+01  0.51745478724E+01  0.51100000000E-03 0.  1.
        -12    1    3    3    0    0  0.27563077345E+02 -0.29598171605E+01  0.20815360502E+02  0.34666453283E+02  0.00000000000E+00 0.  1.
</event>
<event>
 7    1  0.5121289E-013  0.5052886E+02  0.7816164E-02  0.1300439E+00
        -11   -1    0    0    0    0  0.00000000000E+00  0.00000000000E+00  0.45593999997E+02  0.45594000000E+02  0.51100000000E-03 0.  1.
         11   -1    0    0    0    0 -0.00000000000E+00 -0.00000000000E+00 -0.45593999997E+02  0.45594000000E+02  0.51100000000E-03 0. -1.
    9900012    2    1    2    0    0 -0.47221432222E+01 -0.12606001175E+02  0.38366078317E+02  0.50528857515E+02  0.29999992901E+02 0.  0.
         12    1    1    2    0    0  0.47221432222E+01  0.12606001175E+02 -0.38366078317E+02  0.40659142485E+02  0.00000000000E+00 0. -1.
         11    1    3    3    0    0 -0.10817948636E+01  0.71694448990E+01  0.23016585898E+02  0.24131606804E+02  0.51100000000E-03 0. -1.
        -11    1    3    3    0    0 -0.12150854643E+01 -0.22092640065E+01  0.56453612171E+01  0.61828297461E+01  0.51100000000E-03 0.  1.
        -12    1    3    3    0    0 -0.24252628942E+01 -0.17566182068E+02  0.97041312016E+01  0.20214420964E+02  0.00000000000E+00 0.  1.
</event>
<event>
 7    1  0.5121289E-013  0.5052885E+02  0.7816164E-02  0.1300439E+00
        -11   -1    0    0    0    0  0.00000000000E+00  0.00000000000E+00  0.45593999997E+02  0.45594000000E+02  0.51100000000E-03 0. -1.
         11   -1    0    0    0    0 -0.00000000000E+00 -0.00000000000E+00 -0.45593999997E+02  0.45594000000E+02  0.51100000000E-03 0.  1.
    9900012    2    1    2    0    0  0.57898090845E+01  0.39254609437E+02 -0.88724202824E+01  0.50528854744E+02  0.29999984481E+02 0.  0.
         12    1    1    2    0    0 -0.57898090845E+01 -0.39254609437E+02  0.88724202824E+01  0.40659145256E+02  0.00000000000E+00 0. -1.
         11    1    3    3    0    0  0.12277585818E+02  0.86904824425E+01  0.30030853442E+01  0.15338908711E+02  0.51100000000E-03 0.  1.
        -11    1    3    3    0    0 -0.77417534400E+01  0.12146582575E+02 -0.74060341738E+01  0.16196405682E+02  0.51100000000E-03 0. -1.
        -12    1    3    3    0    0  0.12539767066E+01  0.18417544419E+02 -0.44694714527E+01  0.18993540351E+02  0.00000000000E+00 0.  1.
</event>
<event>
 7    1  0.5121289E-013  0.5052885E+02  0.7816164E-02  0.1300439E+00
        -11   -1    0    0    0    0  0.00000000000E+00  0.00000000000E+00  0.45593999997E+02  0.45594000000E+02  0.51100000000E-03 0.  1.
         11   -1    0    0    0    0 -0.00000000000E+00 -0.00000000000E+00 -0.45593999997E+02  0.45594000000E+02  0.51100000000E-03 0. -1.
    9900012    2    1    2    0    0 -0.36704116693E+02  0.86573162189E+01  0.15199507156E+02  0.50528851901E+02  0.29999975838E+02 0.  0.
         12    1    1    2    0    0  0.36704116693E+02 -0.86573162189E+01 -0.15199507156E+02  0.40659148099E+02  0.00000000000E+00 0. -1.
         11    1    3    3    0    0  0.96448219201E+00  0.48009843778E+00 -0.42705187848E+01  0.44043218957E+01  0.51100000000E-03 0. -1.
        -11    1    3    3    0    0  0.95979590838E+00  0.24990194381E+01  0.20468864574E+01  0.33698739989E+01  0.51100000000E-03 0.  1.
        -12    1    3    3    0    0 -0.38628394794E+02  0.56781983430E+01  0.17423139484E+02  0.42754656006E+02  0.00000000000E+00 0.  1.
</event>
<event>
 7    1  0.5121289E-013  0.5052885E+02  0.7816164E-02  0.1300439E+00
        -11   -1    0    0    0    0  0.00000000000E+00  0.00000000000E+00  0.45593999997E+02  0.45594000000E+02  0.51100000000E-03 0. -1.
         11   -1    0    0    0    0 -0.00000000000E+00 -0.00000000000E+00 -0.45593999997E+02  0.45594000000E+02  0.51100000000E-03 0.  1.
    9900012    2    1    2    0    0  0.78505410212E+01 -0.18877014391E+02 -0.35145318733E+02  0.50528854713E+02  0.29999984384E+02 0.  0.
         12    1    1    2    0    0 -0.78505410212E+01  0.18877014391E+02  0.35145318733E+02  0.40659145287E+02  0.00000000000E+00 0. -1.
         11    1    3    3    0    0  0.91801889807E+01 -0.11434340734E+02 -0.18896624143E+02  0.23918662630E+02  0.51100000000E-03 0. -1.
        -11    1    3    3    0    0  0.49643101853E+01 -0.11155342264E+02 -0.14754632303E+02  0.19151637301E+02  0.51100000000E-03 0.  1.
         12    1    3    3    0    0 -0.62939581447E+01  0.37126686073E+01 -0.14940622873E+01  0.74585547818E+01  0.00000000000E+00 0. -1.
</event>
<event>
 7    1  0.5121289E-013  0.5052886E+02  0.7816164E-02  0.1300439E+00
        -11   -1    0    0    0    0  0.00000000000E+00  0.00000000000E+00  0.45593999997E+02  0.45594000000E+02  0.51100000000E-03 0.  1.
         11   -1    0    0    0    0 -0.00000000000E+00 -0.00000000000E+00 -0.45593999997E+02  0.45594000000E+02  0.51100000000E-03 0. -1.
    9900012    2    1    2    0    0 -0.10456849033E+02 -0.24502142250E+02  0.30715876155E+02  0.50528859398E+02  0.29999998625E+02 0.  0.
         12    1    1    2    0    0  0.10456849033E+02  0.24502142250E+02 -0.30715876155E+02  0.40659140602E+02  0.00000000000E+00 0. -1.
         11    1    3    3    0    0  0.62372880005E+01  0.38735179937E+00 -0.24575422971E+00  0.62541345061E+01  0.51100000000E-03 0. -1.
        -11    1    3    3    0    0 -0.23547899897E+00 -0.25670222702E+01 -0.16716427317E+00  0.25832146349E+01  0.51100000000E-03 0.  1.
        -12    1    3    3    0    0 -0.16458658034E+02 -0.22322471779E+02  0.31128794658E+02  0.41691510257E+02  0.00000000000E+00 0.  1.
</event>
<event>
 7    1  0.5121289E-013  0.5052887E+02  0.7816164E-02  0.1300439E+00
        -11   -1    0    0    0    0  0.00000000000E+00  0.00000000000E+00  0.45593999997E+02  0.45594000000E+02  0.51100000000E-03 0. -1.
         11   -1    0    0    0    0 -0.00000000000E+00 -0.00000000000E+00 -0.45593999997E+02  0.45594000000E+02  0.51100000000E-03 0.  1.
    9900012    2    1    2    0    0 -0.31265687721E+02  0.13339159013E+02 -0.22308932231E+02  0.50528870040E+02  0.30000030974E+02 0.  0.
         12    1    1    2    0    0  0.31265687721E+02 -0.13339159013E+02  0.22308932231E+02  0.40659129960E+02  0.00000000000E+00 0. -1.
         11    1    3    3    0    0 -0.23462249718E+01  0.36739220464E+01 -0.62488480080E+00  0.44037434186E+01  0.51100000000E-03 0. -1.
        -11    1    3    3    0    0 -0.25542541603E+02  0.16325859676E+02 -0.93802433025E+01  0.31732382363E+02  0.51100000000E-03 0.  1.
         12    1    3    3    0    0 -0.33769211454E+01 -0.66606227097E+01 -0.12303804127E+02  0.14392744259E+02  0.00000000000E+00 0. -1.
</event>
<event>
 7    1  0.5121289E-013  0.5052886E+02  0.7816164E-02  0.1300439E+00
        -11   -1    0    0    0    0  0.00000000000E+00  0.00000000000E+00  0.45593999997E+02  0.45594000000E+02  0.51100000000E-03 0. -1.
         11   -1    0    0    0    0 -0.00000000000E+00 -0.00000000000E+00 -0.45593999997E+02  0.45594000000E+02  0.51100000000E-03 0.  1.
    9900012    2    1    2    0    0  0.37735505049E+02 -0.13254951284E+02  0.73146019996E+01  0.50528862316E+02  0.30000007495E+02 0.  0.
         12    1    1    2    0    0 -0.37735505049E+02  0.13254951284E+02 -0.73146019996E+01  0.40659137684E+02  0.00000000000E+00 0. -1.
         11    1    3    3    0    0  0.15503806534E+01 -0.11243703497E+02  0.44036784721E+01  0.12174437681E+02  0.51100000000E-03 0. -1.
        -11    1    3    3    0    0 -0.74221418522E+00 -0.75386312746E+00 -0.63837630941E+00  0.12356035308E+01  0.51100000000E-03 0.  1.
        -12    1    3    3    0    0  0.36927338580E+02 -0.12573846595E+01  0.35492998369E+01  0.37118821104E+02  0.00000000000E+00 0.  1.
</event>
<event>
 7    1  0.5121289E-013  0.5052887E+02  0.7816164E-02  0.1300439E+00
        -11   -1    0    0    0    0  0.00000000000E+00  0.00000000000E+00  0.45593999997E+02  0.45594000000E+02  0.51100000000E-03 0. -1.
         11   -1    0    0    0    0 -0.00000000000E+00 -0.00000000000E+00 -0.45593999997E+02  0.45594000000E+02  0.51100000000E-03 0.  1.
    9900012    2    1    2    0    0  0.37231147758E+02 -0.16168970931E+02 -0.23602409604E+01  0.50528871606E+02  0.30000035734E+02 0.  0.
         12    1    1    2    0    0 -0.37231147758E+02  0.16168970931E+02  0.23602409604E+01  0.40659128394E+02  0.00000000000E+00 0. -1.
         11    1    3    3    0    0 -0.35901613217E+01 -0.34353406773E+01 -0.30547128264E+01  0.58328461833E+01  0.51100000000E-03 0. -1.
        -11    1    3    3    0    0  0.40777689894E+01  0.12388304109E+01 -0.30007043383E+01  0.52122094649E+01  0.51100000000E-03 0.  1.
        -12    1    3    3    0    0  0.36743540090E+02 -0.13972460665E+02  0.36951762043E+01  0.39483815958E+02  0.00000000000E+00 0.  1.
</event>
<event>
 7    1  0.5121289E-013  0.5052886E+02  0.7816164E-02  0.1300439E+00
        -11   -1    0    0    0    0  0.00000000000E+00  0.00000000000E+00  0.45593999997E+02  0.45594000000E+02  0.51100000000E-03 0.  1.
         11   -1    0    0    0    0 -0.00000000000E+00 -0.00000000000E+00 -0.45593999997E+02  0.45594000000E+02  0.51100000000E-03 0. -1.
    9900012    2    1    2    0    0 -0.13892755380E+02  0.17055882430E+02  0.34194357630E+02  0.50528857470E+02  0.29999992766E+02 0.  0.
         12    1    1    2    0    0  0.13892755380E+02 -0.17055882430E+02 -0.34194357630E+02  0.40659142530E+02  0.00000000000E+00 0. -1.
         11    1    3    3    0    0 -0.39741040966E+01  0.34680676784E+01 -0.20789037856E+01  0.56694654072E+01  0.51100000000E-03 0. -1.
        -11    1    3    3    0    0  0.35694719600E+01  0.29740168302E+01 -0.92324610604E-01  0.46469807697E+01  0.51100000000E-03 0.  1.
        -12    1    3    3    0    0 -0.13488123244E+02  0.10613797922E+02  0.36365586026E+02  0.40212411293E+02  0.00000000000E+00 0.  1.
</event>
<event>
 7    1  0.5121289E-013  0.5052884E+02  0.7816164E-02  0.1300439E+00
        -11   -1    0    0    0    0  0.00000000000E+00  0.00000000000E+00  0.45593999997E+02  0.45594000000E+02  0.51100000000E-03 0. -1.
         11   -1    0    0    0    0 -0.00000000000E+00 -0.00000000000E+00 -0.45593999997E+02  0.45594000000E+02  0.51100000000E-03 0.  1.
    9900012    2    1    2    0    0  0.20789799595E+02 -0.69282650830E+01 -0.34248361865E+02  0.50528844639E+02  0.29999953765E+02 0.  0.
         12    1    1    2    0    0 -0.20789799595E+02  0.69282650830E+01  0.34248361865E+02  0.40659155361E+02  0.00000000000E+00 0. -1.
         11    1    3    3    0    0  0.38149586579E+01 -0.59756895321E+01 -0.40960834110E+01  0.81878369864E+01  0.51100000000E-03 0. -1.
        -11    1    3    3    0    0  0.39493462823E+01 -0.11133444129E+02 -0.64989667182E+01  0.13482858855E+02  0.51100000000E-03 0.  1.
         12    1    3    3    0    0  0.13025494655E+02  0.10180868578E+02 -0.23653311735E+02  0.28858148798E+02  0.00000000000E+00 0. -1.
</event>
<event>
 7    1  0.5121289E-013  0.5052886E+02  0.7816164E-02  0.1300439E+00
        -11   -1    0    0    0    0  0.00000000000E+00  0.00000000000E+00  0.45593999997E+02  0.45594000000E+02  0.51100000000E-03 0.  1.
         11   -1    0    0    0    0 -0.00000000000E+00 -0.00000000000E+00 -0.45593999997E+02  0.45594000000E+02  0.51100000000E-03 0. -1.
    9900012    2    1    2    0    0 -0.73580754850E+01 -0.13663844478E+02  0.37580897600E+02  0.50528858529E+02  0.29999995985E+02 0.  0.
         12    1    1    2    0    0  0.73580754850E+01  0.13663844478E+02 -0.37580897600E+02  0.40659141471E+02  0.00000000000E+00 0. -1.
         11    1    3    3    0    0  0.12109315163E+01 -0.25883235165E+01  0.77915468033E+01  0.82990346193E+01  0.51100000000E-03 0. -1.
        -11    1    3    3    0    0 -0.11286776848E+01  0.11938481770E+01  0.27677448901E+02  0.27726167508E+02  0.51100000000E-03 0.  1.
         12    1    3    3    0    0 -0.74403293165E+01 -0.12269369139E+02  0.21119018958E+01  0.14503656402E+02  0.00000000000E+00 0. -1.
</event>
<event>
 7    1  0.5121289E-013  0.5052887E+02  0.7816164E-02  0.1300439E+00
        -11   -1    0    0    0    0  0.00000000000E+00  0.00000000000E+00  0.45593999997E+02  0.45594000000E+02  0.51100000000E-03 0. -1.
         11   -1    0    0    0    0 -0.00000000000E+00 -0.00000000000E+00 -0.45593999997E+02  0.45594000000E+02  0.51100000000E-03 0.  1.
    9900012    2    1    2    0    0  0.11589052271E+02 -0.32755858910E+02 -0.21116640567E+02  0.50528868992E+02  0.30000027788E+02 0.  0.
         12    1    1    2    0    0 -0.11589052271E+02  0.32755858910E+02  0.21116640567E+02  0.40659131008E+02  0.00000000000E+00 0. -1.
         11    1    3    3    0    0  0.20783466709E+01 -0.17165204981E+02  0.19617912748E+01  0.17401506032E+02  0.51100000000E-03 0. -1.
        -11    1    3    3    0    0  0.90855415350E+01 -0.45931966980E+01 -0.36817590909E+01  0.10825888931E+02  0.51100000000E-03 0.  1.
        -12    1    3    3    0    0  0.42516406524E+00 -0.10997457231E+02 -0.19396672751E+02  0.22301474028E+02  0.00000000000E+00 0.  1.
</event>
<event>
 7    1  0.5121289E-013  0.5052886E+02  0.7816164E-02  0.1300439E+00
        -11   -1    0    0    0    0  0.00000000000E+00  0.00000000000E+00  0.45593999997E+02  0.45594000000E+02  0.51100000000E-03 0. -1.
         11   -1    0    0    0    0 -0.00000000000E+00 -0.00000000000E+00 -0.45593999997E+02  0.45594000000E+02  0.51100000000E-03 0.  1.
    9900012    2    1    2    0    0  0.40105583889E+02 -0.37447524331E+01 -0.55393944563E+01  0.50528856861E+02  0.29999990915E+02 0.  0.
         12    1    1    2    0    0 -0.40105583889E+02  0.37447524331E+01  0.55393944563E+01  0.40659143139E+02  0.00000000000E+00 0. -1.
         11    1    3    3    0    0  0.28753486046E+02 -0.19276043030E+01 -0.94186814686E+00  0.28833413499E+02  0.51100000000E-03 0. -1.
        -11    1    3    3    0    0  0.14625148723E+02 -0.46986361214E+01 -0.35681255465E-02  0.15361385666E+02  0.51100000000E-03 0.  1.
        -12    1    3    3    0    0 -0.32730508800E+01  0.28814879913E+01 -0.45939581839E+01  0.63340576965E+01  0.00000000000E+00 0.  1.
</event>
<event>
 7    1  0.5121289E-013  0.5052886E+02  0.7816164E-02  0.1300439E+00
        -11   -1    0    0    0    0  0.00000000000E+00  0.00000000000E+00  0.45593999997E+02  0.45594000000E+02  0.51100000000E-03 0.  1.
         11   -1    0    0    0    0 -0.00000000000E+00 -0.00000000000E+00 -0.45593999997E+02  0.45594000000E+02  0.51100000000E-03 0. -1.
    9900012    2    1    2    0    0  0.18071766491E+02  0.17990800293E+02  0.31668729226E+02  0.50528855271E+02  0.29999986082E+02 0.  0.
         12    1    1    2    0    0 -0.18071766491E+02 -0.17990800293E+02 -0.31668729226E+02  0.40659144729E+02  0.00000000000E+00 0. -1.
         11    1    3    3    0    0  0.29552079007E+01  0.11748214499E+02  0.11789694288E+02  0.16904161894E+02  0.51100000000E-03 0. -1.
        -11    1    3    3    0    0  0.27257160164E+01  0.12464908485E+02  0.12733842847E+02  0.18026486769E+02  0.51100000000E-03 0.  1.
         12    1    3    3    0    0  0.12390842574E+02 -0.62223226914E+01  0.71451920916E+01  0.15598206608E+02  0.00000000000E+00 0. -1.
</event>
<event>
 7    1  0.5121289E-013  0.5052886E+02  0.7816164E-02  0.1300439E+00
        -11   -1    0    0    0    0  0.00000000000E+00  0.00000000000E+00  0.45593999997E+02  0.45594000000E+02  0.51100000000E-03 0.  1.
         11   -1    0    0    0    0 -0.00000000000E+00 -0.00000000000E+00 -0.45593999997E+02  0.45594000000E+02  0.51100000000E-03 0. -1.
    9900012    2    1    2    0    0 -0.21264691960E+02  0.17229535279E+02  0.30068612028E+02  0.50528862781E+02  0.30000008910E+02 0.  0.
         12    1    1    2    0    0  0.21264691960E+02 -0.17229535279E+02 -0.30068612028E+02  0.40659137219E+02  0.00000000000E+00 0. -1.
         11    1    3    3    0    0 -0.10136422670E+02  0.27461119167E+01  0.17403312270E+01  0.10645043365E+02  0.51100000000E-03 0. -1.
        -11    1    3    3    0    0 -0.13414057232E+02  0.95106737001E+01  0.70120362667E+01  0.17876199219E+02  0.51100000000E-03 0.  1.
        -12    1    3    3    0    0  0.22857879412E+01  0.49727496622E+01  0.21316244535E+02  0.22007620198E+02  0.00000000000E+00 0.  1.
</event>
<event>
 7    1  0.5121289E-013  0.5052886E+02  0.7816164E-02  0.1300439E+00
        -11   -1    0    0    0    0  0.00000000000E+00  0.00000000000E+00  0.45593999997E+02  0.45594000000E+02  0.51100000000E-03 0.  1.
         11   -1    0    0    0    0 -0.00000000000E+00 -0.00000000000E+00 -0.45593999997E+02  0.45594000000E+02  0.51100000000E-03 0. -1.
    9900012    2    1    2    0    0  0.28235380897E+02 -0.43548573249E+01  0.28930338192E+02  0.50528856076E+02  0.29999988529E+02 0.  0.
         12    1    1    2    0    0 -0.28235380897E+02  0.43548573249E+01 -0.28930338192E+02  0.40659143924E+02  0.00000000000E+00 0. -1.
         11    1    3    3    0    0  0.11543301572E+02 -0.59924669430E+01  0.13361482915E+01  0.13074508165E+02  0.51100000000E-03 0. -1.
        -11    1    3    3    0    0  0.18740051089E+02  0.36801937348E+01  0.28601455089E+02  0.34391518928E+02  0.51100000000E-03 0.  1.
         12    1    3    3    0    0 -0.20479717636E+01 -0.20425841167E+01 -0.10072651881E+01  0.30628289827E+01  0.00000000000E+00 0. -1.
</event>
<event>
 7    1  0.5121289E-013  0.5052885E+02  0.7816164E-02  0.1300439E+00
        -11   -1    0    0    0    0  0.00000000000E+00  0.00000000000E+00  0.45593999997E+02  0.45594000000E+02  0.51100000000E-03 0.  1.
         11   -1    0    0    0    0 -0.00000000000E+00 -0.00000000000E+00 -0.45593999997E+02  0.45594000000E+02  0.51100000000E-03 0. -1.
    9900012    2    1    2    0    0  0.21802679612E+02  0.10454310368E+02  0.32688175735E+02  0.50528852488E+02  0.29999977623E+02 0.  0.
         12    1    1    2    0    0 -0.21802679612E+02 -0.10454310368E+02 -0.32688175735E+02  0.40659147512E+02  0.00000000000E+00 0. -1.
         11    1    3    3    0    0  0.14850804318E+02  0.16665886551E+02  0.15381529718E+02  0.27108847636E+02  0.51100000000E-03 0. -1.
        -11    1    3    3    0    0  0.63254219288E+01  0.20775858955E+01  0.41127612887E+01  0.78257351993E+01  0.51100000000E-03 0.  1.
         12    1    3    3    0    0  0.62645336501E+00 -0.82891620786E+01  0.13193884728E+02  0.15594269653E+02  0.00000000000E+00 0. -1.
</event>
<event>
 7    1  0.5121289E-013  0.5052886E+02  0.7816164E-02  0.1300439E+00
        -11   -1    0    0    0    0  0.00000000000E+00  0.00000000000E+00  0.45593999997E+02  0.45594000000E+02  0.51100000000E-03 0. -1.
         11   -1    0    0    0    0 -0.00000000000E+00 -0.00000000000E+00 -0.45593999997E+02  0.45594000000E+02  0.51100000000E-03 0.  1.
    9900012    2    1    2    0    0 -0.42612656945E+01 -0.40409383941E+02 -0.14454008014E+01  0.50528857371E+02  0.29999992466E+02 0.  0.
         12    1    1    2    0    0  0.42612656945E+01  0.40409383941E+02  0.14454008014E+01  0.40659142629E+02  0.00000000000E+00 0. -1.
         11    1    3    3    0    0 -0.51711036414E+01 -0.67371680729E+01  0.24522555039E+01  0.88398701252E+01  0.51100000000E-03 0. -1.
        -11    1    3    3    0    0 -0.22106915581E+01 -0.67114828065E+01  0.91614283748E+01  0.11569914812E+02  0.51100000000E-03 0.  1.
        -12    1    3    3    0    0  0.31205295050E+01 -0.26960733062E+02 -0.13059084680E+02  0.30119072434E+02  0.00000000000E+00 0.  1.
</event>
<event>
 7    1  0.5121289E-013  0.5052886E+02  0.7816164E-02  0.1300439E+00
        -11   -1    0    0    0    0  0.00000000000E+00  0.00000000000E+00  0.45593999997E+02  0.45594000000E+02  0.51100000000E-03 0.  1.
         11   -1    0    0    0    0 -0.00000000000E+00 -0.00000000000E+00 -0.45593999997E+02  0.45594000000E+02  0.51100000000E-03 0. -1.
    9900012    2    1    2    0    0  0.15751218986E+01  0.30767265527E+02  0.26534129704E+02  0.50528859869E+02  0.30000000059E+02 0.  0.
         12    1    1    2    0    0 -0.15751218986E+01 -0.30767265527E+02 -0.26534129704E+02  0.40659140131E+02  0.00000000000E+00 0. -1.
         11    1    3    3    0    0 -0.84481881597E+00  0.12846789140E+02 -0.38451980126E+01  0.13436489797E+02  0.51100000000E-03 0. -1.
        -11    1    3    3    0    0  0.26105169379E+01  0.73040105855E+01  0.41535348396E+01  0.87985920033E+01  0.51100000000E-03 0.  1.
         12    1    3    3    0    0 -0.19057622331E+00  0.10616465802E+02  0.26225792877E+02  0.28293778070E+02  0.00000000000E+00 0. -1.
</event>
<event>
 7    1  0.5121289E-013  0.5052885E+02  0.7816164E-02  0.1300439E+00
        -11   -1    0    0    0    0  0.00000000000E+00  0.00000000000E+00  0.45593999997E+02  0.45594000000E+02  0.51100000000E-03 0.  1.
         11   -1    0    0    0    0 -0.00000000000E+00 -0.00000000000E+00 -0.45593999997E+02  0.45594000000E+02  0.51100000000E-03 0. -1.
    9900012    2    1    2    0    0 -0.20815859062E+02 -0.13791475996E+02  0.32088343799E+02  0.50528848430E+02  0.29999965288E+02 0.  0.
         12    1    1    2    0    0  0.20815859062E+02  0.13791475996E+02 -0.32088343799E+02  0.40659151570E+02  0.00000000000E+00 0. -1.
         11    1    3    3    0    0  0.88115208870E+00 -0.44227096847E+01 -0.87927848543E+00  0.45945533923E+01  0.51100000000E-03 0. -1.
        -11    1    3    3    0    0  0.42016916322E+01 -0.27948805332E+01  0.73664652521E+01  0.89291869921E+01  0.51100000000E-03 0.  1.
        -12    1    3    3    0    0 -0.25898702783E+02 -0.65738857778E+01  0.25601157032E+02  0.37005108045E+02  0.00000000000E+00 0.  1.
</event>
<event>
 7    1  0.5121289E-013  0.5052888E+02  0.7816164E-02  0.1300439E+00
        -11   -1    0    0    0    0  0.00000000000E+00  0.00000000000E+00  0.45593999997E+02  0.45594000000E+02  0.51100000000E-03 0.  1.
         11   -1    0    0    0    0 -0.00000000000E+00 -0.00000000000E+00 -0.45593999997E+02  0.45594000000E+02  0.51100000000E-03 0. -1.
    9900012    2    1    2    0    0  0.11110620503E+00  0.29062558545E+02  0.28434476608E+02  0.50528879083E+02  0.30000058462E+02 0.  0.
         12    1    1    2    0    0 -0.11110620503E+00 -0.29062558545E+02 -0.28434476608E+02  0.40659120917E+02  0.00000000000E+00 0. -1.
         11    1    3    3    0    0 -0.38982306873E+01 -0.19588464244E+01 -0.15153377077E+01  0.46183904594E+01  0.51100000000E-03 0. -1.
        -11    1    3    3    0    0  0.38873383787E+01  0.52258582749E+01  0.14364245623E+02  0.15771891040E+02  0.51100000000E-03 0.  1.
         12    1    3    3    0    0  0.12199851367E+00  0.25795546694E+02  0.15585568692E+02  0.30138597584E+02  0.00000000000E+00 0. -1.
</event>
<event>
 7    1  0.5121289E-013  0.5052885E+02  0.7816164E-02  0.1300439E+00
        -11   -1    0    0    0    0  0.00000000000E+00  0.00000000000E+00  0.45593999997E+02  0.45594000000E+02  0.51100000000E-03 0. -1.
         11   -1    0    0    0    0 -0.00000000000E+00 -0.00000000000E+00 -0.45593999997E+02  0.45594000000E+02  0.51100000000E-03 0.  1.
    9900012    2    1    2    0    0 -0.26785469830E+02 -0.28984477046E+02  0.97777734092E+01  0.50528853962E+02  0.29999982104E+02 0.  0.
         12    1    1    2    0    0  0.26785469830E+02  0.28984477046E+02 -0.97777734092E+01  0.40659146038E+02  0.00000000000E+00 0. -1.
         11    1    3    3    0    0 -0.48287150696E+01 -0.63553372652E+00  0.11756671621E+00  0.48717773487E+01  0.51100000000E-03 0.  1.
        -11    1    3    3    0    0 -0.12850166344E+02 -0.30405315681E+01  0.13028200705E+02  0.18550084128E+02  0.51100000000E-03 0. -1.
        -12    1    3    3    0    0 -0.91065884167E+01 -0.25308411751E+02 -0.33679940119E+01  0.27106992486E+02  0.00000000000E+00 0.  1.
</event>
<event>
 7    1  0.5121289E-013  0.5052885E+02  0.7816164E-02  0.1300439E+00
        -11   -1    0    0    0    0  0.00000000000E+00  0.00000000000E+00  0.45593999997E+02  0.45594000000E+02  0.51100000000E-03 0.  1.
         11   -1    0    0    0    0 -0.00000000000E+00 -0.00000000000E+00 -0.45593999997E+02  0.45594000000E+02  0.51100000000E-03 0. -1.
    9900012    2    1    2    0    0 -0.29636511893E+02 -0.16026009273E+02  0.22759840515E+02  0.50528854034E+02  0.29999982322E+02 0.  0.
         12    1    1    2    0    0  0.29636511893E+02  0.16026009273E+02 -0.22759840515E+02  0.40659145966E+02  0.00000000000E+00 0. -1.
         11    1    3    3    0    0 -0.21339786367E+00  0.15685435184E+01  0.40512012279E+01  0.43494941163E+01  0.51100000000E-03 0.  1.
        -11    1    3    3    0    0 -0.21529461072E+02 -0.12462465488E+02 -0.39729582977E+00  0.24879481191E+02  0.51100000000E-03 0. -1.
         12    1    3    3    0    0 -0.78936529581E+01 -0.51320873035E+01  0.19105935117E+02  0.21299878727E+02  0.00000000000E+00 0. -1.
</event>
<event>
 7    1  0.5121289E-013  0.5052887E+02  0.7816164E-02  0.1300439E+00
        -11   -1    0    0    0    0  0.00000000000E+00  0.00000000000E+00  0.45593999997E+02  0.45594000000E+02  0.51100000000E-03 0. -1.
         11   -1    0    0    0    0 -0.00000000000E+00 -0.00000000000E+00 -0.45593999997E+02  0.45594000000E+02  0.51100000000E-03 0.  1.
    9900012    2    1    2    0    0 -0.17901701847E+02  0.27233796582E+02 -0.24310791245E+02  0.50528866017E+02  0.30000018746E+02 0.  0.
         12    1    1    2    0    0  0.17901701847E+02 -0.27233796582E+02  0.24310791245E+02  0.40659133983E+02  0.00000000000E+00 0. -1.
         11    1    3    3    0    0  0.30678744343E+01  0.44739529579E+01 -0.12969998714E+02  0.14058768634E+02  0.51100000000E-03 0. -1.
        -11    1    3    3    0    0 -0.28286128733E+01  0.94229524010E+01 -0.98236090115E+01  0.13903106740E+02  0.51100000000E-03 0.  1.
         12    1    3    3    0    0 -0.18140963408E+02  0.13336891223E+02 -0.15171835195E+01  0.22566990643E+02  0.00000000000E+00 0. -1.
</event>
<event>
 7    1  0.5121289E-013  0.5052886E+02  0.7816164E-02  0.1300439E+00
        -11   -1    0    0    0    0  0.00000000000E+00  0.00000000000E+00  0.45593999997E+02  0.45594000000E+02  0.51100000000E-03 0.  1.
         11   -1    0    0    0    0 -0.00000000000E+00 -0.00000000000E+00 -0.45593999997E+02  0.45594000000E+02  0.51100000000E-03 0. -1.
    9900012    2    1    2    0    0  0.28713490581E+02  0.26107554906E+02  0.12128327216E+02  0.50528864673E+02  0.30000014660E+02 0.  0.
         12    1    1    2    0    0 -0.28713490581E+02 -0.26107554906E+02 -0.12128327216E+02  0.40659135327E+02  0.00000000000E+00 0. -1.
         11    1    3    3    0    0 -0.27430619433E+01  0.70525484964E+00  0.26374906251E+01  0.38701589485E+01  0.51100000000E-03 0. -1.
        -11    1    3    3    0    0  0.86837941430E+00  0.12005186834E+02  0.47079407984E+01  0.12924523223E+02  0.51100000000E-03 0.  1.
        -12    1    3    3    0    0  0.30588173110E+02  0.13397113222E+02  0.47828957923E+01  0.33734182501E+02  0.00000000000E+00 0.  1.
</event>
<event>
 7    1  0.5121289E-013  0.5052887E+02  0.7816164E-02  0.1300439E+00
        -11   -1    0    0    0    0  0.00000000000E+00  0.00000000000E+00  0.45593999997E+02  0.45594000000E+02  0.51100000000E-03 0.  1.
         11   -1    0    0    0    0 -0.00000000000E+00 -0.00000000000E+00 -0.45593999997E+02  0.45594000000E+02  0.51100000000E-03 0. -1.
    9900012    2    1    2    0    0  0.25055841739E+02  0.96349619720E+01  0.30537476673E+02  0.50528865983E+02  0.30000018641E+02 0.  0.
         12    1    1    2    0    0 -0.25055841739E+02 -0.96349619720E+01 -0.30537476673E+02  0.40659134017E+02  0.00000000000E+00 0. -1.
         11    1    3    3    0    0 -0.21219367114E+01  0.11338142404E+02  0.15162048489E+02  0.19051084044E+02  0.51100000000E-03 0. -1.
        -11    1    3    3    0    0  0.44253805181E+00  0.21419140794E+00  0.87334175216E+00  0.10022195187E+01  0.51100000000E-03 0.  1.
         12    1    3    3    0    0  0.26735240399E+02 -0.19173718403E+01  0.14502086432E+02  0.30475562420E+02  0.00000000000E+00 0. -1.
</event>
<event>
 7    1  0.5121289E-013  0.5052886E+02  0.7816164E-02  0.1300439E+00
        -11   -1    0    0    0    0  0.00000000000E+00  0.00000000000E+00  0.45593999997E+02  0.45594000000E+02  0.51100000000E-03 0.  1.
         11   -1    0    0    0    0 -0.00000000000E+00 -0.00000000000E+00 -0.45593999997E+02  0.45594000000E+02  0.51100000000E-03 0. -1.
    9900012    2    1    2    0    0  0.22382244903E+01 -0.21650339815E+01  0.40539718076E+02  0.50528858805E+02  0.29999996824E+02 0.  0.
         12    1    1    2    0    0 -0.22382244903E+01  0.21650339815E+01 -0.40539718076E+02  0.40659141195E+02  0.00000000000E+00 0. -1.
         11    1    3    3    0    0 -0.78212363521E+01  0.34053159919E+01  0.18539235684E+02  0.20407625415E+02  0.51100000000E-03 0. -1.
        -11    1    3    3    0    0  0.47085925179E+00 -0.76171227413E+01  0.17964646114E+02  0.19518472726E+02  0.51100000000E-03 0.  1.
        -12    1    3    3    0    0  0.95886015906E+01  0.20467727679E+01  0.40358362779E+01  0.10602760664E+02  0.00000000000E+00 0.  1.
</event>
<event>
 7    1  0.5121289E-013  0.5052886E+02  0.7816164E-02  0.1300439E+00
        -11   -1    0    0    0    0  0.00000000000E+00  0.00000000000E+00  0.45593999997E+02  0.45594000000E+02  0.51100000000E-03 0.  1.
         11   -1    0    0    0    0 -0.00000000000E+00 -0.00000000000E+00 -0.45593999997E+02  0.45594000000E+02  0.51100000000E-03 0. -1.
    9900012    2    1    2    0    0 -0.25922933036E+02 -0.27896877168E+02  0.14245390955E+02  0.50528863556E+02  0.30000011266E+02 0.  0.
         12    1    1    2    0    0  0.25922933036E+02  0.27896877168E+02 -0.14245390955E+02  0.40659136444E+02  0.00000000000E+00 0. -1.
         11    1    3    3    0    0 -0.83719541164E+01 -0.10332895485E+02  0.80640368321E+01  0.15552717934E+02  0.51100000000E-03 0. -1.
        -11    1    3    3    0    0 -0.16982874447E+02 -0.23063698542E+01 -0.26429534000E+01  0.17341354310E+02  0.51100000000E-03 0.  1.
         12    1    3    3    0    0 -0.56810447287E+00 -0.15257611828E+02  0.88243075223E+01  0.17634791312E+02  0.00000000000E+00 0. -1.
</event>
<event>
 7    1  0.5121289E-013  0.5052886E+02  0.7816164E-02  0.1300439E+00
        -11   -1    0    0    0    0  0.00000000000E+00  0.00000000000E+00  0.45593999997E+02  0.45594000000E+02  0.51100000000E-03 0. -1.
         11   -1    0    0    0    0 -0.00000000000E+00 -0.00000000000E+00 -0.45593999997E+02  0.45594000000E+02  0.51100000000E-03 0.  1.
    9900012    2    1    2    0    0 -0.17648188917E+02 -0.36619913677E+02 -0.83002396202E+00  0.50528860935E+02  0.30000003297E+02 0.  0.
         12    1    1    2    0    0  0.17648188917E+02  0.36619913677E+02  0.83002396202E+00  0.40659139065E+02  0.00000000000E+00 0. -1.
         11    1    3    3    0    0 -0.51521211400E+01 -0.28579170974E+01  0.37206377351E+01  0.69681552647E+01  0.51100000000E-03 0. -1.
        -11    1    3    3    0    0 -0.11244892278E+02 -0.34841415150E+02  0.21355551155E+01  0.36673320111E+02  0.51100000000E-03 0.  1.
         12    1    3    3    0    0 -0.12511754986E+01  0.10794185707E+01 -0.66862168126E+01  0.68873855594E+01  0.00000000000E+00 0. -1.
</event>
<event>
 7    1  0.5121289E-013  0.5052886E+02  0.7816164E-02  0.1300439E+00
        -11   -1    0    0    0    0  0.00000000000E+00  0.00000000000E+00  0.45593999997E+02  0.45594000000E+02  0.51100000000E-03 0. -1.
         11   -1    0    0    0    0 -0.00000000000E+00 -0.00000000000E+00 -0.45593999997E+02  0.45594000000E+02  0.51100000000E-03 0.  1.
    9900012    2    1    2    0    0 -0.20897273673E+02  0.41586557427E+00 -0.34875442134E+02  0.50528862586E+02  0.30000008317E+02 0.  0.
         12    1    1    2    0    0  0.20897273673E+02 -0.41586557427E+00  0.34875442134E+02  0.40659137414E+02  0.00000000000E+00 0. -1.
         11    1    3    3    0    0 -0.11511901617E+02 -0.16622749439E+01 -0.33588590925E+02  0.35545470561E+02  0.51100000000E-03 0.  1.
        -11    1    3    3    0    0 -0.57844064513E+01 -0.45666397793E+01 -0.57559514089E+00  0.73922166428E+01  0.51100000000E-03 0. -1.
        -12    1    3    3    0    0 -0.36009656051E+01  0.66447802974E+01 -0.71125606844E+00  0.75911753823E+01  0.00000000000E+00 0.  1.
</event>
<event>
 7    1  0.5121289E-013  0.5052885E+02  0.7816164E-02  0.1300439E+00
        -11   -1    0    0    0    0  0.00000000000E+00  0.00000000000E+00  0.45593999997E+02  0.45594000000E+02  0.51100000000E-03 0.  1.
         11   -1    0    0    0    0 -0.00000000000E+00 -0.00000000000E+00 -0.45593999997E+02  0.45594000000E+02  0.51100000000E-03 0. -1.
    9900012    2    1    2    0    0  0.21127370943E+02 -0.24282136338E+02  0.24843072343E+02  0.50528853531E+02  0.29999980794E+02 0.  0.
         12    1    1    2    0    0 -0.21127370943E+02  0.24282136338E+02 -0.24843072343E+02  0.40659146469E+02  0.00000000000E+00 0. -1.
         11    1    3    3    0    0 -0.54067955409E+01  0.16020202818E-01  0.27971525851E+01  0.60875083173E+01  0.51100000000E-03 0. -1.
        -11    1    3    3    0    0  0.39095335565E+01 -0.55967564438E+01  0.11262219551E+02  0.13169879453E+02  0.51100000000E-03 0.  1.
        -12    1    3    3    0    0  0.22624632928E+02 -0.18701400097E+02  0.10783700207E+02  0.31271465761E+02  0.00000000000E+00 0.  1.
</event>
<event>
 7    1  0.5121289E-013  0.5052883E+02  0.7816164E-02  0.1300439E+00
        -11   -1    0    0    0    0  0.00000000000E+00  0.00000000000E+00  0.45593999997E+02  0.45594000000E+02  0.51100000000E-03 0.  1.
         11   -1    0    0    0    0 -0.00000000000E+00 -0.00000000000E+00 -0.45593999997E+02  0.45594000000E+02  0.51100000000E-03 0. -1.
    9900012    2    1    2    0    0  0.47394371629E+01 -0.29205502364E+02  0.27888077367E+02  0.50528825239E+02  0.29999894798E+02 0.  0.
         12    1    1    2    0    0 -0.47394371629E+01  0.29205502364E+02 -0.27888077367E+02  0.40659174761E+02  0.00000000000E+00 0. -1.
         11    1    3    3    0    0  0.24921870619E+01  0.24702119221E+01  0.33546831239E+01  0.48545692306E+01  0.51100000000E-03 0. -1.
        -11    1    3    3    0    0  0.29121022851E+00 -0.32228878707E+01  0.15386897811E+02  0.15723499424E+02  0.51100000000E-03 0.  1.
        -12    1    3    3    0    0  0.19560398724E+01 -0.28452826416E+02  0.91464964321E+01  0.29950756585E+02  0.00000000000E+00 0.  1.
</event>
<event>
 7    1  0.5121289E-013  0.5052887E+02  0.7816164E-02  0.1300439E+00
        -11   -1    0    0    0    0  0.00000000000E+00  0.00000000000E+00  0.45593999997E+02  0.45594000000E+02  0.51100000000E-03 0. -1.
         11   -1    0    0    0    0 -0.00000000000E+00 -0.00000000000E+00 -0.45593999997E+02  0.45594000000E+02  0.51100000000E-03 0.  1.
    9900012    2    1    2    0    0 -0.13476657861E+02 -0.34575453069E+02 -0.16615738619E+02  0.50528867792E+02  0.30000024141E+02 0.  0.
         12    1    1    2    0    0  0.13476657861E+02  0.34575453069E+02  0.16615738619E+02  0.40659132208E+02  0.00000000000E+00 0. -1.
         11    1    3    3    0    0 -0.62876797226E+01 -0.21561624582E+01  0.28395123720E+01  0.72281936618E+01  0.51100000000E-03 0. -1.
        -11    1    3    3    0    0 -0.12565585634E+02 -0.21722836379E+02 -0.70633099111E+01  0.26070402947E+02  0.51100000000E-03 0.  1.
         12    1    3    3    0    0  0.53766074958E+01 -0.10696454232E+02 -0.12391941080E+02  0.17230271183E+02  0.00000000000E+00 0. -1.
</event>
<event>
 7    1  0.5121289E-013  0.5052886E+02  0.7816164E-02  0.1300439E+00
        -11   -1    0    0    0    0  0.00000000000E+00  0.00000000000E+00  0.45593999997E+02  0.45594000000E+02  0.51100000000E-03 0.  1.
         11   -1    0    0    0    0 -0.00000000000E+00 -0.00000000000E+00 -0.45593999997E+02  0.45594000000E+02  0.51100000000E-03 0. -1.
    9900012    2    1    2    0    0  0.28334531705E+02 -0.29153894604E+02 -0.60833843854E+00  0.50528864087E+02  0.30000012879E+02 0.  0.
         12    1    1    2    0    0 -0.28334531705E+02  0.29153894604E+02  0.60833843854E+00  0.40659135913E+02  0.00000000000E+00 0. -1.
         11    1    3    3    0    0  0.57573101872E+00 -0.11347521156E+02  0.29898433753E+01  0.11748909152E+02  0.51100000000E-03 0. -1.
        -11    1    3    3    0    0  0.50261007134E+01 -0.59540276335E+01  0.75265550708E+01  0.10833335818E+02  0.51100000000E-03 0.  1.
         12    1    3    3    0    0  0.22732699973E+02 -0.11852345815E+02 -0.11124736885E+02  0.27946619118E+02  0.00000000000E+00 0. -1.
</event>
<event>
 7    1  0.5121289E-013  0.5052886E+02  0.7816164E-02  0.1300439E+00
        -11   -1    0    0    0    0  0.00000000000E+00  0.00000000000E+00  0.45593999997E+02  0.45594000000E+02  0.51100000000E-03 0.  1.
         11   -1    0    0    0    0 -0.00000000000E+00 -0.00000000000E+00 -0.45593999997E+02  0.45594000000E+02  0.51100000000E-03 0. -1.
    9900012    2    1    2    0    0 -0.98081890703E+01 -0.13094078032E+02  0.37222444540E+02  0.50528857979E+02  0.29999994313E+02 0.  0.
         12    1    1    2    0    0  0.98081890703E+01  0.13094078032E+02 -0.37222444540E+02  0.40659142021E+02  0.00000000000E+00 0. -1.
         11    1    3    3    0    0  0.25139046664E+00 -0.58317227349E+01 -0.71941235729E+00  0.58813044152E+01  0.51100000000E-03 0. -1.
        -11    1    3    3    0    0 -0.53649637599E+01  0.68266999564E+01  0.13909532297E+02  0.16397004526E+02  0.51100000000E-03 0.  1.
         12    1    3    3    0    0 -0.46946157770E+01 -0.14089055253E+02  0.24032324600E+02  0.28250549037E+02  0.00000000000E+00 0. -1.
</event>
<event>
 7    1  0.5121289E-013  0.5052892E+02  0.7816164E-02  0.1300439E+00
        -11   -1    0    0    0    0  0.00000000000E+00  0.00000000000E+00  0.45593999997E+02  0.45594000000E+02  0.51100000000E-03 0.  1.
         11   -1    0    0    0    0 -0.00000000000E+00 -0.00000000000E+00 -0.45593999997E+02  0.45594000000E+02  0.51100000000E-03 0. -1.
    9900012    2    1    2    0    0 -0.11584799791E+02  0.18962279488E+02  0.34049749243E+02  0.50528916721E+02  0.30000172866E+02 0.  0.
         12    1    1    2    0    0  0.11584799791E+02 -0.18962279488E+02 -0.34049749243E+02  0.40659083279E+02  0.00000000000E+00 0. -1.
         11    1    3    3    0    0 -0.62796370685E+01  0.89519285323E+01  0.34168719903E+01  0.11456259451E+02  0.51100000000E-03 0.  1.
        -11    1    3    3    0    0  0.79473082401E+00  0.14284767128E+02  0.10915744923E+02  0.17995545462E+02  0.51100000000E-03 0. -1.
         12    1    3    3    0    0 -0.60998935469E+01 -0.42744161720E+01  0.19717132329E+02  0.21077111808E+02  0.00000000000E+00 0. -1.
</event>
<event>
 7    1  0.5121289E-013  0.5052885E+02  0.7816164E-02  0.1300439E+00
        -11   -1    0    0    0    0  0.00000000000E+00  0.00000000000E+00  0.45593999997E+02  0.45594000000E+02  0.51100000000E-03 0. -1.
         11   -1    0    0    0    0 -0.00000000000E+00 -0.00000000000E+00 -0.45593999997E+02  0.45594000000E+02  0.51100000000E-03 0.  1.
    9900012    2    1    2    0    0 -0.10048130913E+02 -0.32132610211E+02 -0.22796856376E+02  0.50528853004E+02  0.29999979191E+02 0.  0.
         12    1    1    2    0    0  0.10048130913E+02  0.32132610211E+02  0.22796856376E+02  0.40659146996E+02  0.00000000000E+00 0. -1.
         11    1    3    3    0    0 -0.55239454103E+01 -0.39637608931E+01  0.29368684110E+01  0.74061170419E+01  0.51100000000E-03 0. -1.
        -11    1    3    3    0    0 -0.32746219745E+01 -0.22366916961E+01 -0.14146985549E+02  0.14692281620E+02  0.51100000000E-03 0.  1.
         12    1    3    3    0    0 -0.12495635279E+01 -0.25932157622E+02 -0.11586739239E+02  0.28430454342E+02  0.00000000000E+00 0. -1.
</event>
<event>
 7    1  0.5121289E-013  0.5052884E+02  0.7816164E-02  0.1300439E+00
        -11   -1    0    0    0    0  0.00000000000E+00  0.00000000000E+00  0.45593999997E+02  0.45594000000E+02  0.51100000000E-03 0. -1.
         11   -1    0    0    0    0 -0.00000000000E+00 -0.00000000000E+00 -0.45593999997E+02  0.45594000000E+02  0.51100000000E-03 0.  1.
    9900012    2    1    2    0    0  0.13439049534E+02 -0.11790023472E+02 -0.36517864260E+02  0.50528842163E+02  0.29999946239E+02 0.  0.
         12    1    1    2    0    0 -0.13439049534E+02  0.11790023472E+02  0.36517864260E+02  0.40659157837E+02  0.00000000000E+00 0. -1.
         11    1    3    3    0    0 -0.60768604571E+00 -0.43562352638E+01 -0.12674751056E+02  0.13416235783E+02  0.51100000000E-03 0.  1.
        -11    1    3    3    0    0  0.18474231809E+01 -0.10101586786E+01  0.48453961198E+01  0.52831105217E+01  0.51100000000E-03 0. -1.
         12    1    3    3    0    0  0.12199312399E+02 -0.64236295298E+01 -0.28688509325E+02  0.31829495859E+02  0.00000000000E+00 0. -1.
</event>
<event>
 7    1  0.5121289E-013  0.5052886E+02  0.7816164E-02  0.1300439E+00
        -11   -1    0    0    0    0  0.00000000000E+00  0.00000000000E+00  0.45593999997E+02  0.45594000000E+02  0.51100000000E-03 0.  1.
         11   -1    0    0    0    0 -0.00000000000E+00 -0.00000000000E+00 -0.45593999997E+02  0.45594000000E+02  0.51100000000E-03 0. -1.
    9900012    2    1    2    0    0 -0.22870840273E+02  0.12188014920E+02  0.31329583370E+02  0.50528857896E+02  0.29999994061E+02 0.  0.
         12    1    1    2    0    0  0.22870840273E+02 -0.12188014920E+02 -0.31329583370E+02  0.40659142104E+02  0.00000000000E+00 0. -1.
         11    1    3    3    0    0 -0.36645726138E+01 -0.56769842206E+00 -0.45270646166E+01  0.58519815656E+01  0.51100000000E-03 0. -1.
        -11    1    3    3    0    0  0.15797645746E+01  0.21944057062E+01  0.13249320420E+01  0.30110658730E+01  0.51100000000E-03 0.  1.
        -12    1    3    3    0    0 -0.20786032233E+02  0.10561307636E+02  0.34531715945E+02  0.41665810458E+02  0.00000000000E+00 0.  1.
</event>
<event>
 7    1  0.5121289E-013  0.5052886E+02  0.7816164E-02  0.1300439E+00
        -11   -1    0    0    0    0  0.00000000000E+00  0.00000000000E+00  0.45593999997E+02  0.45594000000E+02  0.51100000000E-03 0.  1.
         11   -1    0    0    0    0 -0.00000000000E+00 -0.00000000000E+00 -0.45593999997E+02  0.45594000000E+02  0.51100000000E-03 0. -1.
    9900012    2    1    2    0    0 -0.49835337479E+01  0.32120458967E+02  0.24425520257E+02  0.50528861634E+02  0.30000005421E+02 0.  0.
         12    1    1    2    0    0  0.49835337479E+01 -0.32120458967E+02 -0.24425520257E+02  0.40659138366E+02  0.00000000000E+00 0. -1.
         11    1    3    3    0    0  0.47579533988E+01  0.20224455704E+02  0.13843972928E+02  0.24966423768E+02  0.51100000000E-03 0. -1.
        -11    1    3    3    0    0 -0.23324359833E+01  0.11019594620E+02 -0.14997555505E+01  0.11363141738E+02  0.51100000000E-03 0.  1.
        -12    1    3    3    0    0 -0.74090511634E+01  0.87640864400E+00  0.12081302879E+02  0.14199296127E+02  0.00000000000E+00 0.  1.
</event>
<event>
 7    1  0.5121289E-013  0.5052886E+02  0.7816164E-02  0.1300439E+00
        -11   -1    0    0    0    0  0.00000000000E+00  0.00000000000E+00  0.45593999997E+02  0.45594000000E+02  0.51100000000E-03 0.  1.
         11   -1    0    0    0    0 -0.00000000000E+00 -0.00000000000E+00 -0.45593999997E+02  0.45594000000E+02  0.51100000000E-03 0. -1.
    9900012    2    1    2    0    0  0.28367951679E+02 -0.29041895117E+02 -0.22345603135E+01  0.50528860631E+02  0.30000002374E+02 0.  0.
         12    1    1    2    0    0 -0.28367951679E+02  0.29041895117E+02  0.22345603135E+01  0.40659139369E+02  0.00000000000E+00 0. -1.
         11    1    3    3    0    0  0.70704967881E+01 -0.13702704070E+01  0.93621555193E+00  0.72626486656E+01  0.51100000000E-03 0. -1.
        -11    1    3    3    0    0  0.87394551526E+01  0.86238706443E-01 -0.86662853105E+01  0.12308127998E+02  0.51100000000E-03 0.  1.
        -12    1    3    3    0    0  0.12557999738E+02 -0.27757863416E+02  0.54955094450E+01  0.30958083967E+02  0.00000000000E+00 0.  1.
</event>
<event>
 7    1  0.5121289E-013  0.5052886E+02  0.7816164E-02  0.1300439E+00
        -11   -1    0    0    0    0  0.00000000000E+00  0.00000000000E+00  0.45593999997E+02  0.45594000000E+02  0.51100000000E-03 0. -1.
         11   -1    0    0    0    0 -0.00000000000E+00 -0.00000000000E+00 -0.45593999997E+02  0.45594000000E+02  0.51100000000E-03 0.  1.
    9900012    2    1    2    0    0  0.19674959329E+02  0.23150875327E+02 -0.27020343507E+02  0.50528855687E+02  0.29999987346E+02 0.  0.
         12    1    1    2    0    0 -0.19674959329E+02 -0.23150875327E+02  0.27020343507E+02  0.40659144313E+02  0.00000000000E+00 0. -1.
         11    1    3    3    0    0 -0.40781335034E+01  0.90299961123E+01 -0.70559199419E+01  0.12163799125E+02  0.51100000000E-03 0. -1.
        -11    1    3    3    0    0  0.38278969792E+01  0.10845585266E+02 -0.27377196117E+01  0.11822631855E+02  0.51100000000E-03 0.  1.
        -12    1    3    3    0    0  0.19925195853E+02  0.32752939494E+01 -0.17226703953E+02  0.26542424708E+02  0.00000000000E+00 0.  1.
</event>
<event>
 7    1  0.5121289E-013  0.5052886E+02  0.7816164E-02  0.1300439E+00
        -11   -1    0    0    0    0  0.00000000000E+00  0.00000000000E+00  0.45593999997E+02  0.45594000000E+02  0.51100000000E-03 0.  1.
         11   -1    0    0    0    0 -0.00000000000E+00 -0.00000000000E+00 -0.45593999997E+02  0.45594000000E+02  0.51100000000E-03 0. -1.
    9900012    2    1    2    0    0 -0.23897324689E+01  0.35912318298E+00  0.40587264983E+02  0.50528857491E+02  0.29999992830E+02 0.  0.
         12    1    1    2    0    0  0.23897324689E+01 -0.35912318298E+00 -0.40587264983E+02  0.40659142509E+02  0.00000000000E+00 0. -1.
         11    1    3    3    0    0  0.86660767259E+01 -0.16773603276E+01  0.12106846116E+02  0.14982995249E+02  0.51100000000E-03 0.  1.
        -11    1    3    3    0    0  0.28054872730E+01 -0.35050502904E+01  0.15405810238E+01  0.47465278393E+01  0.51100000000E-03 0. -1.
        -12    1    3    3    0    0 -0.13861296468E+02  0.55415338010E+01  0.26939837843E+02  0.30799334403E+02  0.00000000000E+00 0.  1.
</event>
<event>
 7    1  0.5121289E-013  0.5052887E+02  0.7816164E-02  0.1300439E+00
        -11   -1    0    0    0    0  0.00000000000E+00  0.00000000000E+00  0.45593999997E+02  0.45594000000E+02  0.51100000000E-03 0. -1.
         11   -1    0    0    0    0 -0.00000000000E+00 -0.00000000000E+00 -0.45593999997E+02  0.45594000000E+02  0.51100000000E-03 0.  1.
    9900012    2    1    2    0    0  0.28047822987E+02 -0.25396056403E+02 -0.14883720632E+02  0.50528865787E+02  0.30000018045E+02 0.  0.
         12    1    1    2    0    0 -0.28047822987E+02  0.25396056403E+02  0.14883720632E+02  0.40659134213E+02  0.00000000000E+00 0. -1.
         11    1    3    3    0    0  0.10932991570E+02 -0.45345440072E+01 -0.44089964338E+01  0.12630583670E+02  0.51100000000E-03 0. -1.
        -11    1    3    3    0    0  0.16136854299E+02 -0.40984389222E+01 -0.12726867051E+02  0.20956345423E+02  0.51100000000E-03 0.  1.
         12    1    3    3    0    0  0.97797711740E+00 -0.16763073473E+02  0.22521428531E+01  0.16941936694E+02  0.00000000000E+00 0. -1.
</event>
<event>
 7    1  0.5121289E-013  0.5052886E+02  0.7816164E-02  0.1300439E+00
        -11   -1    0    0    0    0  0.00000000000E+00  0.00000000000E+00  0.45593999997E+02  0.45594000000E+02  0.51100000000E-03 0.  1.
         11   -1    0    0    0    0 -0.00000000000E+00 -0.00000000000E+00 -0.45593999997E+02  0.45594000000E+02  0.51100000000E-03 0. -1.
    9900012    2    1    2    0    0  0.30696750502E+02 -0.17946837731E+02  0.19717662475E+02  0.50528859707E+02  0.29999999564E+02 0.  0.
         12    1    1    2    0    0 -0.30696750502E+02  0.17946837731E+02 -0.19717662475E+02  0.40659140293E+02  0.00000000000E+00 0. -1.
         11    1    3    3    0    0  0.19434331469E+02  0.12031987315E+00  0.54343297361E+01  0.20180179793E+02  0.51100000000E-03 0. -1.
        -11    1    3    3    0    0  0.14850798541E+02 -0.11241350943E+02  0.75024326385E+01  0.20079857671E+02  0.51100000000E-03 0.  1.
         12    1    3    3    0    0 -0.35883795089E+01 -0.68258066608E+01  0.67809001006E+01  0.10268822242E+02  0.00000000000E+00 0. -1.
</event>
<event>
 7    1  0.5121289E-013  0.5052885E+02  0.7816164E-02  0.1300439E+00
        -11   -1    0    0    0    0  0.00000000000E+00  0.00000000000E+00  0.45593999997E+02  0.45594000000E+02  0.51100000000E-03 0. -1.
         11   -1    0    0    0    0 -0.00000000000E+00 -0.00000000000E+00 -0.45593999997E+02  0.45594000000E+02  0.51100000000E-03 0.  1.
    9900012    2    1    2    0    0 -0.28296377147E+02  0.29121456861E+02  0.21029919938E+01  0.50528846237E+02  0.29999958623E+02 0.  0.
         12    1    1    2    0    0  0.28296377147E+02 -0.29121456861E+02 -0.21029919938E+01  0.40659153763E+02  0.00000000000E+00 0. -1.
         11    1    3    3    0    0 -0.86969529659E+00 -0.21083249799E+01  0.32231143927E+01  0.39484010409E+01  0.51100000000E-03 0. -1.
        -11    1    3    3    0    0 -0.40206224990E+01 -0.25298309875E+01  0.24515434554E+01  0.53456071385E+01  0.51100000000E-03 0.  1.
        -12    1    3    3    0    0 -0.23406059352E+02  0.33759612828E+02 -0.35716658543E+01  0.41234838058E+02  0.00000000000E+00 0.  1.
</event>
<event>
 7    1  0.5121289E-013  0.5052886E+02  0.7816164E-02  0.1300439E+00
        -11   -1    0    0    0    0  0.00000000000E+00  0.00000000000E+00  0.45593999997E+02  0.45594000000E+02  0.51100000000E-03 0.  1.
         11   -1    0    0    0    0 -0.00000000000E+00 -0.00000000000E+00 -0.45593999997E+02  0.45594000000E+02  0.51100000000E-03 0. -1.
    9900012    2    1    2    0    0 -0.34681752293E+02 -0.21220293122E+02 -0.20127610631E+00  0.50528864564E+02  0.30000014329E+02 0.  0.
         12    1    1    2    0    0  0.34681752293E+02  0.21220293122E+02  0.20127610631E+00  0.40659135436E+02  0.00000000000E+00 0. -1.
         11    1    3    3    0    0 -0.75448509758E-02  0.21215569681E+01  0.74130730422E+00  0.22473534822E+01  0.51100000000E-03 0. -1.
        -11    1    3    3    0    0 -0.14759292271E+02  0.16022433525E+01 -0.59087634264E+01  0.15978653811E+02  0.51100000000E-03 0.  1.
         12    1    3    3    0    0 -0.19914915171E+02 -0.24944093443E+02  0.49661800159E+01  0.32302857271E+02  0.00000000000E+00 0. -1.
</event>
<event>
 7    1  0.5121289E-013  0.5052886E+02  0.7816164E-02  0.1300439E+00
        -11   -1    0    0    0    0  0.00000000000E+00  0.00000000000E+00  0.45593999997E+02  0.45594000000E+02  0.51100000000E-03 0.  1.
         11   -1    0    0    0    0 -0.00000000000E+00 -0.00000000000E+00 -0.45593999997E+02  0.45594000000E+02  0.51100000000E-03 0. -1.
    9900012    2    1    2    0    0 -0.25960185102E+02  0.20513534001E+02  0.23631113138E+02  0.50528858398E+02  0.29999995586E+02 0.  0.
         12    1    1    2    0    0  0.25960185102E+02 -0.20513534001E+02 -0.23631113138E+02  0.40659141602E+02  0.00000000000E+00 0. -1.
         11    1    3    3    0    0 -0.59587186411E+01  0.29954257369E+01 -0.59893102830E+01  0.89638574908E+01  0.51100000000E-03 0. -1.
        -11    1    3    3    0    0 -0.90685726967E+01  0.71519071071E+00  0.86093497509E+01  0.12524831811E+02  0.51100000000E-03 0.  1.
        -12    1    3    3    0    0 -0.10932893764E+02  0.16802917553E+02  0.21011073670E+02  0.29040169096E+02  0.00000000000E+00 0.  1.
</event>
<event>
 7    1  0.5121289E-013  0.5052885E+02  0.7816164E-02  0.1300439E+00
        -11   -1    0    0    0    0  0.00000000000E+00  0.00000000000E+00  0.45593999997E+02  0.45594000000E+02  0.51100000000E-03 0. -1.
         11   -1    0    0    0    0 -0.00000000000E+00 -0.00000000000E+00 -0.45593999997E+02  0.45594000000E+02  0.51100000000E-03 0.  1.
    9900012    2    1    2    0    0 -0.38287437462E+02  0.68880261694E+01 -0.11823440287E+02  0.50528849590E+02  0.29999968812E+02 0.  0.
         12    1    1    2    0    0  0.38287437462E+02 -0.68880261694E+01  0.11823440287E+02  0.40659150410E+02  0.00000000000E+00 0. -1.
         11    1    3    3    0    0  0.15231147601E+01  0.14675053559E+01  0.16689162910E+01  0.26942034797E+01  0.51100000000E-03 0. -1.
        -11    1    3    3    0    0 -0.20307230680E+02  0.13870758469E+02 -0.82900456899E+01  0.25952002162E+02  0.51100000000E-03 0.  1.
         12    1    3    3    0    0 -0.19503321542E+02 -0.84502376555E+01 -0.52023108878E+01  0.21882643948E+02  0.00000000000E+00 0. -1.
</event>
<event>
 7    1  0.5121289E-013  0.5052885E+02  0.7816164E-02  0.1300439E+00
        -11   -1    0    0    0    0  0.00000000000E+00  0.00000000000E+00  0.45593999997E+02  0.45594000000E+02  0.51100000000E-03 0.  1.
         11   -1    0    0    0    0 -0.00000000000E+00 -0.00000000000E+00 -0.45593999997E+02  0.45594000000E+02  0.51100000000E-03 0. -1.
    9900012    2    1    2    0    0  0.16774149016E+01  0.37467875364E+02  0.15700675725E+02  0.50528848223E+02  0.29999964657E+02 0.  0.
         12    1    1    2    0    0 -0.16774149016E+01 -0.37467875364E+02 -0.15700675725E+02  0.40659151777E+02  0.00000000000E+00 0. -1.
         11    1    3    3    0    0  0.23452419529E+01  0.24357952059E+01  0.22031028082E+01  0.40357056815E+01  0.51100000000E-03 0. -1.
        -11    1    3    3    0    0  0.89685008472E+01  0.26148685005E+02  0.17586475112E+02  0.32763880144E+02  0.51100000000E-03 0.  1.
         12    1    3    3    0    0 -0.96363278985E+01  0.88833951526E+01 -0.40889021954E+01  0.13729262397E+02  0.00000000000E+00 0. -1.
</event>
<event>
 7    1  0.5121289E-013  0.5052886E+02  0.7816164E-02  0.1300439E+00
        -11   -1    0    0    0    0  0.00000000000E+00  0.00000000000E+00  0.45593999997E+02  0.45594000000E+02  0.51100000000E-03 0.  1.
         11   -1    0    0    0    0 -0.00000000000E+00 -0.00000000000E+00 -0.45593999997E+02  0.45594000000E+02  0.51100000000E-03 0. -1.
    9900012    2    1    2    0    0  0.79121980844E+01  0.11580697868E+01  0.39865046324E+02  0.50528856839E+02  0.29999990849E+02 0.  0.
         12    1    1    2    0    0 -0.79121980844E+01 -0.11580697868E+01 -0.39865046324E+02  0.40659143161E+02  0.00000000000E+00 0. -1.
         11    1    3    3    0    0  0.56313221504E+00 -0.82472642149E+01  0.10803911251E+02  0.13603638613E+02  0.51100000000E-03 0. -1.
        -11    1    3    3    0    0  0.77930841470E+01  0.50105047192E+01  0.19644007891E+01  0.94708071876E+01  0.51100000000E-03 0.  1.
        -12    1    3    3    0    0 -0.44401827765E+00  0.43948292825E+01  0.27096734284E+02  0.27454411039E+02  0.00000000000E+00 0.  1.
</event>
<event>
 7    1  0.5121289E-013  0.5052885E+02  0.7816164E-02  0.1300439E+00
        -11   -1    0    0    0    0  0.00000000000E+00  0.00000000000E+00  0.45593999997E+02  0.45594000000E+02  0.51100000000E-03 0.  1.
         11   -1    0    0    0    0 -0.00000000000E+00 -0.00000000000E+00 -0.45593999997E+02  0.45594000000E+02  0.51100000000E-03 0. -1.
    9900012    2    1    2    0    0  0.21468138997E+02 -0.33786890328E+01  0.34363793771E+02  0.50528845386E+02  0.29999956035E+02 0.  0.
         12    1    1    2    0    0 -0.21468138997E+02  0.33786890328E+01 -0.34363793771E+02  0.40659154614E+02  0.00000000000E+00 0. -1.
         11    1    3    3    0    0  0.10955657334E+02 -0.43796686285E+01  0.67306308674E+01  0.13583420669E+02  0.51100000000E-03 0.  1.
        -11    1    3    3    0    0  0.57851066275E+01 -0.40184512704E+01  0.29062321728E+02  0.29903744812E+02  0.51100000000E-03 0. -1.
         12    1    3    3    0    0  0.47273750354E+01  0.50194308661E+01 -0.14291588240E+01  0.70416799053E+01  0.00000000000E+00 0. -1.
</event>
<event>
 7    1  0.5121289E-013  0.5052887E+02  0.7816164E-02  0.1300439E+00
        -11   -1    0    0    0    0  0.00000000000E+00  0.00000000000E+00  0.45593999997E+02  0.45594000000E+02  0.51100000000E-03 0. -1.
         11   -1    0    0    0    0 -0.00000000000E+00 -0.00000000000E+00 -0.45593999997E+02  0.45594000000E+02  0.51100000000E-03 0.  1.
    9900012    2    1    2    0    0  0.28717526089E+02  0.24976389319E+02 -0.14305551038E+02  0.50528866727E+02  0.30000020902E+02 0.  0.
         12    1    1    2    0    0 -0.28717526089E+02 -0.24976389319E+02  0.14305551038E+02  0.40659133273E+02  0.00000000000E+00 0. -1.
         11    1    3    3    0    0  0.11537668084E+02  0.40683793267E+01  0.24310651601E+01  0.12473154101E+02  0.51100000000E-03 0. -1.
        -11    1    3    3    0    0  0.17230994701E+02  0.20851233314E+02 -0.65010519240E+01  0.27819863146E+02  0.51100000000E-03 0.  1.
        -12    1    3    3    0    0 -0.51136696365E-01  0.56776678241E-01 -0.10235564274E+02  0.10235849479E+02  0.00000000000E+00 0.  1.
</event>
<event>
 7    1  0.5121289E-013  0.5052886E+02  0.7816164E-02  0.1300439E+00
        -11   -1    0    0    0    0  0.00000000000E+00  0.00000000000E+00  0.45593999997E+02  0.45594000000E+02  0.51100000000E-03 0. -1.
         11   -1    0    0    0    0 -0.00000000000E+00 -0.00000000000E+00 -0.45593999997E+02  0.45594000000E+02  0.51100000000E-03 0.  1.
    9900012    2    1    2    0    0  0.30343277749E+02  0.10601233153E+02 -0.24901099048E+02  0.50528863478E+02  0.30000011028E+02 0.  0.
         12    1    1    2    0    0 -0.30343277749E+02 -0.10601233153E+02  0.24901099048E+02  0.40659136522E+02  0.00000000000E+00 0. -1.
         11    1    3    3    0    0  0.85424219119E+01 -0.19619820547E+01 -0.19213476748E+02  0.21118239385E+02  0.51100000000E-03 0. -1.
        -11    1    3    3    0    0  0.98500115825E+00 -0.91778688414E+00 -0.43733407284E+01  0.45758790887E+01  0.51100000000E-03 0.  1.
        -12    1    3    3    0    0  0.20815854678E+02  0.13481002092E+02 -0.13142815720E+01  0.24834745005E+02  0.00000000000E+00 0.  1.
</event>
<event>
 7    1  0.5121289E-013  0.5052887E+02  0.7816164E-02  0.1300439E+00
        -11   -1    0    0    0    0  0.00000000000E+00  0.00000000000E+00  0.45593999997E+02  0.45594000000E+02  0.51100000000E-03 0.  1.
         11   -1    0    0    0    0 -0.00000000000E+00 -0.00000000000E+00 -0.45593999997E+02  0.45594000000E+02  0.51100000000E-03 0. -1.
    9900012    2    1    2    0    0  0.16176757101E+02  0.28048738145E+02  0.24591582782E+02  0.50528866641E+02  0.30000020642E+02 0.  0.
         12    1    1    2    0    0 -0.16176757101E+02 -0.28048738145E+02 -0.24591582782E+02  0.40659133359E+02  0.00000000000E+00 0. -1.
         11    1    3    3    0    0  0.17361707338E+02  0.78257346989E+01  0.77950795690E+01  0.20577518582E+02  0.51100000000E-03 0. -1.
        -11    1    3    3    0    0  0.40804293816E+01  0.10648754299E+01  0.60151106551E+01  0.73461159856E+01  0.51100000000E-03 0.  1.
         12    1    3    3    0    0 -0.52653796187E+01  0.19158128016E+02  0.10781392558E+02  0.22605232073E+02  0.00000000000E+00 0. -1.
</event>
<event>
 7    1  0.5121289E-013  0.5052887E+02  0.7816164E-02  0.1300439E+00
        -11   -1    0    0    0    0  0.00000000000E+00  0.00000000000E+00  0.45593999997E+02  0.45594000000E+02  0.51100000000E-03 0.  1.
         11   -1    0    0    0    0 -0.00000000000E+00 -0.00000000000E+00 -0.45593999997E+02  0.45594000000E+02  0.51100000000E-03 0. -1.
    9900012    2    1    2    0    0 -0.25960997672E+00  0.40596586855E+02  0.22392612109E+01  0.50528873689E+02  0.30000042065E+02 0.  0.
         12    1    1    2    0    0  0.25960997672E+00 -0.40596586855E+02 -0.22392612109E+01  0.40659126311E+02  0.00000000000E+00 0. -1.
         11    1    3    3    0    0 -0.12400770071E+02  0.25312578360E+02  0.30399728634E+01  0.28350434862E+02  0.51100000000E-03 0. -1.
        -11    1    3    3    0    0  0.66918380759E+00  0.85111491134E+01 -0.21037175960E+01  0.87927864858E+01  0.51100000000E-03 0.  1.
         12    1    3    3    0    0  0.11471976287E+02  0.67728593812E+01  0.13030059434E+01  0.13385652341E+02  0.00000000000E+00 0. -1.
</event>
<event>
 7    1  0.5121289E-013  0.5052886E+02  0.7816164E-02  0.1300439E+00
        -11   -1    0    0    0    0  0.00000000000E+00  0.00000000000E+00  0.45593999997E+02  0.45594000000E+02  0.51100000000E-03 0.  1.
         11   -1    0    0    0    0 -0.00000000000E+00 -0.00000000000E+00 -0.45593999997E+02  0.45594000000E+02  0.51100000000E-03 0. -1.
    9900012    2    1    2    0    0  0.67507711038E+01  0.34797653902E+02  0.19917730663E+02  0.50528860531E+02  0.30000002070E+02 0.  0.
         12    1    1    2    0    0 -0.67507711038E+01 -0.34797653902E+02 -0.19917730663E+02  0.40659139469E+02  0.00000000000E+00 0. -1.
         11    1    3    3    0    0  0.20492317026E+01  0.74294871364E+01  0.11824770706E+01  0.77971072819E+01  0.51100000000E-03 0. -1.
        -11    1    3    3    0    0  0.27250054464E+01  0.27530879815E+02  0.24301308270E+02  0.36822935543E+02  0.51100000000E-03 0.  1.
        -12    1    3    3    0    0  0.19765339547E+01 -0.16271304979E+00 -0.55660546777E+01  0.59088177063E+01  0.00000000000E+00 0.  1.
</event>
<event>
 7    1  0.5121289E-013  0.5052886E+02  0.7816164E-02  0.1300439E+00
        -11   -1    0    0    0    0  0.00000000000E+00  0.00000000000E+00  0.45593999997E+02  0.45594000000E+02  0.51100000000E-03 0.  1.
         11   -1    0    0    0    0 -0.00000000000E+00 -0.00000000000E+00 -0.45593999997E+02  0.45594000000E+02  0.51100000000E-03 0. -1.
    9900012    2    1    2    0    0 -0.35198805732E+02  0.52531423476E+01  0.19662511418E+02  0.50528858534E+02  0.29999996001E+02 0.  0.
         12    1    1    2    0    0  0.35198805732E+02 -0.52531423476E+01 -0.19662511418E+02  0.40659141466E+02  0.00000000000E+00 0. -1.
         11    1    3    3    0    0 -0.77551869491E+01  0.81443666817E+01  0.71376980709E+01  0.13319923696E+02  0.51100000000E-03 0. -1.
        -11    1    3    3    0    0  0.25228208588E+01  0.17322447523E+01  0.51713022873E+01  0.60089653498E+01  0.51100000000E-03 0.  1.
         12    1    3    3    0    0 -0.29966439641E+02 -0.46234690864E+01  0.73535110600E+01  0.31199969488E+02  0.00000000000E+00 0. -1.
</event>
<event>
 7    1  0.5121289E-013  0.5052885E+02  0.7816164E-02  0.1300439E+00
        -11   -1    0    0    0    0  0.00000000000E+00  0.00000000000E+00  0.45593999997E+02  0.45594000000E+02  0.51100000000E-03 0.  1.
         11   -1    0    0    0    0 -0.00000000000E+00 -0.00000000000E+00 -0.45593999997E+02  0.45594000000E+02  0.51100000000E-03 0. -1.
    9900012    2    1    2    0    0 -0.53477645952E+01  0.33030605018E+02  0.23098640528E+02  0.50528847915E+02  0.29999963723E+02 0.  0.
         12    1    1    2    0    0  0.53477645952E+01 -0.33030605018E+02 -0.23098640528E+02  0.40659152085E+02  0.00000000000E+00 0. -1.
         11    1    3    3    0    0  0.34413137871E+01  0.26316517251E+02  0.26886393955E+02  0.37779358134E+02  0.51100000000E-03 0.  1.
        -11    1    3    3    0    0 -0.56387354856E+01  0.68868706003E+01 -0.19986103911E+01  0.91224321482E+01  0.51100000000E-03 0. -1.
        -12    1    3    3    0    0 -0.31503428967E+01 -0.17278283378E+00 -0.17891430356E+01  0.36270576335E+01  0.00000000000E+00 0.  1.
</event>
<event>
 7    1  0.5121289E-013  0.5052887E+02  0.7816164E-02  0.1300439E+00
        -11   -1    0    0    0    0  0.00000000000E+00  0.00000000000E+00  0.45593999997E+02  0.45594000000E+02  0.51100000000E-03 0.  1.
         11   -1    0    0    0    0 -0.00000000000E+00 -0.00000000000E+00 -0.45593999997E+02  0.45594000000E+02  0.51100000000E-03 0. -1.
    9900012    2    1    2    0    0  0.12377607338E+02 -0.38348965487E+02  0.54145087377E+01  0.50528865451E+02  0.30000017026E+02 0.  0.
         12    1    1    2    0    0 -0.12377607338E+02  0.38348965487E+02 -0.54145087377E+01  0.40659134549E+02  0.00000000000E+00 0. -1.
         11    1    3    3    0    0  0.57292735052E+01 -0.13070236240E+02 -0.57241582312E+01  0.15376008519E+02  0.51100000000E-03 0. -1.
        -11    1    3    3    0    0  0.50194253260E+01  0.23698811098E+01  0.89383087065E+00  0.56222683113E+01  0.51100000000E-03 0.  1.
        -12    1    3    3    0    0  0.16289085068E+01 -0.27648610358E+02  0.10244836098E+02  0.29530588621E+02  0.00000000000E+00 0.  1.
</event>
<event>
 7    1  0.5121289E-013  0.5052886E+02  0.7816164E-02  0.1300439E+00
        -11   -1    0    0    0    0  0.00000000000E+00  0.00000000000E+00  0.45593999997E+02  0.45594000000E+02  0.51100000000E-03 0.  1.
         11   -1    0    0    0    0 -0.00000000000E+00 -0.00000000000E+00 -0.45593999997E+02  0.45594000000E+02  0.51100000000E-03 0. -1.
    9900012    2    1    2    0    0 -0.48170181966E+00 -0.40570467351E+02 -0.26401727758E+01  0.50528863634E+02  0.30000011501E+02 0.  0.
         12    1    1    2    0    0  0.48170181966E+00  0.40570467351E+02  0.26401727758E+01  0.40659136366E+02  0.00000000000E+00 0. -1.
         11    1    3    3    0    0 -0.28242178136E+01 -0.64187796353E+00  0.73171896342E+01  0.78695284473E+01  0.51100000000E-03 0. -1.
        -11    1    3    3    0    0  0.47635252007E+01 -0.70363560024E+01 -0.22330014017E+01  0.87856572692E+01  0.51100000000E-03 0.  1.
        -12    1    3    3    0    0 -0.24210092068E+01 -0.32892233385E+02 -0.77243610083E+01  0.33873677917E+02  0.00000000000E+00 0.  1.
</event>
<event>
 7    1  0.5121289E-013  0.5052887E+02  0.7816164E-02  0.1300439E+00
        -11   -1    0    0    0    0  0.00000000000E+00  0.00000000000E+00  0.45593999997E+02  0.45594000000E+02  0.51100000000E-03 0.  1.
         11   -1    0    0    0    0 -0.00000000000E+00 -0.00000000000E+00 -0.45593999997E+02  0.45594000000E+02  0.51100000000E-03 0. -1.
    9900012    2    1    2    0    0 -0.61865130554E+00  0.31533838825E+02  0.25659296190E+02  0.50528865707E+02  0.30000017804E+02 0.  0.
         12    1    1    2    0    0  0.61865130554E+00 -0.31533838825E+02 -0.25659296190E+02  0.40659134293E+02  0.00000000000E+00 0. -1.
         11    1    3    3    0    0  0.23565837935E+01 -0.29561922810E+01  0.31450899633E+01  0.49177384148E+01  0.51100000000E-03 0. -1.
        -11    1    3    3    0    0 -0.31200254592E+00  0.24492097010E+01  0.11290136967E+02  0.11556953177E+02  0.51100000000E-03 0.  1.
        -12    1    3    3    0    0 -0.26632325531E+01  0.32040821405E+02  0.11224069259E+02  0.34054174115E+02  0.00000000000E+00 0.  1.
</event>
<event>
 7    1  0.5121289E-013  0.5052886E+02  0.7816164E-02  0.1300439E+00
        -11   -1    0    0    0    0  0.00000000000E+00  0.00000000000E+00  0.45593999997E+02  0.45594000000E+02  0.51100000000E-03 0. -1.
         11   -1    0    0    0    0 -0.00000000000E+00 -0.00000000000E+00 -0.45593999997E+02  0.45594000000E+02  0.51100000000E-03 0.  1.
    9900012    2    1    2    0    0  0.11151614081E+02  0.16654259523E+02 -0.35375734956E+02  0.50528862275E+02  0.30000007371E+02 0.  0.
         12    1    1    2    0    0 -0.11151614081E+02 -0.16654259523E+02  0.35375734956E+02  0.40659137725E+02  0.00000000000E+00 0. -1.
         11    1    3    3    0    0  0.74511376338E+01  0.11356972729E+02 -0.25267724728E+02  0.28687247947E+02  0.51100000000E-03 0.  1.
        -11    1    3    3    0    0  0.58984714551E+01  0.82957669677E+01 -0.13432911464E+02  0.16853926122E+02  0.51100000000E-03 0. -1.
         12    1    3    3    0    0 -0.21979950081E+01 -0.29984801736E+01  0.33249012355E+01  0.49876882052E+01  0.00000000000E+00 0. -1.
</event>
<event>
 7    1  0.5121289E-013  0.5052889E+02  0.7816164E-02  0.1300439E+00
        -11   -1    0    0    0    0  0.00000000000E+00  0.00000000000E+00  0.45593999997E+02  0.45594000000E+02  0.51100000000E-03 0. -1.
         11   -1    0    0    0    0 -0.00000000000E+00 -0.00000000000E+00 -0.45593999997E+02  0.45594000000E+02  0.51100000000E-03 0.  1.
    9900012    2    1    2    0    0  0.30389656266E+02 -0.51524080059E+01 -0.26515746769E+02  0.50528888562E+02  0.30000087272E+02 0.  0.
         12    1    1    2    0    0 -0.30389656266E+02  0.51524080059E+01  0.26515746769E+02  0.40659111438E+02  0.00000000000E+00 0. -1.
         11    1    3    3    0    0 -0.20440467104E+01 -0.89742669237E+00 -0.41807623666E+01  0.47394383474E+01  0.51100000000E-03 0. -1.
        -11    1    3    3    0    0  0.44930978885E+01 -0.10048526877E+02 -0.93352152833E+01  0.14432846763E+02  0.51100000000E-03 0.  1.
        -12    1    3    3    0    0  0.27940605088E+02  0.57935455631E+01 -0.12999769119E+02  0.31356603452E+02  0.00000000000E+00 0.  1.
</event>
<event>
 7    1  0.5121289E-013  0.5052887E+02  0.7816164E-02  0.1300439E+00
        -11   -1    0    0    0    0  0.00000000000E+00  0.00000000000E+00  0.45593999997E+02  0.45594000000E+02  0.51100000000E-03 0.  1.
         11   -1    0    0    0    0 -0.00000000000E+00 -0.00000000000E+00 -0.45593999997E+02  0.45594000000E+02  0.51100000000E-03 0. -1.
    9900012    2    1    2    0    0 -0.15059480601E+02 -0.47430824734E+01  0.37468391212E+02  0.50528866618E+02  0.30000020572E+02 0.  0.
         12    1    1    2    0    0  0.15059480601E+02  0.47430824734E+01 -0.37468391212E+02  0.40659133382E+02  0.00000000000E+00 0. -1.
         11    1    3    3    0    0 -0.15461814205E+02 -0.11589461160E+02  0.10747565199E+02  0.22110935450E+02  0.51100000000E-03 0. -1.
        -11    1    3    3    0    0 -0.18974039261E+01 -0.45547187061E+00  0.41909271266E+01  0.46229283712E+01  0.51100000000E-03 0.  1.
         12    1    3    3    0    0  0.22997375301E+01  0.73018505570E+01  0.22529898886E+02  0.23795002797E+02  0.00000000000E+00 0. -1.
</event>
<event>
 7    1  0.5121289E-013  0.5052886E+02  0.7816164E-02  0.1300439E+00
        -11   -1    0    0    0    0  0.00000000000E+00  0.00000000000E+00  0.45593999997E+02  0.45594000000E+02  0.51100000000E-03 0.  1.
         11   -1    0    0    0    0 -0.00000000000E+00 -0.00000000000E+00 -0.45593999997E+02  0.45594000000E+02  0.51100000000E-03 0. -1.
    9900012    2    1    2    0    0  0.22325463484E+02  0.23097254383E+02  0.24925004755E+02  0.50528863981E+02  0.30000012557E+02 0.  0.
         12    1    1    2    0    0 -0.22325463484E+02 -0.23097254383E+02 -0.24925004755E+02  0.40659136019E+02  0.00000000000E+00 0. -1.
         11    1    3    3    0    0 -0.35276960117E+01  0.22516272661E+01  0.54209334429E+01  0.68484293199E+01  0.51100000000E-03 0. -1.
        -11    1    3    3    0    0  0.20225564084E+01 -0.20402783370E+01 -0.26433369590E+01  0.39039339976E+01  0.51100000000E-03 0.  1.
        -12    1    3    3    0    0  0.23830603087E+02  0.22885905454E+02  0.22147408271E+02  0.39776500664E+02  0.00000000000E+00 0.  1.
</event>
<event>
 7    1  0.5121289E-013  0.5052883E+02  0.7816164E-02  0.1300439E+00
        -11   -1    0    0    0    0  0.00000000000E+00  0.00000000000E+00  0.45593999997E+02  0.45594000000E+02  0.51100000000E-03 0. -1.
         11   -1    0    0    0    0 -0.00000000000E+00 -0.00000000000E+00 -0.45593999997E+02  0.45594000000E+02  0.51100000000E-03 0.  1.
    9900012    2    1    2    0    0  0.12768633111E+02 -0.38517689127E+02 -0.25529985950E+01  0.50528829214E+02  0.29999906878E+02 0.  0.
         12    1    1    2    0    0 -0.12768633111E+02  0.38517689127E+02  0.25529985950E+01  0.40659170786E+02  0.00000000000E+00 0. -1.
         11    1    3    3    0    0  0.79331454369E+01 -0.76996759629E+01  0.49890282479E+01  0.12128899768E+02  0.51100000000E-03 0. -1.
        -11    1    3    3    0    0  0.95127183548E+01 -0.23073231554E+02 -0.12681641611E+02  0.27994461221E+02  0.51100000000E-03 0.  1.
         12    1    3    3    0    0 -0.46772306809E+01 -0.77447816097E+01  0.51396147676E+01  0.10405468225E+02  0.00000000000E+00 0. -1.
</event>
<event>
 7    1  0.5121289E-013  0.5052886E+02  0.7816164E-02  0.1300439E+00
        -11   -1    0    0    0    0  0.00000000000E+00  0.00000000000E+00  0.45593999997E+02  0.45594000000E+02  0.51100000000E-03 0.  1.
         11   -1    0    0    0    0 -0.00000000000E+00 -0.00000000000E+00 -0.45593999997E+02  0.45594000000E+02  0.51100000000E-03 0. -1.
    9900012    2    1    2    0    0 -0.18378506588E+02 -0.79415518579E+01  0.35388244323E+02  0.50528860971E+02  0.30000003407E+02 0.  0.
         12    1    1    2    0    0  0.18378506588E+02  0.79415518579E+01 -0.35388244323E+02  0.40659139029E+02  0.00000000000E+00 0. -1.
         11    1    3    3    0    0 -0.10784915282E+02 -0.37097228108E+01  0.20070251993E+01  0.11580353682E+02  0.51100000000E-03 0. -1.
        -11    1    3    3    0    0 -0.94161019215E+01 -0.54075591145E+01  0.80308395283E+01  0.13505519418E+02  0.51100000000E-03 0.  1.
         12    1    3    3    0    0  0.18225106159E+01  0.11757300674E+01  0.25350379596E+02  0.25442987871E+02  0.00000000000E+00 0. -1.
</event>
<event>
 7    1  0.5121289E-013  0.5052885E+02  0.7816164E-02  0.1300439E+00
        -11   -1    0    0    0    0  0.00000000000E+00  0.00000000000E+00  0.45593999997E+02  0.45594000000E+02  0.51100000000E-03 0. -1.
         11   -1    0    0    0    0 -0.00000000000E+00 -0.00000000000E+00 -0.45593999997E+02  0.45594000000E+02  0.51100000000E-03 0.  1.
    9900012    2    1    2    0    0  0.10324629963E+02 -0.39186485569E+02 -0.33148153758E+01  0.50528848065E+02  0.29999964179E+02 0.  0.
         12    1    1    2    0    0 -0.10324629963E+02  0.39186485569E+02  0.33148153758E+01  0.40659151935E+02  0.00000000000E+00 0. -1.
         11    1    3    3    0    0  0.87887367911E+01 -0.27297583244E+01 -0.15568650924E+01  0.93336650931E+01  0.51100000000E-03 0. -1.
        -11    1    3    3    0    0  0.75220402128E+01 -0.97666321894E+01 -0.56605492573E+01  0.13565028988E+02  0.51100000000E-03 0.  1.
         12    1    3    3    0    0 -0.59861470410E+01 -0.26690095055E+02  0.39025989740E+01  0.27630153984E+02  0.00000000000E+00 0. -1.
</event>
<event>
 7    1 -0.5121289E-013  0.5052885E+02  0.7816164E-02  0.1300439E+00
        -11   -1    0    0    0    0  0.00000000000E+00  0.00000000000E+00  0.45593999997E+02  0.45594000000E+02  0.51100000000E-03 0. -1.
         11   -1    0    0    0    0 -0.00000000000E+00 -0.00000000000E+00 -0.45593999997E+02  0.45594000000E+02  0.51100000000E-03 0.  1.
    9900012    2    1    2    0    0  0.14549306190E+02  0.33529439437E+02  0.17811809406E+02  0.50528853749E+02  0.29999981455E+02 0.  0.
         12    1    1    2    0    0 -0.14549306190E+02 -0.33529439437E+02 -0.17811809406E+02  0.40659146251E+02  0.00000000000E+00 0. -1.
         11    1    3    3    0    0 -0.62046702220E+01 -0.56430353869E+00  0.10718421031E+01  0.63218048690E+01  0.51100000000E-03 0. -1.
        -11    1    3    3    0    0  0.50778304957E+00  0.57793704280E+01  0.58005125058E+00  0.58305596544E+01  0.51100000000E-03 0.  1.
         12    1    3    3    0    0  0.20246193363E+02  0.28314372547E+02  0.16159916052E+02  0.38376489225E+02  0.00000000000E+00 0. -1.
</event>
<event>
 7    1  0.5121289E-013  0.5052894E+02  0.7816164E-02  0.1300439E+00
        -11   -1    0    0    0    0  0.00000000000E+00  0.00000000000E+00  0.45593999997E+02  0.45594000000E+02  0.51100000000E-03 0.  1.
         11   -1    0    0    0    0 -0.00000000000E+00 -0.00000000000E+00 -0.45593999997E+02  0.45594000000E+02  0.51100000000E-03 0. -1.
    9900012    2    1    2    0    0  0.10606297638E+02 -0.13849409298E+02  0.36726823679E+02  0.50528938709E+02  0.30000239700E+02 0.  0.
         12    1    1    2    0    0 -0.10606297638E+02  0.13849409298E+02 -0.36726823679E+02  0.40659061291E+02  0.00000000000E+00 0. -1.
         11    1    3    3    0    0  0.17283299578E+01 -0.40168586043E+01 -0.23398551849E+01  0.49595564355E+01  0.51100000000E-03 0. -1.
        -11    1    3    3    0    0  0.27294802384E+01 -0.14456030428E+02  0.31562204996E+02  0.34822401734E+02  0.51100000000E-03 0.  1.
         12    1    3    3    0    0  0.61484874416E+01  0.46234797346E+01  0.75044738683E+01  0.10746980539E+02  0.00000000000E+00 0. -1.
</event>
<event>
 7    1  0.5121289E-013  0.5052887E+02  0.7816164E-02  0.1300439E+00
        -11   -1    0    0    0    0  0.00000000000E+00  0.00000000000E+00  0.45593999997E+02  0.45594000000E+02  0.51100000000E-03 0. -1.
         11   -1    0    0    0    0 -0.00000000000E+00 -0.00000000000E+00 -0.45593999997E+02  0.45594000000E+02  0.51100000000E-03 0.  1.
    9900012    2    1    2    0    0 -0.20401835306E+02  0.21634062257E+02  0.27729001300E+02  0.50528867610E+02  0.30000023587E+02 0.  0.
         12    1    1    2    0    0  0.20401835306E+02 -0.21634062257E+02 -0.27729001300E+02  0.40659132390E+02  0.00000000000E+00 0. -1.
         11    1    3    3    0    0 -0.78685166943E+01  0.16765226533E+02  0.46077802923E+01  0.19084496722E+02  0.51100000000E-03 0. -1.
        -11    1    3    3    0    0  0.15655963777E+01  0.65649880632E+01  0.48860556005E+01  0.83320885665E+01  0.51100000000E-03 0.  1.
         12    1    3    3    0    0 -0.14098914990E+02 -0.16961523386E+01  0.18235165407E+02  0.23112282321E+02  0.00000000000E+00 0. -1.
</event>
<event>
 7    1  0.5121289E-013  0.5052888E+02  0.7816164E-02  0.1300439E+00
        -11   -1    0    0    0    0  0.00000000000E+00  0.00000000000E+00  0.45593999997E+02  0.45594000000E+02  0.51100000000E-03 0. -1.
         11   -1    0    0    0    0 -0.00000000000E+00 -0.00000000000E+00 -0.45593999997E+02  0.45594000000E+02  0.51100000000E-03 0.  1.
    9900012    2    1    2    0    0 -0.35144427137E+02  0.59035487421E+01 -0.19575021388E+02  0.50528879143E+02  0.30000058643E+02 0.  0.
         12    1    1    2    0    0  0.35144427137E+02 -0.59035487421E+01  0.19575021388E+02  0.40659120857E+02  0.00000000000E+00 0. -1.
         11    1    3    3    0    0 -0.26563114887E+02  0.12204361720E+02 -0.85087278938E+01  0.30445754517E+02  0.51100000000E-03 0. -1.
        -11    1    3    3    0    0 -0.83408146304E+01  0.80728909337E+00 -0.97394253468E+01  0.12848241542E+02  0.51100000000E-03 0.  1.
         12    1    3    3    0    0 -0.24049761980E+00 -0.71081020709E+01 -0.13268681470E+01  0.72348830837E+01  0.00000000000E+00 0. -1.
</event>
<event>
 7    1  0.5121289E-013  0.5052886E+02  0.7816164E-02  0.1300439E+00
        -11   -1    0    0    0    0  0.00000000000E+00  0.00000000000E+00  0.45593999997E+02  0.45594000000E+02  0.51100000000E-03 0.  1.
         11   -1    0    0    0    0 -0.00000000000E+00 -0.00000000000E+00 -0.45593999997E+02  0.45594000000E+02  0.51100000000E-03 0. -1.
    9900012    2    1    2    0    0 -0.15029028245E+02 -0.36128860487E+02  0.11045328127E+02  0.50528861747E+02  0.30000005766E+02 0.  0.
         12    1    1    2    0    0  0.15029028245E+02  0.36128860487E+02 -0.11045328127E+02  0.40659138253E+02  0.00000000000E+00 0. -1.
         11    1    3    3    0    0 -0.39529189775E+01 -0.28187661500E+01 -0.37182097421E+01  0.61152346642E+01  0.51100000000E-03 0. -1.
        -11    1    3    3    0    0 -0.17764327371E+02 -0.28534151523E+02  0.10924635623E+02  0.35342846431E+02  0.51100000000E-03 0.  1.
         12    1    3    3    0    0  0.66882181041E+01 -0.47759428133E+01  0.38389022467E+01  0.90707806512E+01  0.00000000000E+00 0. -1.
</event>
<event>
 7    1  0.5121289E-013  0.5052887E+02  0.7816164E-02  0.1300439E+00
        -11   -1    0    0    0    0  0.00000000000E+00  0.00000000000E+00  0.45593999997E+02  0.45594000000E+02  0.51100000000E-03 0.  1.
         11   -1    0    0    0    0 -0.00000000000E+00 -0.00000000000E+00 -0.45593999997E+02  0.45594000000E+02  0.51100000000E-03 0. -1.
    9900012    2    1    2    0    0  0.34015576091E+02 -0.21468272247E+02  0.59345580228E+01  0.50528866844E+02  0.30000021259E+02 0.  0.
         12    1    1    2    0    0 -0.34015576091E+02  0.21468272247E+02 -0.59345580228E+01  0.40659133156E+02  0.00000000000E+00 0. -1.
         11    1    3    3    0    0  0.11122155546E+02 -0.33144767680E+01  0.97122211420E+00  0.11646088309E+02  0.51100000000E-03 0. -1.
        -11    1    3    3    0    0  0.26196745891E+02 -0.11957721762E+02 -0.21635667437E+01  0.28877978224E+02  0.51100000000E-03 0.  1.
         12    1    3    3    0    0 -0.33033253462E+01 -0.61960737169E+01  0.71269026523E+01  0.10004800311E+02  0.00000000000E+00 0. -1.
</event>
<event>
 7    1  0.5121289E-013  0.5052888E+02  0.7816164E-02  0.1300439E+00
        -11   -1    0    0    0    0  0.00000000000E+00  0.00000000000E+00  0.45593999997E+02  0.45594000000E+02  0.51100000000E-03 0.  1.
         11   -1    0    0    0    0 -0.00000000000E+00 -0.00000000000E+00 -0.45593999997E+02  0.45594000000E+02  0.51100000000E-03 0. -1.
    9900012    2    1    2    0    0  0.19496714234E+02 -0.66570178131E+01  0.35053190751E+02  0.50528881294E+02  0.30000065183E+02 0.  0.
         12    1    1    2    0    0 -0.19496714234E+02  0.66570178131E+01 -0.35053190751E+02  0.40659118706E+02  0.00000000000E+00 0. -1.
         11    1    3    3    0    0  0.10448968163E+02  0.52466942240E+01  0.15232603341E+02  0.19202628485E+02  0.51100000000E-03 0. -1.
        -11    1    3    3    0    0  0.69498766319E+01 -0.43733318832E+00 -0.14110626698E+01  0.71051490931E+01  0.51100000000E-03 0.  1.
        -12    1    3    3    0    0  0.20978694385E+01 -0.11466378849E+02  0.21231650080E+02  0.24221103716E+02  0.00000000000E+00 0.  1.
</event>
<event>
 7    1  0.5121289E-013  0.5052886E+02  0.7816164E-02  0.1300439E+00
        -11   -1    0    0    0    0  0.00000000000E+00  0.00000000000E+00  0.45593999997E+02  0.45594000000E+02  0.51100000000E-03 0. -1.
         11   -1    0    0    0    0 -0.00000000000E+00 -0.00000000000E+00 -0.45593999997E+02  0.45594000000E+02  0.51100000000E-03 0.  1.
    9900012    2    1    2    0    0 -0.18443782675E+02  0.20624440595E+01 -0.36176494209E+02  0.50528861690E+02  0.30000005594E+02 0.  0.
         12    1    1    2    0    0  0.18443782675E+02 -0.20624440595E+01  0.36176494209E+02  0.40659138310E+02  0.00000000000E+00 0. -1.
         11    1    3    3    0    0 -0.12235582259E+02  0.74356410958E+01 -0.73618146458E+01  0.16099520082E+02  0.51100000000E-03 0. -1.
        -11    1    3    3    0    0 -0.10764148961E+02 -0.11890674609E+01 -0.10444037782E+02  0.15045222157E+02  0.51100000000E-03 0.  1.
        -12    1    3    3    0    0  0.45559485462E+01 -0.41841295755E+01 -0.18370641781E+02  0.19384119451E+02  0.00000000000E+00 0.  1.
</event>
<event>
 7    1  0.5121289E-013  0.5052887E+02  0.7816164E-02  0.1300439E+00
        -11   -1    0    0    0    0  0.00000000000E+00  0.00000000000E+00  0.45593999997E+02  0.45594000000E+02  0.51100000000E-03 0. -1.
         11   -1    0    0    0    0 -0.00000000000E+00 -0.00000000000E+00 -0.45593999997E+02  0.45594000000E+02  0.51100000000E-03 0.  1.
    9900012    2    1    2    0    0  0.30930747668E+02 -0.14341085437E+02 -0.22153705988E+02  0.50528873450E+02  0.30000041340E+02 0.  0.
         12    1    1    2    0    0 -0.30930747668E+02  0.14341085437E+02  0.22153705988E+02  0.40659126550E+02  0.00000000000E+00 0. -1.
         11    1    3    3    0    0  0.15036854323E+02  0.31761835661E+01 -0.81598398010E+01  0.17400520561E+02  0.51100000000E-03 0. -1.
        -11    1    3    3    0    0  0.11693938536E+02 -0.16683867439E+02 -0.18058018871E+02  0.27224835665E+02  0.51100000000E-03 0.  1.
         12    1    3    3    0    0  0.41999548091E+01 -0.83340156455E+00  0.40641526846E+01  0.59035172237E+01  0.00000000000E+00 0. -1.
</event>
<event>
 7    1  0.5121289E-013  0.5052886E+02  0.7816164E-02  0.1300439E+00
        -11   -1    0    0    0    0  0.00000000000E+00  0.00000000000E+00  0.45593999997E+02  0.45594000000E+02  0.51100000000E-03 0.  1.
         11   -1    0    0    0    0 -0.00000000000E+00 -0.00000000000E+00 -0.45593999997E+02  0.45594000000E+02  0.51100000000E-03 0. -1.
    9900012    2    1    2    0    0 -0.64247337214E-01 -0.93720191708E+01  0.39564214571E+02  0.50528856555E+02  0.29999989984E+02 0.  0.
         12    1    1    2    0    0  0.64247337214E-01  0.93720191708E+01 -0.39564214571E+02  0.40659143445E+02  0.00000000000E+00 0. -1.
         11    1    3    3    0    0 -0.27432094437E+01  0.22931185727E+01  0.53812803901E+01  0.64607870835E+01  0.51100000000E-03 0. -1.
        -11    1    3    3    0    0 -0.58143020095E-01  0.16884799719E+01 -0.35591740848E+01  0.39398052811E+01  0.51100000000E-03 0.  1.
        -12    1    3    3    0    0  0.27371051266E+01 -0.13353617715E+02  0.37742108266E+02  0.40128264190E+02  0.00000000000E+00 0.  1.
</event>
<event>
 7    1  0.5121289E-013  0.5052887E+02  0.7816164E-02  0.1300439E+00
        -11   -1    0    0    0    0  0.00000000000E+00  0.00000000000E+00  0.45593999997E+02  0.45594000000E+02  0.51100000000E-03 0.  1.
         11   -1    0    0    0    0 -0.00000000000E+00 -0.00000000000E+00 -0.45593999997E+02  0.45594000000E+02  0.51100000000E-03 0. -1.
    9900012    2    1    2    0    0 -0.24581823404E+02  0.42404366607E+01  0.32107898822E+02  0.50528874189E+02  0.30000043585E+02 0.  0.
         12    1    1    2    0    0  0.24581823404E+02 -0.42404366607E+01 -0.32107898822E+02  0.40659125811E+02  0.00000000000E+00 0. -1.
         11    1    3    3    0    0 -0.61726589519E+01 -0.42940961688E+01  0.19815833346E+02  0.21194533067E+02  0.51100000000E-03 0. -1.
        -11    1    3    3    0    0 -0.99023193534E+01  0.19539102255E+01  0.15151618219E+02  0.18205637277E+02  0.51100000000E-03 0.  1.
         12    1    3    3    0    0 -0.85068450990E+01  0.65806226041E+01 -0.28595527430E+01  0.11128703846E+02  0.00000000000E+00 0. -1.
</event>
<event>
 7    1  0.5121289E-013  0.5052887E+02  0.7816164E-02  0.1300439E+00
        -11   -1    0    0    0    0  0.00000000000E+00  0.00000000000E+00  0.45593999997E+02  0.45594000000E+02  0.51100000000E-03 0.  1.
         11   -1    0    0    0    0 -0.00000000000E+00 -0.00000000000E+00 -0.45593999997E+02  0.45594000000E+02  0.51100000000E-03 0. -1.
    9900012    2    1    2    0    0  0.39600566739E+02 -0.75858956734E+01 -0.52358199208E+01  0.50528874217E+02  0.30000043669E+02 0.  0.
         12    1    1    2    0    0 -0.39600566739E+02  0.75858956734E+01  0.52358199208E+01  0.40659125783E+02  0.00000000000E+00 0. -1.
         11    1    3    3    0    0  0.21643260238E+02 -0.68532381368E+01 -0.22754289845E+01  0.22816116322E+02  0.51100000000E-03 0. -1.
        -11    1    3    3    0    0  0.19010789963E+02 -0.12012046523E+01  0.49801434687E+01  0.19688952660E+02  0.51100000000E-03 0.  1.
         12    1    3    3    0    0 -0.10534834617E+01  0.46854711570E+00 -0.79405344051E+01  0.80238052346E+01  0.00000000000E+00 0. -1.
</event>
<event>
 7    1  0.5121289E-013  0.5052887E+02  0.7816164E-02  0.1300439E+00
        -11   -1    0    0    0    0  0.00000000000E+00  0.00000000000E+00  0.45593999997E+02  0.45594000000E+02  0.51100000000E-03 0.  1.
         11   -1    0    0    0    0 -0.00000000000E+00 -0.00000000000E+00 -0.45593999997E+02  0.45594000000E+02  0.51100000000E-03 0. -1.
    9900012    2    1    2    0    0  0.37875886285E+01  0.65103258576E+01  0.39955413118E+02  0.50528865629E+02  0.30000017565E+02 0.  0.
         12    1    1    2    0    0 -0.37875886285E+01 -0.65103258576E+01 -0.39955413118E+02  0.40659134371E+02  0.00000000000E+00 0. -1.
         11    1    3    3    0    0  0.33991217277E+01 -0.13290533048E+01 -0.33074501230E+00  0.36646696620E+01  0.51100000000E-03 0. -1.
        -11    1    3    3    0    0 -0.10699392129E+01 -0.90040494511E+00  0.37570830721E+02  0.37596845883E+02  0.51100000000E-03 0.  1.
         12    1    3    3    0    0  0.14584061136E+01  0.87397841076E+01  0.27153274090E+01  0.92673500839E+01  0.00000000000E+00 0. -1.
</event>
<event>
 7    1  0.5121289E-013  0.5052891E+02  0.7816164E-02  0.1300439E+00
        -11   -1    0    0    0    0  0.00000000000E+00  0.00000000000E+00  0.45593999997E+02  0.45594000000E+02  0.51100000000E-03 0.  1.
         11   -1    0    0    0    0 -0.00000000000E+00 -0.00000000000E+00 -0.45593999997E+02  0.45594000000E+02  0.51100000000E-03 0. -1.
    9900012    2    1    2    0    0  0.88561938951E+01 -0.99538073139E+01  0.38414202279E+02  0.50528912614E+02  0.30000160381E+02 0.  0.
         12    1    1    2    0    0 -0.88561938951E+01  0.99538073139E+01 -0.38414202279E+02  0.40659087386E+02  0.00000000000E+00 0. -1.
         11    1    3    3    0    0 -0.37310765253E+01  0.25636139683E+01  0.20571369707E+01  0.49724100186E+01  0.51100000000E-03 0. -1.
        -11    1    3    3    0    0  0.25025131226E+01 -0.44803473955E+01  0.31278818595E+02  0.31697012125E+02  0.51100000000E-03 0.  1.
         12    1    3    3    0    0  0.10084757298E+02 -0.80370738867E+01  0.50782467133E+01  0.13859490470E+02  0.00000000000E+00 0. -1.
</event>
<event>
 7    1  0.5121289E-013  0.5052887E+02  0.7816164E-02  0.1300439E+00
        -11   -1    0    0    0    0  0.00000000000E+00  0.00000000000E+00  0.45593999997E+02  0.45594000000E+02  0.51100000000E-03 0.  1.
         11   -1    0    0    0    0 -0.00000000000E+00 -0.00000000000E+00 -0.45593999997E+02  0.45594000000E+02  0.51100000000E-03 0. -1.
    9900012    2    1    2    0    0 -0.10481492092E+02  0.21216132673E+02  0.33063260925E+02  0.50528865909E+02  0.30000018416E+02 0.  0.
         12    1    1    2    0    0  0.10481492092E+02 -0.21216132673E+02 -0.33063260925E+02  0.40659134091E+02  0.00000000000E+00 0. -1.
         11    1    3    3    0    0 -0.10303173969E+01  0.21021266598E+01  0.18508823768E+02  0.18656287089E+02  0.51100000000E-03 0.  1.
        -11    1    3    3    0    0  0.18305717066E+01  0.13119745662E+02  0.13717953535E+02  0.19069896918E+02  0.51100000000E-03 0. -1.
         12    1    3    3    0    0 -0.11281746402E+02  0.59942603509E+01  0.83648362258E+00  0.12802681902E+02  0.00000000000E+00 0. -1.
</event>
<event>
 7    1  0.5121289E-013  0.5052885E+02  0.7816164E-02  0.1300439E+00
        -11   -1    0    0    0    0  0.00000000000E+00  0.00000000000E+00  0.45593999997E+02  0.45594000000E+02  0.51100000000E-03 0. -1.
         11   -1    0    0    0    0 -0.00000000000E+00 -0.00000000000E+00 -0.45593999997E+02  0.45594000000E+02  0.51100000000E-03 0.  1.
    9900012    2    1    2    0    0 -0.23659633384E+02  0.28582803943E+02 -0.16625621809E+02  0.50528853014E+02  0.29999979222E+02 0.  0.
         12    1    1    2    0    0  0.23659633384E+02 -0.28582803943E+02  0.16625621809E+02  0.40659146986E+02  0.00000000000E+00 0. -1.
         11    1    3    3    0    0 -0.10409508926E+02  0.14034565911E+02 -0.30007335695E+01  0.17729391377E+02  0.51100000000E-03 0. -1.
        -11    1    3    3    0    0 -0.16022193876E+02  0.18557965903E+02 -0.91104356964E+01  0.26155474263E+02  0.51100000000E-03 0.  1.
         12    1    3    3    0    0  0.27720694189E+01 -0.40097278709E+01 -0.45144525436E+01  0.66439873743E+01  0.00000000000E+00 0. -1.
</event>
<event>
 7    1  0.5121289E-013  0.5052891E+02  0.7816164E-02  0.1300439E+00
        -11   -1    0    0    0    0  0.00000000000E+00  0.00000000000E+00  0.45593999997E+02  0.45594000000E+02  0.51100000000E-03 0.  1.
         11   -1    0    0    0    0 -0.00000000000E+00 -0.00000000000E+00 -0.45593999997E+02  0.45594000000E+02  0.51100000000E-03 0. -1.
    9900012    2    1    2    0    0  0.35980878154E+01  0.17146291667E+02  0.36690876255E+02  0.50528905639E+02  0.30000139181E+02 0.  0.
         12    1    1    2    0    0 -0.35980878154E+01 -0.17146291667E+02 -0.36690876255E+02  0.40659094361E+02  0.00000000000E+00 0. -1.
         11    1    3    3    0    0  0.13802618452E+01 -0.24221887273E+00  0.25313902803E+02  0.25352661954E+02  0.51100000000E-03 0. -1.
        -11    1    3    3    0    0 -0.14202448109E+01  0.49459300752E+00 -0.25642274495E+01  0.29727058785E+01  0.51100000000E-03 0.  1.
        -12    1    3    3    0    0  0.36380707811E+01  0.16893917532E+02  0.13941200901E+02  0.22203537807E+02  0.00000000000E+00 0.  1.
</event>
<event>
 7    1  0.5121289E-013  0.5052886E+02  0.7816164E-02  0.1300439E+00
        -11   -1    0    0    0    0  0.00000000000E+00  0.00000000000E+00  0.45593999997E+02  0.45594000000E+02  0.51100000000E-03 0. -1.
         11   -1    0    0    0    0 -0.00000000000E+00 -0.00000000000E+00 -0.45593999997E+02  0.45594000000E+02  0.51100000000E-03 0.  1.
    9900012    2    1    2    0    0  0.76126224838E+01  0.32962835687E+02 -0.22553602118E+02  0.50528861714E+02  0.30000005667E+02 0.  0.
         12    1    1    2    0    0 -0.76126224838E+01 -0.32962835687E+02  0.22553602118E+02  0.40659138286E+02  0.00000000000E+00 0. -1.
         11    1    3    3    0    0 -0.53297688618E+00  0.10412943379E+02 -0.13247872067E+02  0.16858812792E+02  0.51100000000E-03 0. -1.
        -11    1    3    3    0    0 -0.33175298306E+01  0.19843895377E+02 -0.85712362497E+01  0.21868979835E+02  0.51100000000E-03 0.  1.
         12    1    3    3    0    0  0.11463129201E+02  0.27059969309E+01 -0.73449380120E+00  0.11801069087E+02  0.00000000000E+00 0. -1.
</event>
<event>
 7    1  0.5121289E-013  0.5052894E+02  0.7816164E-02  0.1300439E+00
        -11   -1    0    0    0    0  0.00000000000E+00  0.00000000000E+00  0.45593999997E+02  0.45594000000E+02  0.51100000000E-03 0.  1.
         11   -1    0    0    0    0 -0.00000000000E+00 -0.00000000000E+00 -0.45593999997E+02  0.45594000000E+02  0.51100000000E-03 0. -1.
    9900012    2    1    2    0    0  0.40094180569E+02 -0.63146512538E+01  0.23960182824E+01  0.50528941482E+02  0.30000248128E+02 0.  0.
         12    1    1    2    0    0 -0.40094180569E+02  0.63146512538E+01 -0.23960182824E+01  0.40659058518E+02  0.00000000000E+00 0. -1.
         11    1    3    3    0    0  0.69718975610E+01  0.56812737226E+01  0.24356738071E+01  0.93175497781E+01  0.51100000000E-03 0. -1.
        -11    1    3    3    0    0  0.30934693321E-01  0.36156966130E+01  0.27107197887E+01  0.45190951513E+01  0.51100000000E-03 0.  1.
         12    1    3    3    0    0  0.33091348315E+02 -0.15611621589E+02 -0.27503753135E+01  0.36692296553E+02  0.00000000000E+00 0. -1.
</event>
<event>
 7    1  0.5121289E-013  0.5052886E+02  0.7816164E-02  0.1300439E+00
        -11   -1    0    0    0    0  0.00000000000E+00  0.00000000000E+00  0.45593999997E+02  0.45594000000E+02  0.51100000000E-03 0.  1.
         11   -1    0    0    0    0 -0.00000000000E+00 -0.00000000000E+00 -0.45593999997E+02  0.45594000000E+02  0.51100000000E-03 0. -1.
    9900012    2    1    2    0    0  0.31204810508E+02  0.15256629732E+02 -0.21134341569E+02  0.50528863964E+02  0.30000012504E+02 0.  0.
         12    1    1    2    0    0 -0.31204810508E+02 -0.15256629732E+02  0.21134341569E+02  0.40659136036E+02  0.00000000000E+00 0. -1.
         11    1    3    3    0    0  0.92306918488E+01  0.10284672048E+02  0.53416770492E+01  0.14815993558E+02  0.51100000000E-03 0. -1.
        -11    1    3    3    0    0  0.89509160789E+01  0.58411100513E+01 -0.95053927330E+01  0.14303494557E+02  0.51100000000E-03 0.  1.
        -12    1    3    3    0    0  0.13023202580E+02 -0.86915236685E+00 -0.16970625885E+02  0.21409375849E+02  0.00000000000E+00 0.  1.
</event>
<event>
 7    1  0.5121289E-013  0.5052886E+02  0.7816164E-02  0.1300439E+00
        -11   -1    0    0    0    0  0.00000000000E+00  0.00000000000E+00  0.45593999997E+02  0.45594000000E+02  0.51100000000E-03 0.  1.
         11   -1    0    0    0    0 -0.00000000000E+00 -0.00000000000E+00 -0.45593999997E+02  0.45594000000E+02  0.51100000000E-03 0. -1.
    9900012    2    1    2    0    0 -0.24801711214E+02  0.31930974262E+02  0.42957394422E+01  0.50528863587E+02  0.30000011359E+02 0.  0.
         12    1    1    2    0    0  0.24801711214E+02 -0.31930974262E+02 -0.42957394422E+01  0.40659136413E+02  0.00000000000E+00 0. -1.
         11    1    3    3    0    0 -0.59811958774E+01  0.13107048396E+02  0.30292112165E+01  0.14722280483E+02  0.51100000000E-03 0. -1.
        -11    1    3    3    0    0 -0.21552808339E+02  0.22282426342E+02  0.28312650336E+01  0.31129505825E+02  0.51100000000E-03 0.  1.
         12    1    3    3    0    0  0.27322930024E+01 -0.34585004754E+01 -0.15647368079E+01  0.46770772783E+01  0.00000000000E+00 0. -1.
</event>
<event>
 7    1  0.5121289E-013  0.5052886E+02  0.7816164E-02  0.1300439E+00
        -11   -1    0    0    0    0  0.00000000000E+00  0.00000000000E+00  0.45593999997E+02  0.45594000000E+02  0.51100000000E-03 0. -1.
         11   -1    0    0    0    0 -0.00000000000E+00 -0.00000000000E+00 -0.45593999997E+02  0.45594000000E+02  0.51100000000E-03 0.  1.
    9900012    2    1    2    0    0 -0.21313332603E+02  0.22297644060E+02 -0.26490040832E+02  0.50528863996E+02  0.30000012603E+02 0.  0.
         12    1    1    2    0    0  0.21313332603E+02 -0.22297644060E+02  0.26490040832E+02  0.40659136004E+02  0.00000000000E+00 0. -1.
         11    1    3    3    0    0 -0.20516359480E+02  0.48360935343E+01 -0.13380712606E+02  0.24967023793E+02  0.51100000000E-03 0. -1.
        -11    1    3    3    0    0  0.84393617197E+00  0.30614981218E+01 -0.10326597077E+02  0.10803869977E+02  0.51100000000E-03 0.  1.
        -12    1    3    3    0    0 -0.16409092954E+01  0.14400052404E+02 -0.27827311483E+01  0.14757970226E+02  0.00000000000E+00 0.  1.
</event>
<event>
 7    1  0.5121289E-013  0.5052886E+02  0.7816164E-02  0.1300439E+00
        -11   -1    0    0    0    0  0.00000000000E+00  0.00000000000E+00  0.45593999997E+02  0.45594000000E+02  0.51100000000E-03 0. -1.
         11   -1    0    0    0    0 -0.00000000000E+00 -0.00000000000E+00 -0.45593999997E+02  0.45594000000E+02  0.51100000000E-03 0.  1.
    9900012    2    1    2    0    0  0.17249630839E+02  0.13644115840E+01 -0.36793400037E+02  0.50528859954E+02  0.30000000315E+02 0.  0.
         12    1    1    2    0    0 -0.17249630839E+02 -0.13644115840E+01  0.36793400037E+02  0.40659140046E+02  0.00000000000E+00 0. -1.
         11    1    3    3    0    0  0.53463097993E+01  0.48759468609E+01 -0.58488996757E+01  0.93041664827E+01  0.51100000000E-03 0. -1.
        -11    1    3    3    0    0  0.11034292403E+02  0.51801345880E+01 -0.30069068196E+02  0.32445928337E+02  0.51100000000E-03 0.  1.
         12    1    3    3    0    0  0.86902863691E+00 -0.86916698649E+01 -0.87543216488E+00  0.87787651345E+01  0.00000000000E+00 0. -1.
</event>
<event>
 7    1  0.5121289E-013  0.5052886E+02  0.7816164E-02  0.1300439E+00
        -11   -1    0    0    0    0  0.00000000000E+00  0.00000000000E+00  0.45593999997E+02  0.45594000000E+02  0.51100000000E-03 0.  1.
         11   -1    0    0    0    0 -0.00000000000E+00 -0.00000000000E+00 -0.45593999997E+02  0.45594000000E+02  0.51100000000E-03 0. -1.
    9900012    2    1    2    0    0  0.38253155932E+02 -0.67798751120E+00  0.13762344914E+02  0.50528859043E+02  0.29999997547E+02 0.  0.
         12    1    1    2    0    0 -0.38253155932E+02  0.67798751120E+00 -0.13762344914E+02  0.40659140957E+02  0.00000000000E+00 0. -1.
         11    1    3    3    0    0  0.52392666082E+01  0.56957622638E+01  0.80802783436E+01  0.11188499485E+02  0.51100000000E-03 0. -1.
        -11    1    3    3    0    0  0.84600535224E+01  0.33490407722E+01  0.89102174767E+01  0.12735012974E+02  0.51100000000E-03 0.  1.
        -12    1    3    3    0    0  0.24553835801E+02 -0.97227905472E+01 -0.32281509062E+01  0.26605346584E+02  0.00000000000E+00 0.  1.
</event>
<event>
 7    1  0.5121289E-013  0.5052886E+02  0.7816164E-02  0.1300439E+00
        -11   -1    0    0    0    0  0.00000000000E+00  0.00000000000E+00  0.45593999997E+02  0.45594000000E+02  0.51100000000E-03 0.  1.
         11   -1    0    0    0    0 -0.00000000000E+00 -0.00000000000E+00 -0.45593999997E+02  0.45594000000E+02  0.51100000000E-03 0. -1.
    9900012    2    1    2    0    0  0.11710239783E+02 -0.17117199986E+02  0.34971952834E+02  0.50528859132E+02  0.29999997817E+02 0.  0.
         12    1    1    2    0    0 -0.11710239783E+02  0.17117199986E+02 -0.34971952834E+02  0.40659140868E+02  0.00000000000E+00 0. -1.
         11    1    3    3    0    0  0.48602498577E+00 -0.38904144901E+01  0.18276975484E+02  0.18692762725E+02  0.51100000000E-03 0.  1.
        -11    1    3    3    0    0 -0.43577265383E+01 -0.93446159968E+00  0.99022474544E+01  0.10858982640E+02  0.51100000000E-03 0. -1.
         12    1    3    3    0    0  0.15581941336E+02 -0.12292323896E+02  0.67927298955E+01  0.20977113767E+02  0.00000000000E+00 0. -1.
</event>
<event>
 7    1  0.5121289E-013  0.5052886E+02  0.7816164E-02  0.1300439E+00
        -11   -1    0    0    0    0  0.00000000000E+00  0.00000000000E+00  0.45593999997E+02  0.45594000000E+02  0.51100000000E-03 0.  1.
         11   -1    0    0    0    0 -0.00000000000E+00 -0.00000000000E+00 -0.45593999997E+02  0.45594000000E+02  0.51100000000E-03 0. -1.
    9900012    2    1    2    0    0 -0.11308520675E+02 -0.37652261399E+02  0.10372582097E+02  0.50528857268E+02  0.29999992153E+02 0.  0.
         12    1    1    2    0    0  0.11308520675E+02  0.37652261399E+02 -0.10372582097E+02  0.40659142732E+02  0.00000000000E+00 0. -1.
         11    1    3    3    0    0 -0.11920485336E+02 -0.78661983671E+01  0.20622793329E+01  0.14430108929E+02  0.51100000000E-03 0. -1.
        -11    1    3    3    0    0 -0.69014648952E+01 -0.15433693473E+02 -0.18009970561E+01  0.17002138176E+02  0.51100000000E-03 0.  1.
         12    1    3    3    0    0  0.75134295565E+01 -0.14352369559E+02  0.10111299820E+02  0.19096610163E+02  0.00000000000E+00 0. -1.
</event>
<event>
 7    1  0.5121289E-013  0.5052887E+02  0.7816164E-02  0.1300439E+00
        -11   -1    0    0    0    0  0.00000000000E+00  0.00000000000E+00  0.45593999997E+02  0.45594000000E+02  0.51100000000E-03 0.  1.
         11   -1    0    0    0    0 -0.00000000000E+00 -0.00000000000E+00 -0.45593999997E+02  0.45594000000E+02  0.51100000000E-03 0. -1.
    9900012    2    1    2    0    0  0.29243886700E+02 -0.28246982553E+02 -0.26125751814E+00  0.50528865871E+02  0.30000018302E+02 0.  0.
         12    1    1    2    0    0 -0.29243886700E+02  0.28246982553E+02  0.26125751814E+00  0.40659134129E+02  0.00000000000E+00 0. -1.
         11    1    3    3    0    0  0.12735906822E+02 -0.10952144861E+02  0.12717467584E+02  0.21068620782E+02  0.51100000000E-03 0. -1.
        -11    1    3    3    0    0  0.14166066849E+00 -0.43690385101E+01  0.82802573898E+00  0.44490664339E+01  0.51100000000E-03 0.  1.
         12    1    3    3    0    0  0.16366319209E+02 -0.12925799182E+02 -0.13806750841E+02  0.25011178656E+02  0.00000000000E+00 0. -1.
</event>
<event>
 7    1  0.5121289E-013  0.5052886E+02  0.7816164E-02  0.1300439E+00
        -11   -1    0    0    0    0  0.00000000000E+00  0.00000000000E+00  0.45593999997E+02  0.45594000000E+02  0.51100000000E-03 0.  1.
         11   -1    0    0    0    0 -0.00000000000E+00 -0.00000000000E+00 -0.45593999997E+02  0.45594000000E+02  0.51100000000E-03 0. -1.
    9900012    2    1    2    0    0  0.10301755285E+01  0.74773739856E+01  0.39952391182E+02  0.50528856570E+02  0.29999990030E+02 0.  0.
         12    1    1    2    0    0 -0.10301755285E+01 -0.74773739856E+01 -0.39952391182E+02  0.40659143430E+02  0.00000000000E+00 0. -1.
         11    1    3    3    0    0  0.33439013440E+01  0.27321014448E+01 -0.10559856534E+01  0.44453526816E+01  0.51100000000E-03 0. -1.
        -11    1    3    3    0    0 -0.10152526336E+02 -0.21107550236E+01  0.23934501747E+02  0.26084275951E+02  0.51100000000E-03 0.  1.
         12    1    3    3    0    0  0.78388005200E+01  0.68560275644E+01  0.17073875088E+02  0.19999227937E+02  0.00000000000E+00 0. -1.
</event>
<event>
 7    1  0.5121289E-013  0.5052886E+02  0.7816164E-02  0.1300439E+00
        -11   -1    0    0    0    0  0.00000000000E+00  0.00000000000E+00  0.45593999997E+02  0.45594000000E+02  0.51100000000E-03 0.  1.
         11   -1    0    0    0    0 -0.00000000000E+00 -0.00000000000E+00 -0.45593999997E+02  0.45594000000E+02  0.51100000000E-03 0. -1.
    9900012    2    1    2    0    0  0.23511755208E+02  0.27802956549E+02  0.18093061005E+02  0.50528857334E+02  0.29999992351E+02 0.  0.
         12    1    1    2    0    0 -0.23511755208E+02 -0.27802956549E+02 -0.18093061005E+02  0.40659142666E+02  0.00000000000E+00 0. -1.
         11    1    3    3    0    0  0.14819787024E+02  0.10800188654E+02 -0.13519305678E+01  0.18387438074E+02  0.51100000000E-03 0. -1.
        -11    1    3    3    0    0  0.41421796885E+00 -0.29763548739E+01  0.59069786411E+01  0.66274174298E+01  0.51100000000E-03 0.  1.
        -12    1    3    3    0    0  0.82777502154E+01  0.19979122768E+02  0.13538012932E+02  0.25514001830E+02  0.00000000000E+00 0.  1.
</event>
<event>
 7    1  0.5121289E-013  0.5052886E+02  0.7816164E-02  0.1300439E+00
        -11   -1    0    0    0    0  0.00000000000E+00  0.00000000000E+00  0.45593999997E+02  0.45594000000E+02  0.51100000000E-03 0. -1.
         11   -1    0    0    0    0 -0.00000000000E+00 -0.00000000000E+00 -0.45593999997E+02  0.45594000000E+02  0.51100000000E-03 0.  1.
    9900012    2    1    2    0    0 -0.18109889716E+02 -0.19522703446E+02 -0.30725591750E+02  0.50528855349E+02  0.29999986319E+02 0.  0.
         12    1    1    2    0    0  0.18109889716E+02  0.19522703446E+02  0.30725591750E+02  0.40659144651E+02  0.00000000000E+00 0. -1.
         11    1    3    3    0    0 -0.12829085322E+02 -0.10956741256E+02 -0.78244387262E+01  0.18597243096E+02  0.51100000000E-03 0. -1.
        -11    1    3    3    0    0 -0.49613451171E+01 -0.59635168600E+01  0.10581095008E+01  0.78293086979E+01  0.51100000000E-03 0.  1.
         12    1    3    3    0    0 -0.31945927689E+00 -0.26024453298E+01 -0.23959262525E+02  0.24102303555E+02  0.00000000000E+00 0. -1.
</event>
<event>
 7    1  0.5121289E-013  0.5052886E+02  0.7816164E-02  0.1300439E+00
        -11   -1    0    0    0    0  0.00000000000E+00  0.00000000000E+00  0.45593999997E+02  0.45594000000E+02  0.51100000000E-03 0.  1.
         11   -1    0    0    0    0 -0.00000000000E+00 -0.00000000000E+00 -0.45593999997E+02  0.45594000000E+02  0.51100000000E-03 0. -1.
    9900012    2    1    2    0    0 -0.19792184283E+02 -0.14303817123E+02  0.32509016955E+02  0.50528856793E+02  0.29999990707E+02 0.  0.
         12    1    1    2    0    0  0.19792184283E+02  0.14303817123E+02 -0.32509016955E+02  0.40659143207E+02  0.00000000000E+00 0. -1.
         11    1    3    3    0    0 -0.59277140896E+01 -0.18584004654E+01  0.49220869345E+00  0.62316704243E+01  0.51100000000E-03 0. -1.
        -11    1    3    3    0    0 -0.29703601788E+01 -0.32171435178E+01 -0.37633088759E+01  0.57736943080E+01  0.51100000000E-03 0.  1.
        -12    1    3    3    0    0 -0.10894110015E+02 -0.92282731399E+01  0.35780117137E+02  0.38523492060E+02  0.00000000000E+00 0.  1.
</event>
<event>
 7    1  0.5121289E-013  0.5052888E+02  0.7816164E-02  0.1300439E+00
        -11   -1    0    0    0    0  0.00000000000E+00  0.00000000000E+00  0.45593999997E+02  0.45594000000E+02  0.51100000000E-03 0.  1.
         11   -1    0    0    0    0 -0.00000000000E+00 -0.00000000000E+00 -0.45593999997E+02  0.45594000000E+02  0.51100000000E-03 0. -1.
    9900012    2    1    2    0    0  0.31501229808E+02  0.59884983724E+01  0.24999486880E+02  0.50528881263E+02  0.30000065088E+02 0.  0.
         12    1    1    2    0    0 -0.31501229808E+02 -0.59884983724E+01 -0.24999486880E+02  0.40659118737E+02  0.00000000000E+00 0. -1.
         11    1    3    3    0    0  0.26006026364E+02  0.10757214173E+02  0.12046806461E+02  0.30613013739E+02  0.51100000000E-03 0. -1.
        -11    1    3    3    0    0  0.49949881584E+01  0.28137151228E+01  0.10443168019E+02  0.11913297530E+02  0.51100000000E-03 0.  1.
         12    1    3    3    0    0  0.50021528593E+00 -0.75824309232E+01  0.25095123999E+01  0.80025699949E+01  0.00000000000E+00 0. -1.
</event>
<event>
 7    1  0.5121289E-013  0.5052887E+02  0.7816164E-02  0.1300439E+00
        -11   -1    0    0    0    0  0.00000000000E+00  0.00000000000E+00  0.45593999997E+02  0.45594000000E+02  0.51100000000E-03 0.  1.
         11   -1    0    0    0    0 -0.00000000000E+00 -0.00000000000E+00 -0.45593999997E+02  0.45594000000E+02  0.51100000000E-03 0. -1.
    9900012    2    1    2    0    0  0.85059539792E+01  0.36605025097E+02  0.15520502944E+02  0.50528866621E+02  0.30000020583E+02 0.  0.
         12    1    1    2    0    0 -0.85059539792E+01 -0.36605025097E+02 -0.15520502944E+02  0.40659133379E+02  0.00000000000E+00 0. -1.
         11    1    3    3    0    0 -0.10248831686E+01  0.21700146289E+01 -0.53321109833E+00  0.24583863275E+01  0.51100000000E-03 0. -1.
        -11    1    3    3    0    0 -0.57955167281E+01  0.55818724495E+01  0.12958011495E+02  0.15253044823E+02  0.51100000000E-03 0.  1.
         12    1    3    3    0    0  0.15326353876E+02  0.28853138019E+02  0.30957025472E+01  0.32817435471E+02  0.00000000000E+00 0. -1.
</event>
<event>
 7    1  0.5121289E-013  0.5052883E+02  0.7816164E-02  0.1300439E+00
        -11   -1    0    0    0    0  0.00000000000E+00  0.00000000000E+00  0.45593999997E+02  0.45594000000E+02  0.51100000000E-03 0. -1.
         11   -1    0    0    0    0 -0.00000000000E+00 -0.00000000000E+00 -0.45593999997E+02  0.45594000000E+02  0.51100000000E-03 0.  1.
    9900012    2    1    2    0    0 -0.27660896861E+01 -0.25111756851E+02  0.31857752094E+02  0.50528831873E+02  0.29999914961E+02 0.  0.
         12    1    1    2    0    0  0.27660896861E+01  0.25111756851E+02 -0.31857752094E+02  0.40659168127E+02  0.00000000000E+00 0. -1.
         11    1    3    3    0    0  0.42066070530E+01 -0.15801568921E+01 -0.22283608540E+01  0.50157782106E+01  0.51100000000E-03 0.  1.
        -11    1    3    3    0    0  0.43307239586E+01 -0.13862989812E+01  0.95716421312E+01  0.10596854638E+02  0.51100000000E-03 0. -1.
        -12    1    3    3    0    0 -0.11303420698E+02 -0.22145300978E+02  0.24514470817E+02  0.34916199024E+02  0.00000000000E+00 0.  1.
</event>
<event>
 7    1  0.5121289E-013  0.5052886E+02  0.7816164E-02  0.1300439E+00
        -11   -1    0    0    0    0  0.00000000000E+00  0.00000000000E+00  0.45593999997E+02  0.45594000000E+02  0.51100000000E-03 0.  1.
         11   -1    0    0    0    0 -0.00000000000E+00 -0.00000000000E+00 -0.45593999997E+02  0.45594000000E+02  0.51100000000E-03 0. -1.
    9900012    2    1    2    0    0  0.38309441991E+02 -0.14832685640E+01  0.13540768746E+02  0.50528857738E+02  0.29999993579E+02 0.  0.
         12    1    1    2    0    0 -0.38309441991E+02  0.14832685640E+01 -0.13540768746E+02  0.40659142262E+02  0.00000000000E+00 0. -1.
         11    1    3    3    0    0  0.22161256699E+02  0.92914965902E+01  0.40289258407E+01  0.24365661310E+02  0.51100000000E-03 0. -1.
        -11    1    3    3    0    0  0.69353787156E+01  0.31197600460E+01  0.40748445522E+01  0.86276728646E+01  0.51100000000E-03 0.  1.
        -12    1    3    3    0    0  0.92128065762E+01 -0.13894525200E+02  0.54369983527E+01  0.17535523563E+02  0.00000000000E+00 0.  1.
</event>
<event>
 7    1  0.5121289E-013  0.5052886E+02  0.7816164E-02  0.1300439E+00
        -11   -1    0    0    0    0  0.00000000000E+00  0.00000000000E+00  0.45593999997E+02  0.45594000000E+02  0.51100000000E-03 0. -1.
         11   -1    0    0    0    0 -0.00000000000E+00 -0.00000000000E+00 -0.45593999997E+02  0.45594000000E+02  0.51100000000E-03 0.  1.
    9900012    2    1    2    0    0 -0.73127186716E+01  0.39957838390E+02  0.17496161266E+01  0.50528857612E+02  0.29999993198E+02 0.  0.
         12    1    1    2    0    0  0.73127186716E+01 -0.39957838390E+02 -0.17496161266E+01  0.40659142388E+02  0.00000000000E+00 0. -1.
         11    1    3    3    0    0 -0.10922376944E+02  0.11569188111E+02  0.69712443856E+00  0.15925778298E+02  0.51100000000E-03 0. -1.
        -11    1    3    3    0    0 -0.72047450852E+01  0.89582977460E+01 -0.32649424666E+01  0.11950702901E+02  0.51100000000E-03 0.  1.
         12    1    3    3    0    0  0.10814403357E+02  0.19430352532E+02  0.43174341546E+01  0.22652376413E+02  0.00000000000E+00 0. -1.
</event>
<event>
 7    1  0.5121289E-013  0.5052885E+02  0.7816164E-02  0.1300439E+00
        -11   -1    0    0    0    0  0.00000000000E+00  0.00000000000E+00  0.45593999997E+02  0.45594000000E+02  0.51100000000E-03 0. -1.
         11   -1    0    0    0    0 -0.00000000000E+00 -0.00000000000E+00 -0.45593999997E+02  0.45594000000E+02  0.51100000000E-03 0.  1.
    9900012    2    1    2    0    0 -0.28824115712E+02 -0.28176215671E+02  0.53326762268E+01  0.50528853281E+02  0.29999980034E+02 0.  0.
         12    1    1    2    0    0  0.28824115712E+02  0.28176215671E+02 -0.53326762268E+01  0.40659146719E+02  0.00000000000E+00 0. -1.
         11    1    3    3    0    0 -0.84451813784E+01 -0.34766911318E+01  0.10692056186E+02  0.14061597899E+02  0.51100000000E-03 0. -1.
        -11    1    3    3    0    0 -0.28018417745E+01 -0.22167002918E+00 -0.56724887483E+01  0.63306069055E+01  0.51100000000E-03 0.  1.
         12    1    3    3    0    0 -0.17577092559E+02 -0.24477854510E+02  0.31310878912E+00  0.30136648476E+02  0.00000000000E+00 0. -1.
</event>
<event>
 7    1  0.5121289E-013  0.5052881E+02  0.7816164E-02  0.1300439E+00
        -11   -1    0    0    0    0  0.00000000000E+00  0.00000000000E+00  0.45593999997E+02  0.45594000000E+02  0.51100000000E-03 0.  1.
         11   -1    0    0    0    0 -0.00000000000E+00 -0.00000000000E+00 -0.45593999997E+02  0.45594000000E+02  0.51100000000E-03 0. -1.
    9900012    2    1    2    0    0 -0.92529869650E+01 -0.10966390052E+02  0.38043272264E+02  0.50528806167E+02  0.29999836826E+02 0.  0.
         12    1    1    2    0    0  0.92529869650E+01  0.10966390052E+02 -0.38043272264E+02  0.40659193833E+02  0.00000000000E+00 0. -1.
         11    1    3    3    0    0 -0.62457402232E+01  0.70274602521E+01  0.10949858312E+02  0.14432389471E+02  0.51100000000E-03 0. -1.
        -11    1    3    3    0    0 -0.61813525136E+01 -0.17399730292E+01  0.12367552211E+02  0.13935313882E+02  0.51100000000E-03 0.  1.
         12    1    3    3    0    0  0.31741057718E+01 -0.16253877275E+02  0.14725861742E+02  0.22161102815E+02  0.00000000000E+00 0. -1.
</event>
<event>
 7    1  0.5121289E-013  0.5052887E+02  0.7816164E-02  0.1300439E+00
        -11   -1    0    0    0    0  0.00000000000E+00  0.00000000000E+00  0.45593999997E+02  0.45594000000E+02  0.51100000000E-03 0. -1.
         11   -1    0    0    0    0 -0.00000000000E+00 -0.00000000000E+00 -0.45593999997E+02  0.45594000000E+02  0.51100000000E-03 0.  1.
    9900012    2    1    2    0    0 -0.35165973774E+02 -0.10245393101E+02 -0.17650811190E+02  0.50528869083E+02  0.30000028064E+02 0.  0.
         12    1    1    2    0    0  0.35165973774E+02  0.10245393101E+02  0.17650811190E+02  0.40659130917E+02  0.00000000000E+00 0. -1.
         11    1    3    3    0    0 -0.13416938348E+02 -0.66660631666E+01 -0.23500293515E+01  0.15164869633E+02  0.51100000000E-03 0. -1.
        -11    1    3    3    0    0 -0.21424266009E+02 -0.75657776062E+01 -0.19223249461E+02  0.29761946927E+02  0.51100000000E-03 0.  1.
        -12    1    3    3    0    0 -0.32476941780E+00  0.39864476722E+01  0.39224676226E+01  0.56020525228E+01  0.00000000000E+00 0.  1.
</event>
<event>
 7    1  0.5121289E-013  0.5052887E+02  0.7816164E-02  0.1300439E+00
        -11   -1    0    0    0    0  0.00000000000E+00  0.00000000000E+00  0.45593999997E+02  0.45594000000E+02  0.51100000000E-03 0.  1.
         11   -1    0    0    0    0 -0.00000000000E+00 -0.00000000000E+00 -0.45593999997E+02  0.45594000000E+02  0.51100000000E-03 0. -1.
    9900012    2    1    2    0    0 -0.32717401405E+02  0.16457279706E+02  0.17660527581E+02  0.50528872557E+02  0.30000038624E+02 0.  0.
         12    1    1    2    0    0  0.32717401405E+02 -0.16457279706E+02 -0.17660527581E+02  0.40659127443E+02  0.00000000000E+00 0. -1.
         11    1    3    3    0    0 -0.36674182282E+02  0.13981737277E+02  0.16209361646E+02  0.42464432512E+02  0.51100000000E-03 0. -1.
        -11    1    3    3    0    0 -0.74462973768E+00  0.28958139550E+01  0.14974948192E+01  0.33440548594E+01  0.51100000000E-03 0.  1.
         12    1    3    3    0    0  0.47014106152E+01 -0.42027152596E+00 -0.46328884712E-01  0.47203851849E+01  0.00000000000E+00 0. -1.
</event>
<event>
 7    1  0.5121289E-013  0.5052886E+02  0.7816164E-02  0.1300439E+00
        -11   -1    0    0    0    0  0.00000000000E+00  0.00000000000E+00  0.45593999997E+02  0.45594000000E+02  0.51100000000E-03 0.  1.
         11   -1    0    0    0    0 -0.00000000000E+00 -0.00000000000E+00 -0.45593999997E+02  0.45594000000E+02  0.51100000000E-03 0. -1.
    9900012    2    1    2    0    0  0.12309864978E+02  0.31263223398E+02  0.22896376468E+02  0.50528856276E+02  0.29999989135E+02 0.  0.
         12    1    1    2    0    0 -0.12309864978E+02 -0.31263223398E+02 -0.22896376468E+02  0.40659143724E+02  0.00000000000E+00 0. -1.
         11    1    3    3    0    0 -0.45561635261E+01  0.62999160481E+01  0.78901678446E+01  0.11077107798E+02  0.51100000000E-03 0.  1.
        -11    1    3    3    0    0  0.98415053853E+01  0.12988556975E+02 -0.31483460303E+01  0.16597286632E+02  0.51100000000E-03 0. -1.
         12    1    3    3    0    0  0.70245231185E+01  0.11974750375E+02  0.18154554654E+02  0.22854461846E+02  0.00000000000E+00 0. -1.
</event>
<event>
 7    1  0.5121289E-013  0.5052887E+02  0.7816164E-02  0.1300439E+00
        -11   -1    0    0    0    0  0.00000000000E+00  0.00000000000E+00  0.45593999997E+02  0.45594000000E+02  0.51100000000E-03 0.  1.
         11   -1    0    0    0    0 -0.00000000000E+00 -0.00000000000E+00 -0.45593999997E+02  0.45594000000E+02  0.51100000000E-03 0. -1.
    9900012    2    1    2    0    0 -0.36852764234E+02 -0.16976397436E+02  0.26154345290E+01  0.50528870652E+02  0.30000032833E+02 0.  0.
         12    1    1    2    0    0  0.36852764234E+02  0.16976397436E+02 -0.26154345290E+01  0.40659129348E+02  0.00000000000E+00 0. -1.
         11    1    3    3    0    0 -0.10552746581E+02 -0.12532119882E+02 -0.10655090695E+02  0.19543424652E+02  0.51100000000E-03 0. -1.
        -11    1    3    3    0    0  0.16694238008E+00  0.74672579045E+00 -0.26319762221E+00  0.80916154991E+00  0.51100000000E-03 0.  1.
        -12    1    3    3    0    0 -0.26466960033E+02 -0.51910033446E+01  0.13533722846E+02  0.30176284450E+02  0.00000000000E+00 0.  1.
</event>
<event>
 7    1  0.5121289E-013  0.5052887E+02  0.7816164E-02  0.1300439E+00
        -11   -1    0    0    0    0  0.00000000000E+00  0.00000000000E+00  0.45593999997E+02  0.45594000000E+02  0.51100000000E-03 0.  1.
         11   -1    0    0    0    0 -0.00000000000E+00 -0.00000000000E+00 -0.45593999997E+02  0.45594000000E+02  0.51100000000E-03 0. -1.
    9900012    2    1    2    0    0  0.15869533782E+01 -0.34850798656E+02  0.20882252687E+02  0.50528867381E+02  0.30000022892E+02 0.  0.
         12    1    1    2    0    0 -0.15869533782E+01  0.34850798656E+02 -0.20882252687E+02  0.40659132619E+02  0.00000000000E+00 0. -1.
         11    1    3    3    0    0 -0.58744364868E+01 -0.16465862981E+02 -0.16171692749E+01  0.17557018097E+02  0.51100000000E-03 0.  1.
        -11    1    3    3    0    0  0.59300593432E+01 -0.60675270674E+00  0.35261557753E+01  0.69258593311E+01  0.51100000000E-03 0. -1.
        -12    1    3    3    0    0  0.15313305217E+01 -0.17778182969E+02  0.18973266187E+02  0.26045989953E+02  0.00000000000E+00 0.  1.
</event>
<event>
 7    1  0.5121289E-013  0.5052886E+02  0.7816164E-02  0.1300439E+00
        -11   -1    0    0    0    0  0.00000000000E+00  0.00000000000E+00  0.45593999997E+02  0.45594000000E+02  0.51100000000E-03 0.  1.
         11   -1    0    0    0    0 -0.00000000000E+00 -0.00000000000E+00 -0.45593999997E+02  0.45594000000E+02  0.51100000000E-03 0. -1.
    9900012    2    1    2    0    0 -0.20849491392E+02  0.34222625055E+02  0.68757771718E+01  0.50528859962E+02  0.30000000340E+02 0.  0.
         12    1    1    2    0    0  0.20849491392E+02 -0.34222625055E+02 -0.68757771718E+01  0.40659140038E+02  0.00000000000E+00 0. -1.
         11    1    3    3    0    0  0.94567033250E+00  0.31007699177E+01  0.73997182447E+01  0.80786692482E+01  0.51100000000E-03 0. -1.
        -11    1    3    3    0    0 -0.10315985496E+02  0.60434683739E+01  0.70094468181E+01  0.13859127379E+02  0.51100000000E-03 0.  1.
        -12    1    3    3    0    0 -0.11479176228E+02  0.25078386763E+02 -0.75333878910E+01  0.28591063335E+02  0.00000000000E+00 0.  1.
</event>
<event>
 7    1  0.5121289E-013  0.5052886E+02  0.7816164E-02  0.1300439E+00
        -11   -1    0    0    0    0  0.00000000000E+00  0.00000000000E+00  0.45593999997E+02  0.45594000000E+02  0.51100000000E-03 0. -1.
         11   -1    0    0    0    0 -0.00000000000E+00 -0.00000000000E+00 -0.45593999997E+02  0.45594000000E+02  0.51100000000E-03 0.  1.
    9900012    2    1    2    0    0 -0.28559499644E+02  0.73670613036E+01 -0.27986552975E+02  0.50528858844E+02  0.29999996941E+02 0.  0.
         12    1    1    2    0    0  0.28559499644E+02 -0.73670613036E+01  0.27986552975E+02  0.40659141156E+02  0.00000000000E+00 0. -1.
         11    1    3    3    0    0 -0.21079164279E+01  0.10260339429E+02 -0.11114439846E+02  0.15272480159E+02  0.51100000000E-03 0. -1.
        -11    1    3    3    0    0 -0.19972186740E+02  0.50330694993E+01 -0.12726366133E+02  0.24211163272E+02  0.51100000000E-03 0.  1.
        -12    1    3    3    0    0 -0.64793964760E+01 -0.79263476246E+01 -0.41457469960E+01  0.11045215413E+02  0.00000000000E+00 0.  1.
</event>
<event>
 7    1  0.5121289E-013  0.5052887E+02  0.7816164E-02  0.1300439E+00
        -11   -1    0    0    0    0  0.00000000000E+00  0.00000000000E+00  0.45593999997E+02  0.45594000000E+02  0.51100000000E-03 0.  1.
         11   -1    0    0    0    0 -0.00000000000E+00 -0.00000000000E+00 -0.45593999997E+02  0.45594000000E+02  0.51100000000E-03 0. -1.
    9900012    2    1    2    0    0 -0.10770446627E+02 -0.97492302598E+01  0.37975187081E+02  0.50528870090E+02  0.30000031126E+02 0.  0.
         12    1    1    2    0    0  0.10770446627E+02  0.97492302598E+01 -0.37975187081E+02  0.40659129910E+02  0.00000000000E+00 0. -1.
         11    1    3    3    0    0 -0.24837880963E+01  0.66739190256E+01  0.76913193857E+00  0.71625388424E+01  0.51100000000E-03 0. -1.
        -11    1    3    3    0    0 -0.19845800903E+01 -0.62784138209E+01  0.26570540420E+02  0.27374269976E+02  0.51100000000E-03 0.  1.
        -12    1    3    3    0    0 -0.63020784405E+01 -0.10144735465E+02  0.10635514723E+02  0.15992061272E+02  0.00000000000E+00 0.  1.
</event>
<event>
 7    1  0.5121289E-013  0.5052886E+02  0.7816164E-02  0.1300439E+00
        -11   -1    0    0    0    0  0.00000000000E+00  0.00000000000E+00  0.45593999997E+02  0.45594000000E+02  0.51100000000E-03 0.  1.
         11   -1    0    0    0    0 -0.00000000000E+00 -0.00000000000E+00 -0.45593999997E+02  0.45594000000E+02  0.51100000000E-03 0. -1.
    9900012    2    1    2    0    0 -0.38790952985E+02  0.90493157005E+01  0.81570700749E+01  0.50528856621E+02  0.29999990185E+02 0.  0.
         12    1    1    2    0    0  0.38790952985E+02 -0.90493157005E+01 -0.81570700749E+01  0.40659143379E+02  0.00000000000E+00 0. -1.
         11    1    3    3    0    0 -0.85255880724E+01  0.61051548608E+01  0.11881262974E+02  0.15846860193E+02  0.51100000000E-03 0. -1.
        -11    1    3    3    0    0 -0.11826887229E+02 -0.58990798717E+01  0.21850729640E+01  0.13395855664E+02  0.51100000000E-03 0.  1.
        -12    1    3    3    0    0 -0.18438477683E+02  0.88432407114E+01 -0.59092658635E+01  0.21286140764E+02  0.00000000000E+00 0.  1.
</event>
<event>
 7    1  0.5121289E-013  0.5052879E+02  0.7816164E-02  0.1300439E+00
        -11   -1    0    0    0    0  0.00000000000E+00  0.00000000000E+00  0.45593999997E+02  0.45594000000E+02  0.51100000000E-03 0.  1.
         11   -1    0    0    0    0 -0.00000000000E+00 -0.00000000000E+00 -0.45593999997E+02  0.45594000000E+02  0.51100000000E-03 0. -1.
    9900012    2    1    2    0    0  0.12139728751E+02 -0.32772239896E+02  0.20779291183E+02  0.50528786235E+02  0.29999776238E+02 0.  0.
         12    1    1    2    0    0 -0.12139728751E+02  0.32772239896E+02 -0.20779291183E+02  0.40659213765E+02  0.00000000000E+00 0. -1.
         11    1    3    3    0    0  0.32099282956E+01 -0.31017636075E+01  0.15183588576E+02  0.15826115741E+02  0.51100000000E-03 0. -1.
        -11    1    3    3    0    0 -0.34532162149E+01 -0.12733678264E+02  0.32742758216E+01  0.13593827525E+02  0.51100000000E-03 0.  1.
         12    1    3    3    0    0  0.12383016670E+02 -0.16936798025E+02  0.23214267853E+01  0.21108842969E+02  0.00000000000E+00 0. -1.
</event>
<event>
 7    1  0.5121289E-013  0.5052888E+02  0.7816164E-02  0.1300439E+00
        -11   -1    0    0    0    0  0.00000000000E+00  0.00000000000E+00  0.45593999997E+02  0.45594000000E+02  0.51100000000E-03 0.  1.
         11   -1    0    0    0    0 -0.00000000000E+00 -0.00000000000E+00 -0.45593999997E+02  0.45594000000E+02  0.51100000000E-03 0. -1.
    9900012    2    1    2    0    0  0.12679211048E+02  0.38489157539E+02 -0.33146166019E+01  0.50528876497E+02  0.30000050599E+02 0.  0.
         12    1    1    2    0    0 -0.12679211048E+02 -0.38489157539E+02  0.33146166019E+01  0.40659123503E+02  0.00000000000E+00 0. -1.
         11    1    3    3    0    0  0.14351781995E+02  0.16953402541E+02 -0.98594372399E+01  0.24302263415E+02  0.51100000000E-03 0. -1.
        -11    1    3    3    0    0  0.48369096756E+01  0.29912211789E+01  0.75027904818E+00  0.57363767539E+01  0.51100000000E-03 0.  1.
        -12    1    3    3    0    0 -0.65094806221E+01  0.18544533819E+02  0.57945415899E+01  0.20490236328E+02  0.00000000000E+00 0.  1.
</event>
<event>
 7    1  0.5121289E-013  0.5052885E+02  0.7816164E-02  0.1300439E+00
        -11   -1    0    0    0    0  0.00000000000E+00  0.00000000000E+00  0.45593999997E+02  0.45594000000E+02  0.51100000000E-03 0.  1.
         11   -1    0    0    0    0 -0.00000000000E+00 -0.00000000000E+00 -0.45593999997E+02  0.45594000000E+02  0.51100000000E-03 0. -1.
    9900012    2    1    2    0    0  0.31546247635E+02 -0.12080630293E+02  0.22628730634E+02  0.50528845825E+02  0.29999957370E+02 0.  0.
         12    1    1    2    0    0 -0.31546247635E+02  0.12080630293E+02 -0.22628730634E+02  0.40659154175E+02  0.00000000000E+00 0. -1.
         11    1    3    3    0    0  0.12919823173E+02 -0.39469884621E+01  0.11994344072E+02  0.18065570534E+02  0.51100000000E-03 0.  1.
        -11    1    3    3    0    0  0.12906194922E+02  0.59268527977E+01  0.98111880473E+01  0.17261427016E+02  0.51100000000E-03 0. -1.
         12    1    3    3    0    0  0.57202295396E+01 -0.14060494628E+02  0.82319851383E+00  0.15201848275E+02  0.00000000000E+00 0. -1.
</event>
<event>
 7    1  0.5121289E-013  0.5052886E+02  0.7816164E-02  0.1300439E+00
        -11   -1    0    0    0    0  0.00000000000E+00  0.00000000000E+00  0.45593999997E+02  0.45594000000E+02  0.51100000000E-03 0.  1.
         11   -1    0    0    0    0 -0.00000000000E+00 -0.00000000000E+00 -0.45593999997E+02  0.45594000000E+02  0.51100000000E-03 0. -1.
    9900012    2    1    2    0    0 -0.40356334417E+02  0.44758137235E+01  0.21211589566E+01  0.50528856485E+02  0.29999989773E+02 0.  0.
         12    1    1    2    0    0  0.40356334417E+02 -0.44758137235E+01 -0.21211589566E+01  0.40659143515E+02  0.00000000000E+00 0. -1.
         11    1    3    3    0    0 -0.13490215522E+02 -0.66682601750E+01  0.30402959223E+01  0.15352361647E+02  0.51100000000E-03 0. -1.
        -11    1    3    3    0    0 -0.11934639811E+02 -0.29594978426E+01  0.57602765702E+01  0.13578477136E+02  0.51100000000E-03 0.  1.
        -12    1    3    3    0    0 -0.14931479084E+02  0.14103571741E+02 -0.66794135360E+01  0.21598017702E+02  0.00000000000E+00 0.  1.
</event>
<event>
 7    1  0.5121289E-013  0.5052891E+02  0.7816164E-02  0.1300439E+00
        -11   -1    0    0    0    0  0.00000000000E+00  0.00000000000E+00  0.45593999997E+02  0.45594000000E+02  0.51100000000E-03 0. -1.
         11   -1    0    0    0    0 -0.00000000000E+00 -0.00000000000E+00 -0.45593999997E+02  0.45594000000E+02  0.51100000000E-03 0.  1.
    9900012    2    1    2    0    0 -0.10053984811E+01 -0.37731444284E+02  0.15115840168E+02  0.50528913220E+02  0.30000162222E+02 0.  0.
         12    1    1    2    0    0  0.10053984811E+01  0.37731444284E+02 -0.15115840168E+02  0.40659086780E+02  0.00000000000E+00 0. -1.
         11    1    3    3    0    0 -0.62738859698E+01 -0.20266296315E+02  0.12678211969E+02  0.24714802660E+02  0.51100000000E-03 0.  1.
        -11    1    3    3    0    0 -0.42630272350E+01 -0.11745820053E+02  0.63671649502E+01  0.14024210484E+02  0.51100000000E-03 0. -1.
         12    1    3    3    0    0  0.95315147237E+01 -0.57193279150E+01 -0.39295367514E+01  0.11789900076E+02  0.00000000000E+00 0. -1.
</event>
<event>
 7    1  0.5121289E-013  0.5052886E+02  0.7816164E-02  0.1300439E+00
        -11   -1    0    0    0    0  0.00000000000E+00  0.00000000000E+00  0.45593999997E+02  0.45594000000E+02  0.51100000000E-03 0. -1.
         11   -1    0    0    0    0 -0.00000000000E+00 -0.00000000000E+00 -0.45593999997E+02  0.45594000000E+02  0.51100000000E-03 0.  1.
    9900012    2    1    2    0    0 -0.39317934813E+02  0.14737559727E+01 -0.10251511712E+02  0.50528862688E+02  0.30000008625E+02 0.  0.
         12    1    1    2    0    0  0.39317934813E+02 -0.14737559727E+01  0.10251511712E+02  0.40659137312E+02  0.00000000000E+00 0. -1.
         11    1    3    3    0    0  0.62888390907E+00  0.49899341738E+01  0.31364491301E+01  0.59272465308E+01  0.51100000000E-03 0. -1.
        -11    1    3    3    0    0  0.47087700955E+00 -0.14851168758E+01 -0.20496672071E+01  0.25745743753E+01  0.51100000000E-03 0.  1.
        -12    1    3    3    0    0 -0.40417695732E+02 -0.20310613253E+01 -0.11338293635E+02  0.42027041781E+02  0.00000000000E+00 0.  1.
</event>
<event>
 7    1  0.5121289E-013  0.5052885E+02  0.7816164E-02  0.1300439E+00
        -11   -1    0    0    0    0  0.00000000000E+00  0.00000000000E+00  0.45593999997E+02  0.45594000000E+02  0.51100000000E-03 0. -1.
         11   -1    0    0    0    0 -0.00000000000E+00 -0.00000000000E+00 -0.45593999997E+02  0.45594000000E+02  0.51100000000E-03 0.  1.
    9900012    2    1    2    0    0 -0.15460346620E+02  0.28737701938E+02 -0.24254663455E+02  0.50528849374E+02  0.29999968158E+02 0.  0.
         12    1    1    2    0    0  0.15460346620E+02 -0.28737701938E+02  0.24254663455E+02  0.40659150626E+02  0.00000000000E+00 0. -1.
         11    1    3    3    0    0 -0.13185774473E+00  0.62812244040E-01  0.30910449918E+01  0.30944936977E+01  0.51100000000E-03 0. -1.
        -11    1    3    3    0    0 -0.82694258022E+01  0.73369876804E+00 -0.95371404870E+00  0.83565116962E+01  0.51100000000E-03 0.  1.
        -12    1    3    3    0    0 -0.70590630728E+01  0.27941190926E+02 -0.26391994398E+02  0.39077843980E+02  0.00000000000E+00 0.  1.
</event>
<event>
 7    1  0.5121289E-013  0.5052885E+02  0.7816164E-02  0.1300439E+00
        -11   -1    0    0    0    0  0.00000000000E+00  0.00000000000E+00  0.45593999997E+02  0.45594000000E+02  0.51100000000E-03 0.  1.
         11   -1    0    0    0    0 -0.00000000000E+00 -0.00000000000E+00 -0.45593999997E+02  0.45594000000E+02  0.51100000000E-03 0. -1.
    9900012    2    1    2    0    0  0.20362434224E+02 -0.17776394107E+02  0.30373300749E+02  0.50528852033E+02  0.29999976240E+02 0.  0.
         12    1    1    2    0    0 -0.20362434224E+02  0.17776394107E+02 -0.30373300749E+02  0.40659147967E+02  0.00000000000E+00 0. -1.
         11    1    3    3    0    0  0.26849235159E+01 -0.66093126258E+01 -0.36394700537E+01  0.80085935222E+01  0.51100000000E-03 0. -1.
        -11    1    3    3    0    0  0.14428537390E+02 -0.14347467323E+02  0.23616097360E+02  0.31172946036E+02  0.51100000000E-03 0.  1.
        -12    1    3    3    0    0  0.32489733180E+01  0.31803858414E+01  0.10396673443E+02  0.11347312475E+02  0.00000000000E+00 0.  1.
</event>
<event>
 7    1  0.5121289E-013  0.5052886E+02  0.7816164E-02  0.1300439E+00
        -11   -1    0    0    0    0  0.00000000000E+00  0.00000000000E+00  0.45593999997E+02  0.45594000000E+02  0.51100000000E-03 0.  1.
         11   -1    0    0    0    0 -0.00000000000E+00 -0.00000000000E+00 -0.45593999997E+02  0.45594000000E+02  0.51100000000E-03 0. -1.
    9900012    2    1    2    0    0  0.50720052464E+01 -0.21605135558E+02  0.34068438200E+02  0.50528860792E+02  0.30000002864E+02 0.  0.
         12    1    1    2    0    0 -0.50720052464E+01  0.21605135558E+02 -0.34068438200E+02  0.40659139208E+02  0.00000000000E+00 0. -1.
         11    1    3    3    0    0  0.21265470084E+01 -0.17513248750E+01 -0.25244759699E+01  0.37366188166E+01  0.51100000000E-03 0. -1.
        -11    1    3    3    0    0  0.43430229404E+01 -0.15756753211E+02  0.86042494893E+01  0.18470793961E+02  0.51100000000E-03 0.  1.
         12    1    3    3    0    0 -0.13975647024E+01 -0.40970574720E+01  0.27988664681E+02  0.28321448015E+02  0.00000000000E+00 0. -1.
</event>
<event>
 7    1  0.5121289E-013  0.5052886E+02  0.7816164E-02  0.1300439E+00
        -11   -1    0    0    0    0  0.00000000000E+00  0.00000000000E+00  0.45593999997E+02  0.45594000000E+02  0.51100000000E-03 0.  1.
         11   -1    0    0    0    0 -0.00000000000E+00 -0.00000000000E+00 -0.45593999997E+02  0.45594000000E+02  0.51100000000E-03 0. -1.
    9900012    2    1    2    0    0 -0.13501413475E+02 -0.37650732034E+00  0.38350174906E+02  0.50528857868E+02  0.29999993976E+02 0.  0.
         12    1    1    2    0    0  0.13501413475E+02  0.37650732034E+00 -0.38350174906E+02  0.40659142132E+02  0.00000000000E+00 0. -1.
         11    1    3    3    0    0 -0.55430596617E+01 -0.25252180556E+01 -0.25978040122E+01  0.66219953631E+01  0.51100000000E-03 0. -1.
        -11    1    3    3    0    0  0.35600592275E+01 -0.11739482126E+01  0.77083197467E+01  0.85714858507E+01  0.51100000000E-03 0.  1.
        -12    1    3    3    0    0 -0.11518413041E+02  0.33226589479E+01  0.33239659172E+02  0.35335376654E+02  0.00000000000E+00 0.  1.
</event>
<event>
 7    1  0.5121289E-013  0.5052886E+02  0.7816164E-02  0.1300439E+00
        -11   -1    0    0    0    0  0.00000000000E+00  0.00000000000E+00  0.45593999997E+02  0.45594000000E+02  0.51100000000E-03 0. -1.
         11   -1    0    0    0    0 -0.00000000000E+00 -0.00000000000E+00 -0.45593999997E+02  0.45594000000E+02  0.51100000000E-03 0.  1.
    9900012    2    1    2    0    0  0.21143047904E+02 -0.34328036770E+02 -0.52653092060E+01  0.50528855098E+02  0.29999985555E+02 0.  0.
         12    1    1    2    0    0 -0.21143047904E+02  0.34328036770E+02  0.52653092060E+01  0.40659144902E+02  0.00000000000E+00 0. -1.
         11    1    3    3    0    0  0.18267472970E+01  0.25821542768E+01 -0.51984057642E+01  0.60850595023E+01  0.51100000000E-03 0.  1.
        -11    1    3    3    0    0  0.14157440420E+02 -0.10772782009E+02 -0.53352809561E+00  0.17798050566E+02  0.51100000000E-03 0. -1.
        -12    1    3    3    0    0  0.51588601871E+01 -0.26137409037E+02  0.46662465383E+00  0.26645745030E+02  0.00000000000E+00 0.  1.
</event>
<event>
 7    1  0.5121289E-013  0.5052887E+02  0.7816164E-02  0.1300439E+00
        -11   -1    0    0    0    0  0.00000000000E+00  0.00000000000E+00  0.45593999997E+02  0.45594000000E+02  0.51100000000E-03 0.  1.
         11   -1    0    0    0    0 -0.00000000000E+00 -0.00000000000E+00 -0.45593999997E+02  0.45594000000E+02  0.51100000000E-03 0. -1.
    9900012    2    1    2    0    0  0.12115055734E-01  0.13081596361E+02  0.38497230693E+02  0.50528867187E+02  0.30000022300E+02 0.  0.
         12    1    1    2    0    0 -0.12115055734E-01 -0.13081596361E+02 -0.38497230693E+02  0.40659132813E+02  0.00000000000E+00 0. -1.
         11    1    3    3    0    0 -0.11930405031E+01 -0.20243418129E+01  0.26740779115E+02  0.26843818159E+02  0.51100000000E-03 0. -1.
        -11    1    3    3    0    0 -0.46351843391E+01  0.15185987712E+01  0.61946137702E+01  0.78844350533E+01  0.51100000000E-03 0.  1.
         12    1    3    3    0    0  0.58403398980E+01  0.13587339402E+02  0.55618378074E+01  0.15800613974E+02  0.00000000000E+00 0. -1.
</event>
<event>
 7    1  0.5121289E-013  0.5052886E+02  0.7816164E-02  0.1300439E+00
        -11   -1    0    0    0    0  0.00000000000E+00  0.00000000000E+00  0.45593999997E+02  0.45594000000E+02  0.51100000000E-03 0. -1.
         11   -1    0    0    0    0 -0.00000000000E+00 -0.00000000000E+00 -0.45593999997E+02  0.45594000000E+02  0.51100000000E-03 0.  1.
    9900012    2    1    2    0    0 -0.21023871736E+02 -0.22462456960E+01 -0.34729195760E+02  0.50528857847E+02  0.29999993911E+02 0.  0.
         12    1    1    2    0    0  0.21023871736E+02  0.22462456960E+01  0.34729195760E+02  0.40659142153E+02  0.00000000000E+00 0. -1.
         11    1    3    3    0    0  0.53038101195E+00  0.24690568618E+01  0.37619992804E+00  0.25532474325E+01  0.51100000000E-03 0. -1.
        -11    1    3    3    0    0 -0.15669353383E+02  0.70078706184E+01 -0.10582929384E+02  0.20165249333E+02  0.51100000000E-03 0.  1.
        -12    1    3    3    0    0 -0.58848993651E+01 -0.11723173176E+02 -0.24522466304E+02  0.27810361082E+02  0.00000000000E+00 0.  1.
</event>
<event>
 7    1  0.5121289E-013  0.5052886E+02  0.7816164E-02  0.1300439E+00
        -11   -1    0    0    0    0  0.00000000000E+00  0.00000000000E+00  0.45593999997E+02  0.45594000000E+02  0.51100000000E-03 0.  1.
         11   -1    0    0    0    0 -0.00000000000E+00 -0.00000000000E+00 -0.45593999997E+02  0.45594000000E+02  0.51100000000E-03 0. -1.
    9900012    2    1    2    0    0  0.20934199490E+02  0.13832848218E+02  0.31993393693E+02  0.50528860337E+02  0.30000001481E+02 0.  0.
         12    1    1    2    0    0 -0.20934199490E+02 -0.13832848218E+02 -0.31993393693E+02  0.40659139663E+02  0.00000000000E+00 0. -1.
         11    1    3    3    0    0 -0.32062345578E+01  0.18123906084E+01  0.31497047478E+01  0.48461675596E+01  0.51100000000E-03 0. -1.
        -11    1    3    3    0    0 -0.74205795957E+00  0.54762490888E+01  0.15997774954E+02  0.16925387967E+02  0.51100000000E-03 0.  1.
         12    1    3    3    0    0  0.24882492008E+02  0.65442085204E+01  0.12845913991E+02  0.28757304810E+02  0.00000000000E+00 0. -1.
</event>
<event>
 7    1  0.5121289E-013  0.5052895E+02  0.7816164E-02  0.1300438E+00
        -11   -1    0    0    0    0  0.00000000000E+00  0.00000000000E+00  0.45593999997E+02  0.45594000000E+02  0.51100000000E-03 0.  1.
         11   -1    0    0    0    0 -0.00000000000E+00 -0.00000000000E+00 -0.45593999997E+02  0.45594000000E+02  0.51100000000E-03 0. -1.
    9900012    2    1    2    0    0 -0.18480442302E+02 -0.15022200428E+02  0.32953979456E+02  0.50528954077E+02  0.30000286410E+02 0.  0.
         12    1    1    2    0    0  0.18480442302E+02  0.15022200428E+02 -0.32953979456E+02  0.40659045923E+02  0.00000000000E+00 0. -1.
         11    1    3    3    0    0 -0.14960310007E+02 -0.20284205451E+01  0.59948699500E+01  0.16243885969E+02  0.51100000000E-03 0. -1.
        -11    1    3    3    0    0 -0.10101252359E+02 -0.84914807818E+01  0.16245880693E+02  0.20930102361E+02  0.51100000000E-03 0.  1.
         12    1    3    3    0    0  0.65811200633E+01 -0.45022991015E+01  0.10713228813E+02  0.13354965747E+02  0.00000000000E+00 0. -1.
</event>
<event>
 7    1  0.5121289E-013  0.5052886E+02  0.7816164E-02  0.1300439E+00
        -11   -1    0    0    0    0  0.00000000000E+00  0.00000000000E+00  0.45593999997E+02  0.45594000000E+02  0.51100000000E-03 0.  1.
         11   -1    0    0    0    0 -0.00000000000E+00 -0.00000000000E+00 -0.45593999997E+02  0.45594000000E+02  0.51100000000E-03 0. -1.
    9900012    2    1    2    0    0  0.23698365272E+02  0.30982095110E+02  0.11474443165E+02  0.50528861053E+02  0.30000003656E+02 0.  0.
         12    1    1    2    0    0 -0.23698365272E+02 -0.30982095110E+02 -0.11474443165E+02  0.40659138947E+02  0.00000000000E+00 0. -1.
         11    1    3    3    0    0  0.41899880320E+01  0.79292243733E+01 -0.73850754031E+00  0.89985550239E+01  0.51100000000E-03 0. -1.
        -11    1    3    3    0    0  0.28818894665E+01  0.91549427014E+01 -0.75424184543E+01  0.12206815275E+02  0.51100000000E-03 0.  1.
        -12    1    3    3    0    0  0.16626487774E+02  0.13897928035E+02  0.19755369159E+02  0.29323490754E+02  0.00000000000E+00 0.  1.
</event>
<event>
 7    1  0.5121289E-013  0.5052885E+02  0.7816164E-02  0.1300439E+00
        -11   -1    0    0    0    0  0.00000000000E+00  0.00000000000E+00  0.45593999997E+02  0.45594000000E+02  0.51100000000E-03 0.  1.
         11   -1    0    0    0    0 -0.00000000000E+00 -0.00000000000E+00 -0.45593999997E+02  0.45594000000E+02  0.51100000000E-03 0. -1.
    9900012    2    1    2    0    0 -0.37419275633E+02 -0.15021831931E+02  0.52257744595E+01  0.50528851679E+02  0.29999975163E+02 0.  0.
         12    1    1    2    0    0  0.37419275633E+02  0.15021831931E+02 -0.52257744595E+01  0.40659148321E+02  0.00000000000E+00 0. -1.
         11    1    3    3    0    0 -0.44513695249E+01 -0.10873364683E+02  0.40692288520E+01  0.12433960507E+02  0.51100000000E-03 0. -1.
        -11    1    3    3    0    0 -0.66086707165E+01 -0.84910048290E+01 -0.27260311295E+01  0.11099681870E+02  0.51100000000E-03 0.  1.
        -12    1    3    3    0    0 -0.26359235392E+02  0.43425375816E+01  0.38825767371E+01  0.26995209301E+02  0.00000000000E+00 0.  1.
</event>
<event>
 7    1  0.5121289E-013  0.5052885E+02  0.7816164E-02  0.1300439E+00
        -11   -1    0    0    0    0  0.00000000000E+00  0.00000000000E+00  0.45593999997E+02  0.45594000000E+02  0.51100000000E-03 0. -1.
         11   -1    0    0    0    0 -0.00000000000E+00 -0.00000000000E+00 -0.45593999997E+02  0.45594000000E+02  0.51100000000E-03 0.  1.
    9900012    2    1    2    0    0 -0.33450241131E+02  0.21345654448E+02 -0.88662965798E+01  0.50528845919E+02  0.29999957654E+02 0.  0.
         12    1    1    2    0    0  0.33450241131E+02 -0.21345654448E+02  0.88662965798E+01  0.40659154081E+02  0.00000000000E+00 0. -1.
         11    1    3    3    0    0 -0.21500929137E+02  0.14472562976E+02 -0.10815207537E+02  0.28084047913E+02  0.51100000000E-03 0. -1.
        -11    1    3    3    0    0 -0.48113238492E+01 -0.42085135005E+01 -0.44535206698E+01  0.77906527123E+01  0.51100000000E-03 0.  1.
         12    1    3    3    0    0 -0.71379881450E+01  0.11081604973E+02  0.64024316273E+01  0.14654145293E+02  0.00000000000E+00 0. -1.
</event>
<event>
 7    1  0.5121289E-013  0.5052891E+02  0.7816164E-02  0.1300439E+00
        -11   -1    0    0    0    0  0.00000000000E+00  0.00000000000E+00  0.45593999997E+02  0.45594000000E+02  0.51100000000E-03 0.  1.
         11   -1    0    0    0    0 -0.00000000000E+00 -0.00000000000E+00 -0.45593999997E+02  0.45594000000E+02  0.51100000000E-03 0. -1.
    9900012    2    1    2    0    0  0.59308545117E+01  0.36024619376E+02  0.17894515260E+02  0.50528906148E+02  0.30000140728E+02 0.  0.
         12    1    1    2    0    0 -0.59308545117E+01 -0.36024619376E+02 -0.17894515260E+02  0.40659093852E+02  0.00000000000E+00 0. -1.
         11    1    3    3    0    0  0.12074410024E+02  0.15568235802E+02 -0.12071695477E+01  0.19738758877E+02  0.51100000000E-03 0. -1.
        -11    1    3    3    0    0  0.33109728328E+01  0.60258831977E+01  0.60330290649E+01  0.91471989905E+01  0.51100000000E-03 0.  1.
        -12    1    3    3    0    0 -0.94545283455E+01  0.14430500377E+02  0.13068655743E+02  0.21642948281E+02  0.00000000000E+00 0.  1.
</event>
<event>
 7    1  0.5121289E-013  0.5052886E+02  0.7816164E-02  0.1300439E+00
        -11   -1    0    0    0    0  0.00000000000E+00  0.00000000000E+00  0.45593999997E+02  0.45594000000E+02  0.51100000000E-03 0.  1.
         11   -1    0    0    0    0 -0.00000000000E+00 -0.00000000000E+00 -0.45593999997E+02  0.45594000000E+02  0.51100000000E-03 0. -1.
    9900012    2    1    2    0    0  0.35841724394E+02  0.18183721556E+02  0.61553780400E+01  0.50528860609E+02  0.30000002308E+02 0.  0.
         12    1    1    2    0    0 -0.35841724394E+02 -0.18183721556E+02 -0.61553780400E+01  0.40659139391E+02  0.00000000000E+00 0. -1.
         11    1    3    3    0    0  0.14566748449E+02  0.89613318667E-02  0.18161001368E+01  0.14679525219E+02  0.51100000000E-03 0. -1.
        -11    1    3    3    0    0  0.89719827562E+01 -0.33487241914E+01  0.54760749392E+01  0.11031673730E+02  0.51100000000E-03 0.  1.
        -12    1    3    3    0    0  0.12302993189E+02  0.21523484415E+02 -0.11367970360E+01  0.24817661661E+02  0.00000000000E+00 0.  1.
</event>
<event>
 7    1  0.5121289E-013  0.5052886E+02  0.7816164E-02  0.1300439E+00
        -11   -1    0    0    0    0  0.00000000000E+00  0.00000000000E+00  0.45593999997E+02  0.45594000000E+02  0.51100000000E-03 0.  1.
         11   -1    0    0    0    0 -0.00000000000E+00 -0.00000000000E+00 -0.45593999997E+02  0.45594000000E+02  0.51100000000E-03 0. -1.
    9900012    2    1    2    0    0  0.14905169835E+02  0.14746550605E+02 -0.34835910439E+02  0.50528862052E+02  0.30000006694E+02 0.  0.
         12    1    1    2    0    0 -0.14905169835E+02 -0.14746550605E+02  0.34835910439E+02  0.40659137948E+02  0.00000000000E+00 0. -1.
         11    1    3    3    0    0  0.10998753442E+01  0.14470151547E+01  0.36264177443E+01  0.40564127685E+01  0.51100000000E-03 0. -1.
        -11    1    3    3    0    0  0.78900171479E+01  0.68703229430E+01 -0.44726834214E+01  0.11377987748E+02  0.51100000000E-03 0.  1.
        -12    1    3    3    0    0  0.59152773425E+01  0.64292125076E+01 -0.33989644762E+02  0.35094461536E+02  0.00000000000E+00 0.  1.
</event>
<event>
 7    1  0.5121289E-013  0.5052886E+02  0.7816164E-02  0.1300439E+00
        -11   -1    0    0    0    0  0.00000000000E+00  0.00000000000E+00  0.45593999997E+02  0.45594000000E+02  0.51100000000E-03 0.  1.
         11   -1    0    0    0    0 -0.00000000000E+00 -0.00000000000E+00 -0.45593999997E+02  0.45594000000E+02  0.51100000000E-03 0. -1.
    9900012    2    1    2    0    0  0.34920471960E+02  0.11970561776E+02  0.17042063477E+02  0.50528860330E+02  0.30000001460E+02 0.  0.
         12    1    1    2    0    0 -0.34920471960E+02 -0.11970561776E+02 -0.17042063477E+02  0.40659139670E+02  0.00000000000E+00 0. -1.
         11    1    3    3    0    0  0.27011442958E+01  0.93026916009E+01 -0.11379842657E+00  0.96875797737E+01  0.51100000000E-03 0. -1.
        -11    1    3    3    0    0  0.17799442797E+02  0.47899652389E+01  0.18610358229E+02  0.26193689403E+02  0.51100000000E-03 0.  1.
         12    1    3    3    0    0  0.14419884867E+02 -0.21220950642E+01 -0.14544963252E+01  0.14647591154E+02  0.00000000000E+00 0. -1.
</event>
<event>
 7    1  0.5121289E-013  0.5052887E+02  0.7816164E-02  0.1300439E+00
        -11   -1    0    0    0    0  0.00000000000E+00  0.00000000000E+00  0.45593999997E+02  0.45594000000E+02  0.51100000000E-03 0.  1.
         11   -1    0    0    0    0 -0.00000000000E+00 -0.00000000000E+00 -0.45593999997E+02  0.45594000000E+02  0.51100000000E-03 0. -1.
    9900012    2    1    2    0    0 -0.39399753623E+02 -0.95759639677E-01 -0.10040674135E+02  0.50528869506E+02  0.30000029349E+02 0.  0.
         12    1    1    2    0    0  0.39399753623E+02  0.95759639677E-01  0.10040674135E+02  0.40659130494E+02  0.00000000000E+00 0. -1.
         11    1    3    3    0    0 -0.24569092515E-01 -0.37008102691E+01 -0.28495958845E+01  0.46708454539E+01  0.51100000000E-03 0. -1.
        -11    1    3    3    0    0 -0.10289671112E+02  0.42931418407E+00  0.78599747565E+01  0.12955340432E+02  0.51100000000E-03 0.  1.
        -12    1    3    3    0    0 -0.29085513419E+02  0.31757364453E+01 -0.15051053007E+02  0.32902683620E+02  0.00000000000E+00 0.  1.
</event>
<event>
 7    1  0.5121289E-013  0.5052886E+02  0.7816164E-02  0.1300439E+00
        -11   -1    0    0    0    0  0.00000000000E+00  0.00000000000E+00  0.45593999997E+02  0.45594000000E+02  0.51100000000E-03 0. -1.
         11   -1    0    0    0    0 -0.00000000000E+00 -0.00000000000E+00 -0.45593999997E+02  0.45594000000E+02  0.51100000000E-03 0.  1.
    9900012    2    1    2    0    0  0.25324677739E+02 -0.23240152374E+02 -0.21719152754E+02  0.50528861036E+02  0.30000003604E+02 0.  0.
         12    1    1    2    0    0 -0.25324677739E+02  0.23240152374E+02  0.21719152754E+02  0.40659138964E+02  0.00000000000E+00 0. -1.
         11    1    3    3    0    0  0.19243125319E+02 -0.58675101823E+01 -0.10615821253E+01  0.20145781312E+02  0.51100000000E-03 0. -1.
        -11    1    3    3    0    0 -0.37776698243E+01 -0.31972190080E+01 -0.55933780133E+01  0.74685257278E+01  0.51100000000E-03 0.  1.
        -12    1    3    3    0    0  0.98592222445E+01 -0.14175423183E+02 -0.15064192616E+02  0.22914553996E+02  0.00000000000E+00 0.  1.
</event>
<event>
 7    1  0.5121289E-013  0.5052886E+02  0.7816164E-02  0.1300439E+00
        -11   -1    0    0    0    0  0.00000000000E+00  0.00000000000E+00  0.45593999997E+02  0.45594000000E+02  0.51100000000E-03 0.  1.
         11   -1    0    0    0    0 -0.00000000000E+00 -0.00000000000E+00 -0.45593999997E+02  0.45594000000E+02  0.51100000000E-03 0. -1.
    9900012    2    1    2    0    0 -0.11681953819E+02 -0.32738725961E+02  0.21092027340E+02  0.50528857856E+02  0.29999993940E+02 0.  0.
         12    1    1    2    0    0  0.11681953819E+02  0.32738725961E+02 -0.21092027340E+02  0.40659142144E+02  0.00000000000E+00 0. -1.
         11    1    3    3    0    0  0.39060568666E+01 -0.15564639750E+02  0.64145019469E+01  0.17281814901E+02  0.51100000000E-03 0. -1.
        -11    1    3    3    0    0 -0.22354161219E+01 -0.72879844061E+01  0.14782875504E+02  0.16632654940E+02  0.51100000000E-03 0.  1.
         12    1    3    3    0    0 -0.13352594563E+02 -0.98861018045E+01 -0.10535011065E+00  0.16614388015E+02  0.00000000000E+00 0. -1.
</event>
<event>
 7    1  0.5121289E-013  0.5052886E+02  0.7816164E-02  0.1300439E+00
        -11   -1    0    0    0    0  0.00000000000E+00  0.00000000000E+00  0.45593999997E+02  0.45594000000E+02  0.51100000000E-03 0. -1.
         11   -1    0    0    0    0 -0.00000000000E+00 -0.00000000000E+00 -0.45593999997E+02  0.45594000000E+02  0.51100000000E-03 0.  1.
    9900012    2    1    2    0    0 -0.19813540023E+02  0.32295780091E+02 -0.14750321576E+02  0.50528858759E+02  0.29999996683E+02 0.  0.
         12    1    1    2    0    0  0.19813540023E+02 -0.32295780091E+02  0.14750321576E+02  0.40659141241E+02  0.00000000000E+00 0. -1.
         11    1    3    3    0    0 -0.16090828107E+02  0.82446599532E+01 -0.12911740106E+00  0.18080537560E+02  0.51100000000E-03 0.  1.
        -11    1    3    3    0    0 -0.21744796949E+01 -0.17753329542E+01 -0.16789503965E+00  0.28121803014E+01  0.51100000000E-03 0. -1.
        -12    1    3    3    0    0 -0.15482322210E+01  0.25826453092E+02 -0.14453309135E+02  0.29636140897E+02  0.00000000000E+00 0.  1.
</event>
<event>
 7    1  0.5121289E-013  0.5052886E+02  0.7816164E-02  0.1300439E+00
        -11   -1    0    0    0    0  0.00000000000E+00  0.00000000000E+00  0.45593999997E+02  0.45594000000E+02  0.51100000000E-03 0.  1.
         11   -1    0    0    0    0 -0.00000000000E+00 -0.00000000000E+00 -0.45593999997E+02  0.45594000000E+02  0.51100000000E-03 0. -1.
    9900012    2    1    2    0    0 -0.15961609078E+02 -0.27652747444E+02  0.25173763242E+02  0.50528858822E+02  0.29999996877E+02 0.  0.
         12    1    1    2    0    0  0.15961609078E+02  0.27652747444E+02 -0.25173763242E+02  0.40659141178E+02  0.00000000000E+00 0. -1.
         11    1    3    3    0    0 -0.10967958839E+02 -0.97676263931E+01  0.20642052738E+00  0.14688269338E+02  0.51100000000E-03 0. -1.
        -11    1    3    3    0    0 -0.39353504964E+01 -0.21938605234E+01 -0.17538059496E+01  0.48348570915E+01  0.51100000000E-03 0.  1.
        -12    1    3    3    0    0 -0.10582997421E+01 -0.15691260527E+02  0.26721148664E+02  0.31005732393E+02  0.00000000000E+00 0.  1.
</event>
<event>
 7    1  0.5121289E-013  0.5052886E+02  0.7816164E-02  0.1300439E+00
        -11   -1    0    0    0    0  0.00000000000E+00  0.00000000000E+00  0.45593999997E+02  0.45594000000E+02  0.51100000000E-03 0. -1.
         11   -1    0    0    0    0 -0.00000000000E+00 -0.00000000000E+00 -0.45593999997E+02  0.45594000000E+02  0.51100000000E-03 0.  1.
    9900012    2    1    2    0    0 -0.16677251060E+02 -0.25320415812E+02 -0.27090801389E+02  0.50528859826E+02  0.29999999928E+02 0.  0.
         12    1    1    2    0    0  0.16677251060E+02  0.25320415812E+02  0.27090801389E+02  0.40659140174E+02  0.00000000000E+00 0. -1.
         11    1    3    3    0    0 -0.73931010715E+01 -0.10500049170E+02 -0.28254138468E+01  0.13148837960E+02  0.51100000000E-03 0. -1.
        -11    1    3    3    0    0 -0.11572799813E+02 -0.68991703398E+01 -0.19796244384E+01  0.13617898519E+02  0.51100000000E-03 0.  1.
        -12    1    3    3    0    0  0.22886498248E+01 -0.79211963019E+01 -0.22285763104E+02  0.23762123347E+02  0.00000000000E+00 0.  1.
</event>
<event>
 7    1  0.5121289E-013  0.5052886E+02  0.7816164E-02  0.1300439E+00
        -11   -1    0    0    0    0  0.00000000000E+00  0.00000000000E+00  0.45593999997E+02  0.45594000000E+02  0.51100000000E-03 0. -1.
         11   -1    0    0    0    0 -0.00000000000E+00 -0.00000000000E+00 -0.45593999997E+02  0.45594000000E+02  0.51100000000E-03 0.  1.
    9900012    2    1    2    0    0  0.29306228935E+02 -0.27374611356E+02 -0.67038238691E+01  0.50528860120E+02  0.30000000821E+02 0.  0.
         12    1    1    2    0    0 -0.29306228935E+02  0.27374611356E+02  0.67038238691E+01  0.40659139880E+02  0.00000000000E+00 0. -1.
         11    1    3    3    0    0  0.54289259065E+01 -0.11032309140E+02 -0.11143563689E+02  0.16594098149E+02  0.51100000000E-03 0. -1.
        -11    1    3    3    0    0  0.10674003865E+01 -0.71676337223E+01 -0.35682910189E+01  0.80775626162E+01  0.51100000000E-03 0.  1.
         12    1    3    3    0    0  0.22809902642E+02 -0.91746684944E+01  0.80080308385E+01  0.25857199354E+02  0.00000000000E+00 0. -1.
</event>
<event>
 7    1  0.5121289E-013  0.5052884E+02  0.7816164E-02  0.1300439E+00
        -11   -1    0    0    0    0  0.00000000000E+00  0.00000000000E+00  0.45593999997E+02  0.45594000000E+02  0.51100000000E-03 0.  1.
         11   -1    0    0    0    0 -0.00000000000E+00 -0.00000000000E+00 -0.45593999997E+02  0.45594000000E+02  0.51100000000E-03 0. -1.
    9900012    2    1    2    0    0 -0.18673221515E+02 -0.28072872118E+02 -0.22724257530E+02  0.50528840749E+02  0.29999941942E+02 0.  0.
         12    1    1    2    0    0  0.18673221515E+02  0.28072872118E+02  0.22724257530E+02  0.40659159251E+02  0.00000000000E+00 0. -1.
         11    1    3    3    0    0 -0.45225481811E+00  0.34689728560E+01 -0.11328673420E+01  0.36771858495E+01  0.51100000000E-03 0. -1.
        -11    1    3    3    0    0  0.11237785834E+01  0.81022798788E+00  0.19632432808E+01  0.24028466737E+01  0.51100000000E-03 0.  1.
        -12    1    3    3    0    0 -0.19344745280E+02 -0.32352072962E+02 -0.23554633469E+02  0.44448808226E+02  0.00000000000E+00 0.  1.
</event>
<event>
 7    1  0.5121289E-013  0.5052886E+02  0.7816164E-02  0.1300439E+00
        -11   -1    0    0    0    0  0.00000000000E+00  0.00000000000E+00  0.45593999997E+02  0.45594000000E+02  0.51100000000E-03 0.  1.
         11   -1    0    0    0    0 -0.00000000000E+00 -0.00000000000E+00 -0.45593999997E+02  0.45594000000E+02  0.51100000000E-03 0. -1.
    9900012    2    1    2    0    0 -0.15879182833E+02 -0.37360064575E+02  0.22897197273E+01  0.50528859712E+02  0.29999999581E+02 0.  0.
         12    1    1    2    0    0  0.15879182833E+02  0.37360064575E+02 -0.22897197273E+01  0.40659140288E+02  0.00000000000E+00 0. -1.
         11    1    3    3    0    0 -0.15735751584E+02 -0.29612226777E+02 -0.28790006929E+01  0.33656893765E+02  0.51100000000E-03 0. -1.
        -11    1    3    3    0    0 -0.66889158431E+01 -0.57418985432E+01  0.10378593249E+01  0.88762687136E+01  0.51100000000E-03 0.  1.
         12    1    3    3    0    0  0.65454845943E+01 -0.20059392549E+01  0.41308610953E+01  0.79956972340E+01  0.00000000000E+00 0. -1.
</event>
<event>
 7    1  0.5121289E-013  0.5052886E+02  0.7816164E-02  0.1300439E+00
        -11   -1    0    0    0    0  0.00000000000E+00  0.00000000000E+00  0.45593999997E+02  0.45594000000E+02  0.51100000000E-03 0.  1.
         11   -1    0    0    0    0 -0.00000000000E+00 -0.00000000000E+00 -0.45593999997E+02  0.45594000000E+02  0.51100000000E-03 0. -1.
    9900012    2    1    2    0    0  0.11384080588E-01  0.19836582163E+02  0.35491902633E+02  0.50528864815E+02  0.30000015091E+02 0.  0.
         12    1    1    2    0    0 -0.11384080588E-01 -0.19836582163E+02 -0.35491902633E+02  0.40659135185E+02  0.00000000000E+00 0. -1.
         11    1    3    3    0    0  0.25038424467E+01  0.18613485208E+01  0.18644807842E+02  0.18904039384E+02  0.51100000000E-03 0. -1.
        -11    1    3    3    0    0  0.45291190028E+01 -0.19053458231E+01  0.64730494405E+01  0.81267232614E+01  0.51100000000E-03 0.  1.
        -12    1    3    3    0    0 -0.70215773689E+01  0.19880579465E+02  0.10374045351E+02  0.23498102169E+02  0.00000000000E+00 0.  1.
</event>
<event>
 7    1  0.5121289E-013  0.5052880E+02  0.7816164E-02  0.1300439E+00
        -11   -1    0    0    0    0  0.00000000000E+00  0.00000000000E+00  0.45593999997E+02  0.45594000000E+02  0.51100000000E-03 0.  1.
         11   -1    0    0    0    0 -0.00000000000E+00 -0.00000000000E+00 -0.45593999997E+02  0.45594000000E+02  0.51100000000E-03 0. -1.
    9900012    2    1    2    0    0  0.48361062864E+01 -0.40265806356E+02 -0.29064385214E+01  0.50528800913E+02  0.29999820855E+02 0.  0.
         12    1    1    2    0    0 -0.48361062864E+01  0.40265806356E+02  0.29064385214E+01  0.40659199087E+02  0.00000000000E+00 0. -1.
         11    1    3    3    0    0  0.45062651797E+01 -0.74803918031E+01 -0.92051947166E+01  0.12688510450E+02  0.51100000000E-03 0. -1.
        -11    1    3    3    0    0  0.77286233586E+01 -0.71687493981E+01  0.50026538037E+00  0.10553333723E+02  0.51100000000E-03 0.  1.
        -12    1    3    3    0    0 -0.73987822519E+01 -0.25616665155E+02  0.57984908147E+01  0.27286956741E+02  0.00000000000E+00 0.  1.
</event>
<event>
 7    1  0.5121289E-013  0.5052893E+02  0.7816164E-02  0.1300439E+00
        -11   -1    0    0    0    0  0.00000000000E+00  0.00000000000E+00  0.45593999997E+02  0.45594000000E+02  0.51100000000E-03 0. -1.
         11   -1    0    0    0    0 -0.00000000000E+00 -0.00000000000E+00 -0.45593999997E+02  0.45594000000E+02  0.51100000000E-03 0.  1.
    9900012    2    1    2    0    0  0.40537841257E+02 -0.51986346542E+00 -0.30940669849E+01  0.50528928659E+02  0.30000209152E+02 0.  0.
         12    1    1    2    0    0 -0.40537841257E+02  0.51986346542E+00  0.30940669849E+01  0.40659071341E+02  0.00000000000E+00 0. -1.
         11    1    3    3    0    0  0.60301268959E+01 -0.17030062829E+01 -0.44959255211E+01  0.77120689398E+01  0.51100000000E-03 0. -1.
        -11    1    3    3    0    0  0.72874187725E+01 -0.16117715328E+01 -0.10577951701E+02  0.12945939220E+02  0.51100000000E-03 0.  1.
        -12    1    3    3    0    0  0.27220295588E+02  0.27949143503E+01  0.11979810238E+02  0.29870920499E+02  0.00000000000E+00 0.  1.
</event>
<event>
 7    1  0.5121289E-013  0.5052885E+02  0.7816164E-02  0.1300439E+00
        -11   -1    0    0    0    0  0.00000000000E+00  0.00000000000E+00  0.45593999997E+02  0.45594000000E+02  0.51100000000E-03 0. -1.
         11   -1    0    0    0    0 -0.00000000000E+00 -0.00000000000E+00 -0.45593999997E+02  0.45594000000E+02  0.51100000000E-03 0.  1.
    9900012    2    1    2    0    0  0.63805079121E+01 -0.38072077816E+02 -0.12766064501E+02  0.50528851050E+02  0.29999973253E+02 0.  0.
         12    1    1    2    0    0 -0.63805079121E+01  0.38072077816E+02  0.12766064501E+02  0.40659148950E+02  0.00000000000E+00 0. -1.
         11    1    3    3    0    0  0.99336741738E+01 -0.10381046243E+02 -0.94649544113E+01  0.17205503944E+02  0.51100000000E-03 0. -1.
        -11    1    3    3    0    0  0.51242777375E+01 -0.18859990260E+02 -0.63920773708E+01  0.20562492755E+02  0.51100000000E-03 0.  1.
        -12    1    3    3    0    0 -0.86774439992E+01 -0.88310413132E+01  0.30909672814E+01  0.12760854351E+02  0.00000000000E+00 0.  1.
</event>
<event>
 7    1  0.5121289E-013  0.5052887E+02  0.7816164E-02  0.1300439E+00
        -11   -1    0    0    0    0  0.00000000000E+00  0.00000000000E+00  0.45593999997E+02  0.45594000000E+02  0.51100000000E-03 0.  1.
         11   -1    0    0    0    0 -0.00000000000E+00 -0.00000000000E+00 -0.45593999997E+02  0.45594000000E+02  0.51100000000E-03 0. -1.
    9900012    2    1    2    0    0  0.37906964632E+02  0.14108360419E+02  0.41450468482E+01  0.50528865544E+02  0.30000017307E+02 0.  0.
         12    1    1    2    0    0 -0.37906964632E+02 -0.14108360419E+02 -0.41450468482E+01  0.40659134456E+02  0.00000000000E+00 0. -1.
         11    1    3    3    0    0  0.22819079628E+02 -0.12110329567E+01  0.53993564114E+00  0.22857570445E+02  0.51100000000E-03 0. -1.
        -11    1    3    3    0    0  0.11649507000E+02  0.16966881782E+02  0.77935551175E+01  0.22007398583E+02  0.51100000000E-03 0.  1.
         12    1    3    3    0    0  0.34383780042E+01 -0.16474884063E+01 -0.41884439104E+01  0.56638965156E+01  0.00000000000E+00 0. -1.
</event>
<event>
 7    1  0.5121289E-013  0.5052886E+02  0.7816164E-02  0.1300439E+00
        -11   -1    0    0    0    0  0.00000000000E+00  0.00000000000E+00  0.45593999997E+02  0.45594000000E+02  0.51100000000E-03 0.  1.
         11   -1    0    0    0    0 -0.00000000000E+00 -0.00000000000E+00 -0.45593999997E+02  0.45594000000E+02  0.51100000000E-03 0. -1.
    9900012    2    1    2    0    0  0.71819088521E+01 -0.29790810486E+02  0.26722523083E+02  0.50528862723E+02  0.30000008732E+02 0.  0.
         12    1    1    2    0    0 -0.71819088521E+01  0.29790810486E+02 -0.26722523083E+02  0.40659137277E+02  0.00000000000E+00 0. -1.
         11    1    3    3    0    0  0.91277828211E+00 -0.12507462316E+02  0.24686804756E+02  0.27689494526E+02  0.51100000000E-03 0. -1.
        -11    1    3    3    0    0  0.89972248288E+00 -0.52327307727E+01  0.69631329233E+01  0.87564942902E+01  0.51100000000E-03 0.  1.
        -12    1    3    3    0    0  0.53694080871E+01 -0.12050617398E+02 -0.49274145959E+01  0.14082873907E+02  0.00000000000E+00 0.  1.
</event>
<event>
 7    1  0.5121289E-013  0.5052886E+02  0.7816164E-02  0.1300439E+00
        -11   -1    0    0    0    0  0.00000000000E+00  0.00000000000E+00  0.45593999997E+02  0.45594000000E+02  0.51100000000E-03 0. -1.
         11   -1    0    0    0    0 -0.00000000000E+00 -0.00000000000E+00 -0.45593999997E+02  0.45594000000E+02  0.51100000000E-03 0.  1.
    9900012    2    1    2    0    0 -0.11185358179E+02 -0.41273072160E+01 -0.38871822953E+02  0.50528861764E+02  0.30000005817E+02 0.  0.
         12    1    1    2    0    0  0.11185358179E+02  0.41273072160E+01  0.38871822953E+02  0.40659138236E+02  0.00000000000E+00 0. -1.
         11    1    3    3    0    0 -0.11706390057E+02 -0.38589304483E+01 -0.24979862472E+02  0.27855420330E+02  0.51100000000E-03 0. -1.
        -11    1    3    3    0    0 -0.18262746029E+01 -0.75401032728E+01 -0.12781806067E+02  0.14952023371E+02  0.51100000000E-03 0.  1.
         12    1    3    3    0    0  0.23473064813E+01  0.72717265052E+01 -0.11101544140E+01  0.77214180632E+01  0.00000000000E+00 0. -1.
</event>
<event>
 7    1  0.5121289E-013  0.5052885E+02  0.7816164E-02  0.1300439E+00
        -11   -1    0    0    0    0  0.00000000000E+00  0.00000000000E+00  0.45593999997E+02  0.45594000000E+02  0.51100000000E-03 0. -1.
         11   -1    0    0    0    0 -0.00000000000E+00 -0.00000000000E+00 -0.45593999997E+02  0.45594000000E+02  0.51100000000E-03 0.  1.
    9900012    2    1    2    0    0  0.20447566388E+02  0.25870023330E+02 -0.23786662367E+02  0.50528851155E+02  0.29999973570E+02 0.  0.
         12    1    1    2    0    0 -0.20447566388E+02 -0.25870023330E+02  0.23786662367E+02  0.40659148845E+02  0.00000000000E+00 0. -1.
         11    1    3    3    0    0 -0.41860922620E+00  0.30529647579E+01 -0.91646372390E+00  0.32149235630E+01  0.51100000000E-03 0. -1.
        -11    1    3    3    0    0  0.18522234841E+02  0.29216597504E+02 -0.18698536080E+02  0.39323250184E+02  0.51100000000E-03 0.  1.
         12    1    3    3    0    0  0.23439407727E+01 -0.63995389325E+01 -0.41716625625E+01  0.79906774074E+01  0.00000000000E+00 0. -1.
</event>
<event>
 7    1  0.5121289E-013  0.5052886E+02  0.7816164E-02  0.1300439E+00
        -11   -1    0    0    0    0  0.00000000000E+00  0.00000000000E+00  0.45593999997E+02  0.45594000000E+02  0.51100000000E-03 0.  1.
         11   -1    0    0    0    0 -0.00000000000E+00 -0.00000000000E+00 -0.45593999997E+02  0.45594000000E+02  0.51100000000E-03 0. -1.
    9900012    2    1    2    0    0  0.25408052783E+02 -0.13054488527E+02  0.28934010981E+02  0.50528858244E+02  0.29999995118E+02 0.  0.
         12    1    1    2    0    0 -0.25408052783E+02  0.13054488527E+02 -0.28934010981E+02  0.40659141756E+02  0.00000000000E+00 0. -1.
         11    1    3    3    0    0  0.52237625059E+01  0.28202213555E+01  0.65437487761E+01  0.88352697479E+01  0.51100000000E-03 0. -1.
        -11    1    3    3    0    0  0.99210933838E+01  0.54972736847E+01  0.88872099228E+01  0.14409393199E+02  0.51100000000E-03 0.  1.
        -12    1    3    3    0    0  0.10263196893E+02 -0.21371983567E+02  0.13503052282E+02  0.27284195297E+02  0.00000000000E+00 0.  1.
</event>
<event>
 7    1  0.5121289E-013  0.5052886E+02  0.7816164E-02  0.1300439E+00
        -11   -1    0    0    0    0  0.00000000000E+00  0.00000000000E+00  0.45593999997E+02  0.45594000000E+02  0.51100000000E-03 0.  1.
         11   -1    0    0    0    0 -0.00000000000E+00 -0.00000000000E+00 -0.45593999997E+02  0.45594000000E+02  0.51100000000E-03 0. -1.
    9900012    2    1    2    0    0 -0.39970783438E+02  0.55727768573E+01 -0.49442957059E+01  0.50528862890E+02  0.30000009239E+02 0.  0.
         12    1    1    2    0    0  0.39970783438E+02 -0.55727768573E+01  0.49442957059E+01  0.40659137110E+02  0.00000000000E+00 0. -1.
         11    1    3    3    0    0 -0.29748548153E+02  0.30287663259E+01 -0.12825662881E+02  0.32536858657E+02  0.51100000000E-03 0. -1.
        -11    1    3    3    0    0 -0.85389333625E+01 -0.26263467654E+00 -0.92908429250E+00  0.85933438094E+01  0.51100000000E-03 0.  1.
        -12    1    3    3    0    0 -0.16833019222E+01  0.28066452079E+01  0.88104514676E+01  0.93986604230E+01  0.00000000000E+00 0.  1.
</event>
<event>
 7    1  0.5121289E-013  0.5052886E+02  0.7816164E-02  0.1300439E+00
        -11   -1    0    0    0    0  0.00000000000E+00  0.00000000000E+00  0.45593999997E+02  0.45594000000E+02  0.51100000000E-03 0.  1.
         11   -1    0    0    0    0 -0.00000000000E+00 -0.00000000000E+00 -0.45593999997E+02  0.45594000000E+02  0.51100000000E-03 0. -1.
    9900012    2    1    2    0    0 -0.41616095736E+01 -0.21182458251E+02  0.34455044859E+02  0.50528860215E+02  0.30000001110E+02 0.  0.
         12    1    1    2    0    0  0.41616095736E+01  0.21182458251E+02 -0.34455044859E+02  0.40659139785E+02  0.00000000000E+00 0. -1.
         11    1    3    3    0    0  0.57583391419E+01 -0.88334241654E-01  0.29503408419E+01  0.64707637846E+01  0.51100000000E-03 0. -1.
        -11    1    3    3    0    0  0.30037519623E-01 -0.19806338633E+02  0.15421461315E+02  0.25102060107E+02  0.51100000000E-03 0.  1.
         12    1    3    3    0    0 -0.99499862352E+01 -0.12877853762E+01  0.16083242702E+02  0.18956036323E+02  0.00000000000E+00 0. -1.
</event>
<event>
 7    1  0.5121289E-013  0.5052886E+02  0.7816164E-02  0.1300439E+00
        -11   -1    0    0    0    0  0.00000000000E+00  0.00000000000E+00  0.45593999997E+02  0.45594000000E+02  0.51100000000E-03 0.  1.
         11   -1    0    0    0    0 -0.00000000000E+00 -0.00000000000E+00 -0.45593999997E+02  0.45594000000E+02  0.51100000000E-03 0. -1.
    9900012    2    1    2    0    0 -0.30145280491E+01 -0.37002973265E+02  0.16578840124E+02  0.50528863884E+02  0.30000012262E+02 0.  0.
         12    1    1    2    0    0  0.30145280491E+01  0.37002973265E+02 -0.16578840124E+02  0.40659136116E+02  0.00000000000E+00 0. -1.
         11    1    3    3    0    0  0.48066523413E+01 -0.39809372781E+01  0.85883910875E+01  0.10616601626E+02  0.51100000000E-03 0. -1.
        -11    1    3    3    0    0 -0.12519729084E+02 -0.16915287149E+02  0.94539249457E+01  0.23070484452E+02  0.51100000000E-03 0.  1.
         12    1    3    3    0    0  0.46985486940E+01 -0.16106748838E+02 -0.14634759096E+01  0.16841777807E+02  0.00000000000E+00 0. -1.
</event>
<event>
 7    1  0.5121289E-013  0.5052886E+02  0.7816164E-02  0.1300439E+00
        -11   -1    0    0    0    0  0.00000000000E+00  0.00000000000E+00  0.45593999997E+02  0.45594000000E+02  0.51100000000E-03 0.  1.
         11   -1    0    0    0    0 -0.00000000000E+00 -0.00000000000E+00 -0.45593999997E+02  0.45594000000E+02  0.51100000000E-03 0. -1.
    9900012    2    1    2    0    0 -0.17845777504E+02  0.34734855501E+02  0.11321828973E+02  0.50528858682E+02  0.29999996450E+02 0.  0.
         12    1    1    2    0    0  0.17845777504E+02 -0.34734855501E+02 -0.11321828973E+02  0.40659141318E+02  0.00000000000E+00 0. -1.
         11    1    3    3    0    0 -0.71437028255E+00  0.15379023051E+02  0.97284235656E+01  0.18211724252E+02  0.51100000000E-03 0. -1.
        -11    1    3    3    0    0  0.38213257297E+01  0.69270085579E+01  0.14618330416E+00  0.79124805032E+01  0.51100000000E-03 0.  1.
         12    1    3    3    0    0 -0.20952732951E+02  0.12428823893E+02  0.14472221036E+01  0.24404653927E+02  0.00000000000E+00 0. -1.
</event>
<event>
 7    1  0.5121289E-013  0.5052884E+02  0.7816164E-02  0.1300439E+00
        -11   -1    0    0    0    0  0.00000000000E+00  0.00000000000E+00  0.45593999997E+02  0.45594000000E+02  0.51100000000E-03 0.  1.
         11   -1    0    0    0    0 -0.00000000000E+00 -0.00000000000E+00 -0.45593999997E+02  0.45594000000E+02  0.51100000000E-03 0. -1.
    9900012    2    1    2    0    0 -0.63784392057E+01 -0.38093305104E+02 -0.12703643053E+02  0.50528844484E+02  0.29999953292E+02 0.  0.
         12    1    1    2    0    0  0.63784392057E+01  0.38093305104E+02  0.12703643053E+02  0.40659155516E+02  0.00000000000E+00 0. -1.
         11    1    3    3    0    0 -0.58679299124E+01 -0.93612323465E+00  0.10172004839E+01  0.60285674295E+01  0.51100000000E-03 0. -1.
        -11    1    3    3    0    0 -0.10188483589E+02 -0.14976777196E+02 -0.65259367732E+01  0.19253490698E+02  0.51100000000E-03 0.  1.
         12    1    3    3    0    0  0.96779742960E+01 -0.22180404674E+02 -0.71949067638E+01  0.25246786356E+02  0.00000000000E+00 0. -1.
</event>
<event>
 7    1  0.5121289E-013  0.5052887E+02  0.7816164E-02  0.1300439E+00
        -11   -1    0    0    0    0  0.00000000000E+00  0.00000000000E+00  0.45593999997E+02  0.45594000000E+02  0.51100000000E-03 0.  1.
         11   -1    0    0    0    0 -0.00000000000E+00 -0.00000000000E+00 -0.45593999997E+02  0.45594000000E+02  0.51100000000E-03 0. -1.
    9900012    2    1    2    0    0 -0.25727998282E+02 -0.16785914360E+02  0.26635837817E+02  0.50528872210E+02  0.30000037568E+02 0.  0.
         12    1    1    2    0    0  0.25727998282E+02  0.16785914360E+02 -0.26635837817E+02  0.40659127790E+02  0.00000000000E+00 0. -1.
         11    1    3    3    0    0 -0.12638516360E+02 -0.12234628293E+02  0.30516263680E+01  0.17853029126E+02  0.51100000000E-03 0.  1.
        -11    1    3    3    0    0 -0.29868193741E+01 -0.74641871458E+00 -0.28043805468E+01  0.41644665185E+01  0.51100000000E-03 0. -1.
         12    1    3    3    0    0 -0.10102662548E+02 -0.38048673529E+01  0.26388591995E+02  0.28511376565E+02  0.00000000000E+00 0. -1.
</event>
<event>
 7    1  0.5121289E-013  0.5052888E+02  0.7816164E-02  0.1300439E+00
        -11   -1    0    0    0    0  0.00000000000E+00  0.00000000000E+00  0.45593999997E+02  0.45594000000E+02  0.51100000000E-03 0.  1.
         11   -1    0    0    0    0 -0.00000000000E+00 -0.00000000000E+00 -0.45593999997E+02  0.45594000000E+02  0.51100000000E-03 0. -1.
    9900012    2    1    2    0    0  0.22160644431E+02  0.15890859125E+02  0.30158752143E+02  0.50528881759E+02  0.30000066595E+02 0.  0.
         12    1    1    2    0    0 -0.22160644431E+02 -0.15890859125E+02 -0.30158752143E+02  0.40659118241E+02  0.00000000000E+00 0. -1.
         11    1    3    3    0    0  0.35800768328E+00  0.32835640284E+01 -0.86509541733E+00  0.34144329796E+01  0.51100000000E-03 0. -1.
        -11    1    3    3    0    0 -0.45588772618E+01  0.69339158286E+01  0.52937572434E+01  0.98430897903E+01  0.51100000000E-03 0.  1.
        -12    1    3    3    0    0  0.26361514010E+02  0.56733792678E+01  0.25730090316E+02  0.37271358989E+02  0.00000000000E+00 0.  1.
</event>
<event>
 7    1  0.5121289E-013  0.5052886E+02  0.7816164E-02  0.1300439E+00
        -11   -1    0    0    0    0  0.00000000000E+00  0.00000000000E+00  0.45593999997E+02  0.45594000000E+02  0.51100000000E-03 0. -1.
         11   -1    0    0    0    0 -0.00000000000E+00 -0.00000000000E+00 -0.45593999997E+02  0.45594000000E+02  0.51100000000E-03 0.  1.
    9900012    2    1    2    0    0 -0.40114649070E+02 -0.53916204489E+01 -0.38615120491E+01  0.50528856915E+02  0.29999991079E+02 0.  0.
         12    1    1    2    0    0  0.40114649070E+02  0.53916204489E+01  0.38615120491E+01  0.40659143085E+02  0.00000000000E+00 0. -1.
         11    1    3    3    0    0 -0.11106801567E+02  0.53017198983E+01  0.19801653980E+01  0.12465565779E+02  0.51100000000E-03 0. -1.
        -11    1    3    3    0    0 -0.61742768586E+01  0.61798540512E+01  0.11836728325E+01  0.88155188421E+01  0.51100000000E-03 0.  1.
        -12    1    3    3    0    0 -0.22833570645E+02 -0.16873194398E+02 -0.70253502796E+01  0.29247772294E+02  0.00000000000E+00 0.  1.
</event>
<event>
 7    1  0.5121289E-013  0.5052886E+02  0.7816164E-02  0.1300439E+00
        -11   -1    0    0    0    0  0.00000000000E+00  0.00000000000E+00  0.45593999997E+02  0.45594000000E+02  0.51100000000E-03 0. -1.
         11   -1    0    0    0    0 -0.00000000000E+00 -0.00000000000E+00 -0.45593999997E+02  0.45594000000E+02  0.51100000000E-03 0.  1.
    9900012    2    1    2    0    0 -0.93466693749E+01 -0.25368207760E+02 -0.30368722173E+02  0.50528862285E+02  0.30000007401E+02 0.  0.
         12    1    1    2    0    0  0.93466693749E+01  0.25368207760E+02  0.30368722173E+02  0.40659137715E+02  0.00000000000E+00 0. -1.
         11    1    3    3    0    0  0.32529694093E+01 -0.53598319118E+00 -0.60450256421E+01  0.68855953434E+01  0.51100000000E-03 0.  1.
        -11    1    3    3    0    0  0.42450063037E+01 -0.90771892755E+01  0.13944224642E+00  0.10021720813E+02  0.51100000000E-03 0. -1.
        -12    1    3    3    0    0 -0.16844645088E+02 -0.15755035293E+02 -0.24463138777E+02  0.33621546128E+02  0.00000000000E+00 0.  1.
</event>
<event>
 7    1  0.5121289E-013  0.5052886E+02  0.7816164E-02  0.1300439E+00
        -11   -1    0    0    0    0  0.00000000000E+00  0.00000000000E+00  0.45593999997E+02  0.45594000000E+02  0.51100000000E-03 0. -1.
         11   -1    0    0    0    0 -0.00000000000E+00 -0.00000000000E+00 -0.45593999997E+02  0.45594000000E+02  0.51100000000E-03 0.  1.
    9900012    2    1    2    0    0  0.39944750314E+02 -0.70345494830E+01  0.28456916312E+01  0.50528856810E+02  0.29999990760E+02 0.  0.
         12    1    1    2    0    0 -0.39944750314E+02  0.70345494830E+01 -0.28456916312E+01  0.40659143190E+02  0.00000000000E+00 0. -1.
         11    1    3    3    0    0  0.96822224853E+00  0.48848370455E+01  0.55837955668E+01  0.74818353682E+01  0.51100000000E-03 0.  1.
        -11    1    3    3    0    0  0.63264455274E+01 -0.44408357411E+01  0.42636240580E+01  0.88274246222E+01  0.51100000000E-03 0. -1.
        -12    1    3    3    0    0  0.32650082538E+02 -0.74785507873E+01 -0.70017279936E+01  0.34219596820E+02  0.00000000000E+00 0.  1.
</event>
<event>
 7    1  0.5121289E-013  0.5052886E+02  0.7816164E-02  0.1300439E+00
        -11   -1    0    0    0    0  0.00000000000E+00  0.00000000000E+00  0.45593999997E+02  0.45594000000E+02  0.51100000000E-03 0.  1.
         11   -1    0    0    0    0 -0.00000000000E+00 -0.00000000000E+00 -0.45593999997E+02  0.45594000000E+02  0.51100000000E-03 0. -1.
    9900012    2    1    2    0    0  0.63757941359E+01 -0.40021972077E+02 -0.32796757569E+01  0.50528864829E+02  0.30000015134E+02 0.  0.
         12    1    1    2    0    0 -0.63757941359E+01  0.40021972077E+02  0.32796757569E+01  0.40659135171E+02  0.00000000000E+00 0. -1.
         11    1    3    3    0    0 -0.48212966688E+01 -0.11030866160E+02  0.92789486825E+01  0.15199467054E+02  0.51100000000E-03 0. -1.
        -11    1    3    3    0    0 -0.72485856973E+00  0.57623486056E+00 -0.11333133765E+01  0.14635115411E+01  0.51100000000E-03 0.  1.
        -12    1    3    3    0    0  0.11921949374E+02 -0.29567340777E+02 -0.11425311063E+02  0.33865886234E+02  0.00000000000E+00 0.  1.
</event>
<event>
 7    1  0.5121289E-013  0.5052886E+02  0.7816164E-02  0.1300439E+00
        -11   -1    0    0    0    0  0.00000000000E+00  0.00000000000E+00  0.45593999997E+02  0.45594000000E+02  0.51100000000E-03 0. -1.
         11   -1    0    0    0    0 -0.00000000000E+00 -0.00000000000E+00 -0.45593999997E+02  0.45594000000E+02  0.51100000000E-03 0.  1.
    9900012    2    1    2    0    0  0.38119352764E+02  0.14143660176E+02 -0.19293162704E+00  0.50528863254E+02  0.30000010346E+02 0.  0.
         12    1    1    2    0    0 -0.38119352764E+02 -0.14143660176E+02  0.19293162704E+00  0.40659136746E+02  0.00000000000E+00 0. -1.
         11    1    3    3    0    0  0.72672076385E+00  0.11571969026E+01 -0.32233386726E+01  0.35010198799E+01  0.51100000000E-03 0. -1.
        -11    1    3    3    0    0  0.21141208115E+01 -0.63549069730E+01  0.47637026731E+00  0.67142593288E+01  0.51100000000E-03 0.  1.
        -12    1    3    3    0    0  0.35278511189E+02  0.19341370246E+02  0.25540367782E+01  0.40313584045E+02  0.00000000000E+00 0.  1.
</event>
<event>
 7    1  0.5121289E-013  0.5052886E+02  0.7816164E-02  0.1300439E+00
        -11   -1    0    0    0    0  0.00000000000E+00  0.00000000000E+00  0.45593999997E+02  0.45594000000E+02  0.51100000000E-03 0.  1.
         11   -1    0    0    0    0 -0.00000000000E+00 -0.00000000000E+00 -0.45593999997E+02  0.45594000000E+02  0.51100000000E-03 0. -1.
    9900012    2    1    2    0    0  0.75573919279E+01  0.34104181010E+02  0.20807606994E+02  0.50528857807E+02  0.29999993789E+02 0.  0.
         12    1    1    2    0    0 -0.75573919279E+01 -0.34104181010E+02 -0.20807606994E+02  0.40659142193E+02  0.00000000000E+00 0. -1.
         11    1    3    3    0    0 -0.39653204784E+00  0.10273867953E-01 -0.25568502303E+00  0.47193040742E+00  0.51100000000E-03 0. -1.
        -11    1    3    3    0    0  0.29869624094E+01  0.38483449814E+02  0.19505583946E+02  0.43247724326E+02  0.51100000000E-03 0.  1.
        -12    1    3    3    0    0  0.49669615663E+01 -0.43895426718E+01  0.15577080702E+01  0.68092030738E+01  0.00000000000E+00 0.  1.
</event>
<event>
 7    1  0.5121289E-013  0.5052888E+02  0.7816164E-02  0.1300439E+00
        -11   -1    0    0    0    0  0.00000000000E+00  0.00000000000E+00  0.45593999997E+02  0.45594000000E+02  0.51100000000E-03 0.  1.
         11   -1    0    0    0    0 -0.00000000000E+00 -0.00000000000E+00 -0.45593999997E+02  0.45594000000E+02  0.51100000000E-03 0. -1.
    9900012    2    1    2    0    0 -0.22742512312E+01  0.21202100474E+02  0.34618822856E+02  0.50528878279E+02  0.30000056018E+02 0.  0.
         12    1    1    2    0    0  0.22742512312E+01 -0.21202100474E+02 -0.34618822856E+02  0.40659121721E+02  0.00000000000E+00 0. -1.
         11    1    3    3    0    0 -0.13917892132E+01 -0.42943517175E+01  0.69757559330E+01  0.83090134785E+01  0.51100000000E-03 0. -1.
        -11    1    3    3    0    0  0.77564525906E+01  0.11635662518E+02  0.62816568277E+01  0.15330049308E+02  0.51100000000E-03 0.  1.
         12    1    3    3    0    0 -0.86389146086E+01  0.13860789674E+02  0.21361410095E+02  0.26889815493E+02  0.00000000000E+00 0. -1.
</event>
<event>
 7    1  0.5121289E-013  0.5052886E+02  0.7816164E-02  0.1300439E+00
        -11   -1    0    0    0    0  0.00000000000E+00  0.00000000000E+00  0.45593999997E+02  0.45594000000E+02  0.51100000000E-03 0. -1.
         11   -1    0    0    0    0 -0.00000000000E+00 -0.00000000000E+00 -0.45593999997E+02  0.45594000000E+02  0.51100000000E-03 0.  1.
    9900012    2    1    2    0    0  0.18117688395E+02  0.36399040602E+02 -0.15763405838E+00  0.50528860338E+02  0.30000001485E+02 0.  0.
         12    1    1    2    0    0 -0.18117688395E+02 -0.36399040602E+02  0.15763405838E+00  0.40659139662E+02  0.00000000000E+00 0. -1.
         11    1    3    3    0    0  0.59944000904E+01  0.33147668596E+01  0.21592174936E+00  0.68532571993E+01  0.51100000000E-03 0. -1.
        -11    1    3    3    0    0  0.14847536735E+02  0.78312157018E+01 -0.56923191803E+01  0.17725117330E+02  0.51100000000E-03 0.  1.
        -12    1    3    3    0    0 -0.27242484300E+01  0.25253058040E+02  0.53187633725E+01  0.25950485809E+02  0.00000000000E+00 0.  1.
</event>
<event>
 7    1  0.5121289E-013  0.5052885E+02  0.7816164E-02  0.1300439E+00
        -11   -1    0    0    0    0  0.00000000000E+00  0.00000000000E+00  0.45593999997E+02  0.45594000000E+02  0.51100000000E-03 0.  1.
         11   -1    0    0    0    0 -0.00000000000E+00 -0.00000000000E+00 -0.45593999997E+02  0.45594000000E+02  0.51100000000E-03 0. -1.
    9900012    2    1    2    0    0  0.14529572508E+02  0.25601418899E+02  0.28046836681E+02  0.50528853738E+02  0.29999981422E+02 0.  0.
         12    1    1    2    0    0 -0.14529572508E+02 -0.25601418899E+02 -0.28046836681E+02  0.40659146262E+02  0.00000000000E+00 0. -1.
         11    1    3    3    0    0  0.80153849502E+01 -0.23807740405E+01  0.47890876121E+01  0.96358622526E+01  0.51100000000E-03 0. -1.
        -11    1    3    3    0    0  0.89094757774E+01  0.65201172047E+01  0.33910806727E+01  0.11549463857E+02  0.51100000000E-03 0.  1.
        -12    1    3    3    0    0 -0.23952882200E+01  0.21462075735E+02  0.19866668396E+02  0.29343527629E+02  0.00000000000E+00 0.  1.
</event>
<event>
 7    1  0.5121289E-013  0.5052884E+02  0.7816164E-02  0.1300439E+00
        -11   -1    0    0    0    0  0.00000000000E+00  0.00000000000E+00  0.45593999997E+02  0.45594000000E+02  0.51100000000E-03 0. -1.
         11   -1    0    0    0    0 -0.00000000000E+00 -0.00000000000E+00 -0.45593999997E+02  0.45594000000E+02  0.51100000000E-03 0.  1.
    9900012    2    1    2    0    0  0.10058611475E+02  0.37051333593E+02  0.13386198922E+02  0.50528839809E+02  0.29999939084E+02 0.  0.
         12    1    1    2    0    0 -0.10058611475E+02 -0.37051333593E+02 -0.13386198922E+02  0.40659160191E+02  0.00000000000E+00 0. -1.
         11    1    3    3    0    0  0.17875438962E+01  0.26130285598E+00 -0.11278973603E+01  0.21297288747E+01  0.51100000000E-03 0. -1.
        -11    1    3    3    0    0  0.14791058103E+02  0.83326013271E+01  0.52844520432E+01  0.17780131561E+02  0.51100000000E-03 0.  1.
        -12    1    3    3    0    0 -0.65199905243E+01  0.28457429410E+02  0.92296442390E+01  0.30618979373E+02  0.00000000000E+00 0.  1.
</event>
<event>
 7    1  0.5121289E-013  0.5052886E+02  0.7816164E-02  0.1300439E+00
        -11   -1    0    0    0    0  0.00000000000E+00  0.00000000000E+00  0.45593999997E+02  0.45594000000E+02  0.51100000000E-03 0.  1.
         11   -1    0    0    0    0 -0.00000000000E+00 -0.00000000000E+00 -0.45593999997E+02  0.45594000000E+02  0.51100000000E-03 0. -1.
    9900012    2    1    2    0    0 -0.28091225768E+02  0.24518828663E+02 -0.16213440398E+02  0.50528861130E+02  0.30000003890E+02 0.  0.
         12    1    1    2    0    0  0.28091225768E+02 -0.24518828663E+02  0.16213440398E+02  0.40659138870E+02  0.00000000000E+00 0. -1.
         11    1    3    3    0    0 -0.11248375814E+02  0.21940997578E+02 -0.99282866737E+01  0.26580146909E+02  0.51100000000E-03 0.  1.
        -11    1    3    3    0    0 -0.67680576089E+01  0.75394407206E+01 -0.75669990197E+01  0.12645522710E+02  0.51100000000E-03 0. -1.
         12    1    3    3    0    0 -0.10074792345E+02 -0.49616096357E+01  0.12818452957E+01  0.11303191511E+02  0.00000000000E+00 0. -1.
</event>
<event>
 7    1  0.5121289E-013  0.5052889E+02  0.7816164E-02  0.1300439E+00
        -11   -1    0    0    0    0  0.00000000000E+00  0.00000000000E+00  0.45593999997E+02  0.45594000000E+02  0.51100000000E-03 0. -1.
         11   -1    0    0    0    0 -0.00000000000E+00 -0.00000000000E+00 -0.45593999997E+02  0.45594000000E+02  0.51100000000E-03 0.  1.
    9900012    2    1    2    0    0  0.38804667594E+01 -0.26891717093E+02 -0.30247988669E+02  0.50528889225E+02  0.30000089288E+02 0.  0.
         12    1    1    2    0    0 -0.38804667594E+01  0.26891717093E+02  0.30247988669E+02  0.40659110775E+02  0.00000000000E+00 0. -1.
         11    1    3    3    0    0 -0.34437882487E+01  0.22648861944E+01  0.79643634340E+00  0.41980588474E+01  0.51100000000E-03 0. -1.
        -11    1    3    3    0    0  0.89273059612E+01 -0.94264634716E+01 -0.19465540659E+02  0.23397911846E+02  0.51100000000E-03 0.  1.
         12    1    3    3    0    0 -0.16030509531E+01 -0.19730139816E+02 -0.11578884353E+02  0.22932918532E+02  0.00000000000E+00 0. -1.
</event>
<event>
 7    1  0.5121289E-013  0.5052888E+02  0.7816164E-02  0.1300439E+00
        -11   -1    0    0    0    0  0.00000000000E+00  0.00000000000E+00  0.45593999997E+02  0.45594000000E+02  0.51100000000E-03 0.  1.
         11   -1    0    0    0    0 -0.00000000000E+00 -0.00000000000E+00 -0.45593999997E+02  0.45594000000E+02  0.51100000000E-03 0. -1.
    9900012    2    1    2    0    0  0.48255639736E+01  0.98121670613E+01  0.39161195236E+02  0.50528881681E+02  0.30000066359E+02 0.  0.
         12    1    1    2    0    0 -0.48255639736E+01 -0.98121670613E+01 -0.39161195236E+02  0.40659118319E+02  0.00000000000E+00 0. -1.
         11    1    3    3    0    0  0.50396980269E+01  0.16934304781E+01  0.25379790125E+01  0.58913157033E+01  0.51100000000E-03 0. -1.
        -11    1    3    3    0    0  0.14107934256E+01 -0.71416826594E+01  0.22972263145E+02  0.24098108713E+02  0.51100000000E-03 0.  1.
         12    1    3    3    0    0 -0.16249274789E+01  0.15260419243E+02  0.13650953079E+02  0.20539457265E+02  0.00000000000E+00 0. -1.
</event>
<event>
 7    1  0.5121289E-013  0.5052890E+02  0.7816164E-02  0.1300439E+00
        -11   -1    0    0    0    0  0.00000000000E+00  0.00000000000E+00  0.45593999997E+02  0.45594000000E+02  0.51100000000E-03 0.  1.
         11   -1    0    0    0    0 -0.00000000000E+00 -0.00000000000E+00 -0.45593999997E+02  0.45594000000E+02  0.51100000000E-03 0. -1.
    9900012    2    1    2    0    0 -0.25276099874E+02  0.23082167642E+02  0.21942993902E+02  0.50528896846E+02  0.30000112453E+02 0.  0.
         12    1    1    2    0    0  0.25276099874E+02 -0.23082167642E+02 -0.21942993902E+02  0.40659103154E+02  0.00000000000E+00 0. -1.
         11    1    3    3    0    0 -0.11888915262E+02  0.71316156843E+01  0.62871999422E+00  0.13878095599E+02  0.51100000000E-03 0. -1.
        -11    1    3    3    0    0 -0.40806424754E+01 -0.32220032325E+01 -0.15192213453E+01  0.54167316344E+01  0.51100000000E-03 0.  1.
        -12    1    3    3    0    0 -0.93065421365E+01  0.19172555190E+02  0.22833495254E+02  0.31234069612E+02  0.00000000000E+00 0.  1.
</event>
<event>
 7    1  0.5121289E-013  0.5052887E+02  0.7816164E-02  0.1300439E+00
        -11   -1    0    0    0    0  0.00000000000E+00  0.00000000000E+00  0.45593999997E+02  0.45594000000E+02  0.51100000000E-03 0.  1.
         11   -1    0    0    0    0 -0.00000000000E+00 -0.00000000000E+00 -0.45593999997E+02  0.45594000000E+02  0.51100000000E-03 0. -1.
    9900012    2    1    2    0    0 -0.33155074856E+02 -0.19826990035E+02  0.12680560927E+02  0.50528866364E+02  0.30000019800E+02 0.  0.
         12    1    1    2    0    0  0.33155074856E+02  0.19826990035E+02 -0.12680560927E+02  0.40659133636E+02  0.00000000000E+00 0. -1.
         11    1    3    3    0    0 -0.14337656360E+02 -0.61871770170E+01  0.97841129025E+01  0.18427653537E+02  0.51100000000E-03 0.  1.
        -11    1    3    3    0    0 -0.10529537504E+02  0.47930186684E+01 -0.62674252220E+00  0.11586068982E+02  0.51100000000E-03 0. -1.
        -12    1    3    3    0    0 -0.82878809917E+01 -0.18432831687E+02  0.35231905470E+01  0.20515143844E+02  0.00000000000E+00 0.  1.
</event>
<event>
 7    1  0.5121289E-013  0.5052888E+02  0.7816164E-02  0.1300439E+00
        -11   -1    0    0    0    0  0.00000000000E+00  0.00000000000E+00  0.45593999997E+02  0.45594000000E+02  0.51100000000E-03 0.  1.
         11   -1    0    0    0    0 -0.00000000000E+00 -0.00000000000E+00 -0.45593999997E+02  0.45594000000E+02  0.51100000000E-03 0. -1.
    9900012    2    1    2    0    0  0.84241822846E+01  0.37292988653E+02 -0.13835843445E+02  0.50528875395E+02  0.30000047249E+02 0.  0.
         12    1    1    2    0    0 -0.84241822846E+01 -0.37292988653E+02  0.13835843445E+02  0.40659124605E+02  0.00000000000E+00 0. -1.
         11    1    3    3    0    0 -0.74288385681E+01  0.62649768125E+01 -0.67642453943E+00  0.97414130059E+01  0.51100000000E-03 0. -1.
        -11    1    3    3    0    0 -0.21072112102E+01  0.10477497791E+01  0.16048367378E+01  0.28484416617E+01  0.51100000000E-03 0.  1.
        -12    1    3    3    0    0  0.17960232063E+02  0.29980262061E+02 -0.14764255643E+02  0.37939020727E+02  0.00000000000E+00 0.  1.
</event>
<event>
 7    1  0.5121289E-013  0.5052886E+02  0.7816164E-02  0.1300439E+00
        -11   -1    0    0    0    0  0.00000000000E+00  0.00000000000E+00  0.45593999997E+02  0.45594000000E+02  0.51100000000E-03 0. -1.
         11   -1    0    0    0    0 -0.00000000000E+00 -0.00000000000E+00 -0.45593999997E+02  0.45594000000E+02  0.51100000000E-03 0.  1.
    9900012    2    1    2    0    0  0.17434497730E+02 -0.35550541662E+02 -0.92392165781E+01  0.50528857774E+02  0.29999993691E+02 0.  0.
         12    1    1    2    0    0 -0.17434497730E+02  0.35550541662E+02  0.92392165781E+01  0.40659142226E+02  0.00000000000E+00 0. -1.
         11    1    3    3    0    0  0.44864787364E-01 -0.27785430065E+00  0.34827631215E+01  0.34941172109E+01  0.51100000000E-03 0. -1.
        -11    1    3    3    0    0 -0.10272656665E+01  0.19635010549E+01  0.19764501957E+01  0.29693377679E+01  0.51100000000E-03 0.  1.
        -12    1    3    3    0    0  0.18416898609E+02 -0.37236188416E+02 -0.14698429895E+02  0.44065402796E+02  0.00000000000E+00 0.  1.
</event>
<event>
 7    1  0.5121289E-013  0.5052886E+02  0.7816164E-02  0.1300439E+00
        -11   -1    0    0    0    0  0.00000000000E+00  0.00000000000E+00  0.45593999997E+02  0.45594000000E+02  0.51100000000E-03 0.  1.
         11   -1    0    0    0    0 -0.00000000000E+00 -0.00000000000E+00 -0.45593999997E+02  0.45594000000E+02  0.51100000000E-03 0. -1.
    9900012    2    1    2    0    0 -0.34222650495E+02  0.10609467028E+02  0.19220164148E+02  0.50528864404E+02  0.30000013843E+02 0.  0.
         12    1    1    2    0    0  0.34222650495E+02 -0.10609467028E+02 -0.19220164148E+02  0.40659135596E+02  0.00000000000E+00 0. -1.
         11    1    3    3    0    0 -0.23820224761E+02  0.87944228120E+01  0.43479762078E+01  0.25761402866E+02  0.51100000000E-03 0. -1.
        -11    1    3    3    0    0  0.91138595280E+00  0.38107713963E+01 -0.19656835621E+01  0.43836645763E+01  0.51100000000E-03 0.  1.
         12    1    3    3    0    0 -0.11313811687E+02 -0.19957271805E+01  0.16837871502E+02  0.20383796962E+02  0.00000000000E+00 0. -1.
</event>
<event>
 7    1  0.5121289E-013  0.5052886E+02  0.7816164E-02  0.1300439E+00
        -11   -1    0    0    0    0  0.00000000000E+00  0.00000000000E+00  0.45593999997E+02  0.45594000000E+02  0.51100000000E-03 0.  1.
         11   -1    0    0    0    0 -0.00000000000E+00 -0.00000000000E+00 -0.45593999997E+02  0.45594000000E+02  0.51100000000E-03 0. -1.
    9900012    2    1    2    0    0 -0.38550723068E+02 -0.10138175507E+02  0.80140473901E+01  0.50528858258E+02  0.29999995160E+02 0.  0.
         12    1    1    2    0    0  0.38550723068E+02  0.10138175507E+02 -0.80140473901E+01  0.40659141742E+02  0.00000000000E+00 0. -1.
         11    1    3    3    0    0 -0.15307591371E+02 -0.44530887294E+01 -0.73280651381E+01  0.17545737139E+02  0.51100000000E-03 0. -1.
        -11    1    3    3    0    0 -0.59510897385E+01 -0.49782326568E+01 -0.24754069751E+01  0.81440720414E+01  0.51100000000E-03 0.  1.
        -12    1    3    3    0    0 -0.17292041958E+02 -0.70685412060E+00  0.17817519503E+02  0.24839049078E+02  0.00000000000E+00 0.  1.
</event>
<event>
 7    1  0.5121289E-013  0.5052886E+02  0.7816164E-02  0.1300439E+00
        -11   -1    0    0    0    0  0.00000000000E+00  0.00000000000E+00  0.45593999997E+02  0.45594000000E+02  0.51100000000E-03 0. -1.
         11   -1    0    0    0    0 -0.00000000000E+00 -0.00000000000E+00 -0.45593999997E+02  0.45594000000E+02  0.51100000000E-03 0.  1.
    9900012    2    1    2    0    0  0.27544428682E+02  0.26773936892E+01 -0.29787613911E+02  0.50528856737E+02  0.29999990537E+02 0.  0.
         12    1    1    2    0    0 -0.27544428682E+02 -0.26773936892E+01  0.29787613911E+02  0.40659143263E+02  0.00000000000E+00 0. -1.
         11    1    3    3    0    0  0.23172310180E+02  0.46053646173E+01 -0.25703829435E+02  0.34912063677E+02  0.51100000000E-03 0. -1.
        -11    1    3    3    0    0  0.28781675639E+01 -0.17460656268E+01 -0.94562084613E+01  0.10037553109E+02  0.51100000000E-03 0.  1.
         12    1    3    3    0    0  0.14939509384E+01 -0.18190530139E+00  0.53724239851E+01  0.55792399500E+01  0.00000000000E+00 0. -1.
</event>
<event>
 7    1  0.5121289E-013  0.5052886E+02  0.7816164E-02  0.1300439E+00
        -11   -1    0    0    0    0  0.00000000000E+00  0.00000000000E+00  0.45593999997E+02  0.45594000000E+02  0.51100000000E-03 0.  1.
         11   -1    0    0    0    0 -0.00000000000E+00 -0.00000000000E+00 -0.45593999997E+02  0.45594000000E+02  0.51100000000E-03 0. -1.
    9900012    2    1    2    0    0  0.16947668644E+02 -0.79510242679E+01  0.36093262909E+02  0.50528857279E+02  0.29999992186E+02 0.  0.
         12    1    1    2    0    0 -0.16947668644E+02  0.79510242679E+01 -0.36093262909E+02  0.40659142721E+02  0.00000000000E+00 0. -1.
         11    1    3    3    0    0  0.27359243000E+01  0.19642669886E+01  0.34423745950E+01  0.48159702751E+01  0.51100000000E-03 0. -1.
        -11    1    3    3    0    0  0.39977457009E+01  0.91902142036E+01  0.13384289747E+02  0.16720682405E+02  0.51100000000E-03 0.  1.
         12    1    3    3    0    0  0.10213998643E+02 -0.19105505460E+02  0.19266598567E+02  0.28992204599E+02  0.00000000000E+00 0. -1.
</event>
<event>
 7    1  0.5121289E-013  0.5052887E+02  0.7816164E-02  0.1300439E+00
        -11   -1    0    0    0    0  0.00000000000E+00  0.00000000000E+00  0.45593999997E+02  0.45594000000E+02  0.51100000000E-03 0.  1.
         11   -1    0    0    0    0 -0.00000000000E+00 -0.00000000000E+00 -0.45593999997E+02  0.45594000000E+02  0.51100000000E-03 0. -1.
    9900012    2    1    2    0    0  0.21257439301E+02 -0.31236965364E+02  0.15017923372E+02  0.50528871219E+02  0.30000034558E+02 0.  0.
         12    1    1    2    0    0 -0.21257439301E+02  0.31236965364E+02 -0.15017923372E+02  0.40659128781E+02  0.00000000000E+00 0. -1.
         11    1    3    3    0    0  0.79694443472E+01 -0.20037237446E+01  0.10342716854E+01  0.82823106817E+01  0.51100000000E-03 0.  1.
        -11    1    3    3    0    0  0.10537194956E+02 -0.51666816535E-01  0.31583876352E+01  0.11000479977E+02  0.51100000000E-03 0. -1.
         12    1    3    3    0    0  0.27507999976E+01 -0.29181574803E+02  0.10825264052E+02  0.31246080561E+02  0.00000000000E+00 0. -1.
</event>
<event>
 7    1  0.5121289E-013  0.5052887E+02  0.7816164E-02  0.1300439E+00
        -11   -1    0    0    0    0  0.00000000000E+00  0.00000000000E+00  0.45593999997E+02  0.45594000000E+02  0.51100000000E-03 0.  1.
         11   -1    0    0    0    0 -0.00000000000E+00 -0.00000000000E+00 -0.45593999997E+02  0.45594000000E+02  0.51100000000E-03 0. -1.
    9900012    2    1    2    0    0 -0.18001250940E+02 -0.23399890420E+02  0.27956486967E+02  0.50528867316E+02  0.30000022694E+02 0.  0.
         12    1    1    2    0    0  0.18001250940E+02  0.23399890420E+02 -0.27956486967E+02  0.40659132684E+02  0.00000000000E+00 0. -1.
         11    1    3    3    0    0 -0.67673525275E+01 -0.37637607212E+01 -0.22057617688E+01  0.80516048238E+01  0.51100000000E-03 0. -1.
        -11    1    3    3    0    0 -0.12064132807E+02 -0.90415986871E+01  0.62697833937E+01  0.16328012471E+02  0.51100000000E-03 0.  1.
        -12    1    3    3    0    0  0.83023439455E+00 -0.10594531012E+02  0.23892465342E+02  0.26149250021E+02  0.00000000000E+00 0.  1.
</event>
<event>
 7    1  0.5121289E-013  0.5052887E+02  0.7816164E-02  0.1300439E+00
        -11   -1    0    0    0    0  0.00000000000E+00  0.00000000000E+00  0.45593999997E+02  0.45594000000E+02  0.51100000000E-03 0. -1.
         11   -1    0    0    0    0 -0.00000000000E+00 -0.00000000000E+00 -0.45593999997E+02  0.45594000000E+02  0.51100000000E-03 0.  1.
    9900012    2    1    2    0    0  0.23548988917E+02 -0.11704872184E+02 -0.31009776381E+02  0.50528866425E+02  0.30000019985E+02 0.  0.
         12    1    1    2    0    0 -0.23548988917E+02  0.11704872184E+02  0.31009776381E+02  0.40659133575E+02  0.00000000000E+00 0. -1.
         11    1    3    3    0    0  0.95514511060E+01  0.29565739633E+01 -0.52168652579E+01  0.11277731652E+02  0.51100000000E-03 0. -1.
        -11    1    3    3    0    0 -0.12482326000E+01 -0.29700895884E+01 -0.18376622365E+02  0.18656895953E+02  0.51100000000E-03 0.  1.
         12    1    3    3    0    0  0.15245770411E+02 -0.11691356559E+02 -0.74162887579E+01  0.20594238820E+02  0.00000000000E+00 0. -1.
</event>
<event>
 7    1  0.5121289E-013  0.5052886E+02  0.7816164E-02  0.1300439E+00
        -11   -1    0    0    0    0  0.00000000000E+00  0.00000000000E+00  0.45593999997E+02  0.45594000000E+02  0.51100000000E-03 0.  1.
         11   -1    0    0    0    0 -0.00000000000E+00 -0.00000000000E+00 -0.45593999997E+02  0.45594000000E+02  0.51100000000E-03 0. -1.
    9900012    2    1    2    0    0  0.27324039110E+02  0.25763555676E+02  0.15582101861E+02  0.50528858189E+02  0.29999994952E+02 0.  0.
         12    1    1    2    0    0 -0.27324039110E+02 -0.25763555676E+02 -0.15582101861E+02  0.40659141811E+02  0.00000000000E+00 0. -1.
         11    1    3    3    0    0  0.11471032400E+02  0.21747705113E+02  0.14925895436E+02  0.28763338068E+02  0.51100000000E-03 0. -1.
        -11    1    3    3    0    0  0.65472293810E+01  0.79905131176E+01  0.40451560873E+01  0.11094043469E+02  0.51100000000E-03 0.  1.
         12    1    3    3    0    0  0.93057773295E+01 -0.39746625544E+01 -0.33889496626E+01  0.10671476652E+02  0.00000000000E+00 0. -1.
</event>
<event>
 7    1  0.5121289E-013  0.5052886E+02  0.7816164E-02  0.1300439E+00
        -11   -1    0    0    0    0  0.00000000000E+00  0.00000000000E+00  0.45593999997E+02  0.45594000000E+02  0.51100000000E-03 0.  1.
         11   -1    0    0    0    0 -0.00000000000E+00 -0.00000000000E+00 -0.45593999997E+02  0.45594000000E+02  0.51100000000E-03 0. -1.
    9900012    2    1    2    0    0 -0.38876644610E+02  0.11369077106E+02 -0.35378763796E+01  0.50528856137E+02  0.29999988715E+02 0.  0.
         12    1    1    2    0    0  0.38876644610E+02 -0.11369077106E+02  0.35378763796E+01  0.40659143863E+02  0.00000000000E+00 0. -1.
         11    1    3    3    0    0 -0.65800944170E+01  0.10063421191E+02 -0.14330148558E+01  0.12108824074E+02  0.51100000000E-03 0. -1.
        -11    1    3    3    0    0 -0.67673273805E+01  0.63508904411E+01 -0.73927737348E+01  0.11865227896E+02  0.51100000000E-03 0.  1.
        -12    1    3    3    0    0 -0.25529222812E+02 -0.50452345265E+01  0.52879122110E+01  0.26554804168E+02  0.00000000000E+00 0.  1.
</event>
<event>
 7    1  0.5121289E-013  0.5052886E+02  0.7816164E-02  0.1300439E+00
        -11   -1    0    0    0    0  0.00000000000E+00  0.00000000000E+00  0.45593999997E+02  0.45594000000E+02  0.51100000000E-03 0.  1.
         11   -1    0    0    0    0 -0.00000000000E+00 -0.00000000000E+00 -0.45593999997E+02  0.45594000000E+02  0.51100000000E-03 0. -1.
    9900012    2    1    2    0    0 -0.23319022510E+02 -0.28086667416E+02  0.17903296814E+02  0.50528859156E+02  0.29999997889E+02 0.  0.
         12    1    1    2    0    0  0.23319022510E+02  0.28086667416E+02 -0.17903296814E+02  0.40659140844E+02  0.00000000000E+00 0. -1.
         11    1    3    3    0    0 -0.19607154925E+02 -0.12297031138E+02  0.78231765238E+01  0.24430709983E+02  0.51100000000E-03 0. -1.
        -11    1    3    3    0    0 -0.53623699338E+01  0.19544884230E+01  0.17599570544E+00  0.57101673401E+01  0.51100000000E-03 0.  1.
         12    1    3    3    0    0  0.16505023491E+01 -0.17744124701E+02  0.99041245851E+01  0.20387981833E+02  0.00000000000E+00 0. -1.
</event>
<event>
 7    1  0.5121289E-013  0.5052886E+02  0.7816164E-02  0.1300439E+00
        -11   -1    0    0    0    0  0.00000000000E+00  0.00000000000E+00  0.45593999997E+02  0.45594000000E+02  0.51100000000E-03 0. -1.
         11   -1    0    0    0    0 -0.00000000000E+00 -0.00000000000E+00 -0.45593999997E+02  0.45594000000E+02  0.51100000000E-03 0.  1.
    9900012    2    1    2    0    0  0.26338234174E+02  0.16260786663E+00 -0.30974775869E+02  0.50528858828E+02  0.29999996894E+02 0.  0.
         12    1    1    2    0    0 -0.26338234174E+02 -0.16260786663E+00  0.30974775869E+02  0.40659141172E+02  0.00000000000E+00 0. -1.
         11    1    3    3    0    0  0.21820419335E+02  0.12014693968E+01 -0.74986107393E+01  0.23104185594E+02  0.51100000000E-03 0. -1.
        -11    1    3    3    0    0  0.31877944412E+01 -0.70326130767E+01 -0.10158000950E+02  0.12759493079E+02  0.51100000000E-03 0.  1.
        -12    1    3    3    0    0  0.13300203973E+01  0.59937515465E+01 -0.13318164179E+02  0.14665180155E+02  0.00000000000E+00 0.  1.
</event>
<event>
 7    1  0.5121289E-013  0.5052887E+02  0.7816164E-02  0.1300439E+00
        -11   -1    0    0    0    0  0.00000000000E+00  0.00000000000E+00  0.45593999997E+02  0.45594000000E+02  0.51100000000E-03 0. -1.
         11   -1    0    0    0    0 -0.00000000000E+00 -0.00000000000E+00 -0.45593999997E+02  0.45594000000E+02  0.51100000000E-03 0.  1.
    9900012    2    1    2    0    0  0.30927343448E+01  0.38629526885E+02 -0.12302841053E+02  0.50528865097E+02  0.30000015948E+02 0.  0.
         12    1    1    2    0    0 -0.30927343448E+01 -0.38629526885E+02  0.12302841053E+02  0.40659134903E+02  0.00000000000E+00 0. -1.
         11    1    3    3    0    0 -0.12025049136E+01  0.57905475103E+01  0.22478729174E+01  0.63268784918E+01  0.51100000000E-03 0. -1.
        -11    1    3    3    0    0 -0.82821068335E+01  0.24339640217E+02 -0.47836150714E+01  0.26151373825E+02  0.51100000000E-03 0.  1.
        -12    1    3    3    0    0  0.12577346092E+02  0.84993391576E+01 -0.97670988994E+01  0.18050612780E+02  0.00000000000E+00 0.  1.
</event>
<event>
 7    1  0.5121289E-013  0.5052885E+02  0.7816164E-02  0.1300439E+00
        -11   -1    0    0    0    0  0.00000000000E+00  0.00000000000E+00  0.45593999997E+02  0.45594000000E+02  0.51100000000E-03 0.  1.
         11   -1    0    0    0    0 -0.00000000000E+00 -0.00000000000E+00 -0.45593999997E+02  0.45594000000E+02  0.51100000000E-03 0. -1.
    9900012    2    1    2    0    0 -0.33051547921E+02 -0.12473924247E+02  0.20128667120E+02  0.50528845482E+02  0.29999956327E+02 0.  0.
         12    1    1    2    0    0  0.33051547921E+02  0.12473924247E+02 -0.20128667120E+02  0.40659154518E+02  0.00000000000E+00 0. -1.
         11    1    3    3    0    0 -0.45582029258E+01  0.31173989293E+01  0.36772820687E+01  0.66345906936E+01  0.51100000000E-03 0. -1.
        -11    1    3    3    0    0 -0.17883328432E+02  0.31701567356E+01  0.12324464504E+02  0.21948935170E+02  0.51100000000E-03 0.  1.
        -12    1    3    3    0    0 -0.10610016563E+02 -0.18761479912E+02  0.41269205476E+01  0.21945319618E+02  0.00000000000E+00 0.  1.
</event>
<event>
 7    1  0.5121289E-013  0.5052886E+02  0.7816164E-02  0.1300439E+00
        -11   -1    0    0    0    0  0.00000000000E+00  0.00000000000E+00  0.45593999997E+02  0.45594000000E+02  0.51100000000E-03 0.  1.
         11   -1    0    0    0    0 -0.00000000000E+00 -0.00000000000E+00 -0.45593999997E+02  0.45594000000E+02  0.51100000000E-03 0. -1.
    9900012    2    1    2    0    0 -0.16270398713E+02  0.78420710399E+01  0.36427210370E+02  0.50528860709E+02  0.30000002612E+02 0.  0.
         12    1    1    2    0    0  0.16270398713E+02 -0.78420710399E+01 -0.36427210370E+02  0.40659139291E+02  0.00000000000E+00 0. -1.
         11    1    3    3    0    0 -0.30771218017E+01 -0.10206556636E+02  0.97551506441E+01  0.14450101774E+02  0.51100000000E-03 0. -1.
        -11    1    3    3    0    0 -0.53267819286E+01  0.86531493849E+00  0.58134914368E+01  0.79322165001E+01  0.51100000000E-03 0.  1.
         12    1    3    3    0    0 -0.78664949832E+01  0.17183312737E+02  0.20858568290E+02  0.28146542435E+02  0.00000000000E+00 0. -1.
</event>
<event>
 7    1  0.5121289E-013  0.5052886E+02  0.7816164E-02  0.1300439E+00
        -11   -1    0    0    0    0  0.00000000000E+00  0.00000000000E+00  0.45593999997E+02  0.45594000000E+02  0.51100000000E-03 0. -1.
         11   -1    0    0    0    0 -0.00000000000E+00 -0.00000000000E+00 -0.45593999997E+02  0.45594000000E+02  0.51100000000E-03 0.  1.
    9900012    2    1    2    0    0 -0.20264072567E+02 -0.28679698523E+02 -0.20494087458E+02  0.50528863694E+02  0.30000011685E+02 0.  0.
         12    1    1    2    0    0  0.20264072567E+02  0.28679698523E+02  0.20494087458E+02  0.40659136306E+02  0.00000000000E+00 0. -1.
         11    1    3    3    0    0 -0.86743069908E+01 -0.15349178373E+02  0.23179225054E+00  0.17632203674E+02  0.51100000000E-03 0. -1.
        -11    1    3    3    0    0 -0.70300894852E+01  0.34770947874E+01 -0.42385244448E+01  0.89150118374E+01  0.51100000000E-03 0.  1.
         12    1    3    3    0    0 -0.45596760912E+01 -0.16807614938E+02 -0.16487355264E+02  0.23981648183E+02  0.00000000000E+00 0. -1.
</event>
<event>
 7    1  0.5121289E-013  0.5052887E+02  0.7816164E-02  0.1300439E+00
        -11   -1    0    0    0    0  0.00000000000E+00  0.00000000000E+00  0.45593999997E+02  0.45594000000E+02  0.51100000000E-03 0.  1.
         11   -1    0    0    0    0 -0.00000000000E+00 -0.00000000000E+00 -0.45593999997E+02  0.45594000000E+02  0.51100000000E-03 0. -1.
    9900012    2    1    2    0    0 -0.20619878675E+02  0.28699937556E+02  0.20107195954E+02  0.50528866446E+02  0.30000020048E+02 0.  0.
         12    1    1    2    0    0  0.20619878675E+02 -0.28699937556E+02 -0.20107195954E+02  0.40659133554E+02  0.00000000000E+00 0. -1.
         11    1    3    3    0    0 -0.46872263386E+01  0.94022721894E+01 -0.27848089199E+01  0.10868669378E+02  0.51100000000E-03 0.  1.
        -11    1    3    3    0    0 -0.33082582591E+01  0.14515771549E+02  0.23395908607E+01  0.15070696136E+02  0.51100000000E-03 0. -1.
        -12    1    3    3    0    0 -0.12624394077E+02  0.47818938179E+01  0.20552414013E+02  0.24589500931E+02  0.00000000000E+00 0.  1.
</event>
<event>
 7    1  0.5121289E-013  0.5052886E+02  0.7816164E-02  0.1300439E+00
        -11   -1    0    0    0    0  0.00000000000E+00  0.00000000000E+00  0.45593999997E+02  0.45594000000E+02  0.51100000000E-03 0.  1.
         11   -1    0    0    0    0 -0.00000000000E+00 -0.00000000000E+00 -0.45593999997E+02  0.45594000000E+02  0.51100000000E-03 0. -1.
    9900012    2    1    2    0    0  0.30469188162E+02  0.53662514097E+01  0.26381763629E+02  0.50528861622E+02  0.30000005387E+02 0.  0.
         12    1    1    2    0    0 -0.30469188162E+02 -0.53662514097E+01 -0.26381763629E+02  0.40659138378E+02  0.00000000000E+00 0. -1.
         11    1    3    3    0    0 -0.30412199266E+00  0.25399015472E+01 -0.15025974112E+01  0.29667135516E+01  0.51100000000E-03 0. -1.
        -11    1    3    3    0    0  0.11008666633E+02  0.15161828613E+01 -0.24060422038E+01  0.11370074356E+02  0.51100000000E-03 0.  1.
         12    1    3    3    0    0  0.19764643521E+02  0.13101670012E+01  0.30290403244E+02  0.36192073715E+02  0.00000000000E+00 0. -1.
</event>
<event>
 7    1  0.5121289E-013  0.5052886E+02  0.7816164E-02  0.1300439E+00
        -11   -1    0    0    0    0  0.00000000000E+00  0.00000000000E+00  0.45593999997E+02  0.45594000000E+02  0.51100000000E-03 0.  1.
         11   -1    0    0    0    0 -0.00000000000E+00 -0.00000000000E+00 -0.45593999997E+02  0.45594000000E+02  0.51100000000E-03 0. -1.
    9900012    2    1    2    0    0 -0.93616331032E+01 -0.35234308241E+02  0.18001919878E+02  0.50528858705E+02  0.29999996519E+02 0.  0.
         12    1    1    2    0    0  0.93616331032E+01  0.35234308241E+02 -0.18001919878E+02  0.40659141295E+02  0.00000000000E+00 0. -1.
         11    1    3    3    0    0 -0.15197788174E+02 -0.15716704067E+02  0.19443732026E+02  0.29258268361E+02  0.51100000000E-03 0. -1.
        -11    1    3    3    0    0 -0.13676068008E+00 -0.77717153569E+01  0.10999951061E+01  0.78503663970E+01  0.51100000000E-03 0.  1.
         12    1    3    3    0    0  0.59729157504E+01 -0.11745888817E+02 -0.25418072551E+01  0.13420223947E+02  0.00000000000E+00 0. -1.
</event>
<event>
 7    1  0.5121289E-013  0.5052890E+02  0.7816164E-02  0.1300439E+00
        -11   -1    0    0    0    0  0.00000000000E+00  0.00000000000E+00  0.45593999997E+02  0.45594000000E+02  0.51100000000E-03 0.  1.
         11   -1    0    0    0    0 -0.00000000000E+00 -0.00000000000E+00 -0.45593999997E+02  0.45594000000E+02  0.51100000000E-03 0. -1.
    9900012    2    1    2    0    0 -0.23222256466E+02 -0.24146908685E+02  0.23039450347E+02  0.50528896878E+02  0.30000112550E+02 0.  0.
         12    1    1    2    0    0  0.23222256466E+02  0.24146908685E+02 -0.23039450347E+02  0.40659103122E+02  0.00000000000E+00 0. -1.
         11    1    3    3    0    0 -0.77681449316E+00 -0.12853130771E+02  0.15059112618E+02  0.19813714555E+02  0.51100000000E-03 0. -1.
        -11    1    3    3    0    0 -0.20323193196E+02 -0.10998960000E+02  0.12090221958E+02  0.26080313840E+02  0.51100000000E-03 0.  1.
         12    1    3    3    0    0 -0.21222487774E+01 -0.29481791453E+00 -0.41098842292E+01  0.46348684829E+01  0.00000000000E+00 0. -1.
</event>
<event>
 7    1  0.5121289E-013  0.5052886E+02  0.7816164E-02  0.1300439E+00
        -11   -1    0    0    0    0  0.00000000000E+00  0.00000000000E+00  0.45593999997E+02  0.45594000000E+02  0.51100000000E-03 0.  1.
         11   -1    0    0    0    0 -0.00000000000E+00 -0.00000000000E+00 -0.45593999997E+02  0.45594000000E+02  0.51100000000E-03 0. -1.
    9900012    2    1    2    0    0 -0.22866013809E+02 -0.42249764742E+01  0.33353572674E+02  0.50528858053E+02  0.29999994538E+02 0.  0.
         12    1    1    2    0    0  0.22866013809E+02  0.42249764742E+01 -0.33353572674E+02  0.40659141947E+02  0.00000000000E+00 0. -1.
         11    1    3    3    0    0  0.34935096939E+01 -0.85993039417E+00 -0.20179139414E+01  0.41250535997E+01  0.51100000000E-03 0. -1.
        -11    1    3    3    0    0 -0.12815849298E+02 -0.34569700778E+01  0.70952697948E+01  0.15051228823E+02  0.51100000000E-03 0.  1.
        -12    1    3    3    0    0 -0.13543674205E+02  0.91923997768E-01  0.28276216821E+02  0.31352575631E+02  0.00000000000E+00 0.  1.
</event>
<event>
 7    1  0.5121289E-013  0.5052886E+02  0.7816164E-02  0.1300439E+00
        -11   -1    0    0    0    0  0.00000000000E+00  0.00000000000E+00  0.45593999997E+02  0.45594000000E+02  0.51100000000E-03 0.  1.
         11   -1    0    0    0    0 -0.00000000000E+00 -0.00000000000E+00 -0.45593999997E+02  0.45594000000E+02  0.51100000000E-03 0. -1.
    9900012    2    1    2    0    0 -0.49159967271E+00  0.37078043645E+00  0.40654477137E+02  0.50528860072E+02  0.30000000675E+02 0.  0.
         12    1    1    2    0    0  0.49159967271E+00 -0.37078043645E+00 -0.40654477137E+02  0.40659139928E+02  0.00000000000E+00 0. -1.
         11    1    3    3    0    0 -0.75623543363E+01  0.91066081885E+01  0.13667759649E+02  0.18081127451E+02  0.51100000000E-03 0. -1.
        -11    1    3    3    0    0 -0.23886701046E+00  0.19184649060E+01  0.13984039133E+02  0.14117043450E+02  0.51100000000E-03 0.  1.
         12    1    3    3    0    0  0.73096216741E+01 -0.10654292658E+02  0.13002678356E+02  0.18330689171E+02  0.00000000000E+00 0. -1.
</event>
<event>
 7    1  0.5121289E-013  0.5052890E+02  0.7816164E-02  0.1300439E+00
        -11   -1    0    0    0    0  0.00000000000E+00  0.00000000000E+00  0.45593999997E+02  0.45594000000E+02  0.51100000000E-03 0. -1.
         11   -1    0    0    0    0 -0.00000000000E+00 -0.00000000000E+00 -0.45593999997E+02  0.45594000000E+02  0.51100000000E-03 0.  1.
    9900012    2    1    2    0    0  0.39928184594E+02 -0.73552693944E+01 -0.21914107859E+01  0.50528902690E+02  0.30000130217E+02 0.  0.
         12    1    1    2    0    0 -0.39928184594E+02  0.73552693944E+01  0.21914107859E+01  0.40659097310E+02  0.00000000000E+00 0. -1.
         11    1    3    3    0    0  0.51345074947E+01  0.15676331197E+01  0.83318425481E+01  0.99116215282E+01  0.51100000000E-03 0. -1.
        -11    1    3    3    0    0  0.23702867375E+02  0.17162941403E+01 -0.49927197577E+01  0.24283715494E+02  0.51100000000E-03 0.  1.
         12    1    3    3    0    0  0.11090809724E+02 -0.10639196654E+02 -0.55305335763E+01  0.16333565668E+02  0.00000000000E+00 0. -1.
</event>
<event>
 7    1  0.5121289E-013  0.5052886E+02  0.7816164E-02  0.1300439E+00
        -11   -1    0    0    0    0  0.00000000000E+00  0.00000000000E+00  0.45593999997E+02  0.45594000000E+02  0.51100000000E-03 0.  1.
         11   -1    0    0    0    0 -0.00000000000E+00 -0.00000000000E+00 -0.45593999997E+02  0.45594000000E+02  0.51100000000E-03 0. -1.
    9900012    2    1    2    0    0 -0.26885242483E+02  0.95736551675E+01  0.28960229859E+02  0.50528855270E+02  0.29999986079E+02 0.  0.
         12    1    1    2    0    0  0.26885242483E+02 -0.95736551675E+01 -0.28960229859E+02  0.40659144730E+02  0.00000000000E+00 0. -1.
         11    1    3    3    0    0 -0.97458242061E+01 -0.54063246226E+01  0.59513338489E+01  0.12634389982E+02  0.51100000000E-03 0. -1.
        -11    1    3    3    0    0  0.12513247986E+01  0.41487282666E+01  0.14127343354E+02  0.14776995313E+02  0.51100000000E-03 0.  1.
         12    1    3    3    0    0 -0.18390743076E+02  0.10831251523E+02  0.88815526568E+01  0.23117469975E+02  0.00000000000E+00 0. -1.
</event>
<event>
 7    1  0.5121289E-013  0.5052888E+02  0.7816164E-02  0.1300439E+00
        -11   -1    0    0    0    0  0.00000000000E+00  0.00000000000E+00  0.45593999997E+02  0.45594000000E+02  0.51100000000E-03 0.  1.
         11   -1    0    0    0    0 -0.00000000000E+00 -0.00000000000E+00 -0.45593999997E+02  0.45594000000E+02  0.51100000000E-03 0. -1.
    9900012    2    1    2    0    0  0.24747746179E+02  0.56525695608E+01  0.31761002685E+02  0.50528883247E+02  0.30000071116E+02 0.  0.
         12    1    1    2    0    0 -0.24747746179E+02 -0.56525695608E+01 -0.31761002685E+02  0.40659116753E+02  0.00000000000E+00 0. -1.
         11    1    3    3    0    0  0.74976540387E+01 -0.59184206484E+01  0.21322111944E+02  0.23363967494E+02  0.51100000000E-03 0.  1.
        -11    1    3    3    0    0  0.72466760333E+01 -0.26286124679E+01  0.30970460696E+01  0.83075635210E+01  0.51100000000E-03 0. -1.
        -12    1    3    3    0    0  0.10003416107E+02  0.14199602677E+02  0.73418446721E+01  0.18857352232E+02  0.00000000000E+00 0.  1.
</event>
<event>
 7    1  0.5121289E-013  0.5052884E+02  0.7816164E-02  0.1300439E+00
        -11   -1    0    0    0    0  0.00000000000E+00  0.00000000000E+00  0.45593999997E+02  0.45594000000E+02  0.51100000000E-03 0. -1.
         11   -1    0    0    0    0 -0.00000000000E+00 -0.00000000000E+00 -0.45593999997E+02  0.45594000000E+02  0.51100000000E-03 0.  1.
    9900012    2    1    2    0    0 -0.38176323807E+01 -0.40202579582E+02  0.47271055052E+01  0.50528840534E+02  0.29999941288E+02 0.  0.
         12    1    1    2    0    0  0.38176323807E+01  0.40202579582E+02 -0.47271055052E+01  0.40659159466E+02  0.00000000000E+00 0. -1.
         11    1    3    3    0    0  0.75406641664E+01 -0.42509894854E+00  0.16346731397E+01  0.77275145889E+01  0.51100000000E-03 0. -1.
        -11    1    3    3    0    0 -0.99906454931E+00 -0.36248575784E+01 -0.28620030168E+01  0.47253342703E+01  0.51100000000E-03 0.  1.
        -12    1    3    3    0    0 -0.10359231998E+02 -0.36152623055E+02  0.59544353822E+01  0.38075991675E+02  0.00000000000E+00 0.  1.
</event>
<event>
 7    1  0.5121289E-013  0.5052886E+02  0.7816164E-02  0.1300439E+00
        -11   -1    0    0    0    0  0.00000000000E+00  0.00000000000E+00  0.45593999997E+02  0.45594000000E+02  0.51100000000E-03 0. -1.
         11   -1    0    0    0    0 -0.00000000000E+00 -0.00000000000E+00 -0.45593999997E+02  0.45594000000E+02  0.51100000000E-03 0.  1.
    9900012    2    1    2    0    0  0.12989208481E+02  0.38438968970E+02 -0.26252816757E+01  0.50528856178E+02  0.29999988838E+02 0.  0.
         12    1    1    2    0    0 -0.12989208481E+02 -0.38438968970E+02  0.26252816757E+01  0.40659143822E+02  0.00000000000E+00 0. -1.
         11    1    3    3    0    0  0.50949000285E+01  0.10807889143E+01 -0.25849378939E+01  0.58144660248E+01  0.51100000000E-03 0. -1.
        -11    1    3    3    0    0  0.15791632004E+02  0.21890227527E+02 -0.27709890330E+01  0.27133670651E+02  0.51100000000E-03 0.  1.
        -12    1    3    3    0    0 -0.78973235513E+01  0.15467952529E+02  0.27306452512E+01  0.17580719502E+02  0.00000000000E+00 0.  1.
</event>
<event>
 7    1  0.5121289E-013  0.5052886E+02  0.7816164E-02  0.1300439E+00
        -11   -1    0    0    0    0  0.00000000000E+00  0.00000000000E+00  0.45593999997E+02  0.45594000000E+02  0.51100000000E-03 0. -1.
         11   -1    0    0    0    0 -0.00000000000E+00 -0.00000000000E+00 -0.45593999997E+02  0.45594000000E+02  0.51100000000E-03 0.  1.
    9900012    2    1    2    0    0 -0.14351717292E+02  0.15992603401E+02 -0.34517103970E+02  0.50528860569E+02  0.30000002185E+02 0.  0.
         12    1    1    2    0    0  0.14351717292E+02 -0.15992603401E+02  0.34517103970E+02  0.40659139431E+02  0.00000000000E+00 0. -1.
         11    1    3    3    0    0 -0.51631307470E+01 -0.77880071633E+00 -0.16540341726E+01  0.54772510415E+01  0.51100000000E-03 0. -1.
        -11    1    3    3    0    0 -0.44803255288E+01  0.11617896512E+02 -0.10660678141E+01  0.12497413215E+02  0.51100000000E-03 0.  1.
        -12    1    3    3    0    0 -0.47082610164E+01  0.51535076053E+01 -0.31797001983E+02  0.32554196313E+02  0.00000000000E+00 0.  1.
</event>
<event>
 7    1  0.5121289E-013  0.5052886E+02  0.7816164E-02  0.1300439E+00
        -11   -1    0    0    0    0  0.00000000000E+00  0.00000000000E+00  0.45593999997E+02  0.45594000000E+02  0.51100000000E-03 0.  1.
         11   -1    0    0    0    0 -0.00000000000E+00 -0.00000000000E+00 -0.45593999997E+02  0.45594000000E+02  0.51100000000E-03 0. -1.
    9900012    2    1    2    0    0  0.43544735393E+01 -0.23142814500E+02  0.33145353101E+02  0.50528859147E+02  0.29999997862E+02 0.  0.
         12    1    1    2    0    0 -0.43544735393E+01  0.23142814500E+02 -0.33145353101E+02  0.40659140853E+02  0.00000000000E+00 0. -1.
         11    1    3    3    0    0  0.17642844692E+01  0.40103620574E+01  0.36821065006E+01  0.57230771498E+01  0.51100000000E-03 0. -1.
        -11    1    3    3    0    0 -0.34772371426E+00  0.32112461322E+01  0.23820861976E+01  0.40133961201E+01  0.51100000000E-03 0.  1.
        -12    1    3    3    0    0  0.29379127843E+01 -0.30364422689E+02  0.27081160402E+02  0.40792385877E+02  0.00000000000E+00 0.  1.
</event>
<event>
 7    1  0.5121289E-013  0.5052887E+02  0.7816164E-02  0.1300439E+00
        -11   -1    0    0    0    0  0.00000000000E+00  0.00000000000E+00  0.45593999997E+02  0.45594000000E+02  0.51100000000E-03 0.  1.
         11   -1    0    0    0    0 -0.00000000000E+00 -0.00000000000E+00 -0.45593999997E+02  0.45594000000E+02  0.51100000000E-03 0. -1.
    9900012    2    1    2    0    0 -0.38991259777E+02  0.79963285069E+01 -0.83009267366E+01  0.50528868267E+02  0.30000025584E+02 0.  0.
         12    1    1    2    0    0  0.38991259777E+02 -0.79963285069E+01  0.83009267366E+01  0.40659131733E+02  0.00000000000E+00 0. -1.
         11    1    3    3    0    0 -0.14770314115E+01  0.74178074561E+01  0.48001357401E+01  0.89580574139E+01  0.51100000000E-03 0. -1.
        -11    1    3    3    0    0 -0.21998809926E+02  0.36486306867E+01 -0.22984387118E+01  0.22417470081E+02  0.51100000000E-03 0.  1.
        -12    1    3    3    0    0 -0.15515418440E+02 -0.30701096359E+01 -0.10802623765E+02  0.19153340772E+02  0.00000000000E+00 0.  1.
</event>
<event>
 7    1  0.5121289E-013  0.5052886E+02  0.7816164E-02  0.1300439E+00
        -11   -1    0    0    0    0  0.00000000000E+00  0.00000000000E+00  0.45593999997E+02  0.45594000000E+02  0.51100000000E-03 0. -1.
         11   -1    0    0    0    0 -0.00000000000E+00 -0.00000000000E+00 -0.45593999997E+02  0.45594000000E+02  0.51100000000E-03 0.  1.
    9900012    2    1    2    0    0  0.57115408886E+01  0.39975605640E+02 -0.47428676422E+01  0.50528861555E+02  0.30000005182E+02 0.  0.
         12    1    1    2    0    0 -0.57115408886E+01 -0.39975605640E+02  0.47428676422E+01  0.40659138445E+02  0.00000000000E+00 0. -1.
         11    1    3    3    0    0  0.12447952766E+01  0.10961650004E+02 -0.15935837919E+01  0.11146604669E+02  0.51100000000E-03 0. -1.
        -11    1    3    3    0    0 -0.23689779785E+01  0.25178898107E+02 -0.11628402194E+02  0.27835385832E+02  0.51100000000E-03 0.  1.
         12    1    3    3    0    0  0.68357235906E+01  0.38350575297E+01  0.84791183433E+01  0.11546871054E+02  0.00000000000E+00 0. -1.
</event>
<event>
 7    1  0.5121289E-013  0.5052886E+02  0.7816164E-02  0.1300439E+00
        -11   -1    0    0    0    0  0.00000000000E+00  0.00000000000E+00  0.45593999997E+02  0.45594000000E+02  0.51100000000E-03 0. -1.
         11   -1    0    0    0    0 -0.00000000000E+00 -0.00000000000E+00 -0.45593999997E+02  0.45594000000E+02  0.51100000000E-03 0.  1.
    9900012    2    1    2    0    0  0.15703274925E+02 -0.38952527316E+01 -0.37301470393E+02  0.50528861658E+02  0.30000005497E+02 0.  0.
         12    1    1    2    0    0 -0.15703274925E+02  0.38952527316E+01  0.37301470393E+02  0.40659138342E+02  0.00000000000E+00 0. -1.
         11    1    3    3    0    0 -0.24783754398E+00 -0.61243878618E+00  0.48083020282E+01  0.48534805419E+01  0.51100000000E-03 0. -1.
        -11    1    3    3    0    0  0.25656905769E+00 -0.83786090062E+00 -0.26207775142E+00  0.91461662956E+00  0.51100000000E-03 0.  1.
        -12    1    3    3    0    0  0.15694543412E+02 -0.24449530448E+01 -0.41847694670E+02  0.44760764487E+02  0.00000000000E+00 0.  1.
</event>
<event>
 7    1  0.5121289E-013  0.5052876E+02  0.7816164E-02  0.1300439E+00
        -11   -1    0    0    0    0  0.00000000000E+00  0.00000000000E+00  0.45593999997E+02  0.45594000000E+02  0.51100000000E-03 0. -1.
         11   -1    0    0    0    0 -0.00000000000E+00 -0.00000000000E+00 -0.45593999997E+02  0.45594000000E+02  0.51100000000E-03 0.  1.
    9900012    2    1    2    0    0  0.34402989107E+01 -0.39537153566E+02 -0.88403188504E+01  0.50528764812E+02  0.29999711120E+02 0.  0.
         12    1    1    2    0    0 -0.34402989107E+01  0.39537153566E+02  0.88403188504E+01  0.40659235188E+02  0.00000000000E+00 0. -1.
         11    1    3    3    0    0  0.11456944736E+02 -0.20718202542E+02 -0.37579355951E+01  0.23971390854E+02  0.51100000000E-03 0. -1.
        -11    1    3    3    0    0  0.38554999261E+01 -0.11462944071E+02 -0.20694895058E+01  0.12269749530E+02  0.51100000000E-03 0.  1.
         12    1    3    3    0    0 -0.11872145752E+02 -0.73560069532E+01 -0.30128937494E+01  0.14287624428E+02  0.00000000000E+00 0. -1.
</event>
<event>
 7    1  0.5121289E-013  0.5052886E+02  0.7816164E-02  0.1300439E+00
        -11   -1    0    0    0    0  0.00000000000E+00  0.00000000000E+00  0.45593999997E+02  0.45594000000E+02  0.51100000000E-03 0.  1.
         11   -1    0    0    0    0 -0.00000000000E+00 -0.00000000000E+00 -0.45593999997E+02  0.45594000000E+02  0.51100000000E-03 0. -1.
    9900012    2    1    2    0    0  0.78759169172E+01  0.19365639353E+02  0.34872735760E+02  0.50528858909E+02  0.29999997139E+02 0.  0.
         12    1    1    2    0    0 -0.78759169172E+01 -0.19365639353E+02 -0.34872735760E+02  0.40659141091E+02  0.00000000000E+00 0. -1.
         11    1    3    3    0    0  0.94489614598E+01  0.17267375180E+02  0.65389257430E+01  0.20741327547E+02  0.51100000000E-03 0. -1.
        -11    1    3    3    0    0 -0.31752815057E+01  0.40009703447E+01  0.94634623943E+01  0.10753943327E+02  0.51100000000E-03 0.  1.
        -12    1    3    3    0    0  0.16022369631E+01 -0.19027061711E+01  0.18870347623E+02  0.19033588035E+02  0.00000000000E+00 0.  1.
</event>
<event>
 7    1  0.5121289E-013  0.5052886E+02  0.7816164E-02  0.1300439E+00
        -11   -1    0    0    0    0  0.00000000000E+00  0.00000000000E+00  0.45593999997E+02  0.45594000000E+02  0.51100000000E-03 0.  1.
         11   -1    0    0    0    0 -0.00000000000E+00 -0.00000000000E+00 -0.45593999997E+02  0.45594000000E+02  0.51100000000E-03 0. -1.
    9900012    2    1    2    0    0 -0.17802174958E+02 -0.36465684913E+02  0.25499424341E+01  0.50528858152E+02  0.29999994839E+02 0.  0.
         12    1    1    2    0    0  0.17802174958E+02  0.36465684913E+02 -0.25499424341E+01  0.40659141848E+02  0.00000000000E+00 0. -1.
         11    1    3    3    0    0  0.40188602170E+00 -0.15810826449E+02  0.83631447269E+00  0.15838029156E+02  0.51100000000E-03 0. -1.
        -11    1    3    3    0    0 -0.55245080691E+01 -0.19270747710E+02  0.64894155444E+01  0.21071175123E+02  0.51100000000E-03 0.  1.
         12    1    3    3    0    0 -0.12679552911E+02 -0.13841107538E+01 -0.47757875830E+01  0.13619653874E+02  0.00000000000E+00 0. -1.
</event>
<event>
 7    1  0.5121289E-013  0.5052886E+02  0.7816164E-02  0.1300439E+00
        -11   -1    0    0    0    0  0.00000000000E+00  0.00000000000E+00  0.45593999997E+02  0.45594000000E+02  0.51100000000E-03 0.  1.
         11   -1    0    0    0    0 -0.00000000000E+00 -0.00000000000E+00 -0.45593999997E+02  0.45594000000E+02  0.51100000000E-03 0. -1.
    9900012    2    1    2    0    0 -0.28361434367E+02  0.14241175150E+02  0.25416209831E+02  0.50528858947E+02  0.29999997255E+02 0.  0.
         12    1    1    2    0    0  0.28361434367E+02 -0.14241175150E+02 -0.25416209831E+02  0.40659141053E+02  0.00000000000E+00 0. -1.
         11    1    3    3    0    0 -0.37128875948E+01  0.21863172575E+01 -0.42324994784E+01  0.60398319131E+01  0.51100000000E-03 0. -1.
        -11    1    3    3    0    0  0.60196438923E+00  0.69971757172E+01  0.37300091086E+01  0.79520938975E+01  0.51100000000E-03 0.  1.
        -12    1    3    3    0    0 -0.25250511161E+02  0.50576821757E+01  0.25918700201E+02  0.36536933136E+02  0.00000000000E+00 0.  1.
</event>
<event>
 7    1  0.5121289E-013  0.5052885E+02  0.7816164E-02  0.1300439E+00
        -11   -1    0    0    0    0  0.00000000000E+00  0.00000000000E+00  0.45593999997E+02  0.45594000000E+02  0.51100000000E-03 0. -1.
         11   -1    0    0    0    0 -0.00000000000E+00 -0.00000000000E+00 -0.45593999997E+02  0.45594000000E+02  0.51100000000E-03 0.  1.
    9900012    2    1    2    0    0 -0.21649700101E+02 -0.13594509939E+02  0.31617177617E+02  0.50528854222E+02  0.29999982893E+02 0.  0.
         12    1    1    2    0    0  0.21649700101E+02  0.13594509939E+02 -0.31617177617E+02  0.40659145778E+02  0.00000000000E+00 0. -1.
         11    1    3    3    0    0 -0.99343626851E+00 -0.65637883259E+01  0.18149381002E+02  0.19325378749E+02  0.51100000000E-03 0. -1.
        -11    1    3    3    0    0 -0.56224583737E+01  0.59963257181E+01  0.32398767080E+01  0.88354265107E+01  0.51100000000E-03 0.  1.
        -12    1    3    3    0    0 -0.15033805459E+02 -0.13027047331E+02  0.10227919907E+02  0.22368048962E+02  0.00000000000E+00 0.  1.
</event>
<event>
 7    1  0.5121289E-013  0.5052887E+02  0.7816164E-02  0.1300439E+00
        -11   -1    0    0    0    0  0.00000000000E+00  0.00000000000E+00  0.45593999997E+02  0.45594000000E+02  0.51100000000E-03 0. -1.
         11   -1    0    0    0    0 -0.00000000000E+00 -0.00000000000E+00 -0.45593999997E+02  0.45594000000E+02  0.51100000000E-03 0.  1.
    9900012    2    1    2    0    0 -0.70959526024E+00 -0.35944465214E+02 -0.18990959647E+02  0.50528872448E+02  0.30000038293E+02 0.  0.
         12    1    1    2    0    0  0.70959526024E+00  0.35944465214E+02  0.18990959647E+02  0.40659127552E+02  0.00000000000E+00 0. -1.
         11    1    3    3    0    0  0.45749661281E+01 -0.10899003183E+01  0.13056200877E+01  0.48808648672E+01  0.51100000000E-03 0. -1.
        -11    1    3    3    0    0  0.46835760177E+01 -0.88712797533E+01  0.17001393508E+01  0.10174770899E+02  0.51100000000E-03 0.  1.
        -12    1    3    3    0    0 -0.99681374060E+01 -0.25983285143E+02 -0.21996719085E+02  0.35473236682E+02  0.00000000000E+00 0.  1.
</event>
<event>
 7    1  0.5121289E-013  0.5052886E+02  0.7816164E-02  0.1300439E+00
        -11   -1    0    0    0    0  0.00000000000E+00  0.00000000000E+00  0.45593999997E+02  0.45594000000E+02  0.51100000000E-03 0. -1.
         11   -1    0    0    0    0 -0.00000000000E+00 -0.00000000000E+00 -0.45593999997E+02  0.45594000000E+02  0.51100000000E-03 0.  1.
    9900012    2    1    2    0    0 -0.40541726206E+02  0.29593903737E+00  0.30735297077E+01  0.50528859225E+02  0.29999998100E+02 0.  0.
         12    1    1    2    0    0  0.40541726206E+02 -0.29593903737E+00 -0.30735297077E+01  0.40659140775E+02  0.00000000000E+00 0. -1.
         11    1    3    3    0    0 -0.18070170908E+02  0.25797506813E+01  0.17973545915E+01  0.18341664974E+02  0.51100000000E-03 0. -1.
        -11    1    3    3    0    0 -0.82990839634E+01  0.18131094557E+01 -0.10360192601E+02  0.13397602454E+02  0.51100000000E-03 0.  1.
         12    1    3    3    0    0 -0.14172471335E+02 -0.40969210996E+01  0.11636367717E+02  0.18789591797E+02  0.00000000000E+00 0. -1.
</event>
<event>
 7    1  0.5121289E-013  0.5052885E+02  0.7816164E-02  0.1300439E+00
        -11   -1    0    0    0    0  0.00000000000E+00  0.00000000000E+00  0.45593999997E+02  0.45594000000E+02  0.51100000000E-03 0.  1.
         11   -1    0    0    0    0 -0.00000000000E+00 -0.00000000000E+00 -0.45593999997E+02  0.45594000000E+02  0.51100000000E-03 0. -1.
    9900012    2    1    2    0    0  0.16563120180E+02  0.33220899035E+02  0.16589184512E+02  0.50528854343E+02  0.29999983260E+02 0.  0.
         12    1    1    2    0    0 -0.16563120180E+02 -0.33220899035E+02 -0.16589184512E+02  0.40659145657E+02  0.00000000000E+00 0. -1.
         11    1    3    3    0    0  0.19082381662E+02  0.86494502506E+01  0.82755331641E+01  0.22526311925E+02  0.51100000000E-03 0. -1.
        -11    1    3    3    0    0  0.35045527651E+01  0.72254212040E+01  0.46460593633E+01  0.92776327545E+01  0.51100000000E-03 0.  1.
        -12    1    3    3    0    0 -0.60238142476E+01  0.17346027581E+02  0.36675919849E+01  0.18724909663E+02  0.00000000000E+00 0.  1.
</event>
<event>
 7    1  0.5121289E-013  0.5052887E+02  0.7816164E-02  0.1300439E+00
        -11   -1    0    0    0    0  0.00000000000E+00  0.00000000000E+00  0.45593999997E+02  0.45594000000E+02  0.51100000000E-03 0. -1.
         11   -1    0    0    0    0 -0.00000000000E+00 -0.00000000000E+00 -0.45593999997E+02  0.45594000000E+02  0.51100000000E-03 0.  1.
    9900012    2    1    2    0    0 -0.28720337536E+02  0.25106523599E+02 -0.14070158387E+02  0.50528872213E+02  0.30000037577E+02 0.  0.
         12    1    1    2    0    0  0.28720337536E+02 -0.25106523599E+02  0.14070158387E+02  0.40659127787E+02  0.00000000000E+00 0. -1.
         11    1    3    3    0    0  0.11720266716E+01  0.46803856039E+01  0.41179676650E+00  0.48424407852E+01  0.51100000000E-03 0. -1.
        -11    1    3    3    0    0 -0.14975444825E+02  0.22990035535E+02 -0.51832811799E+01  0.27922608862E+02  0.51100000000E-03 0.  1.
         12    1    3    3    0    0 -0.14916919383E+02 -0.25638975400E+01 -0.92986739738E+01  0.17763822565E+02  0.00000000000E+00 0. -1.
</event>
<event>
 7    1  0.5121289E-013  0.5052886E+02  0.7816164E-02  0.1300439E+00
        -11   -1    0    0    0    0  0.00000000000E+00  0.00000000000E+00  0.45593999997E+02  0.45594000000E+02  0.51100000000E-03 0.  1.
         11   -1    0    0    0    0 -0.00000000000E+00 -0.00000000000E+00 -0.45593999997E+02  0.45594000000E+02  0.51100000000E-03 0. -1.
    9900012    2    1    2    0    0  0.63568455498E+00  0.36327856787E+02  0.18249607493E+02  0.50528862684E+02  0.30000008615E+02 0.  0.
         12    1    1    2    0    0 -0.63568455498E+00 -0.36327856787E+02 -0.18249607493E+02  0.40659137316E+02  0.00000000000E+00 0. -1.
         11    1    3    3    0    0  0.31382286730E+01 -0.94291356221E-01  0.35646506548E+01  0.47501689039E+01  0.51100000000E-03 0. -1.
        -11    1    3    3    0    0  0.74832637075E+01  0.95111784942E+01  0.11845724615E+02  0.16934666928E+02  0.51100000000E-03 0.  1.
         12    1    3    3    0    0 -0.99858078256E+01  0.26910969649E+02  0.28392322235E+01  0.28844026852E+02  0.00000000000E+00 0. -1.
</event>
<event>
 7    1  0.5121289E-013  0.5052886E+02  0.7816164E-02  0.1300439E+00
        -11   -1    0    0    0    0  0.00000000000E+00  0.00000000000E+00  0.45593999997E+02  0.45594000000E+02  0.51100000000E-03 0.  1.
         11   -1    0    0    0    0 -0.00000000000E+00 -0.00000000000E+00 -0.45593999997E+02  0.45594000000E+02  0.51100000000E-03 0. -1.
    9900012    2    1    2    0    0 -0.17299510035E+02  0.15378129966E+02  0.33427621261E+02  0.50528858447E+02  0.29999995734E+02 0.  0.
         12    1    1    2    0    0  0.17299510035E+02 -0.15378129966E+02 -0.33427621261E+02  0.40659141553E+02  0.00000000000E+00 0. -1.
         11    1    3    3    0    0 -0.13521757347E+02 -0.37391818542E+00  0.49370464622E+01  0.14399727935E+02  0.51100000000E-03 0. -1.
        -11    1    3    3    0    0  0.47030534566E+00  0.60456769686E+01  0.36598559021E+00  0.60749767769E+01  0.51100000000E-03 0.  1.
        -12    1    3    3    0    0 -0.42480580341E+01  0.97063711830E+01  0.28124589208E+02  0.30054153735E+02  0.00000000000E+00 0.  1.
</event>
<event>
 7    1  0.5121289E-013  0.5052886E+02  0.7816164E-02  0.1300439E+00
        -11   -1    0    0    0    0  0.00000000000E+00  0.00000000000E+00  0.45593999997E+02  0.45594000000E+02  0.51100000000E-03 0.  1.
         11   -1    0    0    0    0 -0.00000000000E+00 -0.00000000000E+00 -0.45593999997E+02  0.45594000000E+02  0.51100000000E-03 0. -1.
    9900012    2    1    2    0    0 -0.38664514236E+01  0.39160043344E+02  0.10232650302E+02  0.50528861132E+02  0.30000003897E+02 0.  0.
         12    1    1    2    0    0  0.38664514236E+01 -0.39160043344E+02 -0.10232650302E+02  0.40659138868E+02  0.00000000000E+00 0. -1.
         11    1    3    3    0    0 -0.58102211153E+01  0.84845714309E+01 -0.50146913555E+01  0.11440880710E+02  0.51100000000E-03 0. -1.
        -11    1    3    3    0    0 -0.44302478876E+01  0.87376812041E-01  0.27199422873E+00  0.44394495351E+01  0.51100000000E-03 0.  1.
        -12    1    3    3    0    0  0.63740175793E+01  0.30588095101E+02  0.14975347428E+02  0.34648530887E+02  0.00000000000E+00 0.  1.
</event>
<event>
 7    1  0.5121289E-013  0.5052886E+02  0.7816164E-02  0.1300439E+00
        -11   -1    0    0    0    0  0.00000000000E+00  0.00000000000E+00  0.45593999997E+02  0.45594000000E+02  0.51100000000E-03 0.  1.
         11   -1    0    0    0    0 -0.00000000000E+00 -0.00000000000E+00 -0.45593999997E+02  0.45594000000E+02  0.51100000000E-03 0. -1.
    9900012    2    1    2    0    0  0.95178958698E+01 -0.18347342391E+02  0.35013578107E+02  0.50528856299E+02  0.29999989207E+02 0.  0.
         12    1    1    2    0    0 -0.95178958698E+01  0.18347342391E+02 -0.35013578107E+02  0.40659143701E+02  0.00000000000E+00 0. -1.
         11    1    3    3    0    0  0.57671931243E+00  0.87391109640E+00  0.19916393618E+01  0.22501007484E+01  0.51100000000E-03 0. -1.
        -11    1    3    3    0    0 -0.66433593100E+01 -0.16467061838E+02  0.10112091355E+02  0.20434107280E+02  0.51100000000E-03 0.  1.
         12    1    3    3    0    0  0.15584535867E+02 -0.27541916493E+01  0.22909847391E+02  0.27844648271E+02  0.00000000000E+00 0. -1.
</event>
<event>
 7    1  0.5121289E-013  0.5052886E+02  0.7816164E-02  0.1300439E+00
        -11   -1    0    0    0    0  0.00000000000E+00  0.00000000000E+00  0.45593999997E+02  0.45594000000E+02  0.51100000000E-03 0. -1.
         11   -1    0    0    0    0 -0.00000000000E+00 -0.00000000000E+00 -0.45593999997E+02  0.45594000000E+02  0.51100000000E-03 0.  1.
    9900012    2    1    2    0    0 -0.13586757995E+02  0.30668876752E+02 -0.22977931786E+02  0.50528863964E+02  0.30000012505E+02 0.  0.
         12    1    1    2    0    0  0.13586757995E+02 -0.30668876752E+02  0.22977931786E+02  0.40659136036E+02  0.00000000000E+00 0. -1.
         11    1    3    3    0    0  0.37861967366E+01  0.39578712208E+01 -0.23800835181E-01  0.54772800795E+01  0.51100000000E-03 0. -1.
        -11    1    3    3    0    0 -0.47497457812E+01  0.18476612510E+02 -0.19178766754E+01  0.19173511572E+02  0.51100000000E-03 0.  1.
        -12    1    3    3    0    0 -0.12623208950E+02  0.82343930213E+01 -0.21036254276E+02  0.25878072312E+02  0.00000000000E+00 0.  1.
</event>
<event>
 7    1  0.5121289E-013  0.5052886E+02  0.7816164E-02  0.1300439E+00
        -11   -1    0    0    0    0  0.00000000000E+00  0.00000000000E+00  0.45593999997E+02  0.45594000000E+02  0.51100000000E-03 0. -1.
         11   -1    0    0    0    0 -0.00000000000E+00 -0.00000000000E+00 -0.45593999997E+02  0.45594000000E+02  0.51100000000E-03 0.  1.
    9900012    2    1    2    0    0 -0.57941555326E+01  0.11294237964E+02 -0.38626847314E+02  0.50528863475E+02  0.30000011018E+02 0.  0.
         12    1    1    2    0    0  0.57941555326E+01 -0.11294237964E+02  0.38626847314E+02  0.40659136525E+02  0.00000000000E+00 0. -1.
         11    1    3    3    0    0  0.58336669283E+01  0.95403528983E+01 -0.63843532341E+01  0.12876722010E+02  0.51100000000E-03 0. -1.
        -11    1    3    3    0    0  0.35675459162E+01 -0.38290916932E+00 -0.32121879113E+01  0.48158233704E+01  0.51100000000E-03 0.  1.
        -12    1    3    3    0    0 -0.15195368377E+02  0.21367942351E+01 -0.29030306169E+02  0.32836318094E+02  0.00000000000E+00 0.  1.
</event>
<event>
 7    1  0.5121289E-013  0.5052885E+02  0.7816164E-02  0.1300439E+00
        -11   -1    0    0    0    0  0.00000000000E+00  0.00000000000E+00  0.45593999997E+02  0.45594000000E+02  0.51100000000E-03 0. -1.
         11   -1    0    0    0    0 -0.00000000000E+00 -0.00000000000E+00 -0.45593999997E+02  0.45594000000E+02  0.51100000000E-03 0.  1.
    9900012    2    1    2    0    0  0.70167543919E+01 -0.39499387915E+02  0.66128524562E+01  0.50528852130E+02  0.29999976535E+02 0.  0.
         12    1    1    2    0    0 -0.70167543919E+01  0.39499387915E+02 -0.66128524562E+01  0.40659147870E+02  0.00000000000E+00 0. -1.
         11    1    3    3    0    0 -0.24135793992E+01 -0.41424050046E+01  0.10655362703E+02  0.11684247487E+02  0.51100000000E-03 0. -1.
        -11    1    3    3    0    0  0.48190837175E+00 -0.53464322462E+01  0.37808610023E+01  0.65659335682E+01  0.51100000000E-03 0.  1.
        -12    1    3    3    0    0  0.89484254194E+01 -0.30010550664E+02 -0.78233712493E+01  0.32278671075E+02  0.00000000000E+00 0.  1.
</event>
<event>
 7    1  0.5121289E-013  0.5052886E+02  0.7816164E-02  0.1300439E+00
        -11   -1    0    0    0    0  0.00000000000E+00  0.00000000000E+00  0.45593999997E+02  0.45594000000E+02  0.51100000000E-03 0. -1.
         11   -1    0    0    0    0 -0.00000000000E+00 -0.00000000000E+00 -0.45593999997E+02  0.45594000000E+02  0.51100000000E-03 0.  1.
    9900012    2    1    2    0    0  0.29342004591E+01 -0.40238823083E+02 -0.50391644696E+01  0.50528860880E+02  0.30000003131E+02 0.  0.
         12    1    1    2    0    0 -0.29342004591E+01  0.40238823083E+02  0.50391644696E+01  0.40659139120E+02  0.00000000000E+00 0. -1.
         11    1    3    3    0    0  0.35718855779E+01 -0.50369887036E+01 -0.17203278369E+00  0.61773147339E+01  0.51100000000E-03 0. -1.
        -11    1    3    3    0    0  0.64619306631E+01 -0.32164002995E+02 -0.10880717924E+02  0.34563993683E+02  0.51100000000E-03 0.  1.
         12    1    3    3    0    0 -0.70996157819E+01 -0.30378313844E+01  0.60135862379E+01  0.97875524628E+01  0.00000000000E+00 0. -1.
</event>
<event>
 7    1  0.5121289E-013  0.5052886E+02  0.7816164E-02  0.1300439E+00
        -11   -1    0    0    0    0  0.00000000000E+00  0.00000000000E+00  0.45593999997E+02  0.45594000000E+02  0.51100000000E-03 0.  1.
         11   -1    0    0    0    0 -0.00000000000E+00 -0.00000000000E+00 -0.45593999997E+02  0.45594000000E+02  0.51100000000E-03 0. -1.
    9900012    2    1    2    0    0 -0.89819388517E+01 -0.33765316580E+02  0.20794085684E+02  0.50528857993E+02  0.29999994357E+02 0.  0.
         12    1    1    2    0    0  0.89819388517E+01  0.33765316580E+02 -0.20794085684E+02  0.40659142007E+02  0.00000000000E+00 0. -1.
         11    1    3    3    0    0 -0.91584232556E-01 -0.20800985357E+02 -0.26716382538E+00  0.20802902593E+02  0.51100000000E-03 0. -1.
        -11    1    3    3    0    0  0.35726007558E+01 -0.10737915147E+01  0.32452044094E+01  0.49444773533E+01  0.51100000000E-03 0.  1.
         12    1    3    3    0    0 -0.12462955375E+02 -0.11890539708E+02  0.17816045100E+02  0.24781478047E+02  0.00000000000E+00 0. -1.
</event>
<event>
 7    1  0.5121289E-013  0.5052886E+02  0.7816164E-02  0.1300439E+00
        -11   -1    0    0    0    0  0.00000000000E+00  0.00000000000E+00  0.45593999997E+02  0.45594000000E+02  0.51100000000E-03 0.  1.
         11   -1    0    0    0    0 -0.00000000000E+00 -0.00000000000E+00 -0.45593999997E+02  0.45594000000E+02  0.51100000000E-03 0. -1.
    9900012    2    1    2    0    0 -0.41177738938E+00 -0.37741881208E+02  0.15117767220E+02  0.50528855352E+02  0.29999986329E+02 0.  0.
         12    1    1    2    0    0  0.41177738938E+00  0.37741881208E+02 -0.15117767220E+02  0.40659144648E+02  0.00000000000E+00 0. -1.
         11    1    3    3    0    0  0.12012636382E+02 -0.20601156162E+02  0.10403172239E+02  0.26018014162E+02  0.51100000000E-03 0. -1.
        -11    1    3    3    0    0  0.16832862394E+00 -0.84951636915E+01  0.34942185409E+01  0.91872577053E+01  0.51100000000E-03 0.  1.
         12    1    3    3    0    0 -0.12592742395E+02 -0.86455613550E+01  0.12203764403E+01  0.15323583485E+02  0.00000000000E+00 0. -1.
</event>
<event>
 7    1  0.5121289E-013  0.5052886E+02  0.7816164E-02  0.1300439E+00
        -11   -1    0    0    0    0  0.00000000000E+00  0.00000000000E+00  0.45593999997E+02  0.45594000000E+02  0.51100000000E-03 0.  1.
         11   -1    0    0    0    0 -0.00000000000E+00 -0.00000000000E+00 -0.45593999997E+02  0.45594000000E+02  0.51100000000E-03 0. -1.
    9900012    2    1    2    0    0  0.12152893561E+02  0.34560629200E+02 -0.17636208643E+02  0.50528858741E+02  0.29999996630E+02 0.  0.
         12    1    1    2    0    0 -0.12152893561E+02 -0.34560629200E+02  0.17636208643E+02  0.40659141259E+02  0.00000000000E+00 0. -1.
         11    1    3    3    0    0  0.32634068056E+01  0.34648060831E-01 -0.84212086245E+01  0.90314882177E+01  0.51100000000E-03 0. -1.
        -11    1    3    3    0    0 -0.42475336178E+01  0.31393846789E+01 -0.48913212355E+01  0.71987708456E+01  0.51100000000E-03 0.  1.
        -12    1    3    3    0    0  0.13137020373E+02  0.31386596460E+02 -0.43236787830E+01  0.34298599678E+02  0.00000000000E+00 0.  1.
</event>
<event>
 7    1  0.5121289E-013  0.5052885E+02  0.7816164E-02  0.1300439E+00
        -11   -1    0    0    0    0  0.00000000000E+00  0.00000000000E+00  0.45593999997E+02  0.45594000000E+02  0.51100000000E-03 0.  1.
         11   -1    0    0    0    0 -0.00000000000E+00 -0.00000000000E+00 -0.45593999997E+02  0.45594000000E+02  0.51100000000E-03 0. -1.
    9900012    2    1    2    0    0 -0.39527177392E+02 -0.68914029408E+01  0.65785314880E+01  0.50528852646E+02  0.29999978102E+02 0.  0.
         12    1    1    2    0    0  0.39527177392E+02  0.68914029408E+01 -0.65785314880E+01  0.40659147354E+02  0.00000000000E+00 0. -1.
         11    1    3    3    0    0 -0.31719746790E+01 -0.91732564084E+01  0.38751958321E+01  0.10451181727E+02  0.51100000000E-03 0. -1.
        -11    1    3    3    0    0 -0.21292159793E+02 -0.59958296394E+01 -0.21321335301E+01  0.22222781900E+02  0.51100000000E-03 0.  1.
        -12    1    3    3    0    0 -0.15063042919E+02  0.82776831070E+01  0.48354691860E+01  0.17854889018E+02  0.00000000000E+00 0.  1.
</event>
<event>
 7    1  0.5121289E-013  0.5052887E+02  0.7816164E-02  0.1300439E+00
        -11   -1    0    0    0    0  0.00000000000E+00  0.00000000000E+00  0.45593999997E+02  0.45594000000E+02  0.51100000000E-03 0.  1.
         11   -1    0    0    0    0 -0.00000000000E+00 -0.00000000000E+00 -0.45593999997E+02  0.45594000000E+02  0.51100000000E-03 0. -1.
    9900012    2    1    2    0    0 -0.30841975876E+02  0.11152850392E+02  0.24032305381E+02  0.50528865113E+02  0.30000015998E+02 0.  0.
         12    1    1    2    0    0  0.30841975876E+02 -0.11152850392E+02 -0.24032305381E+02  0.40659134887E+02  0.00000000000E+00 0. -1.
         11    1    3    3    0    0 -0.96192856695E-01 -0.70441935837E+01  0.62585666041E+01  0.94233525090E+01  0.51100000000E-03 0. -1.
        -11    1    3    3    0    0 -0.99820323582E+01  0.10243698144E+02  0.10383743558E+02  0.17674740513E+02  0.51100000000E-03 0.  1.
        -12    1    3    3    0    0 -0.20763750661E+02  0.79533458317E+01  0.73899952191E+01  0.23430772091E+02  0.00000000000E+00 0.  1.
</event>
<event>
 7    1  0.5121289E-013  0.5052887E+02  0.7816164E-02  0.1300439E+00
        -11   -1    0    0    0    0  0.00000000000E+00  0.00000000000E+00  0.45593999997E+02  0.45594000000E+02  0.51100000000E-03 0.  1.
         11   -1    0    0    0    0 -0.00000000000E+00 -0.00000000000E+00 -0.45593999997E+02  0.45594000000E+02  0.51100000000E-03 0. -1.
    9900012    2    1    2    0    0  0.28291278634E+02  0.28223695051E+02  0.74961141065E+01  0.50528866515E+02  0.30000020259E+02 0.  0.
         12    1    1    2    0    0 -0.28291278634E+02 -0.28223695051E+02 -0.74961141065E+01  0.40659133485E+02  0.00000000000E+00 0. -1.
         11    1    3    3    0    0  0.33035755207E+01  0.10018923406E+02 -0.80523975125E+01  0.13271531313E+02  0.51100000000E-03 0. -1.
        -11    1    3    3    0    0  0.16792117255E+02  0.17373186126E+02  0.65006796599E+01  0.25021223679E+02  0.51100000000E-03 0.  1.
         12    1    3    3    0    0  0.81955858581E+01  0.83158551812E+00  0.90478319592E+01  0.12236111523E+02  0.00000000000E+00 0. -1.
</event>
<event>
 7    1  0.5121289E-013  0.5052887E+02  0.7816164E-02  0.1300439E+00
        -11   -1    0    0    0    0  0.00000000000E+00  0.00000000000E+00  0.45593999997E+02  0.45594000000E+02  0.51100000000E-03 0. -1.
         11   -1    0    0    0    0 -0.00000000000E+00 -0.00000000000E+00 -0.45593999997E+02  0.45594000000E+02  0.51100000000E-03 0.  1.
    9900012    2    1    2    0    0  0.78081470906E+00  0.33408944050E+02 -0.23160253938E+02  0.50528873391E+02  0.30000041160E+02 0.  0.
         12    1    1    2    0    0 -0.78081470906E+00 -0.33408944050E+02  0.23160253938E+02  0.40659126609E+02  0.00000000000E+00 0. -1.
         11    1    3    3    0    0 -0.17083051879E+01  0.33768509390E+02 -0.13415626737E+02  0.36375947741E+02  0.51100000000E-03 0. -1.
        -11    1    3    3    0    0  0.12294943524E+01  0.46152107719E+01 -0.65557080150E+01  0.81110501583E+01  0.51100000000E-03 0.  1.
         12    1    3    3    0    0  0.12596255445E+01 -0.49747761126E+01 -0.31889191858E+01  0.60418754917E+01  0.00000000000E+00 0. -1.
</event>
<event>
 7    1  0.5121289E-013  0.5052887E+02  0.7816164E-02  0.1300439E+00
        -11   -1    0    0    0    0  0.00000000000E+00  0.00000000000E+00  0.45593999997E+02  0.45594000000E+02  0.51100000000E-03 0.  1.
         11   -1    0    0    0    0 -0.00000000000E+00 -0.00000000000E+00 -0.45593999997E+02  0.45594000000E+02  0.51100000000E-03 0. -1.
    9900012    2    1    2    0    0  0.40624101315E+02 -0.16689453115E+01  0.24917894382E+00  0.50528867247E+02  0.30000022483E+02 0.  0.
         12    1    1    2    0    0 -0.40624101315E+02  0.16689453115E+01 -0.24917894382E+00  0.40659132753E+02  0.00000000000E+00 0. -1.
         11    1    3    3    0    0  0.11763483701E+01 -0.55697463277E+01  0.59693690260E+01  0.82485899688E+01  0.51100000000E-03 0. -1.
        -11    1    3    3    0    0  0.27898832679E+01  0.26446980706E+01  0.26359188173E+01  0.46611098255E+01  0.51100000000E-03 0.  1.
         12    1    3    3    0    0  0.36657869677E+02  0.12561029456E+01 -0.83561088995E+01  0.37619167452E+02  0.00000000000E+00 0. -1.
</event>
<event>
 7    1  0.5121289E-013  0.5052886E+02  0.7816164E-02  0.1300439E+00
        -11   -1    0    0    0    0  0.00000000000E+00  0.00000000000E+00  0.45593999997E+02  0.45594000000E+02  0.51100000000E-03 0.  1.
         11   -1    0    0    0    0 -0.00000000000E+00 -0.00000000000E+00 -0.45593999997E+02  0.45594000000E+02  0.51100000000E-03 0. -1.
    9900012    2    1    2    0    0 -0.36686806436E+02 -0.17479206479E+02  0.13119339142E+01  0.50528860853E+02  0.30000003047E+02 0.  0.
         12    1    1    2    0    0  0.36686806436E+02  0.17479206479E+02 -0.13119339142E+01  0.40659139147E+02  0.00000000000E+00 0. -1.
         11    1    3    3    0    0 -0.16714122640E+02  0.58072298713E+01  0.16297003090E+01  0.17769123157E+02  0.51100000000E-03 0. -1.
        -11    1    3    3    0    0 -0.53558228754E+01 -0.51963059259E+00  0.16632919094E+01  0.56321749673E+01  0.51100000000E-03 0.  1.
        -12    1    3    3    0    0 -0.14616860920E+02 -0.22766805757E+02 -0.19810583041E+01  0.27127562728E+02  0.00000000000E+00 0.  1.
</event>
<event>
 7    1  0.5121289E-013  0.5052888E+02  0.7816164E-02  0.1300439E+00
        -11   -1    0    0    0    0  0.00000000000E+00  0.00000000000E+00  0.45593999997E+02  0.45594000000E+02  0.51100000000E-03 0.  1.
         11   -1    0    0    0    0 -0.00000000000E+00 -0.00000000000E+00 -0.45593999997E+02  0.45594000000E+02  0.51100000000E-03 0. -1.
    9900012    2    1    2    0    0  0.21572604026E+02 -0.32690178625E+02  0.10915079354E+02  0.50528880723E+02  0.30000063447E+02 0.  0.
         12    1    1    2    0    0 -0.21572604026E+02  0.32690178625E+02 -0.10915079354E+02  0.40659119277E+02  0.00000000000E+00 0. -1.
         11    1    3    3    0    0  0.65739904389E+01 -0.75981253824E+01 -0.37314148851E+01  0.10717850387E+02  0.51100000000E-03 0. -1.
        -11    1    3    3    0    0  0.94995933962E+01 -0.48422331490E+01 -0.43409490583E+01  0.11512312346E+02  0.51100000000E-03 0.  1.
        -12    1    3    3    0    0  0.54990201911E+01 -0.20249820094E+02  0.18987443298E+02  0.28298717990E+02  0.00000000000E+00 0.  1.
</event>
<event>
 7    1  0.5121289E-013  0.5052887E+02  0.7816164E-02  0.1300439E+00
        -11   -1    0    0    0    0  0.00000000000E+00  0.00000000000E+00  0.45593999997E+02  0.45594000000E+02  0.51100000000E-03 0. -1.
         11   -1    0    0    0    0 -0.00000000000E+00 -0.00000000000E+00 -0.45593999997E+02  0.45594000000E+02  0.51100000000E-03 0.  1.
    9900012    2    1    2    0    0  0.15384394756E+02  0.27856620836E+02 -0.25307984881E+02  0.50528867875E+02  0.30000024393E+02 0.  0.
         12    1    1    2    0    0 -0.15384394756E+02 -0.27856620836E+02  0.25307984881E+02  0.40659132125E+02  0.00000000000E+00 0. -1.
         11    1    3    3    0    0  0.56614645509E+01  0.63500317614E+01 -0.66904649905E+01  0.10823003570E+02  0.51100000000E-03 0. -1.
        -11    1    3    3    0    0  0.18607287405E+02  0.13795298073E+02 -0.14015926876E+02  0.27073743737E+02  0.51100000000E-03 0.  1.
         12    1    3    3    0    0 -0.88843571997E+01  0.77112910018E+01 -0.46015930152E+01  0.12632120568E+02  0.00000000000E+00 0. -1.
</event>
<event>
 7    1  0.5121289E-013  0.5052887E+02  0.7816164E-02  0.1300439E+00
        -11   -1    0    0    0    0  0.00000000000E+00  0.00000000000E+00  0.45593999997E+02  0.45594000000E+02  0.51100000000E-03 0.  1.
         11   -1    0    0    0    0 -0.00000000000E+00 -0.00000000000E+00 -0.45593999997E+02  0.45594000000E+02  0.51100000000E-03 0. -1.
    9900012    2    1    2    0    0  0.23802901505E+00 -0.29908602937E+02  0.27542402653E+02  0.50528866569E+02  0.30000020424E+02 0.  0.
         12    1    1    2    0    0 -0.23802901505E+00  0.29908602937E+02 -0.27542402653E+02  0.40659133431E+02  0.00000000000E+00 0. -1.
         11    1    3    3    0    0 -0.75148732738E+00 -0.91842192138E+01  0.14993390823E+01  0.93360930648E+01  0.51100000000E-03 0. -1.
        -11    1    3    3    0    0 -0.27034984807E+01 -0.11345665225E+02 -0.15970230995E+01  0.11772149611E+02  0.51100000000E-03 0.  1.
         12    1    3    3    0    0  0.36930148231E+01 -0.93787184987E+01  0.27640086670E+02  0.29420623893E+02  0.00000000000E+00 0. -1.
</event>
<event>
 7    1  0.5121289E-013  0.5052884E+02  0.7816164E-02  0.1300439E+00
        -11   -1    0    0    0    0  0.00000000000E+00  0.00000000000E+00  0.45593999997E+02  0.45594000000E+02  0.51100000000E-03 0.  1.
         11   -1    0    0    0    0 -0.00000000000E+00 -0.00000000000E+00 -0.45593999997E+02  0.45594000000E+02  0.51100000000E-03 0. -1.
    9900012    2    1    2    0    0 -0.83487683089E+01 -0.19116546169E+02  0.34900182401E+02  0.50528843574E+02  0.29999950527E+02 0.  0.
         12    1    1    2    0    0  0.83487683089E+01  0.19116546169E+02 -0.34900182401E+02  0.40659156426E+02  0.00000000000E+00 0. -1.
         11    1    3    3    0    0 -0.58905797504E-01 -0.65225480600E+01  0.31996654919E+01  0.72653260498E+01  0.51100000000E-03 0. -1.
        -11    1    3    3    0    0 -0.18150285510E+01 -0.18317803858E+02  0.28737875070E+02  0.34127726714E+02  0.51100000000E-03 0.  1.
         12    1    3    3    0    0 -0.64748339604E+01  0.57238057494E+01  0.29626418384E+01  0.91357908106E+01  0.00000000000E+00 0. -1.
</event>
<event>
 7    1  0.5121289E-013  0.5052886E+02  0.7816164E-02  0.1300439E+00
        -11   -1    0    0    0    0  0.00000000000E+00  0.00000000000E+00  0.45593999997E+02  0.45594000000E+02  0.51100000000E-03 0. -1.
         11   -1    0    0    0    0 -0.00000000000E+00 -0.00000000000E+00 -0.45593999997E+02  0.45594000000E+02  0.51100000000E-03 0.  1.
    9900012    2    1    2    0    0 -0.17641967330E+02  0.29325048173E+00 -0.36631141394E+02  0.50528861704E+02  0.30000005637E+02 0.  0.
         12    1    1    2    0    0  0.17641967330E+02 -0.29325048173E+00  0.36631141394E+02  0.40659138296E+02  0.00000000000E+00 0. -1.
         11    1    3    3    0    0  0.35890824105E+01 -0.44839064338E+01 -0.16972696092E+01  0.59889609987E+01  0.51100000000E-03 0. -1.
        -11    1    3    3    0    0 -0.15486719028E+02 -0.49560276232E+01 -0.22129053847E+02  0.27460802983E+02  0.51100000000E-03 0.  1.
         12    1    3    3    0    0 -0.57443307129E+01  0.97331845388E+01 -0.12804817938E+02  0.17079097723E+02  0.00000000000E+00 0. -1.
</event>
<event>
 7    1  0.5121289E-013  0.5052886E+02  0.7816164E-02  0.1300439E+00
        -11   -1    0    0    0    0  0.00000000000E+00  0.00000000000E+00  0.45593999997E+02  0.45594000000E+02  0.51100000000E-03 0.  1.
         11   -1    0    0    0    0 -0.00000000000E+00 -0.00000000000E+00 -0.45593999997E+02  0.45594000000E+02  0.51100000000E-03 0. -1.
    9900012    2    1    2    0    0  0.25599796095E+02  0.15489490422E+02  0.27529828815E+02  0.50528863903E+02  0.30000012318E+02 0.  0.
         12    1    1    2    0    0 -0.25599796095E+02 -0.15489490422E+02 -0.27529828815E+02  0.40659136097E+02  0.00000000000E+00 0. -1.
         11    1    3    3    0    0  0.40045845364E+01 -0.21068341812E+01  0.27698675186E+00  0.45334500657E+01  0.51100000000E-03 0. -1.
        -11    1    3    3    0    0 -0.20901436847E+01 -0.42549051051E+01  0.24903909095E+01  0.53549010466E+01  0.51100000000E-03 0.  1.
        -12    1    3    3    0    0  0.23685355243E+02  0.21851229708E+02  0.24762451153E+02  0.40640512790E+02  0.00000000000E+00 0.  1.
</event>
<event>
 7    1  0.5121289E-013  0.5052887E+02  0.7816164E-02  0.1300439E+00
        -11   -1    0    0    0    0  0.00000000000E+00  0.00000000000E+00  0.45593999997E+02  0.45594000000E+02  0.51100000000E-03 0.  1.
         11   -1    0    0    0    0 -0.00000000000E+00 -0.00000000000E+00 -0.45593999997E+02  0.45594000000E+02  0.51100000000E-03 0. -1.
    9900012    2    1    2    0    0  0.28543339897E+02 -0.13104835139E+02  0.25820646503E+02  0.50528871353E+02  0.30000034964E+02 0.  0.
         12    1    1    2    0    0 -0.28543339897E+02  0.13104835139E+02 -0.25820646503E+02  0.40659128647E+02  0.00000000000E+00 0. -1.
         11    1    3    3    0    0 -0.11187308446E+01  0.37680607310E+01  0.31838666153E+00  0.39435023396E+01  0.51100000000E-03 0. -1.
        -11    1    3    3    0    0 -0.12896324023E+00 -0.53235309194E+01  0.94054053685E+01  0.10808249783E+02  0.51100000000E-03 0.  1.
        -12    1    3    3    0    0  0.29791033982E+02 -0.11549364951E+02  0.16096854473E+02  0.35777119230E+02  0.00000000000E+00 0.  1.
</event>
<event>
 7    1  0.5121289E-013  0.5052886E+02  0.7816164E-02  0.1300439E+00
        -11   -1    0    0    0    0  0.00000000000E+00  0.00000000000E+00  0.45593999997E+02  0.45594000000E+02  0.51100000000E-03 0.  1.
         11   -1    0    0    0    0 -0.00000000000E+00 -0.00000000000E+00 -0.45593999997E+02  0.45594000000E+02  0.51100000000E-03 0. -1.
    9900012    2    1    2    0    0  0.21209321184E+02 -0.14996467274E+02  0.31279965933E+02  0.50528860750E+02  0.30000002735E+02 0.  0.
         12    1    1    2    0    0 -0.21209321184E+02  0.14996467274E+02 -0.31279965933E+02  0.40659139250E+02  0.00000000000E+00 0. -1.
         11    1    3    3    0    0  0.19517777269E+02 -0.10702220182E+02  0.13620138991E+02  0.26095772316E+02  0.51100000000E-03 0. -1.
        -11    1    3    3    0    0  0.38455827272E+01 -0.87054218117E+01  0.16996354519E+02  0.19479449239E+02  0.51100000000E-03 0.  1.
         12    1    3    3    0    0 -0.21540388123E+01  0.44111747203E+01  0.66347242270E+00  0.49536391950E+01  0.00000000000E+00 0. -1.
</event>
<event>
 7    1  0.5121289E-013  0.5052886E+02  0.7816164E-02  0.1300439E+00
        -11   -1    0    0    0    0  0.00000000000E+00  0.00000000000E+00  0.45593999997E+02  0.45594000000E+02  0.51100000000E-03 0. -1.
         11   -1    0    0    0    0 -0.00000000000E+00 -0.00000000000E+00 -0.45593999997E+02  0.45594000000E+02  0.51100000000E-03 0.  1.
    9900012    2    1    2    0    0 -0.31487550830E+02 -0.25712066939E+02 -0.76786492657E+00  0.50528857607E+02  0.29999993183E+02 0.  0.
         12    1    1    2    0    0  0.31487550830E+02  0.25712066939E+02  0.76786492657E+00  0.40659142393E+02  0.00000000000E+00 0. -1.
         11    1    3    3    0    0 -0.16369880269E+02 -0.17825237503E+02  0.23913656998E+01  0.24319348310E+02  0.51100000000E-03 0. -1.
        -11    1    3    3    0    0 -0.12790506940E+02 -0.86954425170E+01 -0.10348973943E+02  0.18609380707E+02  0.51100000000E-03 0.  1.
        -12    1    3    3    0    0 -0.23271636205E+01  0.80861308091E+00  0.71897433166E+01  0.76001285903E+01  0.00000000000E+00 0.  1.
</event>
<event>
 7    1  0.5121289E-013  0.5052888E+02  0.7816164E-02  0.1300439E+00
        -11   -1    0    0    0    0  0.00000000000E+00  0.00000000000E+00  0.45593999997E+02  0.45594000000E+02  0.51100000000E-03 0.  1.
         11   -1    0    0    0    0 -0.00000000000E+00 -0.00000000000E+00 -0.45593999997E+02  0.45594000000E+02  0.51100000000E-03 0. -1.
    9900012    2    1    2    0    0 -0.19541930822E+02  0.29629780648E+02  0.19833124676E+02  0.50528882992E+02  0.30000070341E+02 0.  0.
         12    1    1    2    0    0  0.19541930822E+02 -0.29629780648E+02 -0.19833124676E+02  0.40659117008E+02  0.00000000000E+00 0. -1.
         11    1    3    3    0    0  0.28434551059E+01  0.36841591116E+01 -0.17701041316E+01  0.49791097795E+01  0.51100000000E-03 0. -1.
        -11    1    3    3    0    0 -0.23741276259E+01  0.62421573683E+01 -0.37980715036E+01  0.76828613161E+01  0.51100000000E-03 0.  1.
        -12    1    3    3    0    0 -0.20011258302E+02  0.19703464168E+02  0.25401300311E+02  0.37866911896E+02  0.00000000000E+00 0.  1.
</event>
<event>
 7    1  0.5121289E-013  0.5052886E+02  0.7816164E-02  0.1300439E+00
        -11   -1    0    0    0    0  0.00000000000E+00  0.00000000000E+00  0.45593999997E+02  0.45594000000E+02  0.51100000000E-03 0. -1.
         11   -1    0    0    0    0 -0.00000000000E+00 -0.00000000000E+00 -0.45593999997E+02  0.45594000000E+02  0.51100000000E-03 0.  1.
    9900012    2    1    2    0    0 -0.38770669661E+02  0.12247415263E+02 -0.41651427494E-01  0.50528859066E+02  0.29999997618E+02 0.  0.
         12    1    1    2    0    0  0.38770669661E+02 -0.12247415263E+02  0.41651427494E-01  0.40659140934E+02  0.00000000000E+00 0. -1.
         11    1    3    3    0    0 -0.13236498136E+02  0.81743808137E+01  0.33698127540E+01  0.15917946565E+02  0.51100000000E-03 0. -1.
        -11    1    3    3    0    0 -0.16108381301E+02  0.13352123007E+02 -0.42788776189E+01  0.21355747022E+02  0.51100000000E-03 0.  1.
         12    1    3    3    0    0 -0.94257902244E+01 -0.92790885577E+01  0.86741343741E+00  0.13255165479E+02  0.00000000000E+00 0. -1.
</event>
<event>
 7    1  0.5121289E-013  0.5052885E+02  0.7816164E-02  0.1300439E+00
        -11   -1    0    0    0    0  0.00000000000E+00  0.00000000000E+00  0.45593999997E+02  0.45594000000E+02  0.51100000000E-03 0. -1.
         11   -1    0    0    0    0 -0.00000000000E+00 -0.00000000000E+00 -0.45593999997E+02  0.45594000000E+02  0.51100000000E-03 0.  1.
    9900012    2    1    2    0    0  0.31156274698E+02 -0.22104157459E+02  0.13923337631E+02  0.50528848991E+02  0.29999966992E+02 0.  0.
         12    1    1    2    0    0 -0.31156274698E+02  0.22104157459E+02 -0.13923337631E+02  0.40659151009E+02  0.00000000000E+00 0. -1.
         11    1    3    3    0    0  0.11122614353E+02 -0.13017057946E+02 -0.11622130097E+01  0.17161208784E+02  0.51100000000E-03 0. -1.
        -11    1    3    3    0    0  0.19011780780E+02 -0.10950073190E+02  0.42776596876E+01  0.22352858519E+02  0.51100000000E-03 0.  1.
         12    1    3    3    0    0  0.10218795654E+01  0.18629736772E+01  0.10807890953E+02  0.11014781687E+02  0.00000000000E+00 0. -1.
</event>
<event>
 7    1  0.5121289E-013  0.5052887E+02  0.7816164E-02  0.1300439E+00
        -11   -1    0    0    0    0  0.00000000000E+00  0.00000000000E+00  0.45593999997E+02  0.45594000000E+02  0.51100000000E-03 0.  1.
         11   -1    0    0    0    0 -0.00000000000E+00 -0.00000000000E+00 -0.45593999997E+02  0.45594000000E+02  0.51100000000E-03 0. -1.
    9900012    2    1    2    0    0 -0.20905652997E+02 -0.55964949250E+01  0.34420886006E+02  0.50528874627E+02  0.30000044916E+02 0.  0.
         12    1    1    2    0    0  0.20905652997E+02  0.55964949250E+01 -0.34420886006E+02  0.40659125373E+02  0.00000000000E+00 0. -1.
         11    1    3    3    0    0 -0.27698964522E+00 -0.52085568872E+01 -0.36184856561E+01  0.63481672013E+01  0.51100000000E-03 0. -1.
        -11    1    3    3    0    0 -0.20588905511E+01  0.23673708819E+00  0.27188702984E+00  0.20902147182E+01  0.51100000000E-03 0.  1.
        -12    1    3    3    0    0 -0.18569772801E+02 -0.62467512595E+00  0.37767484632E+02  0.42090492707E+02  0.00000000000E+00 0.  1.
</event>
<event>
 7    1  0.5121289E-013  0.5052886E+02  0.7816164E-02  0.1300439E+00
        -11   -1    0    0    0    0  0.00000000000E+00  0.00000000000E+00  0.45593999997E+02  0.45594000000E+02  0.51100000000E-03 0.  1.
         11   -1    0    0    0    0 -0.00000000000E+00 -0.00000000000E+00 -0.45593999997E+02  0.45594000000E+02  0.51100000000E-03 0. -1.
    9900012    2    1    2    0    0 -0.28340351667E+02  0.91604439957E+01  0.27678090547E+02  0.50528856340E+02  0.29999989331E+02 0.  0.
         12    1    1    2    0    0  0.28340351667E+02 -0.91604439957E+01 -0.27678090547E+02  0.40659143660E+02  0.00000000000E+00 0. -1.
         11    1    3    3    0    0 -0.73412899795E+01  0.54206952468E+01  0.10242680699E+02  0.13718271891E+02  0.51100000000E-03 0. -1.
        -11    1    3    3    0    0 -0.17300259148E+02 -0.87319999939E+01  0.11228390257E+02  0.22396953777E+02  0.51100000000E-03 0.  1.
         12    1    3    3    0    0 -0.36988025401E+01  0.12471748743E+02  0.62070195918E+01  0.14413630672E+02  0.00000000000E+00 0. -1.
</event>
<event>
 7    1  0.5121289E-013  0.5052886E+02  0.7816164E-02  0.1300439E+00
        -11   -1    0    0    0    0  0.00000000000E+00  0.00000000000E+00  0.45593999997E+02  0.45594000000E+02  0.51100000000E-03 0. -1.
         11   -1    0    0    0    0 -0.00000000000E+00 -0.00000000000E+00 -0.45593999997E+02  0.45594000000E+02  0.51100000000E-03 0.  1.
    9900012    2    1    2    0    0  0.18422081132E+02  0.23676427626E+02 -0.27444840708E+02  0.50528861054E+02  0.30000003659E+02 0.  0.
         12    1    1    2    0    0 -0.18422081132E+02 -0.23676427626E+02  0.27444840708E+02  0.40659138946E+02  0.00000000000E+00 0. -1.
         11    1    3    3    0    0  0.81855015404E+01  0.99544460245E+01 -0.12903578400E+02  0.18237208309E+02  0.51100000000E-03 0. -1.
        -11    1    3    3    0    0  0.15438743500E+02  0.16415609496E+02 -0.13701935209E+02  0.26373662331E+02  0.51100000000E-03 0.  1.
         12    1    3    3    0    0 -0.52021639089E+01 -0.26936278939E+01 -0.83932709840E+00  0.59179904143E+01  0.00000000000E+00 0. -1.
</event>
<event>
 7    1  0.5121289E-013  0.5052887E+02  0.7816164E-02  0.1300439E+00
        -11   -1    0    0    0    0  0.00000000000E+00  0.00000000000E+00  0.45593999997E+02  0.45594000000E+02  0.51100000000E-03 0. -1.
         11   -1    0    0    0    0 -0.00000000000E+00 -0.00000000000E+00 -0.45593999997E+02  0.45594000000E+02  0.51100000000E-03 0.  1.
    9900012    2    1    2    0    0  0.87484244837E+01 -0.39010205334E+02 -0.74049822871E+01  0.50528870474E+02  0.30000032292E+02 0.  0.
         12    1    1    2    0    0 -0.87484244837E+01  0.39010205334E+02  0.74049822871E+01  0.40659129526E+02  0.00000000000E+00 0. -1.
         11    1    3    3    0    0 -0.36007936930E+01 -0.20344601059E+02 -0.63929805623E+01  0.21627267700E+02  0.51100000000E-03 0. -1.
        -11    1    3    3    0    0  0.10585165680E+02 -0.22197995708E+02 -0.24160612869E+01  0.24711011682E+02  0.51100000000E-03 0.  1.
         12    1    3    3    0    0  0.17640524970E+01  0.35323914327E+01  0.14040595620E+01  0.41905910919E+01  0.00000000000E+00 0. -1.
</event>
<event>
 7    1  0.5121289E-013  0.5052886E+02  0.7816164E-02  0.1300439E+00
        -11   -1    0    0    0    0  0.00000000000E+00  0.00000000000E+00  0.45593999997E+02  0.45594000000E+02  0.51100000000E-03 0.  1.
         11   -1    0    0    0    0 -0.00000000000E+00 -0.00000000000E+00 -0.45593999997E+02  0.45594000000E+02  0.51100000000E-03 0. -1.
    9900012    2    1    2    0    0 -0.22416265587E+02 -0.18297550366E+02  0.28563555753E+02  0.50528855524E+02  0.29999986850E+02 0.  0.
         12    1    1    2    0    0  0.22416265587E+02  0.18297550366E+02 -0.28563555753E+02  0.40659144476E+02  0.00000000000E+00 0. -1.
         11    1    3    3    0    0 -0.13746140816E+02 -0.44974712582E+01  0.16174937428E+02  0.21698208132E+02  0.51100000000E-03 0. -1.
        -11    1    3    3    0    0 -0.10205967243E+02 -0.63925415372E+01  0.16337999015E+02  0.20296713201E+02  0.51100000000E-03 0.  1.
         12    1    3    3    0    0  0.15358424725E+01 -0.74075375703E+01 -0.39493806895E+01  0.85339341916E+01  0.00000000000E+00 0. -1.
</event>
<event>
 7    1  0.5121289E-013  0.5052886E+02  0.7816164E-02  0.1300439E+00
        -11   -1    0    0    0    0  0.00000000000E+00  0.00000000000E+00  0.45593999997E+02  0.45594000000E+02  0.51100000000E-03 0. -1.
         11   -1    0    0    0    0 -0.00000000000E+00 -0.00000000000E+00 -0.45593999997E+02  0.45594000000E+02  0.51100000000E-03 0.  1.
    9900012    2    1    2    0    0 -0.55454386253E+01  0.64133489770E+01 -0.39765345947E+02  0.50528859909E+02  0.30000000180E+02 0.  0.
         12    1    1    2    0    0  0.55454386253E+01 -0.64133489770E+01  0.39765345947E+02  0.40659140091E+02  0.00000000000E+00 0. -1.
         11    1    3    3    0    0 -0.22345951513E+01  0.45965059461E+01 -0.88241146808E+01  0.10197366452E+02  0.51100000000E-03 0.  1.
        -11    1    3    3    0    0 -0.88023936063E+01  0.92522033989E+01 -0.27758903270E+02  0.30555557791E+02  0.51100000000E-03 0. -1.
         12    1    3    3    0    0  0.54915501323E+01 -0.74353603680E+01 -0.31823279963E+01  0.97759356654E+01  0.00000000000E+00 0. -1.
</event>
<event>
 7    1  0.5121289E-013  0.5052886E+02  0.7816164E-02  0.1300439E+00
        -11   -1    0    0    0    0  0.00000000000E+00  0.00000000000E+00  0.45593999997E+02  0.45594000000E+02  0.51100000000E-03 0. -1.
         11   -1    0    0    0    0 -0.00000000000E+00 -0.00000000000E+00 -0.45593999997E+02  0.45594000000E+02  0.51100000000E-03 0.  1.
    9900012    2    1    2    0    0  0.63340407553E+01 -0.32700709572E+02  0.23317571691E+02  0.50528860457E+02  0.30000001845E+02 0.  0.
         12    1    1    2    0    0 -0.63340407553E+01  0.32700709572E+02 -0.23317571691E+02  0.40659139543E+02  0.00000000000E+00 0. -1.
         11    1    3    3    0    0 -0.98134939113E+00 -0.11748395971E+02  0.21243394699E+02  0.24295466102E+02  0.51100000000E-03 0. -1.
        -11    1    3    3    0    0 -0.24136689051E+01 -0.91058593312E+01  0.49420305761E+01  0.10637957427E+02  0.51100000000E-03 0.  1.
         12    1    3    3    0    0  0.97290590516E+01 -0.11846454270E+02 -0.28678535842E+01  0.15595436928E+02  0.00000000000E+00 0. -1.
</event>
<event>
 7    1  0.5121289E-013  0.5052887E+02  0.7816164E-02  0.1300439E+00
        -11   -1    0    0    0    0  0.00000000000E+00  0.00000000000E+00  0.45593999997E+02  0.45594000000E+02  0.51100000000E-03 0.  1.
         11   -1    0    0    0    0 -0.00000000000E+00 -0.00000000000E+00 -0.45593999997E+02  0.45594000000E+02  0.51100000000E-03 0. -1.
    9900012    2    1    2    0    0 -0.24339386653E+02 -0.97116264581E+01  0.31087676230E+02  0.50528867637E+02  0.30000023669E+02 0.  0.
         12    1    1    2    0    0  0.24339386653E+02  0.97116264581E+01 -0.31087676230E+02  0.40659132363E+02  0.00000000000E+00 0. -1.
         11    1    3    3    0    0 -0.10996643151E+02 -0.74617272038E+01  0.11167462206E+02  0.17358448831E+02  0.51100000000E-03 0. -1.
        -11    1    3    3    0    0 -0.87469388579E+01 -0.10693833675E+02  0.19029389501E+02  0.23515626360E+02  0.51100000000E-03 0.  1.
         12    1    3    3    0    0 -0.45958046443E+01  0.84439344210E+01  0.89082452328E+00  0.96547924455E+01  0.00000000000E+00 0. -1.
</event>
<event>
 7    1  0.5121289E-013  0.5052885E+02  0.7816164E-02  0.1300439E+00
        -11   -1    0    0    0    0  0.00000000000E+00  0.00000000000E+00  0.45593999997E+02  0.45594000000E+02  0.51100000000E-03 0. -1.
         11   -1    0    0    0    0 -0.00000000000E+00 -0.00000000000E+00 -0.45593999997E+02  0.45594000000E+02  0.51100000000E-03 0.  1.
    9900012    2    1    2    0    0  0.37597739327E+02  0.69866190562E+01  0.13811720677E+02  0.50528850028E+02  0.29999970146E+02 0.  0.
         12    1    1    2    0    0 -0.37597739327E+02 -0.69866190562E+01 -0.13811720677E+02  0.40659149972E+02  0.00000000000E+00 0. -1.
         11    1    3    3    0    0  0.25364273179E+02 -0.23095361281E+01  0.63394730749E+01  0.26246318411E+02  0.51100000000E-03 0. -1.
        -11    1    3    3    0    0  0.80375136112E+01 -0.31932905485E+01 -0.86346854960E+00  0.86916228504E+01  0.51100000000E-03 0.  1.
         12    1    3    3    0    0  0.41959525374E+01  0.12489445733E+02  0.83357161518E+01  0.15590908767E+02  0.00000000000E+00 0. -1.
</event>
<event>
 7    1  0.5121289E-013  0.5052886E+02  0.7816164E-02  0.1300439E+00
        -11   -1    0    0    0    0  0.00000000000E+00  0.00000000000E+00  0.45593999997E+02  0.45594000000E+02  0.51100000000E-03 0.  1.
         11   -1    0    0    0    0 -0.00000000000E+00 -0.00000000000E+00 -0.45593999997E+02  0.45594000000E+02  0.51100000000E-03 0. -1.
    9900012    2    1    2    0    0 -0.12471826117E+02  0.11324993252E+02  0.37004913282E+02  0.50528861718E+02  0.30000005677E+02 0.  0.
         12    1    1    2    0    0  0.12471826117E+02 -0.11324993252E+02 -0.37004913282E+02  0.40659138282E+02  0.00000000000E+00 0. -1.
         11    1    3    3    0    0 -0.13854044791E+01  0.16979936515E+02  0.14267139516E+02  0.22221360441E+02  0.51100000000E-03 0. -1.
        -11    1    3    3    0    0 -0.98407043756E+00 -0.51919199967E+01  0.13923150434E+02  0.14892231067E+02  0.51100000000E-03 0.  1.
        -12    1    3    3    0    0 -0.10102351200E+02 -0.46302326647E+00  0.88146233320E+01  0.13415270210E+02  0.00000000000E+00 0.  1.
</event>
<event>
 7    1  0.5121289E-013  0.5052886E+02  0.7816164E-02  0.1300439E+00
        -11   -1    0    0    0    0  0.00000000000E+00  0.00000000000E+00  0.45593999997E+02  0.45594000000E+02  0.51100000000E-03 0. -1.
         11   -1    0    0    0    0 -0.00000000000E+00 -0.00000000000E+00 -0.45593999997E+02  0.45594000000E+02  0.51100000000E-03 0.  1.
    9900012    2    1    2    0    0  0.61258549224E+01 -0.26659038818E+02 -0.30082140373E+02  0.50528860576E+02  0.30000002208E+02 0.  0.
         12    1    1    2    0    0 -0.61258549224E+01  0.26659038818E+02  0.30082140373E+02  0.40659139424E+02  0.00000000000E+00 0. -1.
         11    1    3    3    0    0 -0.68151616376E+01 -0.29919947615E+01 -0.47433033559E+01  0.88259496818E+01  0.51100000000E-03 0. -1.
        -11    1    3    3    0    0 -0.46838888921E+00 -0.65855904360E+01  0.18969699537E+01  0.68693438412E+01  0.51100000000E-03 0.  1.
        -12    1    3    3    0    0  0.13409405449E+02 -0.17081453621E+02 -0.27235806971E+02  0.34833567053E+02  0.00000000000E+00 0.  1.
</event>
<event>
 7    1  0.5121289E-013  0.5052885E+02  0.7816164E-02  0.1300439E+00
        -11   -1    0    0    0    0  0.00000000000E+00  0.00000000000E+00  0.45593999997E+02  0.45594000000E+02  0.51100000000E-03 0. -1.
         11   -1    0    0    0    0 -0.00000000000E+00 -0.00000000000E+00 -0.45593999997E+02  0.45594000000E+02  0.51100000000E-03 0.  1.
    9900012    2    1    2    0    0 -0.37617554479E+02  0.15316337611E+02 -0.18696342765E+01  0.50528854225E+02  0.29999982903E+02 0.  0.
         12    1    1    2    0    0  0.37617554479E+02 -0.15316337611E+02  0.18696342765E+01  0.40659145775E+02  0.00000000000E+00 0. -1.
         11    1    3    3    0    0 -0.20204477498E+02  0.13442467612E+01  0.69328425486E+01  0.21403088945E+02  0.51100000000E-03 0. -1.
        -11    1    3    3    0    0 -0.10022148045E+02  0.16980085155E+02 -0.71737852844E+01  0.20981657201E+02  0.51100000000E-03 0.  1.
         12    1    3    3    0    0 -0.73909289353E+01 -0.30079943054E+01 -0.16286915407E+01  0.81441080790E+01  0.00000000000E+00 0. -1.
</event>
<event>
 7    1  0.5121289E-013  0.5052886E+02  0.7816164E-02  0.1300439E+00
        -11   -1    0    0    0    0  0.00000000000E+00  0.00000000000E+00  0.45593999997E+02  0.45594000000E+02  0.51100000000E-03 0.  1.
         11   -1    0    0    0    0 -0.00000000000E+00 -0.00000000000E+00 -0.45593999997E+02  0.45594000000E+02  0.51100000000E-03 0. -1.
    9900012    2    1    2    0    0  0.22567685353E+02  0.35010293070E+01  0.33639379704E+02  0.50528862094E+02  0.30000006820E+02 0.  0.
         12    1    1    2    0    0 -0.22567685353E+02 -0.35010293070E+01 -0.33639379704E+02  0.40659137906E+02  0.00000000000E+00 0. -1.
         11    1    3    3    0    0  0.12138893883E+01 -0.65121023711E+01  0.10889950227E+02  0.12746451308E+02  0.51100000000E-03 0. -1.
        -11    1    3    3    0    0  0.38292427159E+01 -0.17210379747E+01  0.14567927635E+02  0.15160791118E+02  0.51100000000E-03 0.  1.
        -12    1    3    3    0    0  0.17524553249E+02  0.11734169653E+02  0.81815018427E+01  0.22621619668E+02  0.00000000000E+00 0.  1.
</event>
<event>
 7    1  0.5121289E-013  0.5052886E+02  0.7816164E-02  0.1300439E+00
        -11   -1    0    0    0    0  0.00000000000E+00  0.00000000000E+00  0.45593999997E+02  0.45594000000E+02  0.51100000000E-03 0.  1.
         11   -1    0    0    0    0 -0.00000000000E+00 -0.00000000000E+00 -0.45593999997E+02  0.45594000000E+02  0.51100000000E-03 0. -1.
    9900012    2    1    2    0    0  0.21624264355E+02  0.21008713666E+02  0.27279856074E+02  0.50528863189E+02  0.30000010150E+02 0.  0.
         12    1    1    2    0    0 -0.21624264355E+02 -0.21008713666E+02 -0.27279856074E+02  0.40659136811E+02  0.00000000000E+00 0. -1.
         11    1    3    3    0    0  0.15406570122E+02  0.19727651648E+01  0.18683307117E+00  0.15533483582E+02  0.51100000000E-03 0. -1.
        -11    1    3    3    0    0 -0.44023395907E+00  0.33015591096E+01  0.47284188541E+00  0.33641757093E+01  0.51100000000E-03 0.  1.
        -12    1    3    3    0    0  0.66579281915E+01  0.15734389392E+02  0.26620181117E+02  0.31631203898E+02  0.00000000000E+00 0.  1.
</event>
<event>
 7    1  0.5121289E-013  0.5052886E+02  0.7816164E-02  0.1300439E+00
        -11   -1    0    0    0    0  0.00000000000E+00  0.00000000000E+00  0.45593999997E+02  0.45594000000E+02  0.51100000000E-03 0. -1.
         11   -1    0    0    0    0 -0.00000000000E+00 -0.00000000000E+00 -0.45593999997E+02  0.45594000000E+02  0.51100000000E-03 0.  1.
    9900012    2    1    2    0    0 -0.22272550124E+02 -0.33832010004E+02 -0.35347392400E+01  0.50528858697E+02  0.29999996497E+02 0.  0.
         12    1    1    2    0    0  0.22272550124E+02  0.33832010004E+02  0.35347392400E+01  0.40659141303E+02  0.00000000000E+00 0. -1.
         11    1    3    3    0    0 -0.34187458340E+01 -0.37310152855E+01  0.64357011213E+01  0.81869742470E+01  0.51100000000E-03 0. -1.
        -11    1    3    3    0    0  0.34601406696E+01  0.23487894984E+00 -0.43961608222E+00  0.34958552796E+01  0.51100000000E-03 0.  1.
        -12    1    3    3    0    0 -0.22313944960E+02 -0.30335873669E+02 -0.95308242790E+01  0.38846029171E+02  0.00000000000E+00 0.  1.
</event>
<event>
 7    1  0.5121289E-013  0.5052887E+02  0.7816164E-02  0.1300439E+00
        -11   -1    0    0    0    0  0.00000000000E+00  0.00000000000E+00  0.45593999997E+02  0.45594000000E+02  0.51100000000E-03 0.  1.
         11   -1    0    0    0    0 -0.00000000000E+00 -0.00000000000E+00 -0.45593999997E+02  0.45594000000E+02  0.51100000000E-03 0. -1.
    9900012    2    1    2    0    0 -0.31286978343E+02 -0.25717027402E+02  0.35950589306E+01  0.50528868664E+02  0.30000026792E+02 0.  0.
         12    1    1    2    0    0  0.31286978343E+02  0.25717027402E+02 -0.35950589306E+01  0.40659131336E+02  0.00000000000E+00 0. -1.
         11    1    3    3    0    0  0.62559957749E+00 -0.12569333310E+01  0.59844046657E+01  0.61468980546E+01  0.51100000000E-03 0. -1.
        -11    1    3    3    0    0  0.39915441973E+00  0.11683956271E+01  0.25622351416E+01  0.28442084618E+01  0.51100000000E-03 0.  1.
        -12    1    3    3    0    0 -0.32311732341E+02 -0.25628489698E+02 -0.49515808767E+01  0.41537762148E+02  0.00000000000E+00 0.  1.
</event>
<event>
 7    1  0.5121289E-013  0.5052887E+02  0.7816164E-02  0.1300439E+00
        -11   -1    0    0    0    0  0.00000000000E+00  0.00000000000E+00  0.45593999997E+02  0.45594000000E+02  0.51100000000E-03 0.  1.
         11   -1    0    0    0    0 -0.00000000000E+00 -0.00000000000E+00 -0.45593999997E+02  0.45594000000E+02  0.51100000000E-03 0. -1.
    9900012    2    1    2    0    0 -0.28051059505E+02  0.25099123853E+02  0.15373264848E+02  0.50528865360E+02  0.30000016749E+02 0.  0.
         12    1    1    2    0    0  0.28051059505E+02 -0.25099123853E+02 -0.15373264848E+02  0.40659134640E+02  0.00000000000E+00 0. -1.
         11    1    3    3    0    0 -0.21405934419E+02  0.12378912163E+02  0.25951496467E+01  0.24863352482E+02  0.51100000000E-03 0. -1.
        -11    1    3    3    0    0 -0.79586065868E+01  0.22342521749E+00  0.31589950845E+00  0.79680066762E+01  0.51100000000E-03 0.  1.
         12    1    3    3    0    0  0.13134815006E+01  0.12496786473E+02  0.12462215693E+02  0.17697506202E+02  0.00000000000E+00 0. -1.
</event>
<event>
 7    1  0.5121289E-013  0.5052886E+02  0.7816164E-02  0.1300439E+00
        -11   -1    0    0    0    0  0.00000000000E+00  0.00000000000E+00  0.45593999997E+02  0.45594000000E+02  0.51100000000E-03 0. -1.
         11   -1    0    0    0    0 -0.00000000000E+00 -0.00000000000E+00 -0.45593999997E+02  0.45594000000E+02  0.51100000000E-03 0.  1.
    9900012    2    1    2    0    0  0.29998476521E+02  0.27416847305E+02  0.12543425416E+01  0.50528862221E+02  0.30000007208E+02 0.  0.
         12    1    1    2    0    0 -0.29998476521E+02 -0.27416847305E+02 -0.12543425416E+01  0.40659137779E+02  0.00000000000E+00 0. -1.
         11    1    3    3    0    0  0.12518095078E+01 -0.30869561870E+00  0.17014601598E+00  0.13004883531E+01  0.51100000000E-03 0. -1.
        -11    1    3    3    0    0  0.16053987464E+02  0.27537123419E+02  0.10348814216E+02  0.33513006961E+02  0.51100000000E-03 0.  1.
        -12    1    3    3    0    0  0.12692679550E+02  0.18841950458E+00 -0.92646176907E+01  0.15715366907E+02  0.00000000000E+00 0.  1.
</event>
<event>
 7    1  0.5121289E-013  0.5052886E+02  0.7816164E-02  0.1300439E+00
        -11   -1    0    0    0    0  0.00000000000E+00  0.00000000000E+00  0.45593999997E+02  0.45594000000E+02  0.51100000000E-03 0.  1.
         11   -1    0    0    0    0 -0.00000000000E+00 -0.00000000000E+00 -0.45593999997E+02  0.45594000000E+02  0.51100000000E-03 0. -1.
    9900012    2    1    2    0    0  0.17190956743E+02  0.19549368832E+02  0.31232335731E+02  0.50528860675E+02  0.30000002506E+02 0.  0.
         12    1    1    2    0    0 -0.17190956743E+02 -0.19549368832E+02 -0.31232335731E+02  0.40659139325E+02  0.00000000000E+00 0. -1.
         11    1    3    3    0    0  0.83227473973E+01  0.76309484526E+00  0.21321085911E+02  0.22900636294E+02  0.51100000000E-03 0. -1.
        -11    1    3    3    0    0 -0.90549002166E+00 -0.11040093837E+01  0.46308339574E+01  0.48459645377E+01  0.51100000000E-03 0.  1.
         12    1    3    3    0    0  0.97736993675E+01  0.19890283370E+02  0.52804158627E+01  0.22782259843E+02  0.00000000000E+00 0. -1.
</event>
<event>
 7    1  0.5121289E-013  0.5052885E+02  0.7816164E-02  0.1300439E+00
        -11   -1    0    0    0    0  0.00000000000E+00  0.00000000000E+00  0.45593999997E+02  0.45594000000E+02  0.51100000000E-03 0.  1.
         11   -1    0    0    0    0 -0.00000000000E+00 -0.00000000000E+00 -0.45593999997E+02  0.45594000000E+02  0.51100000000E-03 0. -1.
    9900012    2    1    2    0    0  0.33288263247E+02 -0.18476694107E+02  0.14271278632E+02  0.50528854793E+02  0.29999984630E+02 0.  0.
         12    1    1    2    0    0 -0.33288263247E+02  0.18476694107E+02 -0.14271278632E+02  0.40659145207E+02  0.00000000000E+00 0. -1.
         11    1    3    3    0    0  0.42667380433E+01 -0.21895248352E+01 -0.69139044345E+01  0.84143417642E+01  0.51100000000E-03 0. -1.
        -11    1    3    3    0    0  0.34024785700E-01 -0.51167901069E+01  0.14799591502E+01  0.53266291434E+01  0.51100000000E-03 0.  1.
        -12    1    3    3    0    0  0.28987500418E+02 -0.11170379165E+02  0.19705223917E+02  0.36787883886E+02  0.00000000000E+00 0.  1.
</event>
<event>
 7    1  0.5121289E-013  0.5052886E+02  0.7816164E-02  0.1300439E+00
        -11   -1    0    0    0    0  0.00000000000E+00  0.00000000000E+00  0.45593999997E+02  0.45594000000E+02  0.51100000000E-03 0. -1.
         11   -1    0    0    0    0 -0.00000000000E+00 -0.00000000000E+00 -0.45593999997E+02  0.45594000000E+02  0.51100000000E-03 0.  1.
    9900012    2    1    2    0    0  0.16456350746E+01  0.40319681380E+02 -0.49780154957E+01  0.50528862532E+02  0.30000008151E+02 0.  0.
         12    1    1    2    0    0 -0.16456350746E+01 -0.40319681380E+02  0.49780154957E+01  0.40659137468E+02  0.00000000000E+00 0. -1.
         11    1    3    3    0    0  0.10203813426E+01  0.21629005569E+02  0.92436108163E+01  0.23543563901E+02  0.51100000000E-03 0. -1.
        -11    1    3    3    0    0 -0.57609460237E+01  0.43115085419E+01 -0.42176711569E+01  0.83406447739E+01  0.51100000000E-03 0.  1.
        -12    1    3    3    0    0  0.63861997558E+01  0.14379167270E+02 -0.10003955155E+02  0.18644653857E+02  0.00000000000E+00 0.  1.
</event>
<event>
 7    1  0.5121289E-013  0.5052886E+02  0.7816164E-02  0.1300439E+00
        -11   -1    0    0    0    0  0.00000000000E+00  0.00000000000E+00  0.45593999997E+02  0.45594000000E+02  0.51100000000E-03 0. -1.
         11   -1    0    0    0    0 -0.00000000000E+00 -0.00000000000E+00 -0.45593999997E+02  0.45594000000E+02  0.51100000000E-03 0.  1.
    9900012    2    1    2    0    0  0.32888816625E+02 -0.91673972062E+01 -0.22078276619E+02  0.50528859220E+02  0.29999998086E+02 0.  0.
         12    1    1    2    0    0 -0.32888816625E+02  0.91673972062E+01  0.22078276619E+02  0.40659140780E+02  0.00000000000E+00 0. -1.
         11    1    3    3    0    0  0.78749231558E+00 -0.12476110799E+01  0.44035888021E+01  0.46441653882E+01  0.51100000000E-03 0. -1.
        -11    1    3    3    0    0  0.80144267212E+01 -0.85248796333E+01 -0.15460934385E+02  0.19389303772E+02  0.51100000000E-03 0.  1.
        -12    1    3    3    0    0  0.24086897588E+02  0.60509350700E+00 -0.11020931036E+02  0.26495390060E+02  0.00000000000E+00 0.  1.
</event>
<event>
 7    1  0.5121289E-013  0.5052884E+02  0.7816164E-02  0.1300439E+00
        -11   -1    0    0    0    0  0.00000000000E+00  0.00000000000E+00  0.45593999997E+02  0.45594000000E+02  0.51100000000E-03 0.  1.
         11   -1    0    0    0    0 -0.00000000000E+00 -0.00000000000E+00 -0.45593999997E+02  0.45594000000E+02  0.51100000000E-03 0. -1.
    9900012    2    1    2    0    0  0.31488206758E+02 -0.25183679169E+01  0.25599185189E+02  0.50528835914E+02  0.29999927245E+02 0.  0.
         12    1    1    2    0    0 -0.31488206758E+02  0.25183679169E+01 -0.25599185189E+02  0.40659164086E+02  0.00000000000E+00 0. -1.
         11    1    3    3    0    0  0.10962910318E+02 -0.57962229144E+01  0.55800782030E+01  0.13598487994E+02  0.51100000000E-03 0. -1.
        -11    1    3    3    0    0  0.23295663635E+02 -0.29371232905E+01  0.18659135045E+02  0.29991298043E+02  0.51100000000E-03 0.  1.
         12    1    3    3    0    0 -0.27703671950E+01  0.62149782880E+01  0.13599719404E+01  0.69390498769E+01  0.00000000000E+00 0. -1.
</event>
<event>
 7    1  0.5121289E-013  0.5052885E+02  0.7816164E-02  0.1300439E+00
        -11   -1    0    0    0    0  0.00000000000E+00  0.00000000000E+00  0.45593999997E+02  0.45594000000E+02  0.51100000000E-03 0.  1.
         11   -1    0    0    0    0 -0.00000000000E+00 -0.00000000000E+00 -0.45593999997E+02  0.45594000000E+02  0.51100000000E-03 0. -1.
    9900012    2    1    2    0    0 -0.69900512943E+01  0.66367908412E+01  0.39500104945E+02  0.50528854652E+02  0.29999984201E+02 0.  0.
         12    1    1    2    0    0  0.69900512943E+01 -0.66367908412E+01 -0.39500104945E+02  0.40659145348E+02  0.00000000000E+00 0. -1.
         11    1    3    3    0    0 -0.90816574371E+01  0.60993559568E+01  0.56001063337E+01  0.12289826529E+02  0.51100000000E-03 0. -1.
        -11    1    3    3    0    0 -0.71593294075E-01  0.81460167425E+01  0.91267537599E+01  0.12233574654E+02  0.51100000000E-03 0.  1.
        -12    1    3    3    0    0  0.21631994368E+01 -0.76085818581E+01  0.24773244851E+02  0.26005453469E+02  0.00000000000E+00 0.  1.
</event>
<event>
 7    1  0.5121289E-013  0.5052887E+02  0.7816164E-02  0.1300439E+00
        -11   -1    0    0    0    0  0.00000000000E+00  0.00000000000E+00  0.45593999997E+02  0.45594000000E+02  0.51100000000E-03 0.  1.
         11   -1    0    0    0    0 -0.00000000000E+00 -0.00000000000E+00 -0.45593999997E+02  0.45594000000E+02  0.51100000000E-03 0. -1.
    9900012    2    1    2    0    0 -0.20276093925E+02 -0.32893897899E+02 -0.12650558092E+02  0.50528866660E+02  0.30000020701E+02 0.  0.
         12    1    1    2    0    0  0.20276093925E+02  0.32893897899E+02  0.12650558092E+02  0.40659133340E+02  0.00000000000E+00 0. -1.
         11    1    3    3    0    0 -0.40994004828E+01 -0.27957153152E+01  0.47828784766E+01  0.68918092853E+01  0.51100000000E-03 0. -1.
        -11    1    3    3    0    0 -0.38422231402E+01 -0.23396940955E+02 -0.36968381479E+01  0.23996794312E+02  0.51100000000E-03 0.  1.
         12    1    3    3    0    0 -0.12334470302E+02 -0.67012416295E+01 -0.13736598421E+02  0.19640263063E+02  0.00000000000E+00 0. -1.
</event>
<event>
 7    1  0.5121289E-013  0.5052886E+02  0.7816164E-02  0.1300439E+00
        -11   -1    0    0    0    0  0.00000000000E+00  0.00000000000E+00  0.45593999997E+02  0.45594000000E+02  0.51100000000E-03 0. -1.
         11   -1    0    0    0    0 -0.00000000000E+00 -0.00000000000E+00 -0.45593999997E+02  0.45594000000E+02  0.51100000000E-03 0.  1.
    9900012    2    1    2    0    0  0.35757150487E+01  0.30580464225E+02 -0.26555881700E+02  0.50528863472E+02  0.30000011010E+02 0.  0.
         12    1    1    2    0    0 -0.35757150487E+01 -0.30580464225E+02  0.26555881700E+02  0.40659136528E+02  0.00000000000E+00 0. -1.
         11    1    3    3    0    0  0.36622534723E+01  0.29874754140E+01 -0.39698351537E+01  0.61722525267E+01  0.51100000000E-03 0. -1.
        -11    1    3    3    0    0 -0.53317924256E+01  0.37539499044E+01 -0.18489905144E+02  0.19606038428E+02  0.51100000000E-03 0.  1.
         12    1    3    3    0    0  0.52452540019E+01  0.23839038907E+02 -0.40961414023E+01  0.24750572517E+02  0.00000000000E+00 0. -1.
</event>
<event>
 7    1  0.5121289E-013  0.5052885E+02  0.7816164E-02  0.1300439E+00
        -11   -1    0    0    0    0  0.00000000000E+00  0.00000000000E+00  0.45593999997E+02  0.45594000000E+02  0.51100000000E-03 0.  1.
         11   -1    0    0    0    0 -0.00000000000E+00 -0.00000000000E+00 -0.45593999997E+02  0.45594000000E+02  0.51100000000E-03 0. -1.
    9900012    2    1    2    0    0  0.36758969421E+02 -0.17274407385E+02  0.18812533976E+01  0.50528854685E+02  0.29999984300E+02 0.  0.
         12    1    1    2    0    0 -0.36758969421E+02  0.17274407385E+02 -0.18812533976E+01  0.40659145315E+02  0.00000000000E+00 0. -1.
         11    1    3    3    0    0  0.52975986459E+01 -0.12250072305E+02  0.18261841733E+01  0.13470848963E+02  0.51100000000E-03 0. -1.
        -11    1    3    3    0    0  0.11394139033E+02 -0.10777826246E+02  0.30219897460E+01  0.15972487758E+02  0.51100000000E-03 0.  1.
         12    1    3    3    0    0  0.20067231743E+02  0.57534911661E+01 -0.29669205217E+01  0.21085517964E+02  0.00000000000E+00 0. -1.
</event>
<event>
 7    1  0.5121289E-013  0.5052885E+02  0.7816164E-02  0.1300439E+00
        -11   -1    0    0    0    0  0.00000000000E+00  0.00000000000E+00  0.45593999997E+02  0.45594000000E+02  0.51100000000E-03 0.  1.
         11   -1    0    0    0    0 -0.00000000000E+00 -0.00000000000E+00 -0.45593999997E+02  0.45594000000E+02  0.51100000000E-03 0. -1.
    9900012    2    1    2    0    0  0.80228871410E+00 -0.40092000080E+02 -0.67196959972E+01  0.50528850330E+02  0.29999971064E+02 0.  0.
         12    1    1    2    0    0 -0.80228871410E+00  0.40092000080E+02  0.67196959972E+01  0.40659149670E+02  0.00000000000E+00 0. -1.
         11    1    3    3    0    0  0.77773517136E+01 -0.79461320841E+01 -0.11367330310E+02  0.15901082146E+02  0.51100000000E-03 0. -1.
        -11    1    3    3    0    0 -0.61995730150E+00 -0.19100489384E+02  0.60595845387E+01  0.20048232012E+02  0.51100000000E-03 0.  1.
        -12    1    3    3    0    0 -0.63551056980E+01 -0.13045378612E+02 -0.14119502254E+01  0.14579536172E+02  0.00000000000E+00 0.  1.
</event>
<event>
 7    1  0.5121289E-013  0.5052887E+02  0.7816164E-02  0.1300439E+00
        -11   -1    0    0    0    0  0.00000000000E+00  0.00000000000E+00  0.45593999997E+02  0.45594000000E+02  0.51100000000E-03 0.  1.
         11   -1    0    0    0    0 -0.00000000000E+00 -0.00000000000E+00 -0.45593999997E+02  0.45594000000E+02  0.51100000000E-03 0. -1.
    9900012    2    1    2    0    0  0.21931592922E+02  0.77567750711E+01  0.33346704267E+02  0.50528868024E+02  0.30000024845E+02 0.  0.
         12    1    1    2    0    0 -0.21931592922E+02 -0.77567750711E+01 -0.33346704267E+02  0.40659131976E+02  0.00000000000E+00 0. -1.
         11    1    3    3    0    0  0.56061773858E+00  0.14809892473E+01 -0.16850053666E+01  0.23123288577E+01  0.51100000000E-03 0. -1.
        -11    1    3    3    0    0 -0.52078784208E+01  0.24111611513E+01  0.32114047413E+01  0.65763832322E+01  0.51100000000E-03 0.  1.
        -12    1    3    3    0    0  0.26578853604E+02  0.38646246725E+01  0.31820304892E+02  0.41640155934E+02  0.00000000000E+00 0.  1.
</event>
<event>
 7    1  0.5121289E-013  0.5052887E+02  0.7816164E-02  0.1300439E+00
        -11   -1    0    0    0    0  0.00000000000E+00  0.00000000000E+00  0.45593999997E+02  0.45594000000E+02  0.51100000000E-03 0. -1.
         11   -1    0    0    0    0 -0.00000000000E+00 -0.00000000000E+00 -0.45593999997E+02  0.45594000000E+02  0.51100000000E-03 0.  1.
    9900012    2    1    2    0    0  0.38628390740E+02 -0.12430490363E+02  0.25486062381E+01  0.50528867501E+02  0.30000023255E+02 0.  0.
         12    1    1    2    0    0 -0.38628390740E+02  0.12430490363E+02 -0.25486062381E+01  0.40659132499E+02  0.00000000000E+00 0. -1.
         11    1    3    3    0    0  0.18491403766E+02  0.37646180468E+01 -0.40625373645E+01  0.19303071578E+02  0.51100000000E-03 0. -1.
        -11    1    3    3    0    0  0.74978934827E+01  0.24942428333E+01  0.25358997203E+01  0.82988217020E+01  0.51100000000E-03 0.  1.
        -12    1    3    3    0    0  0.12639093492E+02 -0.18689351244E+02  0.40752438822E+01  0.22926974220E+02  0.00000000000E+00 0.  1.
</event>
<event>
 7    1  0.5121289E-013  0.5052886E+02  0.7816164E-02  0.1300439E+00
        -11   -1    0    0    0    0  0.00000000000E+00  0.00000000000E+00  0.45593999997E+02  0.45594000000E+02  0.51100000000E-03 0. -1.
         11   -1    0    0    0    0 -0.00000000000E+00 -0.00000000000E+00 -0.45593999997E+02  0.45594000000E+02  0.51100000000E-03 0.  1.
    9900012    2    1    2    0    0 -0.37703552091E+02  0.14548359325E+02 -0.44668934983E+01  0.50528859123E+02  0.29999997791E+02 0.  0.
         12    1    1    2    0    0  0.37703552091E+02 -0.14548359325E+02  0.44668934983E+01  0.40659140877E+02  0.00000000000E+00 0. -1.
         11    1    3    3    0    0 -0.16851026351E+00  0.62684504760E+00 -0.12658958616E+01  0.14226113370E+01  0.51100000000E-03 0.  1.
        -11    1    3    3    0    0 -0.63121980415E+01 -0.58514291625E+01  0.66290700658E+01  0.10864052538E+02  0.51100000000E-03 0. -1.
        -12    1    3    3    0    0 -0.31222843786E+02  0.19772943440E+02 -0.98300677025E+01  0.38242195248E+02  0.00000000000E+00 0.  1.
</event>
<event>
 7    1  0.5121289E-013  0.5052886E+02  0.7816164E-02  0.1300439E+00
        -11   -1    0    0    0    0  0.00000000000E+00  0.00000000000E+00  0.45593999997E+02  0.45594000000E+02  0.51100000000E-03 0.  1.
         11   -1    0    0    0    0 -0.00000000000E+00 -0.00000000000E+00 -0.45593999997E+02  0.45594000000E+02  0.51100000000E-03 0. -1.
    9900012    2    1    2    0    0 -0.21002055825E+02 -0.94714359170E+01  0.33501804105E+02  0.50528864182E+02  0.30000013168E+02 0.  0.
         12    1    1    2    0    0  0.21002055825E+02  0.94714359170E+01 -0.33501804105E+02  0.40659135818E+02  0.00000000000E+00 0. -1.
         11    1    3    3    0    0  0.43529947207E+01  0.36970309834E+00 -0.76966894360E+00  0.44359479216E+01  0.51100000000E-03 0.  1.
        -11    1    3    3    0    0 -0.38024024523E+01  0.22869669875E+01  0.85227546925E+00  0.45182802202E+01  0.51100000000E-03 0. -1.
        -12    1    3    3    0    0 -0.21552648093E+02 -0.12128106003E+02  0.33419197579E+02  0.41574636040E+02  0.00000000000E+00 0.  1.
</event>
<event>
 7    1  0.5121289E-013  0.5052886E+02  0.7816164E-02  0.1300439E+00
        -11   -1    0    0    0    0  0.00000000000E+00  0.00000000000E+00  0.45593999997E+02  0.45594000000E+02  0.51100000000E-03 0. -1.
         11   -1    0    0    0    0 -0.00000000000E+00 -0.00000000000E+00 -0.45593999997E+02  0.45594000000E+02  0.51100000000E-03 0.  1.
    9900012    2    1    2    0    0  0.24054068823E+02  0.21261856939E+02  0.24949975356E+02  0.50528855178E+02  0.29999985798E+02 0.  0.
         12    1    1    2    0    0 -0.24054068823E+02 -0.21261856939E+02 -0.24949975356E+02  0.40659144822E+02  0.00000000000E+00 0. -1.
         11    1    3    3    0    0  0.16086479819E+01  0.26878690093E+01  0.12407901244E+02  0.12797202885E+02  0.51100000000E-03 0. -1.
        -11    1    3    3    0    0  0.60920525611E+01  0.81113296890E+00  0.12113600006E+02  0.13583458561E+02  0.51100000000E-03 0.  1.
        -12    1    3    3    0    0  0.16353368279E+02  0.17762854961E+02  0.42847410599E+00  0.24148193732E+02  0.00000000000E+00 0.  1.
</event>
<event>
 7    1  0.5121289E-013  0.5052886E+02  0.7816164E-02  0.1300439E+00
        -11   -1    0    0    0    0  0.00000000000E+00  0.00000000000E+00  0.45593999997E+02  0.45594000000E+02  0.51100000000E-03 0.  1.
         11   -1    0    0    0    0 -0.00000000000E+00 -0.00000000000E+00 -0.45593999997E+02  0.45594000000E+02  0.51100000000E-03 0. -1.
    9900012    2    1    2    0    0  0.33694233278E+02 -0.22746905625E+02  0.66521111305E+00  0.50528861082E+02  0.30000003745E+02 0.  0.
         12    1    1    2    0    0 -0.33694233278E+02  0.22746905625E+02 -0.66521111305E+00  0.40659138918E+02  0.00000000000E+00 0. -1.
         11    1    3    3    0    0  0.21274489012E+01 -0.42075225004E+01  0.38661261660E+01  0.60972302082E+01  0.51100000000E-03 0. -1.
        -11    1    3    3    0    0  0.21294246492E+02 -0.73676234606E+01  0.96814563316E+01  0.24524628561E+02  0.51100000000E-03 0.  1.
         12    1    3    3    0    0  0.10272537885E+02 -0.11171759664E+02 -0.12882371385E+02  0.19907002313E+02  0.00000000000E+00 0. -1.
</event>
<event>
 7    1  0.5121289E-013  0.5052887E+02  0.7816164E-02  0.1300439E+00
        -11   -1    0    0    0    0  0.00000000000E+00  0.00000000000E+00  0.45593999997E+02  0.45594000000E+02  0.51100000000E-03 0.  1.
         11   -1    0    0    0    0 -0.00000000000E+00 -0.00000000000E+00 -0.45593999997E+02  0.45594000000E+02  0.51100000000E-03 0. -1.
    9900012    2    1    2    0    0  0.13749525727E+02 -0.36928465982E+02  0.10020178861E+02  0.50528867669E+02  0.30000023766E+02 0.  0.
         12    1    1    2    0    0 -0.13749525727E+02  0.36928465982E+02 -0.10020178861E+02  0.40659132331E+02  0.00000000000E+00 0. -1.
         11    1    3    3    0    0  0.64781857440E+01 -0.13343920754E+01 -0.52958236128E+01  0.84730892090E+01  0.51100000000E-03 0. -1.
        -11    1    3    3    0    0  0.59123567643E+01 -0.54885337577E+01  0.72804052617E+01  0.10866658472E+02  0.51100000000E-03 0.  1.
        -12    1    3    3    0    0  0.13589832190E+01 -0.30105540149E+02  0.80355972120E+01  0.31189119988E+02  0.00000000000E+00 0.  1.
</event>
<event>
 7    1  0.5121289E-013  0.5052886E+02  0.7816164E-02  0.1300439E+00
        -11   -1    0    0    0    0  0.00000000000E+00  0.00000000000E+00  0.45593999997E+02  0.45594000000E+02  0.51100000000E-03 0. -1.
         11   -1    0    0    0    0 -0.00000000000E+00 -0.00000000000E+00 -0.45593999997E+02  0.45594000000E+02  0.51100000000E-03 0.  1.
    9900012    2    1    2    0    0 -0.12836660408E+02 -0.38701842820E+01 -0.38384987243E+02  0.50528862990E+02  0.30000009544E+02 0.  0.
         12    1    1    2    0    0  0.12836660408E+02  0.38701842820E+01  0.38384987243E+02  0.40659137010E+02  0.00000000000E+00 0. -1.
         11    1    3    3    0    0  0.18262633691E+01 -0.64538903392E+01  0.97223983444E+00  0.67774028182E+01  0.51100000000E-03 0. -1.
        -11    1    3    3    0    0 -0.72719487514E+01 -0.45372117357E+01 -0.14274072658E+02  0.16649825209E+02  0.51100000000E-03 0.  1.
         12    1    3    3    0    0 -0.73909750253E+01  0.71209177929E+01 -0.25083154419E+02  0.27101634963E+02  0.00000000000E+00 0. -1.
</event>
<event>
 7    1  0.5121289E-013  0.5052888E+02  0.7816164E-02  0.1300439E+00
        -11   -1    0    0    0    0  0.00000000000E+00  0.00000000000E+00  0.45593999997E+02  0.45594000000E+02  0.51100000000E-03 0.  1.
         11   -1    0    0    0    0 -0.00000000000E+00 -0.00000000000E+00 -0.45593999997E+02  0.45594000000E+02  0.51100000000E-03 0. -1.
    9900012    2    1    2    0    0  0.15288115345E+02 -0.22075715088E+02  0.30530321819E+02  0.50528877803E+02  0.30000054570E+02 0.  0.
         12    1    1    2    0    0 -0.15288115345E+02  0.22075715088E+02 -0.30530321819E+02  0.40659122197E+02  0.00000000000E+00 0. -1.
         11    1    3    3    0    0  0.41406277093E+01 -0.44411479890E+01  0.13236354210E+01  0.62145477934E+01  0.51100000000E-03 0. -1.
        -11    1    3    3    0    0  0.11405981657E+02 -0.24053195345E+02  0.25670820610E+02  0.36981666470E+02  0.51100000000E-03 0.  1.
        -12    1    3    3    0    0 -0.25849402150E+00  0.64186282457E+01  0.35358657880E+01  0.73326635397E+01  0.00000000000E+00 0.  1.
</event>
<event>
 7    1  0.5121289E-013  0.5052887E+02  0.7816164E-02  0.1300439E+00
        -11   -1    0    0    0    0  0.00000000000E+00  0.00000000000E+00  0.45593999997E+02  0.45594000000E+02  0.51100000000E-03 0.  1.
         11   -1    0    0    0    0 -0.00000000000E+00 -0.00000000000E+00 -0.45593999997E+02  0.45594000000E+02  0.51100000000E-03 0. -1.
    9900012    2    1    2    0    0 -0.39139272754E+02  0.15950539212E+01 -0.10896690712E+02  0.50528871417E+02  0.30000035158E+02 0.  0.
         12    1    1    2    0    0  0.39139272754E+02 -0.15950539212E+01  0.10896690712E+02  0.40659128583E+02  0.00000000000E+00 0. -1.
         11    1    3    3    0    0 -0.23054653867E+00 -0.18427047526E+01 -0.50262632895E+01  0.53583612633E+01  0.51100000000E-03 0. -1.
        -11    1    3    3    0    0 -0.59760725271E+01 -0.72520587254E+01 -0.47472130302E+01  0.10528144681E+02  0.51100000000E-03 0.  1.
        -12    1    3    3    0    0 -0.32932653688E+02  0.10689817399E+02 -0.11232143922E+01  0.34642365472E+02  0.00000000000E+00 0.  1.
</event>
<event>
 7    1  0.5121289E-013  0.5052885E+02  0.7816164E-02  0.1300439E+00
        -11   -1    0    0    0    0  0.00000000000E+00  0.00000000000E+00  0.45593999997E+02  0.45594000000E+02  0.51100000000E-03 0. -1.
         11   -1    0    0    0    0 -0.00000000000E+00 -0.00000000000E+00 -0.45593999997E+02  0.45594000000E+02  0.51100000000E-03 0.  1.
    9900012    2    1    2    0    0 -0.15870030170E+02 -0.14171934924E+02 -0.34647722496E+02  0.50528852551E+02  0.29999977815E+02 0.  0.
         12    1    1    2    0    0  0.15870030170E+02  0.14171934924E+02  0.34647722496E+02  0.40659147449E+02  0.00000000000E+00 0. -1.
         11    1    3    3    0    0 -0.44625530159E+01 -0.67282469604E+01 -0.13150113709E+02  0.15430786675E+02  0.51100000000E-03 0. -1.
        -11    1    3    3    0    0 -0.15880660169E+02 -0.87064543040E+01 -0.23803158314E+02  0.29909664992E+02  0.51100000000E-03 0.  1.
         12    1    3    3    0    0  0.44731830149E+01  0.12627663405E+01  0.23055495272E+01  0.51884008845E+01  0.00000000000E+00 0. -1.
</event>
<event>
 7    1  0.5121289E-013  0.5052887E+02  0.7816164E-02  0.1300439E+00
        -11   -1    0    0    0    0  0.00000000000E+00  0.00000000000E+00  0.45593999997E+02  0.45594000000E+02  0.51100000000E-03 0. -1.
         11   -1    0    0    0    0 -0.00000000000E+00 -0.00000000000E+00 -0.45593999997E+02  0.45594000000E+02  0.51100000000E-03 0.  1.
    9900012    2    1    2    0    0 -0.12294695473E+02  0.17759056583E+02 -0.34447370319E+02  0.50528868807E+02  0.30000027225E+02 0.  0.
         12    1    1    2    0    0  0.12294695473E+02 -0.17759056583E+02  0.34447370319E+02  0.40659131193E+02  0.00000000000E+00 0. -1.
         11    1    3    3    0    0  0.21447173148E+01 -0.44455876794E+01 -0.13891367138E+01  0.51276469502E+01  0.51100000000E-03 0. -1.
        -11    1    3    3    0    0 -0.61849403069E+01  0.39442128875E+01 -0.20448746576E+02  0.21724675802E+02  0.51100000000E-03 0.  1.
        -12    1    3    3    0    0 -0.82544724812E+01  0.18260431375E+02 -0.12609487029E+02  0.23676546055E+02  0.00000000000E+00 0.  1.
</event>
<event>
 7    1  0.5121289E-013  0.5052886E+02  0.7816164E-02  0.1300439E+00
        -11   -1    0    0    0    0  0.00000000000E+00  0.00000000000E+00  0.45593999997E+02  0.45594000000E+02  0.51100000000E-03 0.  1.
         11   -1    0    0    0    0 -0.00000000000E+00 -0.00000000000E+00 -0.45593999997E+02  0.45594000000E+02  0.51100000000E-03 0. -1.
    9900012    2    1    2    0    0 -0.30929077337E+02 -0.19334744426E+02  0.17964561076E+02  0.50528860541E+02  0.30000002100E+02 0.  0.
         12    1    1    2    0    0  0.30929077337E+02  0.19334744426E+02 -0.17964561076E+02  0.40659139459E+02  0.00000000000E+00 0. -1.
         11    1    3    3    0    0 -0.17592699213E+01 -0.27105343722E+01 -0.16084086203E+01  0.36095714135E+01  0.51100000000E-03 0. -1.
        -11    1    3    3    0    0  0.46656087709E+01 -0.26210314838E+01  0.55436608510E+01  0.77051857301E+01  0.51100000000E-03 0.  1.
        -12    1    3    3    0    0 -0.33835416187E+02 -0.14003178570E+02  0.14029308845E+02  0.39214103397E+02  0.00000000000E+00 0.  1.
</event>
<event>
 7    1  0.5121289E-013  0.5052887E+02  0.7816164E-02  0.1300439E+00
        -11   -1    0    0    0    0  0.00000000000E+00  0.00000000000E+00  0.45593999997E+02  0.45594000000E+02  0.51100000000E-03 0.  1.
         11   -1    0    0    0    0 -0.00000000000E+00 -0.00000000000E+00 -0.45593999997E+02  0.45594000000E+02  0.51100000000E-03 0. -1.
    9900012    2    1    2    0    0 -0.14621713211E+01  0.24975510049E+02  0.32050757705E+02  0.50528866750E+02  0.30000020974E+02 0.  0.
         12    1    1    2    0    0  0.14621713211E+01 -0.24975510049E+02 -0.32050757705E+02  0.40659133250E+02  0.00000000000E+00 0. -1.
         11    1    3    3    0    0  0.10010589657E+01  0.10928345382E+02  0.47547425282E+01  0.11959867416E+02  0.51100000000E-03 0. -1.
        -11    1    3    3    0    0 -0.59337680512E+01  0.19080532511E+02  0.15522387443E+02  0.25302585567E+02  0.51100000000E-03 0.  1.
         12    1    3    3    0    0  0.34705377644E+01 -0.50333678441E+01  0.11773627734E+02  0.13266413767E+02  0.00000000000E+00 0. -1.
</event>
<event>
 7    1  0.5121289E-013  0.5052883E+02  0.7816164E-02  0.1300439E+00
        -11   -1    0    0    0    0  0.00000000000E+00  0.00000000000E+00  0.45593999997E+02  0.45594000000E+02  0.51100000000E-03 0.  1.
         11   -1    0    0    0    0 -0.00000000000E+00 -0.00000000000E+00 -0.45593999997E+02  0.45594000000E+02  0.51100000000E-03 0. -1.
    9900012    2    1    2    0    0 -0.17016948783E+02 -0.21937984767E+02  0.29703810332E+02  0.50528830434E+02  0.29999910588E+02 0.  0.
         12    1    1    2    0    0  0.17016948783E+02  0.21937984767E+02 -0.29703810332E+02  0.40659169566E+02  0.00000000000E+00 0. -1.
         11    1    3    3    0    0 -0.13071245905E+02 -0.74575930639E+01  0.12701469541E+02  0.19692650725E+02  0.51100000000E-03 0.  1.
        -11    1    3    3    0    0 -0.10602998816E+02 -0.15174116980E+01  0.10059727266E+02  0.14694360655E+02  0.51100000000E-03 0. -1.
        -12    1    3    3    0    0  0.66572959372E+01 -0.12962980005E+02  0.69426135248E+01  0.16141819054E+02  0.00000000000E+00 0.  1.
</event>
<event>
 7    1  0.5121289E-013  0.5052886E+02  0.7816164E-02  0.1300439E+00
        -11   -1    0    0    0    0  0.00000000000E+00  0.00000000000E+00  0.45593999997E+02  0.45594000000E+02  0.51100000000E-03 0. -1.
         11   -1    0    0    0    0 -0.00000000000E+00 -0.00000000000E+00 -0.45593999997E+02  0.45594000000E+02  0.51100000000E-03 0.  1.
    9900012    2    1    2    0    0  0.24749784647E+02  0.26641319640E+02 -0.18189401172E+02  0.50528855060E+02  0.29999985441E+02 0.  0.
         12    1    1    2    0    0 -0.24749784647E+02 -0.26641319640E+02  0.18189401172E+02  0.40659144940E+02  0.00000000000E+00 0. -1.
         11    1    3    3    0    0  0.22972613415E+02  0.14123684732E+02 -0.36859467116E+01  0.27217744964E+02  0.51100000000E-03 0. -1.
        -11    1    3    3    0    0  0.39420637226E+01  0.13234875560E+01 -0.10388272599E+02  0.11189624370E+02  0.51100000000E-03 0.  1.
        -12    1    3    3    0    0 -0.21648924908E+01  0.11194147353E+02 -0.41151818615E+01  0.12121485726E+02  0.00000000000E+00 0.  1.
</event>
<event>
 7    1  0.5121289E-013  0.5052886E+02  0.7816164E-02  0.1300439E+00
        -11   -1    0    0    0    0  0.00000000000E+00  0.00000000000E+00  0.45593999997E+02  0.45594000000E+02  0.51100000000E-03 0.  1.
         11   -1    0    0    0    0 -0.00000000000E+00 -0.00000000000E+00 -0.45593999997E+02  0.45594000000E+02  0.51100000000E-03 0. -1.
    9900012    2    1    2    0    0 -0.20661646641E+02 -0.97420836358E+01  0.33635606299E+02  0.50528857773E+02  0.29999993687E+02 0.  0.
         12    1    1    2    0    0  0.20661646641E+02  0.97420836358E+01 -0.33635606299E+02  0.40659142227E+02  0.00000000000E+00 0. -1.
         11    1    3    3    0    0 -0.13163387306E+01  0.85554747552E+01  0.76502889890E+01  0.11552307900E+02  0.51100000000E-03 0. -1.
        -11    1    3    3    0    0 -0.14737817326E+02 -0.11361756532E+02  0.10429384267E+02  0.21332248534E+02  0.51100000000E-03 0.  1.
        -12    1    3    3    0    0 -0.46074905843E+01 -0.69358018587E+01  0.15555933043E+02  0.17644301339E+02  0.00000000000E+00 0.  1.
</event>
<event>
 7    1  0.5121289E-013  0.5052888E+02  0.7816164E-02  0.1300439E+00
        -11   -1    0    0    0    0  0.00000000000E+00  0.00000000000E+00  0.45593999997E+02  0.45594000000E+02  0.51100000000E-03 0.  1.
         11   -1    0    0    0    0 -0.00000000000E+00 -0.00000000000E+00 -0.45593999997E+02  0.45594000000E+02  0.51100000000E-03 0. -1.
    9900012    2    1    2    0    0 -0.12622197490E+02 -0.38366352723E+02  0.46762605908E+01  0.50528876745E+02  0.30000051354E+02 0.  0.
         12    1    1    2    0    0  0.12622197490E+02  0.38366352723E+02 -0.46762605908E+01  0.40659123255E+02  0.00000000000E+00 0. -1.
         11    1    3    3    0    0 -0.30945662070E+01 -0.85323928331E+00  0.92554825272E+00  0.33408078534E+01  0.51100000000E-03 0. -1.
        -11    1    3    3    0    0 -0.17057421724E+02 -0.35271849447E+02  0.29365483128E+01  0.39289722772E+02  0.51100000000E-03 0.  1.
         12    1    3    3    0    0  0.75297904406E+01 -0.22412639930E+01  0.81416402533E+00  0.78983461196E+01  0.00000000000E+00 0. -1.
</event>
<event>
 7    1  0.5121289E-013  0.5052886E+02  0.7816164E-02  0.1300439E+00
        -11   -1    0    0    0    0  0.00000000000E+00  0.00000000000E+00  0.45593999997E+02  0.45594000000E+02  0.51100000000E-03 0.  1.
         11   -1    0    0    0    0 -0.00000000000E+00 -0.00000000000E+00 -0.45593999997E+02  0.45594000000E+02  0.51100000000E-03 0. -1.
    9900012    2    1    2    0    0 -0.34206695695E+02  0.20918954686E+02 -0.67427536584E+01  0.50528862990E+02  0.30000009544E+02 0.  0.
         12    1    1    2    0    0  0.34206695695E+02 -0.20918954686E+02  0.67427536584E+01  0.40659137010E+02  0.00000000000E+00 0. -1.
         11    1    3    3    0    0 -0.24443825746E+02  0.47542212220E+01 -0.73536458350E+01  0.25964963776E+02  0.51100000000E-03 0. -1.
        -11    1    3    3    0    0 -0.70119148751E+01 -0.10192987366E+01  0.10054239895E+01  0.71565912130E+01  0.51100000000E-03 0.  1.
         12    1    3    3    0    0 -0.27509550732E+01  0.17184032201E+02 -0.39453181288E+00  0.17407308001E+02  0.00000000000E+00 0. -1.
</event>
<event>
 7    1  0.5121289E-013  0.5052886E+02  0.7816164E-02  0.1300439E+00
        -11   -1    0    0    0    0  0.00000000000E+00  0.00000000000E+00  0.45593999997E+02  0.45594000000E+02  0.51100000000E-03 0. -1.
         11   -1    0    0    0    0 -0.00000000000E+00 -0.00000000000E+00 -0.45593999997E+02  0.45594000000E+02  0.51100000000E-03 0.  1.
    9900012    2    1    2    0    0  0.62219015221E+01 -0.37559424132E+02 -0.14273859131E+02  0.50528862600E+02  0.30000008358E+02 0.  0.
         12    1    1    2    0    0 -0.62219015221E+01  0.37559424132E+02  0.14273859131E+02  0.40659137400E+02  0.00000000000E+00 0. -1.
         11    1    3    3    0    0  0.35494952709E+01 -0.97685613862E+01 -0.13372887382E+02  0.16936877676E+02  0.51100000000E-03 0. -1.
        -11    1    3    3    0    0  0.38781839683E+01 -0.23265360468E+01 -0.60808043511E+01  0.75782097283E+01  0.51100000000E-03 0.  1.
         12    1    3    3    0    0 -0.12057777171E+01 -0.25464326699E+02  0.51798326018E+01  0.26013775195E+02  0.00000000000E+00 0. -1.
</event>
<event>
 7    1  0.5121289E-013  0.5052887E+02  0.7816164E-02  0.1300439E+00
        -11   -1    0    0    0    0  0.00000000000E+00  0.00000000000E+00  0.45593999997E+02  0.45594000000E+02  0.51100000000E-03 0.  1.
         11   -1    0    0    0    0 -0.00000000000E+00 -0.00000000000E+00 -0.45593999997E+02  0.45594000000E+02  0.51100000000E-03 0. -1.
    9900012    2    1    2    0    0 -0.47235845829E+01 -0.18884919472E+02  0.35696115834E+02  0.50528866704E+02  0.30000020832E+02 0.  0.
         12    1    1    2    0    0  0.47235845829E+01  0.18884919472E+02 -0.35696115834E+02  0.40659133296E+02  0.00000000000E+00 0. -1.
         11    1    3    3    0    0 -0.52613095745E+01 -0.20471554837E+02  0.14138491723E+02  0.25429567128E+02  0.51100000000E-03 0. -1.
        -11    1    3    3    0    0 -0.14579067569E+01 -0.12737759382E+01 -0.10648790948E+01  0.22095169156E+01  0.51100000000E-03 0.  1.
        -12    1    3    3    0    0  0.19956317486E+01  0.28604113030E+01  0.22622503206E+02  0.22889782660E+02  0.00000000000E+00 0.  1.
</event>
<event>
 7    1  0.5121289E-013  0.5052886E+02  0.7816164E-02  0.1300439E+00
        -11   -1    0    0    0    0  0.00000000000E+00  0.00000000000E+00  0.45593999997E+02  0.45594000000E+02  0.51100000000E-03 0.  1.
         11   -1    0    0    0    0 -0.00000000000E+00 -0.00000000000E+00 -0.45593999997E+02  0.45594000000E+02  0.51100000000E-03 0. -1.
    9900012    2    1    2    0    0  0.18825999306E+02 -0.27774954212E+02  0.22963000128E+02  0.50528859499E+02  0.29999998934E+02 0.  0.
         12    1    1    2    0    0 -0.18825999306E+02  0.27774954212E+02 -0.22963000128E+02  0.40659140501E+02  0.00000000000E+00 0. -1.
         11    1    3    3    0    0  0.11062551938E+02 -0.82303830439E+01 -0.23807600450E+00  0.13790429322E+02  0.51100000000E-03 0. -1.
        -11    1    3    3    0    0  0.13257604205E+02 -0.11449116516E+02  0.19664406291E+02  0.26335056736E+02  0.51100000000E-03 0.  1.
         12    1    3    3    0    0 -0.54941568378E+01 -0.80954546524E+01  0.35366698416E+01  0.10403373441E+02  0.00000000000E+00 0. -1.
</event>
<event>
 7    1  0.5121289E-013  0.5052887E+02  0.7816164E-02  0.1300439E+00
        -11   -1    0    0    0    0  0.00000000000E+00  0.00000000000E+00  0.45593999997E+02  0.45594000000E+02  0.51100000000E-03 0.  1.
         11   -1    0    0    0    0 -0.00000000000E+00 -0.00000000000E+00 -0.45593999997E+02  0.45594000000E+02  0.51100000000E-03 0. -1.
    9900012    2    1    2    0    0 -0.27337031298E+02  0.29751214344E+02  0.45515305951E+01  0.50528874752E+02  0.30000045297E+02 0.  0.
         12    1    1    2    0    0  0.27337031298E+02 -0.29751214344E+02 -0.45515305951E+01  0.40659125248E+02  0.00000000000E+00 0. -1.
         11    1    3    3    0    0  0.30768247316E+01  0.47840003217E+01 -0.14434107201E+01  0.58682999476E+01  0.51100000000E-03 0. -1.
        -11    1    3    3    0    0 -0.36974205332E+01  0.15240490001E+02  0.42615680008E+00  0.15688373528E+02  0.51100000000E-03 0.  1.
        -12    1    3    3    0    0 -0.26716435497E+02  0.97267240215E+01  0.55687845152E+01  0.28972201277E+02  0.00000000000E+00 0.  1.
</event>
<event>
 7    1  0.5121289E-013  0.5052886E+02  0.7816164E-02  0.1300439E+00
        -11   -1    0    0    0    0  0.00000000000E+00  0.00000000000E+00  0.45593999997E+02  0.45594000000E+02  0.51100000000E-03 0.  1.
         11   -1    0    0    0    0 -0.00000000000E+00 -0.00000000000E+00 -0.45593999997E+02  0.45594000000E+02  0.51100000000E-03 0. -1.
    9900012    2    1    2    0    0  0.34118531094E+02 -0.55613859048E+01  0.21404725363E+02  0.50528862711E+02  0.30000008697E+02 0.  0.
         12    1    1    2    0    0 -0.34118531094E+02  0.55613859048E+01 -0.21404725363E+02  0.40659137289E+02  0.00000000000E+00 0. -1.
         11    1    3    3    0    0  0.24227078209E+02 -0.42067423323E+01  0.23631265542E+02  0.34104027783E+02  0.51100000000E-03 0. -1.
        -11    1    3    3    0    0  0.13322269642E+01 -0.55572279856E+00  0.49939251570E+01  0.51983598613E+01  0.51100000000E-03 0.  1.
         12    1    3    3    0    0  0.85592259207E+01 -0.79892077399E+00 -0.72204653362E+01  0.11226475067E+02  0.00000000000E+00 0. -1.
</event>
<event>
 7    1  0.5121289E-013  0.5052885E+02  0.7816164E-02  0.1300439E+00
        -11   -1    0    0    0    0  0.00000000000E+00  0.00000000000E+00  0.45593999997E+02  0.45594000000E+02  0.51100000000E-03 0.  1.
         11   -1    0    0    0    0 -0.00000000000E+00 -0.00000000000E+00 -0.45593999997E+02  0.45594000000E+02  0.51100000000E-03 0. -1.
    9900012    2    1    2    0    0  0.11832239034E+02 -0.24919666546E+02  0.29869290767E+02  0.50528853523E+02  0.29999980770E+02 0.  0.
         12    1    1    2    0    0 -0.11832239034E+02  0.24919666546E+02 -0.29869290767E+02  0.40659146477E+02  0.00000000000E+00 0. -1.
         11    1    3    3    0    0 -0.41225344544E+01 -0.12378843556E+01 -0.13327598240E+01  0.45059845777E+01  0.51100000000E-03 0. -1.
        -11    1    3    3    0    0  0.72696681942E+01 -0.16510361111E+02  0.70407238030E+01  0.19365223768E+02  0.51100000000E-03 0.  1.
         12    1    3    3    0    0  0.86851052943E+01 -0.71714210794E+01  0.24161326788E+02  0.26657645177E+02  0.00000000000E+00 0. -1.
</event>
<event>
 7    1  0.5121289E-013  0.5052889E+02  0.7816164E-02  0.1300439E+00
        -11   -1    0    0    0    0  0.00000000000E+00  0.00000000000E+00  0.45593999997E+02  0.45594000000E+02  0.51100000000E-03 0.  1.
         11   -1    0    0    0    0 -0.00000000000E+00 -0.00000000000E+00 -0.45593999997E+02  0.45594000000E+02  0.51100000000E-03 0. -1.
    9900012    2    1    2    0    0  0.33383852137E+02  0.23209454038E+02  0.55935754714E-01  0.50528887011E+02  0.30000082558E+02 0.  0.
         12    1    1    2    0    0 -0.33383852137E+02 -0.23209454038E+02 -0.55935754714E-01  0.40659112989E+02  0.00000000000E+00 0. -1.
         11    1    3    3    0    0  0.13608030778E+02  0.38955866307E+01 -0.46654780654E+01  0.14903717076E+02  0.51100000000E-03 0. -1.
        -11    1    3    3    0    0  0.24494934055E+02  0.15427688825E+02  0.22655132010E+01  0.29037009611E+02  0.51100000000E-03 0.  1.
        -12    1    3    3    0    0 -0.47191126950E+01  0.38861785824E+01  0.24559006191E+01  0.65881603238E+01  0.00000000000E+00 0.  1.
</event>
<event>
 7    1  0.5121289E-013  0.5052887E+02  0.7816164E-02  0.1300439E+00
        -11   -1    0    0    0    0  0.00000000000E+00  0.00000000000E+00  0.45593999997E+02  0.45594000000E+02  0.51100000000E-03 0.  1.
         11   -1    0    0    0    0 -0.00000000000E+00 -0.00000000000E+00 -0.45593999997E+02  0.45594000000E+02  0.51100000000E-03 0. -1.
    9900012    2    1    2    0    0  0.27759271573E+02 -0.13227174431E+02  0.26601314439E+02  0.50528865337E+02  0.30000016678E+02 0.  0.
         12    1    1    2    0    0 -0.27759271573E+02  0.13227174431E+02 -0.26601314439E+02  0.40659134663E+02  0.00000000000E+00 0. -1.
         11    1    3    3    0    0  0.70536017802E+01 -0.94986166211E+01  0.15184157087E+02  0.19249302390E+02  0.51100000000E-03 0. -1.
        -11    1    3    3    0    0  0.63055097355E+01 -0.58322656413E+01  0.14072135854E+02  0.16486351425E+02  0.51100000000E-03 0.  1.
         12    1    3    3    0    0  0.14400160057E+02  0.21037078317E+01 -0.26549785023E+01  0.14793211523E+02  0.00000000000E+00 0. -1.
</event>
<event>
 7    1  0.5121289E-013  0.5052886E+02  0.7816164E-02  0.1300439E+00
        -11   -1    0    0    0    0  0.00000000000E+00  0.00000000000E+00  0.45593999997E+02  0.45594000000E+02  0.51100000000E-03 0.  1.
         11   -1    0    0    0    0 -0.00000000000E+00 -0.00000000000E+00 -0.45593999997E+02  0.45594000000E+02  0.51100000000E-03 0. -1.
    9900012    2    1    2    0    0  0.81769543024E+01  0.36801766155E+02 -0.15229358982E+02  0.50528856517E+02  0.29999989868E+02 0.  0.
         12    1    1    2    0    0 -0.81769543024E+01 -0.36801766155E+02  0.15229358982E+02  0.40659143483E+02  0.00000000000E+00 0. -1.
         11    1    3    3    0    0  0.10680642976E+02  0.13971984256E+02 -0.10994213065E+02  0.20740424287E+02  0.51100000000E-03 0. -1.
        -11    1    3    3    0    0  0.60691102500E+01  0.19249801605E+02 -0.32891489808E+01  0.20450121329E+02  0.51100000000E-03 0.  1.
        -12    1    3    3    0    0 -0.85727989233E+01  0.35799802934E+01 -0.94599693702E+00  0.93383109011E+01  0.00000000000E+00 0.  1.
</event>
<event>
 7    1  0.5121289E-013  0.5052885E+02  0.7816164E-02  0.1300439E+00
        -11   -1    0    0    0    0  0.00000000000E+00  0.00000000000E+00  0.45593999997E+02  0.45594000000E+02  0.51100000000E-03 0.  1.
         11   -1    0    0    0    0 -0.00000000000E+00 -0.00000000000E+00 -0.45593999997E+02  0.45594000000E+02  0.51100000000E-03 0. -1.
    9900012    2    1    2    0    0 -0.11014877721E+02  0.38613493971E+02  0.63903948651E+01  0.50528848577E+02  0.29999965736E+02 0.  0.
         12    1    1    2    0    0  0.11014877721E+02 -0.38613493971E+02 -0.63903948651E+01  0.40659151423E+02  0.00000000000E+00 0. -1.
         11    1    3    3    0    0 -0.12402120644E+02  0.92549121525E+01 -0.71195279951E+00  0.15491057822E+02  0.51100000000E-03 0. -1.
        -11    1    3    3    0    0 -0.55951178201E+01  0.16256136017E+02  0.10031601051E+02  0.19904781374E+02  0.51100000000E-03 0.  1.
        -12    1    3    3    0    0  0.69823607427E+01  0.13102445802E+02 -0.29292533867E+01  0.15133009381E+02  0.00000000000E+00 0.  1.
</event>
<event>
 7    1  0.5121289E-013  0.5052887E+02  0.7816164E-02  0.1300439E+00
        -11   -1    0    0    0    0  0.00000000000E+00  0.00000000000E+00  0.45593999997E+02  0.45594000000E+02  0.51100000000E-03 0. -1.
         11   -1    0    0    0    0 -0.00000000000E+00 -0.00000000000E+00 -0.45593999997E+02  0.45594000000E+02  0.51100000000E-03 0.  1.
    9900012    2    1    2    0    0 -0.24587709221E+02  0.22090613883E+02 -0.23677296444E+02  0.50528867774E+02  0.30000024086E+02 0.  0.
         12    1    1    2    0    0  0.24587709221E+02 -0.22090613883E+02  0.23677296444E+02  0.40659132226E+02  0.00000000000E+00 0. -1.
         11    1    3    3    0    0  0.38797879007E+01  0.46662419732E+01 -0.10393466228E+02  0.12035394003E+02  0.51100000000E-03 0.  1.
        -11    1    3    3    0    0 -0.84955868936E+01 -0.12744211284E+01 -0.48436097979E+01  0.98620333611E+01  0.51100000000E-03 0. -1.
         12    1    3    3    0    0 -0.19971910228E+02  0.18698793039E+02 -0.84402204179E+01  0.28631440410E+02  0.00000000000E+00 0. -1.
</event>
<event>
 7    1  0.5121289E-013  0.5052887E+02  0.7816164E-02  0.1300439E+00
        -11   -1    0    0    0    0  0.00000000000E+00  0.00000000000E+00  0.45593999997E+02  0.45594000000E+02  0.51100000000E-03 0.  1.
         11   -1    0    0    0    0 -0.00000000000E+00 -0.00000000000E+00 -0.45593999997E+02  0.45594000000E+02  0.51100000000E-03 0. -1.
    9900012    2    1    2    0    0 -0.15701204993E+01  0.65486903304E+00  0.40623528514E+02  0.50528865716E+02  0.30000017830E+02 0.  0.
         12    1    1    2    0    0  0.15701204993E+01 -0.65486903304E+00 -0.40623528514E+02  0.40659134284E+02  0.00000000000E+00 0. -1.
         11    1    3    3    0    0  0.35853549301E+00  0.56023028264E+01  0.34711002679E+01  0.66002183289E+01  0.51100000000E-03 0. -1.
        -11    1    3    3    0    0 -0.16800667476E+01  0.17971046617E+01 -0.26163108603E+01  0.35912800254E+01  0.51100000000E-03 0.  1.
        -12    1    3    3    0    0 -0.24858924472E+00 -0.67445384550E+01  0.39768739106E+02  0.40337367362E+02  0.00000000000E+00 0.  1.
</event>
<event>
 7    1  0.5121289E-013  0.5052887E+02  0.7816164E-02  0.1300439E+00
        -11   -1    0    0    0    0  0.00000000000E+00  0.00000000000E+00  0.45593999997E+02  0.45594000000E+02  0.51100000000E-03 0.  1.
         11   -1    0    0    0    0 -0.00000000000E+00 -0.00000000000E+00 -0.45593999997E+02  0.45594000000E+02  0.51100000000E-03 0. -1.
    9900012    2    1    2    0    0  0.33721556598E+02  0.65238646331E+01  0.21759151155E+02  0.50528870052E+02  0.30000031011E+02 0.  0.
         12    1    1    2    0    0 -0.33721556598E+02 -0.65238646331E+01 -0.21759151155E+02  0.40659129948E+02  0.00000000000E+00 0. -1.
         11    1    3    3    0    0  0.57701349275E+01 -0.23644727968E+01 -0.18885954728E+01  0.65155185373E+01  0.51100000000E-03 0. -1.
        -11    1    3    3    0    0 -0.39703885345E+01  0.35046716635E+00  0.16317009375E+01  0.43068852504E+01  0.51100000000E-03 0.  1.
        -12    1    3    3    0    0  0.31921810205E+02  0.85378702635E+01  0.22016045691E+02  0.39706466265E+02  0.00000000000E+00 0.  1.
</event>
<event>
 7    1  0.5121289E-013  0.5052887E+02  0.7816164E-02  0.1300439E+00
        -11   -1    0    0    0    0  0.00000000000E+00  0.00000000000E+00  0.45593999997E+02  0.45594000000E+02  0.51100000000E-03 0. -1.
         11   -1    0    0    0    0 -0.00000000000E+00 -0.00000000000E+00 -0.45593999997E+02  0.45594000000E+02  0.51100000000E-03 0.  1.
    9900012    2    1    2    0    0  0.28647298960E+02  0.25721288571E+02  0.13073347314E+02  0.50528870233E+02  0.30000031559E+02 0.  0.
         12    1    1    2    0    0 -0.28647298960E+02 -0.25721288571E+02 -0.13073347314E+02  0.40659129767E+02  0.00000000000E+00 0. -1.
         11    1    3    3    0    0  0.56382588020E+01  0.10496763196E+02 -0.86624044641E+01  0.14731233868E+02  0.51100000000E-03 0. -1.
        -11    1    3    3    0    0  0.63239087582E+00  0.26775353677E+01  0.15805110004E+01  0.31728739572E+01  0.51100000000E-03 0.  1.
        -12    1    3    3    0    0  0.22376649282E+02  0.12546990007E+02  0.20155240778E+02  0.32624762408E+02  0.00000000000E+00 0.  1.
</event>
<event>
 7    1  0.5121289E-013  0.5052885E+02  0.7816164E-02  0.1300439E+00
        -11   -1    0    0    0    0  0.00000000000E+00  0.00000000000E+00  0.45593999997E+02  0.45594000000E+02  0.51100000000E-03 0.  1.
         11   -1    0    0    0    0 -0.00000000000E+00 -0.00000000000E+00 -0.45593999997E+02  0.45594000000E+02  0.51100000000E-03 0. -1.
    9900012    2    1    2    0    0  0.61729011437E+01 -0.31453349902E+02  0.25014965413E+02  0.50528850683E+02  0.29999972136E+02 0.  0.
         12    1    1    2    0    0 -0.61729011437E+01  0.31453349902E+02 -0.25014965413E+02  0.40659149317E+02  0.00000000000E+00 0. -1.
         11    1    3    3    0    0 -0.63495579682E+01 -0.21646124775E+01  0.11369106664E+01  0.68040428933E+01  0.51100000000E-03 0. -1.
        -11    1    3    3    0    0 -0.16326155096E+01 -0.16149864009E+02  0.16224900160E+02  0.22950619303E+02  0.51100000000E-03 0.  1.
         12    1    3    3    0    0  0.14155074622E+02 -0.13138873415E+02  0.76531545869E+01  0.20774188487E+02  0.00000000000E+00 0. -1.
</event>
<event>
 7    1  0.5121289E-013  0.5052888E+02  0.7816164E-02  0.1300439E+00
        -11   -1    0    0    0    0  0.00000000000E+00  0.00000000000E+00  0.45593999997E+02  0.45594000000E+02  0.51100000000E-03 0.  1.
         11   -1    0    0    0    0 -0.00000000000E+00 -0.00000000000E+00 -0.45593999997E+02  0.45594000000E+02  0.51100000000E-03 0. -1.
    9900012    2    1    2    0    0 -0.58755904195E+01  0.10634784798E+02  0.38801320315E+02  0.50528884556E+02  0.30000075096E+02 0.  0.
         12    1    1    2    0    0  0.58755904195E+01 -0.10634784798E+02 -0.38801320315E+02  0.40659115444E+02  0.00000000000E+00 0. -1.
         11    1    3    3    0    0  0.50291898340E+01  0.95417816121E+01  0.49729772382E+01  0.11877240824E+02  0.51100000000E-03 0. -1.
        -11    1    3    3    0    0  0.14258348466E+01  0.41887177077E+01  0.31155587497E+01  0.54115679455E+01  0.51100000000E-03 0.  1.
         12    1    3    3    0    0 -0.12330615100E+02 -0.30957145219E+01  0.30712784328E+02  0.33240075787E+02  0.00000000000E+00 0. -1.
</event>
<event>
 7    1  0.5121289E-013  0.5052886E+02  0.7816164E-02  0.1300439E+00
        -11   -1    0    0    0    0  0.00000000000E+00  0.00000000000E+00  0.45593999997E+02  0.45594000000E+02  0.51100000000E-03 0.  1.
         11   -1    0    0    0    0 -0.00000000000E+00 -0.00000000000E+00 -0.45593999997E+02  0.45594000000E+02  0.51100000000E-03 0. -1.
    9900012    2    1    2    0    0 -0.12278649593E+02  0.38306529507E+02 -0.59169395647E+01  0.50528860652E+02  0.30000002438E+02 0.  0.
         12    1    1    2    0    0  0.12278649593E+02 -0.38306529507E+02  0.59169395647E+01  0.40659139348E+02  0.00000000000E+00 0. -1.
         11    1    3    3    0    0 -0.95236580683E+01  0.58709875537E+01 -0.39005797656E+01  0.11848336619E+02  0.51100000000E-03 0. -1.
        -11    1    3    3    0    0  0.43659367594E+01 -0.93158690739E+00  0.36427453345E+00  0.44790572836E+01  0.51100000000E-03 0.  1.
        -12    1    3    3    0    0 -0.71209282837E+01  0.33367128861E+02 -0.23806343326E+01  0.34201466750E+02  0.00000000000E+00 0.  1.
</event>
<event>
 7    1  0.5121289E-013  0.5052886E+02  0.7816164E-02  0.1300439E+00
        -11   -1    0    0    0    0  0.00000000000E+00  0.00000000000E+00  0.45593999997E+02  0.45594000000E+02  0.51100000000E-03 0. -1.
         11   -1    0    0    0    0 -0.00000000000E+00 -0.00000000000E+00 -0.45593999997E+02  0.45594000000E+02  0.51100000000E-03 0.  1.
    9900012    2    1    2    0    0 -0.16014934108E+02 -0.42292515027E+01 -0.37132212596E+02  0.50528857178E+02  0.29999991877E+02 0.  0.
         12    1    1    2    0    0  0.16014934108E+02  0.42292515027E+01  0.37132212596E+02  0.40659142822E+02  0.00000000000E+00 0. -1.
         11    1    3    3    0    0 -0.79341973976E+01  0.11496527611E+01  0.56901017684E+00  0.80372235665E+01  0.51100000000E-03 0. -1.
        -11    1    3    3    0    0 -0.67907218768E+01  0.48505869804E+01 -0.10569472852E+02  0.13466842774E+02  0.51100000000E-03 0.  1.
        -12    1    3    3    0    0 -0.12900148333E+01 -0.10229491244E+02 -0.27131749921E+02  0.29024790838E+02  0.00000000000E+00 0.  1.
</event>
<event>
 7    1  0.5121289E-013  0.5052886E+02  0.7816164E-02  0.1300439E+00
        -11   -1    0    0    0    0  0.00000000000E+00  0.00000000000E+00  0.45593999997E+02  0.45594000000E+02  0.51100000000E-03 0. -1.
         11   -1    0    0    0    0 -0.00000000000E+00 -0.00000000000E+00 -0.45593999997E+02  0.45594000000E+02  0.51100000000E-03 0.  1.
    9900012    2    1    2    0    0 -0.27482662230E+02  0.27295914860E+02 -0.12361308665E+02  0.50528860274E+02  0.30000001289E+02 0.  0.
         12    1    1    2    0    0  0.27482662230E+02 -0.27295914860E+02  0.12361308665E+02  0.40659139726E+02  0.00000000000E+00 0. -1.
         11    1    3    3    0    0 -0.28595626532E+01 -0.37839136964E+01  0.46176808967E-03  0.47429001574E+01  0.51100000000E-03 0. -1.
        -11    1    3    3    0    0 -0.23716784313E+00 -0.11010869269E+01 -0.45155154348E+01  0.46538716043E+01  0.51100000000E-03 0.  1.
        -12    1    3    3    0    0 -0.24385931734E+02  0.32180915484E+02 -0.78462549988E+01  0.41132088512E+02  0.00000000000E+00 0.  1.
</event>
<event>
 7    1  0.5121289E-013  0.5052885E+02  0.7816164E-02  0.1300439E+00
        -11   -1    0    0    0    0  0.00000000000E+00  0.00000000000E+00  0.45593999997E+02  0.45594000000E+02  0.51100000000E-03 0.  1.
         11   -1    0    0    0    0 -0.00000000000E+00 -0.00000000000E+00 -0.45593999997E+02  0.45594000000E+02  0.51100000000E-03 0. -1.
    9900012    2    1    2    0    0 -0.12580820769E+02  0.28402796348E+02  0.26233005695E+02  0.50528849992E+02  0.29999970035E+02 0.  0.
         12    1    1    2    0    0  0.12580820769E+02 -0.28402796348E+02 -0.26233005695E+02  0.40659150008E+02  0.00000000000E+00 0. -1.
         11    1    3    3    0    0  0.55438906955E+01  0.65634210365E+01  0.24579512943E+01  0.89361481955E+01  0.51100000000E-03 0. -1.
        -11    1    3    3    0    0 -0.11334692546E+02  0.24292070327E+02  0.20005021025E+02  0.33448180853E+02  0.51100000000E-03 0.  1.
        -12    1    3    3    0    0 -0.67900189183E+01 -0.24526950152E+01  0.37700333755E+01  0.81445209436E+01  0.00000000000E+00 0.  1.
</event>
<event>
 7    1  0.5121289E-013  0.5052887E+02  0.7816164E-02  0.1300439E+00
        -11   -1    0    0    0    0  0.00000000000E+00  0.00000000000E+00  0.45593999997E+02  0.45594000000E+02  0.51100000000E-03 0.  1.
         11   -1    0    0    0    0 -0.00000000000E+00 -0.00000000000E+00 -0.45593999997E+02  0.45594000000E+02  0.51100000000E-03 0. -1.
    9900012    2    1    2    0    0  0.39151486063E+02  0.92197107084E+01  0.59433237572E+01  0.50528867892E+02  0.30000024444E+02 0.  0.
         12    1    1    2    0    0 -0.39151486063E+02 -0.92197107084E+01 -0.59433237572E+01  0.40659132108E+02  0.00000000000E+00 0. -1.
         11    1    3    3    0    0  0.11472236222E+02  0.11161728805E+02  0.10033735850E+02  0.18891062681E+02  0.51100000000E-03 0.  1.
        -11    1    3    3    0    0  0.97308041013E+01 -0.75872016801E+00 -0.86936472631E+01  0.13070719481E+02  0.51100000000E-03 0. -1.
        -12    1    3    3    0    0  0.17948445740E+02 -0.11832979286E+01  0.46032351704E+01  0.18567085730E+02  0.00000000000E+00 0.  1.
</event>
<event>
 7    1  0.5121289E-013  0.5052886E+02  0.7816164E-02  0.1300439E+00
        -11   -1    0    0    0    0  0.00000000000E+00  0.00000000000E+00  0.45593999997E+02  0.45594000000E+02  0.51100000000E-03 0.  1.
         11   -1    0    0    0    0 -0.00000000000E+00 -0.00000000000E+00 -0.45593999997E+02  0.45594000000E+02  0.51100000000E-03 0. -1.
    9900012    2    1    2    0    0  0.37852375822E+02  0.13713654303E+02  0.56832285445E+01  0.50528858882E+02  0.29999997059E+02 0.  0.
         12    1    1    2    0    0 -0.37852375822E+02 -0.13713654303E+02 -0.56832285445E+01  0.40659141118E+02  0.00000000000E+00 0. -1.
         11    1    3    3    0    0  0.80451603284E+01 -0.23034618084E+01  0.24012228390E+00  0.83718695632E+01  0.51100000000E-03 0. -1.
        -11    1    3    3    0    0  0.28655488292E+02  0.89148180342E+01  0.12097221364E+02  0.32356664767E+02  0.51100000000E-03 0.  1.
         12    1    3    3    0    0  0.11517272018E+01  0.71022980767E+01 -0.66541151033E+01  0.98003245521E+01  0.00000000000E+00 0. -1.
</event>
<event>
 7    1  0.5121289E-013  0.5052886E+02  0.7816164E-02  0.1300439E+00
        -11   -1    0    0    0    0  0.00000000000E+00  0.00000000000E+00  0.45593999997E+02  0.45594000000E+02  0.51100000000E-03 0.  1.
         11   -1    0    0    0    0 -0.00000000000E+00 -0.00000000000E+00 -0.45593999997E+02  0.45594000000E+02  0.51100000000E-03 0. -1.
    9900012    2    1    2    0    0 -0.36738242225E+02 -0.13694529534E+02  0.10766953405E+02  0.50528857528E+02  0.29999992941E+02 0.  0.
         12    1    1    2    0    0  0.36738242225E+02  0.13694529534E+02 -0.10766953405E+02  0.40659142472E+02  0.00000000000E+00 0. -1.
         11    1    3    3    0    0 -0.42377852800E+00 -0.64149203536E+01 -0.15739429765E+01  0.66187678716E+01  0.51100000000E-03 0. -1.
        -11    1    3    3    0    0 -0.23893462050E+01  0.28794656317E+01 -0.34922588037E+01  0.51182193608E+01  0.51100000000E-03 0.  1.
        -12    1    3    3    0    0 -0.33925117492E+02 -0.10159074812E+02  0.15833155185E+02  0.38791870295E+02  0.00000000000E+00 0.  1.
</event>
<event>
 7    1  0.5121289E-013  0.5052883E+02  0.7816164E-02  0.1300439E+00
        -11   -1    0    0    0    0  0.00000000000E+00  0.00000000000E+00  0.45593999997E+02  0.45594000000E+02  0.51100000000E-03 0.  1.
         11   -1    0    0    0    0 -0.00000000000E+00 -0.00000000000E+00 -0.45593999997E+02  0.45594000000E+02  0.51100000000E-03 0. -1.
    9900012    2    1    2    0    0  0.18431468427E+02  0.76805757241E+01  0.35418323547E+02  0.50528832341E+02  0.29999916385E+02 0.  0.
         12    1    1    2    0    0 -0.18431468427E+02 -0.76805757241E+01 -0.35418323547E+02  0.40659167659E+02  0.00000000000E+00 0. -1.
         11    1    3    3    0    0 -0.27559483571E+01  0.44339330215E+01 -0.16461375112E+00  0.52232280569E+01  0.51100000000E-03 0. -1.
        -11    1    3    3    0    0  0.16380505105E+02  0.38991285401E+01  0.10691180970E+02  0.19945563458E+02  0.51100000000E-03 0.  1.
        -12    1    3    3    0    0  0.48069116797E+01 -0.65248583750E+00  0.24891756328E+02  0.25360040827E+02  0.00000000000E+00 0.  1.
</event>
<event>
 7    1  0.5121289E-013  0.5052885E+02  0.7816164E-02  0.1300439E+00
        -11   -1    0    0    0    0  0.00000000000E+00  0.00000000000E+00  0.45593999997E+02  0.45594000000E+02  0.51100000000E-03 0. -1.
         11   -1    0    0    0    0 -0.00000000000E+00 -0.00000000000E+00 -0.45593999997E+02  0.45594000000E+02  0.51100000000E-03 0.  1.
    9900012    2    1    2    0    0  0.26710606502E+02  0.24394981111E+02 -0.18563268756E+02  0.50528849123E+02  0.29999967393E+02 0.  0.
         12    1    1    2    0    0 -0.26710606502E+02 -0.24394981111E+02  0.18563268756E+02  0.40659150877E+02  0.00000000000E+00 0. -1.
         11    1    3    3    0    0  0.93201682952E+01  0.13709567380E+02 -0.45709308929E+00  0.16583929243E+02  0.51100000000E-03 0.  1.
        -11    1    3    3    0    0  0.46639881922E+01 -0.52863590007E+01 -0.65110921857E+00  0.70797119162E+01  0.51100000000E-03 0. -1.
         12    1    3    3    0    0  0.12726450015E+02  0.15971772733E+02 -0.17455066448E+02  0.26865207963E+02  0.00000000000E+00 0. -1.
</event>
<event>
 7    1  0.5121289E-013  0.5052887E+02  0.7816164E-02  0.1300439E+00
        -11   -1    0    0    0    0  0.00000000000E+00  0.00000000000E+00  0.45593999997E+02  0.45594000000E+02  0.51100000000E-03 0.  1.
         11   -1    0    0    0    0 -0.00000000000E+00 -0.00000000000E+00 -0.45593999997E+02  0.45594000000E+02  0.51100000000E-03 0. -1.
    9900012    2    1    2    0    0  0.24325628959E+02 -0.87063559128E+01  0.31394714164E+02  0.50528868984E+02  0.30000027764E+02 0.  0.
         12    1    1    2    0    0 -0.24325628959E+02  0.87063559128E+01 -0.31394714164E+02  0.40659131016E+02  0.00000000000E+00 0. -1.
         11    1    3    3    0    0  0.70852796515E+01 -0.50314628410E+00  0.24234150864E+00  0.71072549969E+01  0.51100000000E-03 0. -1.
        -11    1    3    3    0    0  0.20483497364E+02 -0.95640540591E+01  0.15575268868E+02  0.27452391424E+02  0.51100000000E-03 0.  1.
         12    1    3    3    0    0 -0.32431480569E+01  0.13608444304E+01  0.15577103787E+02  0.15969222563E+02  0.00000000000E+00 0. -1.
</event>
<event>
 7    1  0.5121289E-013  0.5052886E+02  0.7816164E-02  0.1300439E+00
        -11   -1    0    0    0    0  0.00000000000E+00  0.00000000000E+00  0.45593999997E+02  0.45594000000E+02  0.51100000000E-03 0. -1.
         11   -1    0    0    0    0 -0.00000000000E+00 -0.00000000000E+00 -0.45593999997E+02  0.45594000000E+02  0.51100000000E-03 0.  1.
    9900012    2    1    2    0    0 -0.11375072011E+02  0.27650060433E+02 -0.27554451807E+02  0.50528856875E+02  0.29999990959E+02 0.  0.
         12    1    1    2    0    0  0.11375072011E+02 -0.27650060433E+02  0.27554451807E+02  0.40659143125E+02  0.00000000000E+00 0. -1.
         11    1    3    3    0    0 -0.13076691818E+01 -0.40096841458E+01 -0.37586773399E+01  0.56493558257E+01  0.51100000000E-03 0. -1.
        -11    1    3    3    0    0 -0.70604081523E+01  0.86818310985E+00 -0.44175333360E+01  0.83736316032E+01  0.51100000000E-03 0.  1.
         12    1    3    3    0    0 -0.30069946764E+01  0.30791561469E+02 -0.19378241132E+02  0.36505869447E+02  0.00000000000E+00 0. -1.
</event>
<event>
 7    1  0.5121289E-013  0.5052886E+02  0.7816164E-02  0.1300439E+00
        -11   -1    0    0    0    0  0.00000000000E+00  0.00000000000E+00  0.45593999997E+02  0.45594000000E+02  0.51100000000E-03 0.  1.
         11   -1    0    0    0    0 -0.00000000000E+00 -0.00000000000E+00 -0.45593999997E+02  0.45594000000E+02  0.51100000000E-03 0. -1.
    9900012    2    1    2    0    0 -0.33561715806E+02 -0.11792833524E+02  0.19690248356E+02  0.50528861167E+02  0.30000004002E+02 0.  0.
         12    1    1    2    0    0  0.33561715806E+02  0.11792833524E+02 -0.19690248356E+02  0.40659138833E+02  0.00000000000E+00 0. -1.
         11    1    3    3    0    0 -0.42740352299E+01 -0.31118664015E+01  0.86666809428E-01  0.52875893415E+01  0.51100000000E-03 0. -1.
        -11    1    3    3    0    0 -0.14132016602E+02 -0.10969454342E+02  0.23395689142E+02  0.29451673849E+02  0.51100000000E-03 0.  1.
        -12    1    3    3    0    0 -0.15155663974E+02  0.22884872201E+01 -0.37921075955E+01  0.15789597976E+02  0.00000000000E+00 0.  1.
</event>
<event>
 7    1  0.5121289E-013  0.5052886E+02  0.7816164E-02  0.1300439E+00
        -11   -1    0    0    0    0  0.00000000000E+00  0.00000000000E+00  0.45593999997E+02  0.45594000000E+02  0.51100000000E-03 0.  1.
         11   -1    0    0    0    0 -0.00000000000E+00 -0.00000000000E+00 -0.45593999997E+02  0.45594000000E+02  0.51100000000E-03 0. -1.
    9900012    2    1    2    0    0  0.82129450047E+01  0.16936771556E+02  0.36039682476E+02  0.50528863150E+02  0.30000010032E+02 0.  0.
         12    1    1    2    0    0 -0.82129450047E+01 -0.16936771556E+02 -0.36039682476E+02  0.40659136850E+02  0.00000000000E+00 0. -1.
         11    1    3    3    0    0 -0.27072073526E+01  0.14591676627E+02  0.23465388759E+02  0.27764554171E+02  0.51100000000E-03 0. -1.
        -11    1    3    3    0    0 -0.38703520214E+01  0.13146505056E+01  0.35015313719E+01  0.53822535179E+01  0.51100000000E-03 0.  1.
         12    1    3    3    0    0  0.14790504379E+02  0.10304444228E+01  0.90727623448E+01  0.17382055461E+02  0.00000000000E+00 0. -1.
</event>
<event>
 7    1  0.5121289E-013  0.5052886E+02  0.7816164E-02  0.1300439E+00
        -11   -1    0    0    0    0  0.00000000000E+00  0.00000000000E+00  0.45593999997E+02  0.45594000000E+02  0.51100000000E-03 0.  1.
         11   -1    0    0    0    0 -0.00000000000E+00 -0.00000000000E+00 -0.45593999997E+02  0.45594000000E+02  0.51100000000E-03 0. -1.
    9900012    2    1    2    0    0  0.76612666867E+01 -0.22043401125E+02  0.33295036061E+02  0.50528856297E+02  0.29999989200E+02 0.  0.
         12    1    1    2    0    0 -0.76612666867E+01  0.22043401125E+02 -0.33295036061E+02  0.40659143703E+02  0.00000000000E+00 0. -1.
         11    1    3    3    0    0  0.87603588378E+01 -0.78163491793E+01  0.26453603743E+01  0.12034830004E+02  0.51100000000E-03 0. -1.
        -11    1    3    3    0    0  0.29804722965E+01 -0.91398942689E+01  0.29777961659E+01  0.10064201539E+02  0.51100000000E-03 0.  1.
        -12    1    3    3    0    0 -0.40795644476E+01 -0.50871576764E+01  0.27671879521E+02  0.28429824753E+02  0.00000000000E+00 0.  1.
</event>
<event>
 7    1  0.5121289E-013  0.5052886E+02  0.7816164E-02  0.1300439E+00
        -11   -1    0    0    0    0  0.00000000000E+00  0.00000000000E+00  0.45593999997E+02  0.45594000000E+02  0.51100000000E-03 0.  1.
         11   -1    0    0    0    0 -0.00000000000E+00 -0.00000000000E+00 -0.45593999997E+02  0.45594000000E+02  0.51100000000E-03 0. -1.
    9900012    2    1    2    0    0  0.13569538161E+02 -0.37887844868E+02  0.57917691157E+01  0.50528859034E+02  0.29999997519E+02 0.  0.
         12    1    1    2    0    0 -0.13569538161E+02  0.37887844868E+02 -0.57917691157E+01  0.40659140966E+02  0.00000000000E+00 0. -1.
         11    1    3    3    0    0 -0.16378882490E+01 -0.79077954794E+00  0.48240964537E+01  0.51555714586E+01  0.51100000000E-03 0. -1.
        -11    1    3    3    0    0  0.78405919906E+01 -0.11485683780E+02  0.10116204592E+02  0.17196901182E+02  0.51100000000E-03 0.  1.
         12    1    3    3    0    0  0.73668344194E+01 -0.25611381539E+02 -0.91485319295E+01  0.28176386393E+02  0.00000000000E+00 0. -1.
</event>
<event>
 7    1  0.5121289E-013  0.5052886E+02  0.7816164E-02  0.1300439E+00
        -11   -1    0    0    0    0  0.00000000000E+00  0.00000000000E+00  0.45593999997E+02  0.45594000000E+02  0.51100000000E-03 0.  1.
         11   -1    0    0    0    0 -0.00000000000E+00 -0.00000000000E+00 -0.45593999997E+02  0.45594000000E+02  0.51100000000E-03 0. -1.
    9900012    2    1    2    0    0  0.23637305538E+02 -0.29397854048E+02  0.15172655332E+02  0.50528861968E+02  0.30000006437E+02 0.  0.
         12    1    1    2    0    0 -0.23637305538E+02  0.29397854048E+02 -0.15172655332E+02  0.40659138032E+02  0.00000000000E+00 0. -1.
         11    1    3    3    0    0  0.14022948138E+02 -0.20339046649E+02  0.37202754730E+01  0.24983201215E+02  0.51100000000E-03 0. -1.
        -11    1    3    3    0    0  0.66040094300E+01 -0.12033331684E+02  0.42376120130E+00  0.13732937988E+02  0.51100000000E-03 0.  1.
         12    1    3    3    0    0  0.30103479700E+01  0.29745242855E+01  0.11028618657E+02  0.11812722765E+02  0.00000000000E+00 0. -1.
</event>
<event>
 7    1  0.5121289E-013  0.5052886E+02  0.7816164E-02  0.1300439E+00
        -11   -1    0    0    0    0  0.00000000000E+00  0.00000000000E+00  0.45593999997E+02  0.45594000000E+02  0.51100000000E-03 0.  1.
         11   -1    0    0    0    0 -0.00000000000E+00 -0.00000000000E+00 -0.45593999997E+02  0.45594000000E+02  0.51100000000E-03 0. -1.
    9900012    2    1    2    0    0 -0.13842393823E+02 -0.24983293079E+02  0.28937668393E+02  0.50528862628E+02  0.30000008444E+02 0.  0.
         12    1    1    2    0    0  0.13842393823E+02  0.24983293079E+02 -0.28937668393E+02  0.40659137372E+02  0.00000000000E+00 0. -1.
         11    1    3    3    0    0 -0.58441456662E+01 -0.10616593633E+02  0.87661944906E+01  0.14957013908E+02  0.51100000000E-03 0. -1.
        -11    1    3    3    0    0 -0.10601906367E+02 -0.20147627818E+02  0.14017053726E+02  0.26735839630E+02  0.51100000000E-03 0.  1.
         12    1    3    3    0    0  0.26036582107E+01  0.57809283726E+01  0.61544201760E+01  0.88360090895E+01  0.00000000000E+00 0. -1.
</event>
<event>
 7    1  0.5121289E-013  0.5052886E+02  0.7816164E-02  0.1300439E+00
        -11   -1    0    0    0    0  0.00000000000E+00  0.00000000000E+00  0.45593999997E+02  0.45594000000E+02  0.51100000000E-03 0.  1.
         11   -1    0    0    0    0 -0.00000000000E+00 -0.00000000000E+00 -0.45593999997E+02  0.45594000000E+02  0.51100000000E-03 0. -1.
    9900012    2    1    2    0    0  0.11733493389E+02 -0.14068314432E+02  0.36298397418E+02  0.50528855971E+02  0.29999988209E+02 0.  0.
         12    1    1    2    0    0 -0.11733493389E+02  0.14068314432E+02 -0.36298397418E+02  0.40659144029E+02  0.00000000000E+00 0. -1.
         11    1    3    3    0    0 -0.23050586764E+01  0.19295189674E+01 -0.13702847888E+01  0.33036373304E+01  0.51100000000E-03 0. -1.
        -11    1    3    3    0    0  0.38615040832E+01  0.42928571197E+01  0.71622027136E+01  0.91998360858E+01  0.51100000000E-03 0.  1.
        -12    1    3    3    0    0  0.10177047983E+02 -0.20290690519E+02  0.30506479493E+02  0.38025382555E+02  0.00000000000E+00 0.  1.
</event>
<event>
 7    1  0.5121289E-013  0.5052887E+02  0.7816164E-02  0.1300439E+00
        -11   -1    0    0    0    0  0.00000000000E+00  0.00000000000E+00  0.45593999997E+02  0.45594000000E+02  0.51100000000E-03 0. -1.
         11   -1    0    0    0    0 -0.00000000000E+00 -0.00000000000E+00 -0.45593999997E+02  0.45594000000E+02  0.51100000000E-03 0.  1.
    9900012    2    1    2    0    0  0.11556375524E+02 -0.29677077937E+02 -0.25276201898E+02  0.50528866309E+02  0.30000019633E+02 0.  0.
         12    1    1    2    0    0 -0.11556375524E+02  0.29677077937E+02  0.25276201898E+02  0.40659133691E+02  0.00000000000E+00 0. -1.
         11    1    3    3    0    0 -0.11437342047E+00 -0.57863005380E+01 -0.68752442649E+01  0.89868425578E+01  0.51100000000E-03 0. -1.
        -11    1    3    3    0    0  0.37893689809E+01 -0.11468684290E+02 -0.23126170581E+02  0.26090415915E+02  0.51100000000E-03 0.  1.
         12    1    3    3    0    0  0.78813799637E+01 -0.12422093108E+02  0.47252129480E+01  0.15451607836E+02  0.00000000000E+00 0. -1.
</event>
<event>
 7    1  0.5121289E-013  0.5052886E+02  0.7816164E-02  0.1300439E+00
        -11   -1    0    0    0    0  0.00000000000E+00  0.00000000000E+00  0.45593999997E+02  0.45594000000E+02  0.51100000000E-03 0.  1.
         11   -1    0    0    0    0 -0.00000000000E+00 -0.00000000000E+00 -0.45593999997E+02  0.45594000000E+02  0.51100000000E-03 0. -1.
    9900012    2    1    2    0    0  0.23956118972E+02  0.71101591236E+01  0.32073594868E+02  0.50528862199E+02  0.30000007141E+02 0.  0.
         12    1    1    2    0    0 -0.23956118972E+02 -0.71101591236E+01 -0.32073594868E+02  0.40659137801E+02  0.00000000000E+00 0. -1.
         11    1    3    3    0    0  0.79005364080E+01 -0.15288640702E+01  0.11585848037E+02  0.14106302701E+02  0.51100000000E-03 0. -1.
        -11    1    3    3    0    0  0.98572938162E+01 -0.75250568995E+01  0.11518065298E+02  0.16925086445E+02  0.51100000000E-03 0.  1.
         12    1    3    3    0    0  0.61982887478E+01  0.16164080093E+02  0.89696815327E+01  0.19497473053E+02  0.00000000000E+00 0. -1.
</event>
<event>
 7    1  0.5121289E-013  0.5052886E+02  0.7816164E-02  0.1300439E+00
        -11   -1    0    0    0    0  0.00000000000E+00  0.00000000000E+00  0.45593999997E+02  0.45594000000E+02  0.51100000000E-03 0. -1.
         11   -1    0    0    0    0 -0.00000000000E+00 -0.00000000000E+00 -0.45593999997E+02  0.45594000000E+02  0.51100000000E-03 0.  1.
    9900012    2    1    2    0    0  0.31572153142E+02 -0.17877087675E+02 -0.18351419724E+02  0.50528859286E+02  0.29999998285E+02 0.  0.
         12    1    1    2    0    0 -0.31572153142E+02  0.17877087675E+02  0.18351419724E+02  0.40659140714E+02  0.00000000000E+00 0. -1.
         11    1    3    3    0    0  0.62381963782E+01  0.23997076209E+00 -0.16042103728E+01  0.64456319473E+01  0.51100000000E-03 0. -1.
        -11    1    3    3    0    0  0.14178542138E+02  0.48967562567E+01 -0.40918767140E+01  0.15548399735E+02  0.51100000000E-03 0.  1.
        -12    1    3    3    0    0  0.11155414625E+02 -0.23013814694E+02 -0.12655332637E+02  0.28534827604E+02  0.00000000000E+00 0.  1.
</event>
<event>
 7    1  0.5121289E-013  0.5052888E+02  0.7816164E-02  0.1300439E+00
        -11   -1    0    0    0    0  0.00000000000E+00  0.00000000000E+00  0.45593999997E+02  0.45594000000E+02  0.51100000000E-03 0.  1.
         11   -1    0    0    0    0 -0.00000000000E+00 -0.00000000000E+00 -0.45593999997E+02  0.45594000000E+02  0.51100000000E-03 0. -1.
    9900012    2    1    2    0    0  0.38951945701E+02  0.17296135085E+01 -0.11529018046E+02  0.50528881787E+02  0.30000066679E+02 0.  0.
         12    1    1    2    0    0 -0.38951945701E+02 -0.17296135085E+01  0.11529018046E+02  0.40659118213E+02  0.00000000000E+00 0. -1.
         11    1    3    3    0    0  0.62787888539E+01 -0.26499236664E+01 -0.40974250179E-01  0.68152009552E+01  0.51100000000E-03 0. -1.
        -11    1    3    3    0    0  0.17040628165E+02  0.77520114456E+01  0.63386270309E+01  0.19764991339E+02  0.51100000000E-03 0.  1.
        -12    1    3    3    0    0  0.15632528682E+02 -0.33724742706E+01 -0.17826670826E+02  0.23948689493E+02  0.00000000000E+00 0.  1.
</event>
<event>
 7    1  0.5121289E-013  0.5052886E+02  0.7816164E-02  0.1300439E+00
        -11   -1    0    0    0    0  0.00000000000E+00  0.00000000000E+00  0.45593999997E+02  0.45594000000E+02  0.51100000000E-03 0.  1.
         11   -1    0    0    0    0 -0.00000000000E+00 -0.00000000000E+00 -0.45593999997E+02  0.45594000000E+02  0.51100000000E-03 0. -1.
    9900012    2    1    2    0    0 -0.39243978765E+02  0.10162310486E+02  0.31310019918E+01  0.50528860841E+02  0.30000003011E+02 0.  0.
         12    1    1    2    0    0  0.39243978765E+02 -0.10162310486E+02 -0.31310019918E+01  0.40659139159E+02  0.00000000000E+00 0. -1.
         11    1    3    3    0    0 -0.61318808293E+01 -0.50647712277E+01 -0.36112369367E+01  0.87345808468E+01  0.51100000000E-03 0. -1.
        -11    1    3    3    0    0  0.12771653577E+00 -0.23056169390E+01  0.33396564247E+01  0.40602322937E+01  0.51100000000E-03 0.  1.
         12    1    3    3    0    0 -0.33239814471E+02  0.17532698653E+02  0.34025825039E+01  0.37734047700E+02  0.00000000000E+00 0. -1.
</event>
<event>
 7    1  0.5121289E-013  0.5052885E+02  0.7816164E-02  0.1300439E+00
        -11   -1    0    0    0    0  0.00000000000E+00  0.00000000000E+00  0.45593999997E+02  0.45594000000E+02  0.51100000000E-03 0. -1.
         11   -1    0    0    0    0 -0.00000000000E+00 -0.00000000000E+00 -0.45593999997E+02  0.45594000000E+02  0.51100000000E-03 0.  1.
    9900012    2    1    2    0    0  0.16767598308E+02  0.36834596575E+02 -0.39020863254E+01  0.50528854220E+02  0.29999982888E+02 0.  0.
         12    1    1    2    0    0 -0.16767598308E+02 -0.36834596575E+02  0.39020863254E+01  0.40659145780E+02  0.00000000000E+00 0. -1.
         11    1    3    3    0    0  0.27399942787E+01  0.23584546564E+01 -0.10978727730E+02  0.11558647838E+02  0.51100000000E-03 0. -1.
        -11    1    3    3    0    0  0.81299555519E+01  0.92097718160E+01  0.10196774524E+01  0.12327036000E+02  0.51100000000E-03 0.  1.
        -12    1    3    3    0    0  0.58976484777E+01  0.25266370102E+02  0.60569639521E+01  0.26643170382E+02  0.00000000000E+00 0.  1.
</event>
<event>
 7    1  0.5121289E-013  0.5052886E+02  0.7816164E-02  0.1300439E+00
        -11   -1    0    0    0    0  0.00000000000E+00  0.00000000000E+00  0.45593999997E+02  0.45594000000E+02  0.51100000000E-03 0. -1.
         11   -1    0    0    0    0 -0.00000000000E+00 -0.00000000000E+00 -0.45593999997E+02  0.45594000000E+02  0.51100000000E-03 0.  1.
    9900012    2    1    2    0    0  0.33854050144E+02 -0.10936833152E+02  0.19683868011E+02  0.50528859694E+02  0.29999999526E+02 0.  0.
         12    1    1    2    0    0 -0.33854050144E+02  0.10936833152E+02 -0.19683868011E+02  0.40659140306E+02  0.00000000000E+00 0. -1.
         11    1    3    3    0    0  0.86589767477E+01 -0.11984922614E+02  0.90366838140E+01  0.17328528587E+02  0.51100000000E-03 0. -1.
        -11    1    3    3    0    0  0.19416681409E+02 -0.18184392538E+00 -0.17209466738E+01  0.19493646192E+02  0.51100000000E-03 0.  1.
         12    1    3    3    0    0  0.57783919867E+01  0.12299333880E+01  0.12368130871E+02  0.13706684914E+02  0.00000000000E+00 0. -1.
</event>
<event>
 7    1  0.5121289E-013  0.5052886E+02  0.7816164E-02  0.1300439E+00
        -11   -1    0    0    0    0  0.00000000000E+00  0.00000000000E+00  0.45593999997E+02  0.45594000000E+02  0.51100000000E-03 0.  1.
         11   -1    0    0    0    0 -0.00000000000E+00 -0.00000000000E+00 -0.45593999997E+02  0.45594000000E+02  0.51100000000E-03 0. -1.
    9900012    2    1    2    0    0  0.20187279257E+02 -0.39787542120E+01  0.35068633043E+02  0.50528858932E+02  0.29999997209E+02 0.  0.
         12    1    1    2    0    0 -0.20187279257E+02  0.39787542120E+01 -0.35068633043E+02  0.40659141068E+02  0.00000000000E+00 0. -1.
         11    1    3    3    0    0 -0.36687932761E+01  0.13876631707E+01  0.85198383030E+01  0.93794081983E+01  0.51100000000E-03 0. -1.
        -11    1    3    3    0    0  0.67643456096E+01  0.27355679885E+01  0.19741882445E+02  0.21047128699E+02  0.51100000000E-03 0.  1.
        -12    1    3    3    0    0  0.17091726923E+02 -0.81019853713E+01  0.68069122952E+01  0.20102322034E+02  0.00000000000E+00 0.  1.
</event>
<event>
 7    1  0.5121289E-013  0.5052886E+02  0.7816164E-02  0.1300439E+00
        -11   -1    0    0    0    0  0.00000000000E+00  0.00000000000E+00  0.45593999997E+02  0.45594000000E+02  0.51100000000E-03 0.  1.
         11   -1    0    0    0    0 -0.00000000000E+00 -0.00000000000E+00 -0.45593999997E+02  0.45594000000E+02  0.51100000000E-03 0. -1.
    9900012    2    1    2    0    0  0.25907122834E+02  0.92468351412E+01  0.29941317757E+02  0.50528862249E+02  0.30000007291E+02 0.  0.
         12    1    1    2    0    0 -0.25907122834E+02 -0.92468351412E+01 -0.29941317757E+02  0.40659137751E+02  0.00000000000E+00 0. -1.
         11    1    3    3    0    0 -0.34858656374E+01  0.18916923732E-01  0.28751942254E+01  0.45186678554E+01  0.51100000000E-03 0. -1.
        -11    1    3    3    0    0  0.21374632536E+02 -0.86506426121E+00  0.25085946622E+02  0.32968590665E+02  0.51100000000E-03 0.  1.
         12    1    3    3    0    0  0.80183559352E+01  0.10092982479E+02  0.19801769096E+01  0.13041603729E+02  0.00000000000E+00 0. -1.
</event>
<event>
 7    1  0.5121289E-013  0.5052887E+02  0.7816164E-02  0.1300439E+00
        -11   -1    0    0    0    0  0.00000000000E+00  0.00000000000E+00  0.45593999997E+02  0.45594000000E+02  0.51100000000E-03 0.  1.
         11   -1    0    0    0    0 -0.00000000000E+00 -0.00000000000E+00 -0.45593999997E+02  0.45594000000E+02  0.51100000000E-03 0. -1.
    9900012    2    1    2    0    0 -0.16215199211E+01 -0.40525119262E+02 -0.28722522048E+01  0.50528874938E+02  0.30000045862E+02 0.  0.
         12    1    1    2    0    0  0.16215199211E+01  0.40525119262E+02  0.28722522048E+01  0.40659125062E+02  0.00000000000E+00 0. -1.
         11    1    3    3    0    0 -0.81068428162E+01 -0.40505429086E+01  0.36198745637E+01  0.97586520801E+01  0.51100000000E-03 0. -1.
        -11    1    3    3    0    0  0.72969948289E+01 -0.82163163657E+01  0.21740681565E+01  0.11201810602E+02  0.51100000000E-03 0.  1.
         12    1    3    3    0    0 -0.81167193378E+00 -0.28258259988E+02 -0.86661949250E+01  0.29568412256E+02  0.00000000000E+00 0. -1.
</event>
<event>
 7    1  0.5121289E-013  0.5052885E+02  0.7816164E-02  0.1300439E+00
        -11   -1    0    0    0    0  0.00000000000E+00  0.00000000000E+00  0.45593999997E+02  0.45594000000E+02  0.51100000000E-03 0.  1.
         11   -1    0    0    0    0 -0.00000000000E+00 -0.00000000000E+00 -0.45593999997E+02  0.45594000000E+02  0.51100000000E-03 0. -1.
    9900012    2    1    2    0    0  0.17512121800E+02  0.65161934080E+00  0.36688797013E+02  0.50528845508E+02  0.29999956407E+02 0.  0.
         12    1    1    2    0    0 -0.17512121800E+02 -0.65161934080E+00 -0.36688797013E+02  0.40659154492E+02  0.00000000000E+00 0. -1.
         11    1    3    3    0    0  0.63515184372E+01 -0.43887328387E+01  0.10353467679E+02  0.12914993443E+02  0.51100000000E-03 0. -1.
        -11    1    3    3    0    0 -0.41637595527E+00 -0.59962812973E+01  0.19164839478E+02  0.20085313809E+02  0.51100000000E-03 0.  1.
         12    1    3    3    0    0  0.11576979318E+02  0.11036633477E+02  0.71704898571E+01  0.17528538257E+02  0.00000000000E+00 0. -1.
</event>
<event>
 7    1  0.5121289E-013  0.5052886E+02  0.7816164E-02  0.1300439E+00
        -11   -1    0    0    0    0  0.00000000000E+00  0.00000000000E+00  0.45593999997E+02  0.45594000000E+02  0.51100000000E-03 0.  1.
         11   -1    0    0    0    0 -0.00000000000E+00 -0.00000000000E+00 -0.45593999997E+02  0.45594000000E+02  0.51100000000E-03 0. -1.
    9900012    2    1    2    0    0 -0.80371746757E+01  0.57325274077E+01  0.39442454692E+02  0.50528864749E+02  0.30000014892E+02 0.  0.
         12    1    1    2    0    0  0.80371746757E+01 -0.57325274077E+01 -0.39442454692E+02  0.40659135251E+02  0.00000000000E+00 0. -1.
         11    1    3    3    0    0  0.78817821307E+01  0.24539566142E+01  0.21496705867E+01  0.85302682556E+01  0.51100000000E-03 0. -1.
        -11    1    3    3    0    0 -0.66857604916E+01  0.94110191355E+00  0.51992389588E+01  0.85215698187E+01  0.51100000000E-03 0.  1.
        -12    1    3    3    0    0 -0.92331963147E+01  0.23374688799E+01  0.32093545146E+02  0.33477026675E+02  0.00000000000E+00 0.  1.
</event>
<event>
 7    1  0.5121289E-013  0.5052886E+02  0.7816164E-02  0.1300439E+00
        -11   -1    0    0    0    0  0.00000000000E+00  0.00000000000E+00  0.45593999997E+02  0.45594000000E+02  0.51100000000E-03 0.  1.
         11   -1    0    0    0    0 -0.00000000000E+00 -0.00000000000E+00 -0.45593999997E+02  0.45594000000E+02  0.51100000000E-03 0. -1.
    9900012    2    1    2    0    0 -0.14042822117E+02  0.31792637032E+02  0.21099606614E+02  0.50528855620E+02  0.29999987142E+02 0.  0.
         12    1    1    2    0    0  0.14042822117E+02 -0.31792637032E+02 -0.21099606614E+02  0.40659144380E+02  0.00000000000E+00 0. -1.
         11    1    3    3    0    0 -0.46446696957E+01  0.15535496124E+01  0.83494843222E+01  0.96798947147E+01  0.51100000000E-03 0. -1.
        -11    1    3    3    0    0 -0.44427238264E+01 -0.25901020131E+01 -0.35543617636E+00  0.51548771637E+01  0.51100000000E-03 0.  1.
        -12    1    3    3    0    0 -0.49554285954E+01  0.32829189433E+02  0.13105558468E+02  0.35694083741E+02  0.00000000000E+00 0.  1.
</event>
<event>
 7    1  0.5121289E-013  0.5052887E+02  0.7816164E-02  0.1300439E+00
        -11   -1    0    0    0    0  0.00000000000E+00  0.00000000000E+00  0.45593999997E+02  0.45594000000E+02  0.51100000000E-03 0.  1.
         11   -1    0    0    0    0 -0.00000000000E+00 -0.00000000000E+00 -0.45593999997E+02  0.45594000000E+02  0.51100000000E-03 0. -1.
    9900012    2    1    2    0    0 -0.72332913939E+01 -0.31645907729E+02  0.24482263956E+02  0.50528865371E+02  0.30000016781E+02 0.  0.
         12    1    1    2    0    0  0.72332913939E+01  0.31645907729E+02 -0.24482263956E+02  0.40659134629E+02  0.00000000000E+00 0. -1.
         11    1    3    3    0    0  0.13788478746E+01 -0.53297660606E+01  0.10016636936E+01  0.55956195491E+01  0.51100000000E-03 0.  1.
        -11    1    3    3    0    0  0.71759890273E+00 -0.28587701971E+02  0.16060035019E+02  0.32797810556E+02  0.51100000000E-03 0. -1.
         12    1    3    3    0    0 -0.93297381712E+01  0.22715603030E+01  0.74205652440E+01  0.12135435266E+02  0.00000000000E+00 0. -1.
</event>
<event>
 7    1  0.5121289E-013  0.5052887E+02  0.7816164E-02  0.1300439E+00
        -11   -1    0    0    0    0  0.00000000000E+00  0.00000000000E+00  0.45593999997E+02  0.45594000000E+02  0.51100000000E-03 0.  1.
         11   -1    0    0    0    0 -0.00000000000E+00 -0.00000000000E+00 -0.45593999997E+02  0.45594000000E+02  0.51100000000E-03 0. -1.
    9900012    2    1    2    0    0  0.30180261375E+02  0.66685154162E+00  0.27237331303E+02  0.50528867149E+02  0.30000022186E+02 0.  0.
         12    1    1    2    0    0 -0.30180261375E+02 -0.66685154162E+00 -0.27237331303E+02  0.40659132851E+02  0.00000000000E+00 0. -1.
         11    1    3    3    0    0 -0.26887184584E+01 -0.31831460017E+01  0.11435582069E+00  0.41682973660E+01  0.51100000000E-03 0. -1.
        -11    1    3    3    0    0 -0.18173097883E+01  0.31962731141E+00  0.43273321503E+01  0.47043150708E+01  0.51100000000E-03 0.  1.
        -12    1    3    3    0    0  0.34686289622E+02  0.35303702319E+01  0.22795643332E+02  0.41656254712E+02  0.00000000000E+00 0.  1.
</event>
<event>
 7    1  0.5121289E-013  0.5052887E+02  0.7816164E-02  0.1300439E+00
        -11   -1    0    0    0    0  0.00000000000E+00  0.00000000000E+00  0.45593999997E+02  0.45594000000E+02  0.51100000000E-03 0. -1.
         11   -1    0    0    0    0 -0.00000000000E+00 -0.00000000000E+00 -0.45593999997E+02  0.45594000000E+02  0.51100000000E-03 0.  1.
    9900012    2    1    2    0    0  0.48856427692E+00 -0.32376185415E+02 -0.24590830950E+02  0.50528867644E+02  0.30000023692E+02 0.  0.
         12    1    1    2    0    0 -0.48856427692E+00  0.32376185415E+02  0.24590830950E+02  0.40659132356E+02  0.00000000000E+00 0. -1.
         11    1    3    3    0    0 -0.65998077045E+01 -0.81478587459E+01 -0.16735749704E+02  0.19749186877E+02  0.51100000000E-03 0. -1.
        -11    1    3    3    0    0 -0.43543882106E+01 -0.78940128160E+01  0.77576071576E+00  0.90486429909E+01  0.51100000000E-03 0.  1.
        -12    1    3    3    0    0  0.11442760192E+02 -0.16334313853E+02 -0.86308419615E+01  0.21731037776E+02  0.00000000000E+00 0.  1.
</event>
<event>
 7    1  0.5121289E-013  0.5052886E+02  0.7816164E-02  0.1300439E+00
        -11   -1    0    0    0    0  0.00000000000E+00  0.00000000000E+00  0.45593999997E+02  0.45594000000E+02  0.51100000000E-03 0. -1.
         11   -1    0    0    0    0 -0.00000000000E+00 -0.00000000000E+00 -0.45593999997E+02  0.45594000000E+02  0.51100000000E-03 0.  1.
    9900012    2    1    2    0    0  0.13185469641E+02 -0.15687032516E+02 -0.35117321335E+02  0.50528857651E+02  0.29999993314E+02 0.  0.
         12    1    1    2    0    0 -0.13185469641E+02  0.15687032516E+02  0.35117321335E+02  0.40659142349E+02  0.00000000000E+00 0. -1.
         11    1    3    3    0    0 -0.38045916404E+01 -0.74331905487E+01 -0.93645510737E+01  0.12546794665E+02  0.51100000000E-03 0. -1.
        -11    1    3    3    0    0 -0.47493599524E+01 -0.27611414915E+01 -0.48854431282E+01  0.73517261316E+01  0.51100000000E-03 0.  1.
        -12    1    3    3    0    0  0.21739421234E+02 -0.54927004759E+01 -0.20867327134E+02  0.30630336854E+02  0.00000000000E+00 0.  1.
</event>
<event>
 7    1  0.5121289E-013  0.5052886E+02  0.7816164E-02  0.1300439E+00
        -11   -1    0    0    0    0  0.00000000000E+00  0.00000000000E+00  0.45593999997E+02  0.45594000000E+02  0.51100000000E-03 0. -1.
         11   -1    0    0    0    0 -0.00000000000E+00 -0.00000000000E+00 -0.45593999997E+02  0.45594000000E+02  0.51100000000E-03 0.  1.
    9900012    2    1    2    0    0 -0.39826352734E+01  0.25515191563E+02 -0.31405078451E+02  0.50528864043E+02  0.30000012746E+02 0.  0.
         12    1    1    2    0    0  0.39826352734E+01 -0.25515191563E+02  0.31405078451E+02  0.40659135957E+02  0.00000000000E+00 0. -1.
         11    1    3    3    0    0  0.12502667031E+01  0.41023353815E+01 -0.32879786199E+01  0.54039916799E+01  0.51100000000E-03 0.  1.
        -11    1    3    3    0    0  0.80024152875E+01  0.20462593146E+02 -0.18718978109E+02  0.28864450634E+02  0.51100000000E-03 0. -1.
        -12    1    3    3    0    0 -0.13235317264E+02  0.95026303590E+00 -0.93981217223E+01  0.16260421730E+02  0.00000000000E+00 0.  1.
</event>
<event>
 7    1  0.5121289E-013  0.5052887E+02  0.7816164E-02  0.1300439E+00
        -11   -1    0    0    0    0  0.00000000000E+00  0.00000000000E+00  0.45593999997E+02  0.45594000000E+02  0.51100000000E-03 0. -1.
         11   -1    0    0    0    0 -0.00000000000E+00 -0.00000000000E+00 -0.45593999997E+02  0.45594000000E+02  0.51100000000E-03 0.  1.
    9900012    2    1    2    0    0  0.28046804322E+02  0.29118121985E+02  0.43216862524E+01  0.50528865323E+02  0.30000016636E+02 0.  0.
         12    1    1    2    0    0 -0.28046804322E+02 -0.29118121985E+02 -0.43216862524E+01  0.40659134677E+02  0.00000000000E+00 0. -1.
         11    1    3    3    0    0  0.16106022937E+01  0.68088679539E+01 -0.27445127433E+00  0.70021458372E+01  0.51100000000E-03 0. -1.
        -11    1    3    3    0    0  0.18174697022E+02  0.27854276837E+02  0.24600327056E+01  0.33350144094E+02  0.51100000000E-03 0.  1.
         12    1    3    3    0    0  0.82615050066E+01 -0.55450228060E+01  0.21361048211E+01  0.10176575392E+02  0.00000000000E+00 0. -1.
</event>
<event>
 7    1  0.5121289E-013  0.5052886E+02  0.7816164E-02  0.1300439E+00
        -11   -1    0    0    0    0  0.00000000000E+00  0.00000000000E+00  0.45593999997E+02  0.45594000000E+02  0.51100000000E-03 0.  1.
         11   -1    0    0    0    0 -0.00000000000E+00 -0.00000000000E+00 -0.45593999997E+02  0.45594000000E+02  0.51100000000E-03 0. -1.
    9900012    2    1    2    0    0 -0.14590378997E+02  0.37947698062E+02 -0.50897958451E+00  0.50528855792E+02  0.29999987666E+02 0.  0.
         12    1    1    2    0    0  0.14590378997E+02 -0.37947698062E+02  0.50897958451E+00  0.40659144208E+02  0.00000000000E+00 0. -1.
         11    1    3    3    0    0  0.24177163334E+01  0.14881301187E+02  0.46594237041E+00  0.15083619587E+02  0.51100000000E-03 0.  1.
        -11    1    3    3    0    0 -0.14780263847E+01 -0.37296637048E+01 -0.19459163836E+01  0.44588725231E+01  0.51100000000E-03 0. -1.
         12    1    3    3    0    0 -0.15530068946E+02  0.26796060580E+02  0.97099442868E+00  0.30986363682E+02  0.00000000000E+00 0. -1.
</event>
<event>
 7    1  0.5121289E-013  0.5052886E+02  0.7816164E-02  0.1300439E+00
        -11   -1    0    0    0    0  0.00000000000E+00  0.00000000000E+00  0.45593999997E+02  0.45594000000E+02  0.51100000000E-03 0.  1.
         11   -1    0    0    0    0 -0.00000000000E+00 -0.00000000000E+00 -0.45593999997E+02  0.45594000000E+02  0.51100000000E-03 0. -1.
    9900012    2    1    2    0    0 -0.19779536527E+02  0.32829767252E+02  0.13569885290E+02  0.50528862407E+02  0.30000007773E+02 0.  0.
         12    1    1    2    0    0  0.19779536527E+02 -0.32829767252E+02 -0.13569885290E+02  0.40659137593E+02  0.00000000000E+00 0. -1.
         11    1    3    3    0    0 -0.12518813228E+01 -0.22904497603E+01 -0.92377019393E+00  0.27688839960E+01  0.51100000000E-03 0. -1.
        -11    1    3    3    0    0 -0.21597092027E+02  0.19057285169E+02  0.12061666362E+02  0.31226563976E+02  0.51100000000E-03 0.  1.
         12    1    3    3    0    0  0.30694368230E+01  0.16062931843E+02  0.24319891211E+01  0.16533414436E+02  0.00000000000E+00 0. -1.
</event>
<event>
 7    1  0.5121289E-013  0.5052886E+02  0.7816164E-02  0.1300439E+00
        -11   -1    0    0    0    0  0.00000000000E+00  0.00000000000E+00  0.45593999997E+02  0.45594000000E+02  0.51100000000E-03 0.  1.
         11   -1    0    0    0    0 -0.00000000000E+00 -0.00000000000E+00 -0.45593999997E+02  0.45594000000E+02  0.51100000000E-03 0. -1.
    9900012    2    1    2    0    0  0.34375838104E+02 -0.26734473791E+01  0.21548092120E+02  0.50528857852E+02  0.29999993926E+02 0.  0.
         12    1    1    2    0    0 -0.34375838104E+02  0.26734473791E+01 -0.21548092120E+02  0.40659142148E+02  0.00000000000E+00 0. -1.
         11    1    3    3    0    0 -0.28350320235E+01 -0.19517087171E+01  0.51842623250E+01  0.62227927498E+01  0.51100000000E-03 0. -1.
        -11    1    3    3    0    0  0.15838222215E+02 -0.59959507511E+01  0.14355354317E+02  0.22200831204E+02  0.51100000000E-03 0.  1.
         12    1    3    3    0    0  0.21372647912E+02  0.52742120891E+01  0.20084754788E+01  0.22105233898E+02  0.00000000000E+00 0. -1.
</event>
<event>
 7    1  0.5121289E-013  0.5052885E+02  0.7816164E-02  0.1300439E+00
        -11   -1    0    0    0    0  0.00000000000E+00  0.00000000000E+00  0.45593999997E+02  0.45594000000E+02  0.51100000000E-03 0. -1.
         11   -1    0    0    0    0 -0.00000000000E+00 -0.00000000000E+00 -0.45593999997E+02  0.45594000000E+02  0.51100000000E-03 0.  1.
    9900012    2    1    2    0    0  0.10885470406E+02  0.19656009869E+02 -0.33886785320E+02  0.50528850854E+02  0.29999972656E+02 0.  0.
         12    1    1    2    0    0 -0.10885470406E+02 -0.19656009869E+02  0.33886785320E+02  0.40659149146E+02  0.00000000000E+00 0. -1.
         11    1    3    3    0    0  0.66415279898E+01 -0.36845814941E+01 -0.65158165713E+01  0.10007092519E+02  0.51100000000E-03 0. -1.
        -11    1    3    3    0    0  0.88825958913E+01  0.14997734875E+02 -0.85419323824E+01  0.19411264004E+02  0.51100000000E-03 0.  1.
        -12    1    3    3    0    0 -0.46386534748E+01  0.83428564885E+01 -0.18829036366E+02  0.21110494332E+02  0.00000000000E+00 0.  1.
</event>
<event>
 7    1  0.5121289E-013  0.5052886E+02  0.7816164E-02  0.1300439E+00
        -11   -1    0    0    0    0  0.00000000000E+00  0.00000000000E+00  0.45593999997E+02  0.45594000000E+02  0.51100000000E-03 0.  1.
         11   -1    0    0    0    0 -0.00000000000E+00 -0.00000000000E+00 -0.45593999997E+02  0.45594000000E+02  0.51100000000E-03 0. -1.
    9900012    2    1    2    0    0  0.25096854399E+02  0.20131930563E+02  0.24859984950E+02  0.50528861044E+02  0.30000003629E+02 0.  0.
         12    1    1    2    0    0 -0.25096854399E+02 -0.20131930563E+02 -0.24859984950E+02  0.40659138956E+02  0.00000000000E+00 0. -1.
         11    1    3    3    0    0 -0.22373785305E+01  0.13003173563E+02  0.24250201385E+01  0.13415256551E+02  0.51100000000E-03 0. -1.
        -11    1    3    3    0    0  0.84284267607E+01  0.58932663895E+01  0.10629684624E+02  0.14790509182E+02  0.51100000000E-03 0.  1.
        -12    1    3    3    0    0  0.18905806169E+02  0.12354906109E+01  0.11805280188E+02  0.22323095311E+02  0.00000000000E+00 0.  1.
</event>
<event>
 7    1  0.5121289E-013  0.5052887E+02  0.7816164E-02  0.1300439E+00
        -11   -1    0    0    0    0  0.00000000000E+00  0.00000000000E+00  0.45593999997E+02  0.45594000000E+02  0.51100000000E-03 0.  1.
         11   -1    0    0    0    0 -0.00000000000E+00 -0.00000000000E+00 -0.45593999997E+02  0.45594000000E+02  0.51100000000E-03 0. -1.
    9900012    2    1    2    0    0 -0.38379519238E+02 -0.59976586537E+01  0.12008571484E+02  0.50528865782E+02  0.30000018031E+02 0.  0.
         12    1    1    2    0    0  0.38379519238E+02  0.59976586537E+01 -0.12008571484E+02  0.40659134218E+02  0.00000000000E+00 0. -1.
         11    1    3    3    0    0 -0.12278716382E+02  0.34706712026E+01 -0.32219876352E+01  0.13160305436E+02  0.51100000000E-03 0. -1.
        -11    1    3    3    0    0  0.11981928573E+00 -0.66011710967E+00 -0.37580786181E+01  0.38174947833E+01  0.51100000000E-03 0.  1.
        -12    1    3    3    0    0 -0.26220622141E+02 -0.88082127466E+01  0.18988637737E+02  0.33551065563E+02  0.00000000000E+00 0.  1.
</event>
<event>
 7    1  0.5121289E-013  0.5052886E+02  0.7816164E-02  0.1300439E+00
        -11   -1    0    0    0    0  0.00000000000E+00  0.00000000000E+00  0.45593999997E+02  0.45594000000E+02  0.51100000000E-03 0.  1.
         11   -1    0    0    0    0 -0.00000000000E+00 -0.00000000000E+00 -0.45593999997E+02  0.45594000000E+02  0.51100000000E-03 0. -1.
    9900012    2    1    2    0    0  0.11034920265E+02  0.36025375857E+02  0.15282950857E+02  0.50528858866E+02  0.29999997008E+02 0.  0.
         12    1    1    2    0    0 -0.11034920265E+02 -0.36025375857E+02 -0.15282950857E+02  0.40659141134E+02  0.00000000000E+00 0. -1.
         11    1    3    3    0    0  0.34358023276E+01  0.41631516260E+01  0.30068624039E+01  0.61788179188E+01  0.51100000000E-03 0. -1.
        -11    1    3    3    0    0 -0.17162764587E+01  0.33166468710E+02  0.95315738082E+01  0.34551572339E+02  0.51100000000E-03 0.  1.
         12    1    3    3    0    0  0.93153943966E+01 -0.13042444793E+01  0.27445146452E+01  0.97984686080E+01  0.00000000000E+00 0. -1.
</event>
<event>
 7    1  0.5121289E-013  0.5052887E+02  0.7816164E-02  0.1300439E+00
        -11   -1    0    0    0    0  0.00000000000E+00  0.00000000000E+00  0.45593999997E+02  0.45594000000E+02  0.51100000000E-03 0.  1.
         11   -1    0    0    0    0 -0.00000000000E+00 -0.00000000000E+00 -0.45593999997E+02  0.45594000000E+02  0.51100000000E-03 0. -1.
    9900012    2    1    2    0    0 -0.28627154243E+02 -0.13202590601E+02  0.25677663322E+02  0.50528871231E+02  0.30000034593E+02 0.  0.
         12    1    1    2    0    0  0.28627154243E+02  0.13202590601E+02 -0.25677663322E+02  0.40659128769E+02  0.00000000000E+00 0. -1.
         11    1    3    3    0    0 -0.11159182899E+02  0.22243289144E+01  0.17830400242E+01  0.11517561985E+02  0.51100000000E-03 0. -1.
        -11    1    3    3    0    0 -0.10330245357E+02  0.31989916388E+01  0.97266795343E+01  0.14544958290E+02  0.51100000000E-03 0.  1.
        -12    1    3    3    0    0 -0.71377259870E+01 -0.18625911154E+02  0.14167943763E+02  0.24466350955E+02  0.00000000000E+00 0.  1.
</event>
<event>
 7    1  0.5121289E-013  0.5052886E+02  0.7816164E-02  0.1300439E+00
        -11   -1    0    0    0    0  0.00000000000E+00  0.00000000000E+00  0.45593999997E+02  0.45594000000E+02  0.51100000000E-03 0. -1.
         11   -1    0    0    0    0 -0.00000000000E+00 -0.00000000000E+00 -0.45593999997E+02  0.45594000000E+02  0.51100000000E-03 0.  1.
    9900012    2    1    2    0    0 -0.25591975265E+02  0.31592198290E+02 -0.38708874800E+00  0.50528855537E+02  0.29999986891E+02 0.  0.
         12    1    1    2    0    0  0.25591975265E+02 -0.31592198290E+02  0.38708874800E+00  0.40659144463E+02  0.00000000000E+00 0. -1.
         11    1    3    3    0    0 -0.46478755385E+01  0.14430608970E+02  0.16009991524E+01  0.15244947387E+02  0.51100000000E-03 0. -1.
        -11    1    3    3    0    0 -0.24855740301E+02  0.17508653259E+02  0.88810960853E+00  0.30416270379E+02  0.51100000000E-03 0.  1.
        -12    1    3    3    0    0  0.39116405743E+01 -0.34706393931E+00 -0.28761975090E+01  0.48676377711E+01  0.00000000000E+00 0.  1.
</event>
<event>
 7    1  0.5121289E-013  0.5052886E+02  0.7816164E-02  0.1300439E+00
        -11   -1    0    0    0    0  0.00000000000E+00  0.00000000000E+00  0.45593999997E+02  0.45594000000E+02  0.51100000000E-03 0.  1.
         11   -1    0    0    0    0 -0.00000000000E+00 -0.00000000000E+00 -0.45593999997E+02  0.45594000000E+02  0.51100000000E-03 0. -1.
    9900012    2    1    2    0    0 -0.32391783112E+02 -0.23267926187E+02 -0.79083198803E+01  0.50528861722E+02  0.30000005690E+02 0.  0.
         12    1    1    2    0    0  0.32391783112E+02  0.23267926187E+02  0.79083198803E+01  0.40659138278E+02  0.00000000000E+00 0. -1.
         11    1    3    3    0    0  0.46182978394E+01 -0.21065690867E+01 -0.12528991251E+01  0.52283902618E+01  0.51100000000E-03 0. -1.
        -11    1    3    3    0    0 -0.42990148731E+01 -0.79708205661E+01 -0.40896209500E+01  0.99368259093E+01  0.51100000000E-03 0.  1.
         12    1    3    3    0    0 -0.32711066078E+02 -0.13190536534E+02 -0.25657998052E+01  0.35363645551E+02  0.00000000000E+00 0. -1.
</event>
<event>
 7    1  0.5121289E-013  0.5052890E+02  0.7816164E-02  0.1300439E+00
        -11   -1    0    0    0    0  0.00000000000E+00  0.00000000000E+00  0.45593999997E+02  0.45594000000E+02  0.51100000000E-03 0.  1.
         11   -1    0    0    0    0 -0.00000000000E+00 -0.00000000000E+00 -0.45593999997E+02  0.45594000000E+02  0.51100000000E-03 0. -1.
    9900012    2    1    2    0    0  0.31398220706E+02  0.10018796197E+02  0.23810459705E+02  0.50528898533E+02  0.30000117580E+02 0.  0.
         12    1    1    2    0    0 -0.31398220706E+02 -0.10018796197E+02 -0.23810459705E+02  0.40659101467E+02  0.00000000000E+00 0. -1.
         11    1    3    3    0    0  0.15995931014E+02 -0.50352999302E+01  0.74739532865E+01  0.18359848376E+02  0.51100000000E-03 0. -1.
        -11    1    3    3    0    0  0.11734194671E+02  0.93401600853E+01  0.19563884339E+02  0.24651074737E+02  0.51100000000E-03 0.  1.
         12    1    3    3    0    0  0.36680950203E+01  0.57139360418E+01 -0.32273779204E+01  0.75179754196E+01  0.00000000000E+00 0. -1.
</event>
<event>
 7    1  0.5121289E-013  0.5052886E+02  0.7816164E-02  0.1300439E+00
        -11   -1    0    0    0    0  0.00000000000E+00  0.00000000000E+00  0.45593999997E+02  0.45594000000E+02  0.51100000000E-03 0.  1.
         11   -1    0    0    0    0 -0.00000000000E+00 -0.00000000000E+00 -0.45593999997E+02  0.45594000000E+02  0.51100000000E-03 0. -1.
    9900012    2    1    2    0    0 -0.22762394989E+02 -0.10005738850E+02  0.32170237145E+02  0.50528860886E+02  0.30000003148E+02 0.  0.
         12    1    1    2    0    0  0.22762394989E+02  0.10005738850E+02 -0.32170237145E+02  0.40659139114E+02  0.00000000000E+00 0. -1.
         11    1    3    3    0    0 -0.68578863368E+01  0.76904356858E+01  0.11230970524E+02  0.15241656905E+02  0.51100000000E-03 0. -1.
        -11    1    3    3    0    0 -0.67822433742E+01 -0.85216164560E+00  0.12724875175E+02  0.14444634060E+02  0.51100000000E-03 0.  1.
         12    1    3    3    0    0 -0.91222652777E+01 -0.16844012890E+02  0.82143914462E+01  0.20842569920E+02  0.00000000000E+00 0. -1.
</event>
<event>
 7    1  0.5121289E-013  0.5052887E+02  0.7816164E-02  0.1300439E+00
        -11   -1    0    0    0    0  0.00000000000E+00  0.00000000000E+00  0.45593999997E+02  0.45594000000E+02  0.51100000000E-03 0. -1.
         11   -1    0    0    0    0 -0.00000000000E+00 -0.00000000000E+00 -0.45593999997E+02  0.45594000000E+02  0.51100000000E-03 0.  1.
    9900012    2    1    2    0    0 -0.33799123998E+02  0.42276329988E+01 -0.22201608661E+02  0.50528867066E+02  0.30000021934E+02 0.  0.
         12    1    1    2    0    0  0.33799123998E+02 -0.42276329988E+01  0.22201608661E+02  0.40659132934E+02  0.00000000000E+00 0. -1.
         11    1    3    3    0    0 -0.12273623710E+02  0.81961386835E+01 -0.48470436716E+01  0.15534231906E+02  0.51100000000E-03 0. -1.
        -11    1    3    3    0    0 -0.53400069143E+01  0.70277915421E+01 -0.11643221277E+02  0.14610617022E+02  0.51100000000E-03 0.  1.
         12    1    3    3    0    0 -0.16185493374E+02 -0.10996297227E+02 -0.57113437125E+01  0.20384018138E+02  0.00000000000E+00 0. -1.
</event>
<event>
 7    1  0.5121289E-013  0.5052884E+02  0.7816164E-02  0.1300439E+00
        -11   -1    0    0    0    0  0.00000000000E+00  0.00000000000E+00  0.45593999997E+02  0.45594000000E+02  0.51100000000E-03 0.  1.
         11   -1    0    0    0    0 -0.00000000000E+00 -0.00000000000E+00 -0.45593999997E+02  0.45594000000E+02  0.51100000000E-03 0. -1.
    9900012    2    1    2    0    0 -0.25272071078E+02  0.24939024805E+02  0.19812490895E+02  0.50528839528E+02  0.29999938229E+02 0.  0.
         12    1    1    2    0    0  0.25272071078E+02 -0.24939024805E+02 -0.19812490895E+02  0.40659160472E+02  0.00000000000E+00 0. -1.
         11    1    3    3    0    0  0.33931359293E+01 -0.13153964244E+01  0.17594185183E+01  0.40421767615E+01  0.51100000000E-03 0. -1.
        -11    1    3    3    0    0 -0.16641422491E+02  0.15940906433E+02  0.20017067759E+02  0.30524292659E+02  0.51100000000E-03 0.  1.
         12    1    3    3    0    0 -0.12023784517E+02  0.10313514797E+02 -0.19639953820E+01  0.15962370107E+02  0.00000000000E+00 0. -1.
</event>
<event>
 7    1  0.5121289E-013  0.5052882E+02  0.7816164E-02  0.1300439E+00
        -11   -1    0    0    0    0  0.00000000000E+00  0.00000000000E+00  0.45593999997E+02  0.45594000000E+02  0.51100000000E-03 0. -1.
         11   -1    0    0    0    0 -0.00000000000E+00 -0.00000000000E+00 -0.45593999997E+02  0.45594000000E+02  0.51100000000E-03 0.  1.
    9900012    2    1    2    0    0  0.39710988139E+02  0.67538582584E+01 -0.55309503333E+01  0.50528824013E+02  0.29999891071E+02 0.  0.
         12    1    1    2    0    0 -0.39710988139E+02 -0.67538582584E+01  0.55309503333E+01  0.40659175987E+02  0.00000000000E+00 0. -1.
         11    1    3    3    0    0  0.58333280538E+01  0.14172517990E+01 -0.38982184188E+01  0.71576830013E+01  0.51100000000E-03 0. -1.
        -11    1    3    3    0    0  0.21743452632E+02  0.10888790633E+02 -0.11377582963E+02  0.26847586263E+02  0.51100000000E-03 0.  1.
         12    1    3    3    0    0  0.12134207452E+02 -0.55521841735E+01  0.97448510482E+01  0.16523554749E+02  0.00000000000E+00 0. -1.
</event>
<event>
 7    1  0.5121289E-013  0.5052886E+02  0.7816164E-02  0.1300439E+00
        -11   -1    0    0    0    0  0.00000000000E+00  0.00000000000E+00  0.45593999997E+02  0.45594000000E+02  0.51100000000E-03 0. -1.
         11   -1    0    0    0    0 -0.00000000000E+00 -0.00000000000E+00 -0.45593999997E+02  0.45594000000E+02  0.51100000000E-03 0.  1.
    9900012    2    1    2    0    0  0.13072981928E+02  0.18068247896E+02 -0.33997075979E+02  0.50528860638E+02  0.30000002395E+02 0.  0.
         12    1    1    2    0    0 -0.13072981928E+02 -0.18068247896E+02  0.33997075979E+02  0.40659139362E+02  0.00000000000E+00 0. -1.
         11    1    3    3    0    0 -0.61257631635E+01 -0.63617104319E-02 -0.84684480542E+01  0.10451776285E+02  0.51100000000E-03 0. -1.
        -11    1    3    3    0    0  0.92236833422E+01  0.58130680518E+01 -0.20955874959E+02  0.23622379010E+02  0.51100000000E-03 0.  1.
        -12    1    3    3    0    0  0.99750617495E+01  0.12261541555E+02 -0.45727529665E+01  0.16454705342E+02  0.00000000000E+00 0.  1.
</event>
<event>
 7    1  0.5121289E-013  0.5052885E+02  0.7816164E-02  0.1300439E+00
        -11   -1    0    0    0    0  0.00000000000E+00  0.00000000000E+00  0.45593999997E+02  0.45594000000E+02  0.51100000000E-03 0.  1.
         11   -1    0    0    0    0 -0.00000000000E+00 -0.00000000000E+00 -0.45593999997E+02  0.45594000000E+02  0.51100000000E-03 0. -1.
    9900012    2    1    2    0    0  0.14272769513E+02 -0.66730606516E+01  0.37482321694E+02  0.50528854318E+02  0.29999983184E+02 0.  0.
         12    1    1    2    0    0 -0.14272769513E+02  0.66730606516E+01 -0.37482321694E+02  0.40659145682E+02  0.00000000000E+00 0. -1.
         11    1    3    3    0    0  0.30859323359E+01  0.36026607378E+01  0.20015704253E+01  0.51486335277E+01  0.51100000000E-03 0. -1.
        -11    1    3    3    0    0  0.75514857909E+01  0.41050823447E+01  0.26909115209E+02  0.28248488815E+02  0.51100000000E-03 0.  1.
        -12    1    3    3    0    0  0.36353513857E+01 -0.14380803734E+02  0.85716360598E+01  0.17131731975E+02  0.00000000000E+00 0.  1.
</event>
<event>
 7    1  0.5121289E-013  0.5052886E+02  0.7816164E-02  0.1300439E+00
        -11   -1    0    0    0    0  0.00000000000E+00  0.00000000000E+00  0.45593999997E+02  0.45594000000E+02  0.51100000000E-03 0.  1.
         11   -1    0    0    0    0 -0.00000000000E+00 -0.00000000000E+00 -0.45593999997E+02  0.45594000000E+02  0.51100000000E-03 0. -1.
    9900012    2    1    2    0    0  0.95803980742E+00  0.93023579513E+01  0.39569104239E+02  0.50528859404E+02  0.29999998644E+02 0.  0.
         12    1    1    2    0    0 -0.95803980742E+00 -0.93023579513E+01 -0.39569104239E+02  0.40659140596E+02  0.00000000000E+00 0. -1.
         11    1    3    3    0    0  0.54620972529E+01  0.70641713456E+01  0.25681106152E+02  0.27189266938E+02  0.51100000000E-03 0. -1.
        -11    1    3    3    0    0  0.12753155004E+01  0.53366248377E+01  0.15621243531E+02  0.16556848855E+02  0.51100000000E-03 0.  1.
         12    1    3    3    0    0 -0.57793729459E+01 -0.30984382320E+01 -0.17332454436E+01  0.67827436110E+01  0.00000000000E+00 0. -1.
</event>
<event>
 7    1  0.5121289E-013  0.5052884E+02  0.7816164E-02  0.1300439E+00
        -11   -1    0    0    0    0  0.00000000000E+00  0.00000000000E+00  0.45593999997E+02  0.45594000000E+02  0.51100000000E-03 0.  1.
         11   -1    0    0    0    0 -0.00000000000E+00 -0.00000000000E+00 -0.45593999997E+02  0.45594000000E+02  0.51100000000E-03 0. -1.
    9900012    2    1    2    0    0  0.18863231480E+02  0.44369676314E+00  0.36015953782E+02  0.50528839955E+02  0.29999939528E+02 0.  0.
         12    1    1    2    0    0 -0.18863231480E+02 -0.44369676314E+00 -0.36015953782E+02  0.40659160045E+02  0.00000000000E+00 0. -1.
         11    1    3    3    0    0  0.27823780006E+01 -0.53507335551E+01  0.44149813442E+01  0.74742248726E+01  0.51100000000E-03 0. -1.
        -11    1    3    3    0    0  0.13827795938E+02 -0.75160481485E+01  0.16680183861E+02  0.22933108254E+02  0.51100000000E-03 0.  1.
        -12    1    3    3    0    0  0.22530575415E+01  0.13310478467E+02  0.14920788577E+02  0.20121506829E+02  0.00000000000E+00 0.  1.
</event>
<event>
 7    1  0.5121289E-013  0.5052886E+02  0.7816164E-02  0.1300439E+00
        -11   -1    0    0    0    0  0.00000000000E+00  0.00000000000E+00  0.45593999997E+02  0.45594000000E+02  0.51100000000E-03 0. -1.
         11   -1    0    0    0    0 -0.00000000000E+00 -0.00000000000E+00 -0.45593999997E+02  0.45594000000E+02  0.51100000000E-03 0.  1.
    9900012    2    1    2    0    0  0.22663226408E+02  0.33725757103E+02  0.14550915833E+01  0.50528858164E+02  0.29999994874E+02 0.  0.
         12    1    1    2    0    0 -0.22663226408E+02 -0.33725757103E+02 -0.14550915833E+01  0.40659141836E+02  0.00000000000E+00 0. -1.
         11    1    3    3    0    0  0.88285147727E+01  0.36491325533E+01 -0.60105235761E+01  0.11286506785E+02  0.51100000000E-03 0. -1.
        -11    1    3    3    0    0  0.89143744453E+01  0.60610872373E+01 -0.48356709024E+01  0.11814675772E+02  0.51100000000E-03 0.  1.
        -12    1    3    3    0    0  0.49203371898E+01  0.24015537312E+02  0.12301286062E+02  0.27427675607E+02  0.00000000000E+00 0.  1.
</event>
<event>
 7    1  0.5121289E-013  0.5052888E+02  0.7816164E-02  0.1300439E+00
        -11   -1    0    0    0    0  0.00000000000E+00  0.00000000000E+00  0.45593999997E+02  0.45594000000E+02  0.51100000000E-03 0.  1.
         11   -1    0    0    0    0 -0.00000000000E+00 -0.00000000000E+00 -0.45593999997E+02  0.45594000000E+02  0.51100000000E-03 0. -1.
    9900012    2    1    2    0    0  0.14809841365E+02  0.34923169202E+02  0.14635751536E+02  0.50528875915E+02  0.30000048831E+02 0.  0.
         12    1    1    2    0    0 -0.14809841365E+02 -0.34923169202E+02 -0.14635751536E+02  0.40659124085E+02  0.00000000000E+00 0. -1.
         11    1    3    3    0    0 -0.88347614719E-01  0.29362112900E+01  0.19149347658E+01  0.35065820194E+01  0.51100000000E-03 0. -1.
        -11    1    3    3    0    0  0.20853044114E+02  0.13357782854E+02  0.23253268705E+01  0.24873418681E+02  0.51100000000E-03 0.  1.
         12    1    3    3    0    0 -0.59548551344E+01  0.18629175058E+02  0.10395489899E+02  0.22148875214E+02  0.00000000000E+00 0. -1.
</event>
<event>
 7    1  0.5121289E-013  0.5052887E+02  0.7816164E-02  0.1300439E+00
        -11   -1    0    0    0    0  0.00000000000E+00  0.00000000000E+00  0.45593999997E+02  0.45594000000E+02  0.51100000000E-03 0.  1.
         11   -1    0    0    0    0 -0.00000000000E+00 -0.00000000000E+00 -0.45593999997E+02  0.45594000000E+02  0.51100000000E-03 0. -1.
    9900012    2    1    2    0    0  0.36454111204E+02 -0.17912362608E+02  0.18466756362E+01  0.50528866108E+02  0.30000019022E+02 0.  0.
         12    1    1    2    0    0 -0.36454111204E+02  0.17912362608E+02 -0.18466756362E+01  0.40659133892E+02  0.00000000000E+00 0. -1.
         11    1    3    3    0    0  0.90849980139E+01 -0.64517247224E+01  0.73654213521E+01  0.13357072013E+02  0.51100000000E-03 0. -1.
        -11    1    3    3    0    0  0.20422852565E+02  0.30708819055E+01 -0.32377226360E+01  0.20904690161E+02  0.51100000000E-03 0.  1.
         12    1    3    3    0    0  0.69462606252E+01 -0.14531519791E+02 -0.22810230799E+01  0.16267103934E+02  0.00000000000E+00 0. -1.
</event>
<event>
 7    1  0.5121289E-013  0.5052886E+02  0.7816164E-02  0.1300439E+00
        -11   -1    0    0    0    0  0.00000000000E+00  0.00000000000E+00  0.45593999997E+02  0.45594000000E+02  0.51100000000E-03 0. -1.
         11   -1    0    0    0    0 -0.00000000000E+00 -0.00000000000E+00 -0.45593999997E+02  0.45594000000E+02  0.51100000000E-03 0.  1.
    9900012    2    1    2    0    0  0.51359763174E+01 -0.16319742450E+02 -0.36884325340E+02  0.50528859549E+02  0.29999999086E+02 0.  0.
         12    1    1    2    0    0 -0.51359763174E+01  0.16319742450E+02  0.36884325340E+02  0.40659140451E+02  0.00000000000E+00 0. -1.
         11    1    3    3    0    0 -0.10979031944E+01  0.20770879426E+01  0.90650413842E+00  0.25182207527E+01  0.51100000000E-03 0. -1.
        -11    1    3    3    0    0 -0.78881443991E+00  0.13386998676E+01  0.23007629838E+01  0.27763025997E+01  0.51100000000E-03 0.  1.
        -12    1    3    3    0    0  0.70226939517E+01 -0.19735530260E+02 -0.40091592462E+02  0.45234336197E+02  0.00000000000E+00 0.  1.
</event>
<event>
 7    1  0.5121289E-013  0.5052887E+02  0.7816164E-02  0.1300439E+00
        -11   -1    0    0    0    0  0.00000000000E+00  0.00000000000E+00  0.45593999997E+02  0.45594000000E+02  0.51100000000E-03 0.  1.
         11   -1    0    0    0    0 -0.00000000000E+00 -0.00000000000E+00 -0.45593999997E+02  0.45594000000E+02  0.51100000000E-03 0. -1.
    9900012    2    1    2    0    0  0.54374017389E+01  0.12126207582E+02  0.38425965563E+02  0.50528867232E+02  0.30000022439E+02 0.  0.
         12    1    1    2    0    0 -0.54374017389E+01 -0.12126207582E+02 -0.38425965563E+02  0.40659132768E+02  0.00000000000E+00 0. -1.
         11    1    3    3    0    0  0.25363143718E+01  0.33931191829E+00 -0.18457630778E+01  0.31551330829E+01  0.51100000000E-03 0. -1.
        -11    1    3    3    0    0  0.10244028182E+02  0.59400889147E+01  0.94371435559E+01  0.15142141475E+02  0.51100000000E-03 0.  1.
         12    1    3    3    0    0 -0.73429408146E+01  0.58468067494E+01  0.30834585085E+02  0.32231592674E+02  0.00000000000E+00 0. -1.
</event>
<event>
 7    1  0.5121289E-013  0.5052885E+02  0.7816164E-02  0.1300439E+00
        -11   -1    0    0    0    0  0.00000000000E+00  0.00000000000E+00  0.45593999997E+02  0.45594000000E+02  0.51100000000E-03 0.  1.
         11   -1    0    0    0    0 -0.00000000000E+00 -0.00000000000E+00 -0.45593999997E+02  0.45594000000E+02  0.51100000000E-03 0. -1.
    9900012    2    1    2    0    0 -0.11294848445E+02  0.10554345316E+02  0.37605829222E+02  0.50528853453E+02  0.29999980555E+02 0.  0.
         12    1    1    2    0    0  0.11294848445E+02 -0.10554345316E+02 -0.37605829222E+02  0.40659146547E+02  0.00000000000E+00 0. -1.
         11    1    3    3    0    0 -0.74262758802E+00  0.52898064761E+01  0.30857701780E+01  0.61689161237E+01  0.51100000000E-03 0. -1.
        -11    1    3    3    0    0 -0.14601543129E+02  0.12684675971E+02  0.22597862738E+02  0.29745074665E+02  0.51100000000E-03 0.  1.
        -12    1    3    3    0    0  0.40493222725E+01 -0.74201371310E+01  0.11922196307E+02  0.14614862664E+02  0.00000000000E+00 0.  1.
</event>
<event>
 7    1  0.5121289E-013  0.5052885E+02  0.7816164E-02  0.1300439E+00
        -11   -1    0    0    0    0  0.00000000000E+00  0.00000000000E+00  0.45593999997E+02  0.45594000000E+02  0.51100000000E-03 0.  1.
         11   -1    0    0    0    0 -0.00000000000E+00 -0.00000000000E+00 -0.45593999997E+02  0.45594000000E+02  0.51100000000E-03 0. -1.
    9900012    2    1    2    0    0 -0.34426577823E+02  0.20614119092E+02  0.65601160872E+01  0.50528852326E+02  0.29999977130E+02 0.  0.
         12    1    1    2    0    0  0.34426577823E+02 -0.20614119092E+02 -0.65601160872E+01  0.40659147674E+02  0.00000000000E+00 0. -1.
         11    1    3    3    0    0 -0.95802327052E+01  0.17961813663E+02  0.43143863127E+00  0.20361575290E+02  0.51100000000E-03 0. -1.
        -11    1    3    3    0    0  0.24289305391E+00 -0.33381593024E+01 -0.83453652094E+00  0.34494573529E+01  0.51100000000E-03 0.  1.
        -12    1    3    3    0    0 -0.25089238171E+02  0.59904647311E+01  0.69632139768E+01  0.26717819683E+02  0.00000000000E+00 0.  1.
</event>
<event>
 7    1  0.5121289E-013  0.5052889E+02  0.7816164E-02  0.1300439E+00
        -11   -1    0    0    0    0  0.00000000000E+00  0.00000000000E+00  0.45593999997E+02  0.45594000000E+02  0.51100000000E-03 0. -1.
         11   -1    0    0    0    0 -0.00000000000E+00 -0.00000000000E+00 -0.45593999997E+02  0.45594000000E+02  0.51100000000E-03 0.  1.
    9900012    2    1    2    0    0  0.36085517476E+02 -0.12011643549E+02 -0.14377715561E+02  0.50528894538E+02  0.30000105436E+02 0.  0.
         12    1    1    2    0    0 -0.36085517476E+02  0.12011643549E+02  0.14377715561E+02  0.40659105462E+02  0.00000000000E+00 0. -1.
         11    1    3    3    0    0 -0.15537628057E+01 -0.98553317898E+00 -0.30744895371E+01  0.35830072116E+01  0.51100000000E-03 0. -1.
        -11    1    3    3    0    0  0.77047260518E+00  0.77466388596E-01  0.50525708296E+01  0.51115654477E+01  0.51100000000E-03 0.  1.
        -12    1    3    3    0    0  0.36868807676E+02 -0.11103576759E+02 -0.16355796854E+02  0.41834321878E+02  0.00000000000E+00 0.  1.
</event>
<event>
 7    1  0.5121289E-013  0.5052886E+02  0.7816164E-02  0.1300439E+00
        -11   -1    0    0    0    0  0.00000000000E+00  0.00000000000E+00  0.45593999997E+02  0.45594000000E+02  0.51100000000E-03 0.  1.
         11   -1    0    0    0    0 -0.00000000000E+00 -0.00000000000E+00 -0.45593999997E+02  0.45594000000E+02  0.51100000000E-03 0. -1.
    9900012    2    1    2    0    0  0.15381764135E+02  0.13405195983E+02  0.35169132094E+02  0.50528858353E+02  0.29999995448E+02 0.  0.
         12    1    1    2    0    0 -0.15381764135E+02 -0.13405195983E+02 -0.35169132094E+02  0.40659141647E+02  0.00000000000E+00 0. -1.
         11    1    3    3    0    0  0.46803187132E+01 -0.83272987827E+01  0.14968730929E+02  0.17757032245E+02  0.51100000000E-03 0. -1.
        -11    1    3    3    0    0  0.48042156601E+01  0.58469140375E+01  0.18416182293E+01  0.77883534739E+01  0.51100000000E-03 0.  1.
        -12    1    3    3    0    0  0.58972297619E+01  0.15885580728E+02  0.18358782936E+02  0.24983472633E+02  0.00000000000E+00 0.  1.
</event>
<event>
 7    1  0.5121289E-013  0.5052888E+02  0.7816164E-02  0.1300439E+00
        -11   -1    0    0    0    0  0.00000000000E+00  0.00000000000E+00  0.45593999997E+02  0.45594000000E+02  0.51100000000E-03 0.  1.
         11   -1    0    0    0    0 -0.00000000000E+00 -0.00000000000E+00 -0.45593999997E+02  0.45594000000E+02  0.51100000000E-03 0. -1.
    9900012    2    1    2    0    0  0.67790495557E+01  0.39498484424E+02  0.68613799558E+01  0.50528876552E+02  0.30000050766E+02 0.  0.
         12    1    1    2    0    0 -0.67790495557E+01 -0.39498484424E+02 -0.68613799558E+01  0.40659123448E+02  0.00000000000E+00 0. -1.
         11    1    3    3    0    0 -0.37452925226E+01  0.16484450001E+02 -0.57156305997E+01  0.17844683839E+02  0.51100000000E-03 0. -1.
        -11    1    3    3    0    0  0.30965652108E+01  0.47459774360E+01 -0.39882206288E+01  0.69295686715E+01  0.51100000000E-03 0.  1.
        -12    1    3    3    0    0  0.74277768675E+01  0.18268056987E+02  0.16565231184E+02  0.25754624041E+02  0.00000000000E+00 0.  1.
</event>
<event>
 7    1  0.5121289E-013  0.5052888E+02  0.7816164E-02  0.1300439E+00
        -11   -1    0    0    0    0  0.00000000000E+00  0.00000000000E+00  0.45593999997E+02  0.45594000000E+02  0.51100000000E-03 0.  1.
         11   -1    0    0    0    0 -0.00000000000E+00 -0.00000000000E+00 -0.45593999997E+02  0.45594000000E+02  0.51100000000E-03 0. -1.
    9900012    2    1    2    0    0 -0.26166292643E+02  0.13720187410E+02  0.27932878455E+02  0.50528879105E+02  0.30000058526E+02 0.  0.
         12    1    1    2    0    0  0.26166292643E+02 -0.13720187410E+02 -0.27932878455E+02  0.40659120895E+02  0.00000000000E+00 0. -1.
         11    1    3    3    0    0 -0.80644441802E+01  0.66023269026E+01  0.37829314776E-01  0.10422447495E+02  0.51100000000E-03 0. -1.
        -11    1    3    3    0    0 -0.73603591571E+01  0.13275854568E+02  0.94161749785E+01  0.17863021943E+02  0.51100000000E-03 0.  1.
         12    1    3    3    0    0 -0.10741489306E+02 -0.61579940610E+01  0.18478874161E+02  0.22243409667E+02  0.00000000000E+00 0. -1.
</event>
<event>
 7    1  0.5121289E-013  0.5052886E+02  0.7816164E-02  0.1300439E+00
        -11   -1    0    0    0    0  0.00000000000E+00  0.00000000000E+00  0.45593999997E+02  0.45594000000E+02  0.51100000000E-03 0. -1.
         11   -1    0    0    0    0 -0.00000000000E+00 -0.00000000000E+00 -0.45593999997E+02  0.45594000000E+02  0.51100000000E-03 0.  1.
    9900012    2    1    2    0    0 -0.11350785829E+02  0.18016880821E+02 -0.34636940456E+02  0.50528856162E+02  0.29999988791E+02 0.  0.
         12    1    1    2    0    0  0.11350785829E+02 -0.18016880821E+02  0.34636940456E+02  0.40659143838E+02  0.00000000000E+00 0. -1.
         11    1    3    3    0    0  0.21490068953E+01  0.40217674892E+01 -0.47546769054E+00  0.45846389344E+01  0.51100000000E-03 0. -1.
        -11    1    3    3    0    0  0.75779692877E+00  0.60962539078E+00  0.34326182871E+01  0.35677398824E+01  0.51100000000E-03 0.  1.
        -12    1    3    3    0    0 -0.14257589653E+02  0.13385487941E+02 -0.37594091053E+02  0.42376477345E+02  0.00000000000E+00 0.  1.
</event>
<event>
 7    1  0.5121289E-013  0.5052889E+02  0.7816164E-02  0.1300439E+00
        -11   -1    0    0    0    0  0.00000000000E+00  0.00000000000E+00  0.45593999997E+02  0.45594000000E+02  0.51100000000E-03 0.  1.
         11   -1    0    0    0    0 -0.00000000000E+00 -0.00000000000E+00 -0.45593999997E+02  0.45594000000E+02  0.51100000000E-03 0. -1.
    9900012    2    1    2    0    0 -0.22377383688E+02  0.10057274250E+02  0.32423246873E+02  0.50528892732E+02  0.30000099949E+02 0.  0.
         12    1    1    2    0    0  0.22377383688E+02 -0.10057274250E+02 -0.32423246873E+02  0.40659107268E+02  0.00000000000E+00 0. -1.
         11    1    3    3    0    0  0.95248755565E+00 -0.12466403234E+01  0.51060538116E+01  0.53416411737E+01  0.51100000000E-03 0. -1.
        -11    1    3    3    0    0 -0.11617179518E+02  0.16067241069E+02  0.25670981524E+02  0.32436312802E+02  0.51100000000E-03 0.  1.
         12    1    3    3    0    0 -0.11712691725E+02 -0.47633264956E+01  0.16462115367E+01  0.12750938756E+02  0.00000000000E+00 0. -1.
</event>
<event>
 7    1  0.5121289E-013  0.5052886E+02  0.7816164E-02  0.1300439E+00
        -11   -1    0    0    0    0  0.00000000000E+00  0.00000000000E+00  0.45593999997E+02  0.45594000000E+02  0.51100000000E-03 0.  1.
         11   -1    0    0    0    0 -0.00000000000E+00 -0.00000000000E+00 -0.45593999997E+02  0.45594000000E+02  0.51100000000E-03 0. -1.
    9900012    2    1    2    0    0  0.16670254340E+02 -0.17019752198E+02  0.32948390828E+02  0.50528858312E+02  0.29999995324E+02 0.  0.
         12    1    1    2    0    0 -0.16670254340E+02  0.17019752198E+02 -0.32948390828E+02  0.40659141688E+02  0.00000000000E+00 0. -1.
         11    1    3    3    0    0  0.10579038361E+02 -0.79319056896E+01  0.71575363318E+01  0.15035341936E+02  0.51100000000E-03 0. -1.
        -11    1    3    3    0    0  0.72570179827E+01 -0.13432656578E+01 -0.11212508217E+01  0.74649766440E+01  0.51100000000E-03 0.  1.
        -12    1    3    3    0    0 -0.11658020036E+01 -0.77445808504E+01  0.26912105318E+02  0.28028539732E+02  0.00000000000E+00 0.  1.
</event>
<event>
 7    1  0.5121289E-013  0.5052886E+02  0.7816164E-02  0.1300439E+00
        -11   -1    0    0    0    0  0.00000000000E+00  0.00000000000E+00  0.45593999997E+02  0.45594000000E+02  0.51100000000E-03 0. -1.
         11   -1    0    0    0    0 -0.00000000000E+00 -0.00000000000E+00 -0.45593999997E+02  0.45594000000E+02  0.51100000000E-03 0.  1.
    9900012    2    1    2    0    0 -0.39877644902E+02 -0.92511968949E+00 -0.78793150538E+01  0.50528855702E+02  0.29999987391E+02 0.  0.
         12    1    1    2    0    0  0.39877644902E+02  0.92511968949E+00  0.78793150538E+01  0.40659144298E+02  0.00000000000E+00 0. -1.
         11    1    3    3    0    0 -0.11722110612E+02 -0.80501481285E+01  0.31839166029E+01  0.14572236866E+02  0.51100000000E-03 0. -1.
        -11    1    3    3    0    0 -0.20127636730E+02 -0.29531535645E+01 -0.25240561874E+01  0.20499115499E+02  0.51100000000E-03 0.  1.
        -12    1    3    3    0    0 -0.80278975597E+01  0.10078182003E+02 -0.85391754692E+01  0.15457503337E+02  0.00000000000E+00 0.  1.
</event>
<event>
 7    1  0.5121289E-013  0.5052887E+02  0.7816164E-02  0.1300439E+00
        -11   -1    0    0    0    0  0.00000000000E+00  0.00000000000E+00  0.45593999997E+02  0.45594000000E+02  0.51100000000E-03 0.  1.
         11   -1    0    0    0    0 -0.00000000000E+00 -0.00000000000E+00 -0.45593999997E+02  0.45594000000E+02  0.51100000000E-03 0. -1.
    9900012    2    1    2    0    0  0.38012079408E+02 -0.39571530487E+01  0.13877582738E+02  0.50528873795E+02  0.30000042386E+02 0.  0.
         12    1    1    2    0    0 -0.38012079408E+02  0.39571530487E+01 -0.13877582738E+02  0.40659126205E+02  0.00000000000E+00 0. -1.
         11    1    3    3    0    0  0.26317910354E+01  0.34672323623E+00  0.10792917565E+02  0.11114567508E+02  0.51100000000E-03 0. -1.
        -11    1    3    3    0    0  0.10283412597E+02 -0.52979912211E+01  0.76739886790E+01  0.13881908663E+02  0.51100000000E-03 0.  1.
         12    1    3    3    0    0  0.25096875775E+02  0.99411493619E+00 -0.45893235062E+01  0.25532397623E+02  0.00000000000E+00 0. -1.
</event>
<event>
 7    1  0.5121289E-013  0.5052885E+02  0.7816164E-02  0.1300439E+00
        -11   -1    0    0    0    0  0.00000000000E+00  0.00000000000E+00  0.45593999997E+02  0.45594000000E+02  0.51100000000E-03 0.  1.
         11   -1    0    0    0    0 -0.00000000000E+00 -0.00000000000E+00 -0.45593999997E+02  0.45594000000E+02  0.51100000000E-03 0. -1.
    9900012    2    1    2    0    0 -0.33654185866E+02 -0.17438057454E+02  0.14713126039E+02  0.50528854018E+02  0.29999982274E+02 0.  0.
         12    1    1    2    0    0  0.33654185866E+02  0.17438057454E+02 -0.14713126039E+02  0.40659145982E+02  0.00000000000E+00 0. -1.
         11    1    3    3    0    0  0.21917503109E+01 -0.35978774029E+01  0.17690471801E+01  0.45692471391E+01  0.51100000000E-03 0. -1.
        -11    1    3    3    0    0 -0.12485497670E+02 -0.75813517361E+01 -0.54336309930E+01  0.15584893078E+02  0.51100000000E-03 0.  1.
         12    1    3    3    0    0 -0.23360438507E+02 -0.62588283155E+01  0.18377709852E+02  0.30374713802E+02  0.00000000000E+00 0. -1.
</event>
<event>
 7    1  0.5121289E-013  0.5052887E+02  0.7816164E-02  0.1300439E+00
        -11   -1    0    0    0    0  0.00000000000E+00  0.00000000000E+00  0.45593999997E+02  0.45594000000E+02  0.51100000000E-03 0. -1.
         11   -1    0    0    0    0 -0.00000000000E+00 -0.00000000000E+00 -0.45593999997E+02  0.45594000000E+02  0.51100000000E-03 0.  1.
    9900012    2    1    2    0    0  0.29365189572E+02  0.56423310930E+01 -0.27550216879E+02  0.50528871765E+02  0.30000036217E+02 0.  0.
         12    1    1    2    0    0 -0.29365189572E+02 -0.56423310930E+01  0.27550216879E+02  0.40659128235E+02  0.00000000000E+00 0. -1.
         11    1    3    3    0    0  0.20690603686E+02  0.10181512925E+02 -0.19625266381E+02  0.30280610415E+02  0.51100000000E-03 0. -1.
        -11    1    3    3    0    0  0.14458784064E+01  0.52106718083E+01 -0.57938467727E+01  0.79252965715E+01  0.51100000000E-03 0.  1.
         12    1    3    3    0    0  0.72287074792E+01 -0.97498536405E+01 -0.21311037255E+01  0.12322964778E+02  0.00000000000E+00 0. -1.
</event>
<event>
 7    1  0.5121289E-013  0.5052885E+02  0.7816164E-02  0.1300439E+00
        -11   -1    0    0    0    0  0.00000000000E+00  0.00000000000E+00  0.45593999997E+02  0.45594000000E+02  0.51100000000E-03 0. -1.
         11   -1    0    0    0    0 -0.00000000000E+00 -0.00000000000E+00 -0.45593999997E+02  0.45594000000E+02  0.51100000000E-03 0.  1.
    9900012    2    1    2    0    0  0.37377451475E+02 -0.53662700269E+01 -0.15076323569E+02  0.50528852626E+02  0.29999978043E+02 0.  0.
         12    1    1    2    0    0 -0.37377451475E+02  0.53662700269E+01  0.15076323569E+02  0.40659147374E+02  0.00000000000E+00 0. -1.
         11    1    3    3    0    0  0.14896550422E+02 -0.69383856792E+01  0.22250974946E+01  0.16583107954E+02  0.51100000000E-03 0. -1.
        -11    1    3    3    0    0  0.10045837998E+02 -0.56736430176E+01 -0.12655948647E+00  0.11537985255E+02  0.51100000000E-03 0.  1.
         12    1    3    3    0    0  0.12435063056E+02  0.72457586698E+01 -0.17174861578E+02  0.22407759417E+02  0.00000000000E+00 0. -1.
</event>
<event>
 7    1  0.5121289E-013  0.5052884E+02  0.7816164E-02  0.1300439E+00
        -11   -1    0    0    0    0  0.00000000000E+00  0.00000000000E+00  0.45593999997E+02  0.45594000000E+02  0.51100000000E-03 0.  1.
         11   -1    0    0    0    0 -0.00000000000E+00 -0.00000000000E+00 -0.45593999997E+02  0.45594000000E+02  0.51100000000E-03 0. -1.
    9900012    2    1    2    0    0  0.39448917871E+02 -0.65537726958E+01 -0.73483717197E+01  0.50528835908E+02  0.29999927226E+02 0.  0.
         12    1    1    2    0    0 -0.39448917871E+02  0.65537726958E+01  0.73483717197E+01  0.40659164092E+02  0.00000000000E+00 0. -1.
         11    1    3    3    0    0  0.52824334422E+01  0.27472319715E+01 -0.83271838886E+01  0.10236863697E+02  0.51100000000E-03 0. -1.
        -11    1    3    3    0    0  0.16563440800E+02 -0.12695713836E+02 -0.48785558746E+01  0.21431962780E+02  0.51100000000E-03 0.  1.
        -12    1    3    3    0    0  0.17603043629E+02  0.33947091685E+01  0.58573680434E+01  0.18860009431E+02  0.00000000000E+00 0.  1.
</event>
<event>
 7    1  0.5121289E-013  0.5052885E+02  0.7816164E-02  0.1300439E+00
        -11   -1    0    0    0    0  0.00000000000E+00  0.00000000000E+00  0.45593999997E+02  0.45594000000E+02  0.51100000000E-03 0.  1.
         11   -1    0    0    0    0 -0.00000000000E+00 -0.00000000000E+00 -0.45593999997E+02  0.45594000000E+02  0.51100000000E-03 0. -1.
    9900012    2    1    2    0    0 -0.35977707692E+02 -0.74957879914E+01  0.17394936219E+02  0.50528854726E+02  0.29999984424E+02 0.  0.
         12    1    1    2    0    0  0.35977707692E+02  0.74957879914E+01 -0.17394936219E+02  0.40659145274E+02  0.00000000000E+00 0. -1.
         11    1    3    3    0    0 -0.15901376755E+02  0.80865903152E+01  0.45626668510E+01  0.18413708336E+02  0.51100000000E-03 0. -1.
        -11    1    3    3    0    0 -0.13907292113E+02 -0.14050857872E+01  0.61963500035E+01  0.15289924578E+02  0.51100000000E-03 0.  1.
        -12    1    3    3    0    0 -0.61690388241E+01 -0.14177292519E+02  0.66359193644E+01  0.16825221811E+02  0.00000000000E+00 0.  1.
</event>
<event>
 7    1  0.5121289E-013  0.5052885E+02  0.7816164E-02  0.1300439E+00
        -11   -1    0    0    0    0  0.00000000000E+00  0.00000000000E+00  0.45593999997E+02  0.45594000000E+02  0.51100000000E-03 0.  1.
         11   -1    0    0    0    0 -0.00000000000E+00 -0.00000000000E+00 -0.45593999997E+02  0.45594000000E+02  0.51100000000E-03 0. -1.
    9900012    2    1    2    0    0  0.14348865462E+01 -0.11797865004E+02  0.38883390597E+02  0.50528848725E+02  0.29999966186E+02 0.  0.
         12    1    1    2    0    0 -0.14348865462E+01  0.11797865004E+02 -0.38883390597E+02  0.40659151275E+02  0.00000000000E+00 0. -1.
         11    1    3    3    0    0  0.36186112904E+01  0.76662289419E+01  0.12116346125E+02  0.14787537238E+02  0.51100000000E-03 0. -1.
        -11    1    3    3    0    0  0.56647579997E+00 -0.57260188307E+01  0.18719615773E+02  0.19583978182E+02  0.51100000000E-03 0.  1.
         12    1    3    3    0    0 -0.27502005442E+01 -0.13738075115E+02  0.80474286984E+01  0.16157333306E+02  0.00000000000E+00 0. -1.
</event>
<event>
 7    1  0.5121289E-013  0.5052886E+02  0.7816164E-02  0.1300439E+00
        -11   -1    0    0    0    0  0.00000000000E+00  0.00000000000E+00  0.45593999997E+02  0.45594000000E+02  0.51100000000E-03 0. -1.
         11   -1    0    0    0    0 -0.00000000000E+00 -0.00000000000E+00 -0.45593999997E+02  0.45594000000E+02  0.51100000000E-03 0.  1.
    9900012    2    1    2    0    0 -0.32486765751E+02  0.36375581764E+01 -0.24177343136E+02  0.50528859582E+02  0.29999999186E+02 0.  0.
         12    1    1    2    0    0  0.32486765751E+02 -0.36375581764E+01  0.24177343136E+02  0.40659140418E+02  0.00000000000E+00 0. -1.
         11    1    3    3    0    0  0.22059968278E+01 -0.22535874502E+01 -0.24534325618E+01  0.39955487729E+01  0.51100000000E-03 0. -1.
        -11    1    3    3    0    0 -0.42977097025E+00  0.49191948519E+01  0.14635704567E+01  0.51502640535E+01  0.51100000000E-03 0.  1.
        -12    1    3    3    0    0 -0.34262991608E+02  0.97195077468E+00 -0.23187481030E+02  0.41383046756E+02  0.00000000000E+00 0.  1.
</event>
<event>
 7    1  0.5121289E-013  0.5052886E+02  0.7816164E-02  0.1300439E+00
        -11   -1    0    0    0    0  0.00000000000E+00  0.00000000000E+00  0.45593999997E+02  0.45594000000E+02  0.51100000000E-03 0. -1.
         11   -1    0    0    0    0 -0.00000000000E+00 -0.00000000000E+00 -0.45593999997E+02  0.45594000000E+02  0.51100000000E-03 0.  1.
    9900012    2    1    2    0    0 -0.32514237066E+02  0.74212485290E+01 -0.23257582530E+02  0.50528859738E+02  0.29999999659E+02 0.  0.
         12    1    1    2    0    0  0.32514237066E+02 -0.74212485290E+01  0.23257582530E+02  0.40659140262E+02  0.00000000000E+00 0. -1.
         11    1    3    3    0    0 -0.24033103381E+02 -0.15717908573E+01 -0.92795759880E+01  0.25810290882E+02  0.51100000000E-03 0.  1.
        -11    1    3    3    0    0 -0.64290317938E+01 -0.37296266947E+01 -0.41591233797E+01  0.85170929686E+01  0.51100000000E-03 0. -1.
        -12    1    3    3    0    0 -0.20521018915E+01  0.12722666081E+02 -0.98188831624E+01  0.16201475888E+02  0.00000000000E+00 0.  1.
</event>
<event>
 7    1  0.5121289E-013  0.5052886E+02  0.7816164E-02  0.1300439E+00
        -11   -1    0    0    0    0  0.00000000000E+00  0.00000000000E+00  0.45593999997E+02  0.45594000000E+02  0.51100000000E-03 0.  1.
         11   -1    0    0    0    0 -0.00000000000E+00 -0.00000000000E+00 -0.45593999997E+02  0.45594000000E+02  0.51100000000E-03 0. -1.
    9900012    2    1    2    0    0  0.54980057577E-01  0.38392291871E+02  0.13386349371E+02  0.50528862682E+02  0.30000008609E+02 0.  0.
         12    1    1    2    0    0 -0.54980057577E-01 -0.38392291871E+02 -0.13386349371E+02  0.40659137318E+02  0.00000000000E+00 0. -1.
         11    1    3    3    0    0 -0.51011272249E+01  0.13960200524E+02 -0.13957677322E+01  0.14928391254E+02  0.51100000000E-03 0. -1.
        -11    1    3    3    0    0 -0.27313306127E+01  0.19136563057E+00 -0.33436012744E+01  0.43216267150E+01  0.51100000000E-03 0.  1.
        -12    1    3    3    0    0  0.78874378952E+01  0.24240725717E+02  0.18125718378E+02  0.31278844713E+02  0.00000000000E+00 0.  1.
</event>
<event>
 7    1  0.5121289E-013  0.5052885E+02  0.7816164E-02  0.1300439E+00
        -11   -1    0    0    0    0  0.00000000000E+00  0.00000000000E+00  0.45593999997E+02  0.45594000000E+02  0.51100000000E-03 0.  1.
         11   -1    0    0    0    0 -0.00000000000E+00 -0.00000000000E+00 -0.45593999997E+02  0.45594000000E+02  0.51100000000E-03 0. -1.
    9900012    2    1    2    0    0  0.24781272909E+02 -0.33080336767E+01  0.32064186577E+02  0.50528848083E+02  0.29999964232E+02 0.  0.
         12    1    1    2    0    0 -0.24781272909E+02  0.33080336767E+01 -0.32064186577E+02  0.40659151917E+02  0.00000000000E+00 0. -1.
         11    1    3    3    0    0 -0.19418633772E+01 -0.30802844074E+01  0.10757606161E+01  0.37968732623E+01  0.51100000000E-03 0. -1.
        -11    1    3    3    0    0  0.14196732414E+02 -0.98345572688E+01  0.23750048705E+02  0.29365465119E+02  0.51100000000E-03 0.  1.
         12    1    3    3    0    0  0.12526403872E+02  0.96068079996E+01  0.72383772558E+01  0.17366509701E+02  0.00000000000E+00 0. -1.
</event>
<event>
 7    1  0.5121289E-013  0.5052886E+02  0.7816164E-02  0.1300439E+00
        -11   -1    0    0    0    0  0.00000000000E+00  0.00000000000E+00  0.45593999997E+02  0.45594000000E+02  0.51100000000E-03 0. -1.
         11   -1    0    0    0    0 -0.00000000000E+00 -0.00000000000E+00 -0.45593999997E+02  0.45594000000E+02  0.51100000000E-03 0.  1.
    9900012    2    1    2    0    0 -0.84201182386E+01  0.28096257639E+01 -0.39678370914E+02  0.50528861956E+02  0.30000006401E+02 0.  0.
         12    1    1    2    0    0  0.84201182386E+01 -0.28096257639E+01  0.39678370914E+02  0.40659138044E+02  0.00000000000E+00 0. -1.
         11    1    3    3    0    0  0.43562964777E+01  0.62334420337E+01 -0.13991512789E+01  0.77324474231E+01  0.51100000000E-03 0. -1.
        -11    1    3    3    0    0 -0.29702677828E+01 -0.51110383815E+01 -0.40892934822E+01  0.71880126240E+01  0.51100000000E-03 0.  1.
        -12    1    3    3    0    0 -0.98061469335E+01  0.16872221116E+01 -0.34189926153E+02  0.35608401909E+02  0.00000000000E+00 0.  1.
</event>
<event>
 7    1  0.5121289E-013  0.5052886E+02  0.7816164E-02  0.1300439E+00
        -11   -1    0    0    0    0  0.00000000000E+00  0.00000000000E+00  0.45593999997E+02  0.45594000000E+02  0.51100000000E-03 0. -1.
         11   -1    0    0    0    0 -0.00000000000E+00 -0.00000000000E+00 -0.45593999997E+02  0.45594000000E+02  0.51100000000E-03 0.  1.
    9900012    2    1    2    0    0 -0.75564724051E+01  0.38117175471E+02 -0.11964389118E+02  0.50528856526E+02  0.29999989896E+02 0.  0.
         12    1    1    2    0    0  0.75564724051E+01 -0.38117175471E+02  0.11964389118E+02  0.40659143474E+02  0.00000000000E+00 0. -1.
         11    1    3    3    0    0  0.89154092708E+00  0.11249590380E+02  0.62919831657E+01  0.12920417229E+02  0.51100000000E-03 0. -1.
        -11    1    3    3    0    0  0.32350444431E+01  0.14063442948E+02 -0.35108302470E+01  0.14851662176E+02  0.51100000000E-03 0.  1.
        -12    1    3    3    0    0 -0.11683057775E+02  0.12804142142E+02 -0.14745542037E+02  0.22756777121E+02  0.00000000000E+00 0.  1.
</event>
<event>
 7    1  0.5121289E-013  0.5052886E+02  0.7816164E-02  0.1300439E+00
        -11   -1    0    0    0    0  0.00000000000E+00  0.00000000000E+00  0.45593999997E+02  0.45594000000E+02  0.51100000000E-03 0. -1.
         11   -1    0    0    0    0 -0.00000000000E+00 -0.00000000000E+00 -0.45593999997E+02  0.45594000000E+02  0.51100000000E-03 0.  1.
    9900012    2    1    2    0    0  0.13621615626E+02  0.18089735094E+02 -0.33769494653E+02  0.50528859612E+02  0.29999999275E+02 0.  0.
         12    1    1    2    0    0 -0.13621615626E+02 -0.18089735094E+02  0.33769494653E+02  0.40659140388E+02  0.00000000000E+00 0. -1.
         11    1    3    3    0    0  0.23406110172E+01  0.84910116066E+01 -0.13895241270E+02  0.16451549114E+02  0.51100000000E-03 0. -1.
        -11    1    3    3    0    0  0.27488098553E+01  0.14705023468E+02 -0.18874026811E+02  0.24083657512E+02  0.51100000000E-03 0.  1.
         12    1    3    3    0    0  0.85321947539E+01 -0.51062999806E+01 -0.10002265716E+01  0.99936529860E+01  0.00000000000E+00 0. -1.
</event>
<event>
 7    1  0.5121289E-013  0.5052886E+02  0.7816164E-02  0.1300439E+00
        -11   -1    0    0    0    0  0.00000000000E+00  0.00000000000E+00  0.45593999997E+02  0.45594000000E+02  0.51100000000E-03 0.  1.
         11   -1    0    0    0    0 -0.00000000000E+00 -0.00000000000E+00 -0.45593999997E+02  0.45594000000E+02  0.51100000000E-03 0. -1.
    9900012    2    1    2    0    0 -0.13238467688E+02 -0.35820377479E+02  0.13957404395E+02  0.50528860721E+02  0.30000002648E+02 0.  0.
         12    1    1    2    0    0  0.13238467688E+02  0.35820377479E+02 -0.13957404395E+02  0.40659139279E+02  0.00000000000E+00 0. -1.
         11    1    3    3    0    0 -0.20490681674E+01 -0.36216291580E+01 -0.29040047856E+00  0.41712361251E+01  0.51100000000E-03 0. -1.
        -11    1    3    3    0    0  0.32465345144E+01 -0.59072309197E+00  0.10969115969E+02  0.11454712808E+02  0.51100000000E-03 0.  1.
        -12    1    3    3    0    0 -0.14435934035E+02 -0.31608025229E+02  0.32786889054E+01  0.34902911788E+02  0.00000000000E+00 0.  1.
</event>
<event>
 7    1  0.5121289E-013  0.5052888E+02  0.7816164E-02  0.1300439E+00
        -11   -1    0    0    0    0  0.00000000000E+00  0.00000000000E+00  0.45593999997E+02  0.45594000000E+02  0.51100000000E-03 0.  1.
         11   -1    0    0    0    0 -0.00000000000E+00 -0.00000000000E+00 -0.45593999997E+02  0.45594000000E+02  0.51100000000E-03 0. -1.
    9900012    2    1    2    0    0 -0.20596254471E+02  0.34973032660E+02 -0.24177907534E+01  0.50528875270E+02  0.30000046872E+02 0.  0.
         12    1    1    2    0    0  0.20596254471E+02 -0.34973032660E+02  0.24177907534E+01  0.40659124730E+02  0.00000000000E+00 0. -1.
         11    1    3    3    0    0 -0.10664290084E+01 -0.14099075036E+01 -0.23724555170E+00  0.17836467452E+01  0.51100000000E-03 0. -1.
        -11    1    3    3    0    0 -0.55064329856E+01 -0.28699216298E+01 -0.33314737921E+01  0.70466993887E+01  0.51100000000E-03 0.  1.
        -12    1    3    3    0    0 -0.14023392477E+02  0.39252861793E+02  0.11509285904E+01  0.41698529136E+02  0.00000000000E+00 0.  1.
</event>
<event>
 7    1  0.5121289E-013  0.5052886E+02  0.7816164E-02  0.1300439E+00
        -11   -1    0    0    0    0  0.00000000000E+00  0.00000000000E+00  0.45593999997E+02  0.45594000000E+02  0.51100000000E-03 0.  1.
         11   -1    0    0    0    0 -0.00000000000E+00 -0.00000000000E+00 -0.45593999997E+02  0.45594000000E+02  0.51100000000E-03 0. -1.
    9900012    2    1    2    0    0 -0.95216713403E+00 -0.17316177455E+02  0.36775118255E+02  0.50528856544E+02  0.29999989950E+02 0.  0.
         12    1    1    2    0    0  0.95216713403E+00  0.17316177455E+02 -0.36775118255E+02  0.40659143456E+02  0.00000000000E+00 0. -1.
         11    1    3    3    0    0  0.47059900006E+01 -0.36758635503E+01  0.81283440702E+01  0.10086044433E+02  0.51100000000E-03 0.  1.
        -11    1    3    3    0    0  0.75828378760E+01  0.10909981108E+01  0.34747679047E+01  0.84121174138E+01  0.51100000000E-03 0. -1.
        -12    1    3    3    0    0 -0.13240995011E+02 -0.14731312016E+02  0.25172006280E+02  0.32030694697E+02  0.00000000000E+00 0.  1.
</event>
<event>
 7    1  0.5121289E-013  0.5052886E+02  0.7816164E-02  0.1300439E+00
        -11   -1    0    0    0    0  0.00000000000E+00  0.00000000000E+00  0.45593999997E+02  0.45594000000E+02  0.51100000000E-03 0.  1.
         11   -1    0    0    0    0 -0.00000000000E+00 -0.00000000000E+00 -0.45593999997E+02  0.45594000000E+02  0.51100000000E-03 0. -1.
    9900012    2    1    2    0    0  0.23828087732E+02  0.25562168985E+02  0.20783734468E+02  0.50528857528E+02  0.29999992941E+02 0.  0.
         12    1    1    2    0    0 -0.23828087732E+02 -0.25562168985E+02 -0.20783734468E+02  0.40659142472E+02  0.00000000000E+00 0. -1.
         11    1    3    3    0    0  0.88854315860E+01  0.39088975268E+01  0.12349404599E+02  0.15707901469E+02  0.51100000000E-03 0. -1.
        -11    1    3    3    0    0  0.82718438412E+00  0.69984731178E+01  0.12237271165E+02  0.14121390364E+02  0.51100000000E-03 0.  1.
         12    1    3    3    0    0  0.14115471762E+02  0.14654798340E+02 -0.38029412962E+01  0.20699565695E+02  0.00000000000E+00 0. -1.
</event>
<event>
 7    1  0.5121289E-013  0.5052888E+02  0.7816164E-02  0.1300439E+00
        -11   -1    0    0    0    0  0.00000000000E+00  0.00000000000E+00  0.45593999997E+02  0.45594000000E+02  0.51100000000E-03 0.  1.
         11   -1    0    0    0    0 -0.00000000000E+00 -0.00000000000E+00 -0.45593999997E+02  0.45594000000E+02  0.51100000000E-03 0. -1.
    9900012    2    1    2    0    0  0.39568646450E+02  0.88566912328E+01  0.30074935395E+01  0.50528883201E+02  0.30000070977E+02 0.  0.
         12    1    1    2    0    0 -0.39568646450E+02 -0.88566912328E+01 -0.30074935395E+01  0.40659116799E+02  0.00000000000E+00 0. -1.
         11    1    3    3    0    0  0.27027740518E+02  0.81842883310E+01  0.12729832554E+01  0.28268389052E+02  0.51100000000E-03 0. -1.
        -11    1    3    3    0    0  0.15865625413E+02 -0.28094491424E+01 -0.19059217116E+01  0.16224783884E+02  0.51100000000E-03 0.  1.
         12    1    3    3    0    0 -0.33247194811E+01  0.34818520441E+01  0.36404319958E+01  0.60357102648E+01  0.00000000000E+00 0. -1.
</event>
<event>
 7    1  0.5121289E-013  0.5052886E+02  0.7816164E-02  0.1300439E+00
        -11   -1    0    0    0    0  0.00000000000E+00  0.00000000000E+00  0.45593999997E+02  0.45594000000E+02  0.51100000000E-03 0.  1.
         11   -1    0    0    0    0 -0.00000000000E+00 -0.00000000000E+00 -0.45593999997E+02  0.45594000000E+02  0.51100000000E-03 0. -1.
    9900012    2    1    2    0    0 -0.20784541803E+02  0.11111715305E+02  0.33131534066E+02  0.50528856569E+02  0.29999990028E+02 0.  0.
         12    1    1    2    0    0  0.20784541803E+02 -0.11111715305E+02 -0.33131534066E+02  0.40659143431E+02  0.00000000000E+00 0. -1.
         11    1    3    3    0    0 -0.14301606017E+02 -0.81819894648E+00  0.23387780006E+02  0.27426148801E+02  0.51100000000E-03 0.  1.
        -11    1    3    3    0    0 -0.19005135884E+01 -0.34987051903E+01  0.48612462066E+01  0.62836776533E+01  0.51100000000E-03 0. -1.
         12    1    3    3    0    0 -0.45824221970E+01  0.15428619442E+02  0.48825078536E+01  0.16819030115E+02  0.00000000000E+00 0. -1.
</event>
<event>
 7    1  0.5121289E-013  0.5052886E+02  0.7816164E-02  0.1300439E+00
        -11   -1    0    0    0    0  0.00000000000E+00  0.00000000000E+00  0.45593999997E+02  0.45594000000E+02  0.51100000000E-03 0. -1.
         11   -1    0    0    0    0 -0.00000000000E+00 -0.00000000000E+00 -0.45593999997E+02  0.45594000000E+02  0.51100000000E-03 0.  1.
    9900012    2    1    2    0    0 -0.62951533306E+01  0.39201111451E+02  0.87641099348E+01  0.50528859362E+02  0.29999998517E+02 0.  0.
         12    1    1    2    0    0  0.62951533306E+01 -0.39201111451E+02 -0.87641099348E+01  0.40659140638E+02  0.00000000000E+00 0. -1.
         11    1    3    3    0    0  0.77228147008E-01  0.46082481058E+00  0.47283975802E+01  0.47514279569E+01  0.51100000000E-03 0. -1.
        -11    1    3    3    0    0 -0.13244036123E+02  0.24570643423E+02  0.88967292822E+01  0.29296293336E+02  0.51100000000E-03 0.  1.
         12    1    3    3    0    0  0.68716546455E+01  0.14169643218E+02 -0.48610169276E+01  0.16481138069E+02  0.00000000000E+00 0. -1.
</event>
<event>
 7    1  0.5121289E-013  0.5052886E+02  0.7816164E-02  0.1300439E+00
        -11   -1    0    0    0    0  0.00000000000E+00  0.00000000000E+00  0.45593999997E+02  0.45594000000E+02  0.51100000000E-03 0.  1.
         11   -1    0    0    0    0 -0.00000000000E+00 -0.00000000000E+00 -0.45593999997E+02  0.45594000000E+02  0.51100000000E-03 0. -1.
    9900012    2    1    2    0    0 -0.39952816566E+00 -0.19562382104E+02  0.35641534189E+02  0.50528863564E+02  0.30000011290E+02 0.  0.
         12    1    1    2    0    0  0.39952816566E+00  0.19562382104E+02 -0.35641534189E+02  0.40659136436E+02  0.00000000000E+00 0. -1.
         11    1    3    3    0    0  0.12155350684E+01  0.14176928746E+01  0.59882609830E+01  0.62726906867E+01  0.51100000000E-03 0. -1.
        -11    1    3    3    0    0 -0.41152007247E+01  0.31614016240E+01 -0.86772147660E+00  0.52613950674E+01  0.51100000000E-03 0.  1.
         12    1    3    3    0    0  0.25001374906E+01 -0.24141476603E+02  0.30520994683E+02  0.38994777810E+02  0.00000000000E+00 0. -1.
</event>
<event>
 7    1  0.5121289E-013  0.5052887E+02  0.7816164E-02  0.1300439E+00
        -11   -1    0    0    0    0  0.00000000000E+00  0.00000000000E+00  0.45593999997E+02  0.45594000000E+02  0.51100000000E-03 0.  1.
         11   -1    0    0    0    0 -0.00000000000E+00 -0.00000000000E+00 -0.45593999997E+02  0.45594000000E+02  0.51100000000E-03 0. -1.
    9900012    2    1    2    0    0 -0.16799679513E+02  0.25855491243E+02  0.26503380961E+02  0.50528869887E+02  0.30000030510E+02 0.  0.
         12    1    1    2    0    0  0.16799679513E+02 -0.25855491243E+02 -0.26503380961E+02  0.40659130113E+02  0.00000000000E+00 0. -1.
         11    1    3    3    0    0 -0.85743384106E+01  0.77491175439E+01  0.47157763946E+01  0.12482253368E+02  0.51100000000E-03 0. -1.
        -11    1    3    3    0    0 -0.16667366554E+02  0.10070281578E+02  0.12460380750E+02  0.23118667081E+02  0.51100000000E-03 0.  1.
         12    1    3    3    0    0  0.84420254515E+01  0.80360921208E+01  0.93272238161E+01  0.14927949438E+02  0.00000000000E+00 0. -1.
</event>
<event>
 7    1  0.5121289E-013  0.5052886E+02  0.7816164E-02  0.1300439E+00
        -11   -1    0    0    0    0  0.00000000000E+00  0.00000000000E+00  0.45593999997E+02  0.45594000000E+02  0.51100000000E-03 0.  1.
         11   -1    0    0    0    0 -0.00000000000E+00 -0.00000000000E+00 -0.45593999997E+02  0.45594000000E+02  0.51100000000E-03 0. -1.
    9900012    2    1    2    0    0 -0.20683600890E+02 -0.22879494705E-01  0.35005054310E+02  0.50528859619E+02  0.29999999298E+02 0.  0.
         12    1    1    2    0    0  0.20683600890E+02  0.22879494705E-01 -0.35005054310E+02  0.40659140381E+02  0.00000000000E+00 0. -1.
         11    1    3    3    0    0 -0.68782942220E+01 -0.22151228279E+01  0.27058995636E+02  0.28007265943E+02  0.51100000000E-03 0. -1.
        -11    1    3    3    0    0  0.29571004931E+01  0.20865445900E+01 -0.65985115250E+00  0.36787926629E+01  0.51100000000E-03 0.  1.
         12    1    3    3    0    0 -0.16762407161E+02  0.10569874327E+00  0.86059098271E+01  0.18842801013E+02  0.00000000000E+00 0. -1.
</event>
<event>
 7    1  0.5121289E-013  0.5052888E+02  0.7816164E-02  0.1300439E+00
        -11   -1    0    0    0    0  0.00000000000E+00  0.00000000000E+00  0.45593999997E+02  0.45594000000E+02  0.51100000000E-03 0. -1.
         11   -1    0    0    0    0 -0.00000000000E+00 -0.00000000000E+00 -0.45593999997E+02  0.45594000000E+02  0.51100000000E-03 0.  1.
    9900012    2    1    2    0    0 -0.35131864518E+02  0.20237523693E+02  0.30591739666E+01  0.50528882756E+02  0.30000069624E+02 0.  0.
         12    1    1    2    0    0  0.35131864518E+02 -0.20237523693E+02 -0.30591739666E+01  0.40659117244E+02  0.00000000000E+00 0. -1.
         11    1    3    3    0    0 -0.13711238625E+01 -0.46107796485E+01 -0.22705687434E+01  0.53192811819E+01  0.51100000000E-03 0. -1.
        -11    1    3    3    0    0 -0.15103209779E+02  0.75741953944E+01 -0.52163451123E+01  0.17682919388E+02  0.51100000000E-03 0.  1.
         12    1    3    3    0    0 -0.18657530876E+02  0.17274107948E+02  0.10546087822E+02  0.27526682185E+02  0.00000000000E+00 0. -1.
</event>
<event>
 7    1  0.5121289E-013  0.5052888E+02  0.7816164E-02  0.1300439E+00
        -11   -1    0    0    0    0  0.00000000000E+00  0.00000000000E+00  0.45593999997E+02  0.45594000000E+02  0.51100000000E-03 0.  1.
         11   -1    0    0    0    0 -0.00000000000E+00 -0.00000000000E+00 -0.45593999997E+02  0.45594000000E+02  0.51100000000E-03 0. -1.
    9900012    2    1    2    0    0  0.86780832900E+01  0.36384006495E+02  0.15939218281E+02  0.50528883708E+02  0.30000072519E+02 0.  0.
         12    1    1    2    0    0 -0.86780832900E+01 -0.36384006495E+02 -0.15939218281E+02  0.40659116292E+02  0.00000000000E+00 0. -1.
         11    1    3    3    0    0 -0.18005566619E+01  0.26428810820E+01 -0.14481756967E+01  0.35105608976E+01  0.51100000000E-03 0. -1.
        -11    1    3    3    0    0  0.91160740273E+00 -0.16839203517E+01  0.92324019951E+01  0.94288844869E+01  0.51100000000E-03 0.  1.
        -12    1    3    3    0    0  0.95670325491E+01  0.35425045765E+02  0.81549919823E+01  0.37589438324E+02  0.00000000000E+00 0.  1.
</event>
<event>
 7    1  0.5121289E-013  0.5052886E+02  0.7816164E-02  0.1300439E+00
        -11   -1    0    0    0    0  0.00000000000E+00  0.00000000000E+00  0.45593999997E+02  0.45594000000E+02  0.51100000000E-03 0.  1.
         11   -1    0    0    0    0 -0.00000000000E+00 -0.00000000000E+00 -0.45593999997E+02  0.45594000000E+02  0.51100000000E-03 0. -1.
    9900012    2    1    2    0    0  0.48253121628E+01 -0.27697379488E+01  0.40276671914E+02  0.50528863435E+02  0.30000010896E+02 0.  0.
         12    1    1    2    0    0 -0.48253121628E+01  0.27697379488E+01 -0.40276671914E+02  0.40659136565E+02  0.00000000000E+00 0. -1.
         11    1    3    3    0    0  0.36892808146E+01 -0.49789328558E+01  0.20674774566E+02  0.21583486024E+02  0.51100000000E-03 0. -1.
        -11    1    3    3    0    0  0.40095047673E+01  0.10570824447E+02  0.15534744959E+02  0.19213192322E+02  0.51100000000E-03 0.  1.
         12    1    3    3    0    0 -0.28734734192E+01 -0.83616295404E+01  0.40671523883E+01  0.97321850892E+01  0.00000000000E+00 0. -1.
</event>
<event>
 7    1  0.5121289E-013  0.5052891E+02  0.7816164E-02  0.1300439E+00
        -11   -1    0    0    0    0  0.00000000000E+00  0.00000000000E+00  0.45593999997E+02  0.45594000000E+02  0.51100000000E-03 0.  1.
         11   -1    0    0    0    0 -0.00000000000E+00 -0.00000000000E+00 -0.45593999997E+02  0.45594000000E+02  0.51100000000E-03 0. -1.
    9900012    2    1    2    0    0 -0.20863781144E+02 -0.27195078308E+02  0.21869882248E+02  0.50528912488E+02  0.30000159998E+02 0.  0.
         12    1    1    2    0    0  0.20863781144E+02  0.27195078308E+02 -0.21869882248E+02  0.40659087512E+02  0.00000000000E+00 0. -1.
         11    1    3    3    0    0 -0.21422815255E+02 -0.20866942198E+02  0.10312377907E+02  0.31634023274E+02  0.51100000000E-03 0. -1.
        -11    1    3    3    0    0 -0.62294234407E+01 -0.23772477158E+01  0.31010442429E+01  0.73534684852E+01  0.51100000000E-03 0.  1.
        -12    1    3    3    0    0  0.67884575524E+01 -0.39508883939E+01  0.84564600979E+01  0.11541420728E+02  0.00000000000E+00 0.  1.
</event>
<event>
 7    1  0.5121289E-013  0.5052885E+02  0.7816164E-02  0.1300439E+00
        -11   -1    0    0    0    0  0.00000000000E+00  0.00000000000E+00  0.45593999997E+02  0.45594000000E+02  0.51100000000E-03 0. -1.
         11   -1    0    0    0    0 -0.00000000000E+00 -0.00000000000E+00 -0.45593999997E+02  0.45594000000E+02  0.51100000000E-03 0.  1.
    9900012    2    1    2    0    0 -0.24941279475E+02 -0.32106143478E+02  0.54271280428E+00  0.50528850869E+02  0.29999972701E+02 0.  0.
         12    1    1    2    0    0  0.24941279475E+02  0.32106143478E+02 -0.54271280428E+00  0.40659149131E+02  0.00000000000E+00 0. -1.
         11    1    3    3    0    0 -0.81259670780E+01  0.18830563964E+00 -0.67431965126E+01  0.10561131541E+02  0.51100000000E-03 0. -1.
        -11    1    3    3    0    0  0.23393469230E+01 -0.71300018307E+01 -0.44605302401E-01  0.75040962165E+01  0.51100000000E-03 0.  1.
         12    1    3    3    0    0 -0.19154659320E+02 -0.25164447287E+02  0.73305146193E+01  0.32463623111E+02  0.00000000000E+00 0. -1.
</event>
<event>
 7    1  0.5121289E-013  0.5052880E+02  0.7816164E-02  0.1300439E+00
        -11   -1    0    0    0    0  0.00000000000E+00  0.00000000000E+00  0.45593999997E+02  0.45594000000E+02  0.51100000000E-03 0. -1.
         11   -1    0    0    0    0 -0.00000000000E+00 -0.00000000000E+00 -0.45593999997E+02  0.45594000000E+02  0.51100000000E-03 0.  1.
    9900012    2    1    2    0    0  0.14422440708E+02 -0.21566182707E+02  0.31305961189E+02  0.50528803765E+02  0.29999829522E+02 0.  0.
         12    1    1    2    0    0 -0.14422440708E+02  0.21566182707E+02 -0.31305961189E+02  0.40659196235E+02  0.00000000000E+00 0. -1.
         11    1    3    3    0    0 -0.37683499003E+01 -0.25936477013E+01  0.36795742360E+01  0.58708377757E+01  0.51100000000E-03 0. -1.
        -11    1    3    3    0    0 -0.38163889583E+01 -0.10266429337E+02  0.12261609793E+02  0.16441151754E+02  0.51100000000E-03 0.  1.
        -12    1    3    3    0    0  0.22007179567E+02 -0.87061056692E+01  0.15364777160E+02  0.28216814235E+02  0.00000000000E+00 0.  1.
</event>
<event>
 7    1  0.5121289E-013  0.5052886E+02  0.7816164E-02  0.1300439E+00
        -11   -1    0    0    0    0  0.00000000000E+00  0.00000000000E+00  0.45593999997E+02  0.45594000000E+02  0.51100000000E-03 0. -1.
         11   -1    0    0    0    0 -0.00000000000E+00 -0.00000000000E+00 -0.45593999997E+02  0.45594000000E+02  0.51100000000E-03 0.  1.
    9900012    2    1    2    0    0  0.58920611880E+01  0.31633822907E+02 -0.24854592836E+02  0.50528856849E+02  0.29999990878E+02 0.  0.
         12    1    1    2    0    0 -0.58920611880E+01 -0.31633822907E+02  0.24854592836E+02  0.40659143151E+02  0.00000000000E+00 0. -1.
         11    1    3    3    0    0 -0.66861074488E+01  0.11346106548E+02 -0.24049040005E+01  0.13387372040E+02  0.51100000000E-03 0. -1.
        -11    1    3    3    0    0 -0.13501549983E+00  0.14745987762E+02 -0.68240885443E+01  0.16249017478E+02  0.51100000000E-03 0.  1.
         12    1    3    3    0    0  0.12713184137E+02  0.55417285963E+01 -0.15625600291E+02  0.20892467331E+02  0.00000000000E+00 0. -1.
</event>
<event>
 7    1  0.5121289E-013  0.5052886E+02  0.7816164E-02  0.1300439E+00
        -11   -1    0    0    0    0  0.00000000000E+00  0.00000000000E+00  0.45593999997E+02  0.45594000000E+02  0.51100000000E-03 0. -1.
         11   -1    0    0    0    0 -0.00000000000E+00 -0.00000000000E+00 -0.45593999997E+02  0.45594000000E+02  0.51100000000E-03 0.  1.
    9900012    2    1    2    0    0 -0.33335629436E+02 -0.21398376251E+02 -0.91657643612E+01  0.50528856718E+02  0.29999990481E+02 0.  0.
         12    1    1    2    0    0  0.33335629436E+02  0.21398376251E+02  0.91657643612E+01  0.40659143282E+02  0.00000000000E+00 0. -1.
         11    1    3    3    0    0 -0.58774489339E+01  0.37198935184E+01  0.60253949911E+01  0.92025756622E+01  0.51100000000E-03 0. -1.
        -11    1    3    3    0    0 -0.86641191516E+01 -0.72205266781E+01 -0.95244865053E+01  0.14762073351E+02  0.51100000000E-03 0.  1.
        -12    1    3    3    0    0 -0.18794061351E+02 -0.17897743091E+02 -0.56666728470E+01  0.26564207705E+02  0.00000000000E+00 0.  1.
</event>
<event>
 7    1  0.5121289E-013  0.5052885E+02  0.7816164E-02  0.1300439E+00
        -11   -1    0    0    0    0  0.00000000000E+00  0.00000000000E+00  0.45593999997E+02  0.45594000000E+02  0.51100000000E-03 0.  1.
         11   -1    0    0    0    0 -0.00000000000E+00 -0.00000000000E+00 -0.45593999997E+02  0.45594000000E+02  0.51100000000E-03 0. -1.
    9900012    2    1    2    0    0 -0.88788714074E+01  0.18167615547E+02  0.35274213036E+02  0.50528847064E+02  0.29999961136E+02 0.  0.
         12    1    1    2    0    0  0.88788714074E+01 -0.18167615547E+02 -0.35274213036E+02  0.40659152936E+02  0.00000000000E+00 0. -1.
         11    1    3    3    0    0 -0.58360024051E+01  0.72667131684E+01  0.18500610447E+02  0.20715613230E+02  0.51100000000E-03 0.  1.
        -11    1    3    3    0    0 -0.14297930326E+01 -0.75946735390E+00  0.17913723256E+02  0.17986733442E+02  0.51100000000E-03 0. -1.
         12    1    3    3    0    0 -0.16130759698E+01  0.11660369732E+02 -0.11401206662E+01  0.11826500392E+02  0.00000000000E+00 0. -1.
</event>
<event>
 7    1  0.5121289E-013  0.5052886E+02  0.7816164E-02  0.1300439E+00
        -11   -1    0    0    0    0  0.00000000000E+00  0.00000000000E+00  0.45593999997E+02  0.45594000000E+02  0.51100000000E-03 0.  1.
         11   -1    0    0    0    0 -0.00000000000E+00 -0.00000000000E+00 -0.45593999997E+02  0.45594000000E+02  0.51100000000E-03 0. -1.
    9900012    2    1    2    0    0  0.15961060152E+02  0.36288830006E+02  0.90294471302E+01  0.50528861546E+02  0.30000005155E+02 0.  0.
         12    1    1    2    0    0 -0.15961060152E+02 -0.36288830006E+02 -0.90294471302E+01  0.40659138454E+02  0.00000000000E+00 0. -1.
         11    1    3    3    0    0  0.82522990134E+00  0.43908703243E+01 -0.60880327283E+01  0.75514825933E+01  0.51100000000E-03 0. -1.
        -11    1    3    3    0    0  0.57914854285E+01  0.26586011065E+02  0.39799063395E+01  0.27499035302E+02  0.51100000000E-03 0.  1.
         12    1    3    3    0    0  0.93443448225E+01  0.53119486161E+01  0.11137573519E+02  0.15478343650E+02  0.00000000000E+00 0. -1.
</event>
<event>
 7    1  0.5121289E-013  0.5052886E+02  0.7816164E-02  0.1300439E+00
        -11   -1    0    0    0    0  0.00000000000E+00  0.00000000000E+00  0.45593999997E+02  0.45594000000E+02  0.51100000000E-03 0.  1.
         11   -1    0    0    0    0 -0.00000000000E+00 -0.00000000000E+00 -0.45593999997E+02  0.45594000000E+02  0.51100000000E-03 0. -1.
    9900012    2    1    2    0    0  0.15326812301E+02 -0.19425712253E+02  0.32262926050E+02  0.50528857496E+02  0.29999992845E+02 0.  0.
         12    1    1    2    0    0 -0.15326812301E+02  0.19425712253E+02 -0.32262926050E+02  0.40659142504E+02  0.00000000000E+00 0. -1.
         11    1    3    3    0    0 -0.25819833560E+01 -0.20633718006E+01 -0.31298168083E+01  0.45519111099E+01  0.51100000000E-03 0. -1.
        -11    1    3    3    0    0  0.66543250167E+01  0.42758948100E+00  0.16085158358E+02  0.17412501080E+02  0.51100000000E-03 0.  1.
         12    1    3    3    0    0  0.11254470641E+02 -0.17789929933E+02  0.19307584500E+02  0.28564445306E+02  0.00000000000E+00 0. -1.
</event>
<event>
 7    1  0.5121289E-013  0.5052888E+02  0.7816164E-02  0.1300439E+00
        -11   -1    0    0    0    0  0.00000000000E+00  0.00000000000E+00  0.45593999997E+02  0.45594000000E+02  0.51100000000E-03 0.  1.
         11   -1    0    0    0    0 -0.00000000000E+00 -0.00000000000E+00 -0.45593999997E+02  0.45594000000E+02  0.51100000000E-03 0. -1.
    9900012    2    1    2    0    0 -0.21727473602E+02 -0.16236805098E+02  0.30289393959E+02  0.50528876358E+02  0.30000050178E+02 0.  0.
         12    1    1    2    0    0  0.21727473602E+02  0.16236805098E+02 -0.30289393959E+02  0.40659123642E+02  0.00000000000E+00 0. -1.
         11    1    3    3    0    0 -0.11908276925E+02 -0.13921057959E+02  0.13946083137E+02  0.23023816998E+02  0.51100000000E-03 0. -1.
        -11    1    3    3    0    0 -0.14184383072E+02 -0.69015390803E+01  0.12150648204E+02  0.19911459435E+02  0.51100000000E-03 0.  1.
        -12    1    3    3    0    0  0.43651863946E+01  0.45857919414E+01  0.41926626182E+01  0.75935999249E+01  0.00000000000E+00 0.  1.
</event>
<event>
 7    1  0.5121289E-013  0.5052886E+02  0.7816164E-02  0.1300439E+00
        -11   -1    0    0    0    0  0.00000000000E+00  0.00000000000E+00  0.45593999997E+02  0.45594000000E+02  0.51100000000E-03 0.  1.
         11   -1    0    0    0    0 -0.00000000000E+00 -0.00000000000E+00 -0.45593999997E+02  0.45594000000E+02  0.51100000000E-03 0. -1.
    9900012    2    1    2    0    0 -0.28785334806E+02  0.24817102151E+02  0.14445827514E+02  0.50528855990E+02  0.29999988266E+02 0.  0.
         12    1    1    2    0    0  0.28785334806E+02 -0.24817102151E+02 -0.14445827514E+02  0.40659144010E+02  0.00000000000E+00 0. -1.
         11    1    3    3    0    0 -0.91001752527E+00  0.38309024221E+01 -0.26468479765E+01  0.47444440913E+01  0.51100000000E-03 0. -1.
        -11    1    3    3    0    0 -0.10841158940E+01  0.11985494951E+02 -0.12376298228E+01  0.12097897517E+02  0.51100000000E-03 0.  1.
        -12    1    3    3    0    0 -0.26791201387E+02  0.90007047775E+01  0.18330305314E+02  0.33686514381E+02  0.00000000000E+00 0.  1.
</event>
<event>
 7    1  0.5121289E-013  0.5052885E+02  0.7816164E-02  0.1300439E+00
        -11   -1    0    0    0    0  0.00000000000E+00  0.00000000000E+00  0.45593999997E+02  0.45594000000E+02  0.51100000000E-03 0.  1.
         11   -1    0    0    0    0 -0.00000000000E+00 -0.00000000000E+00 -0.45593999997E+02  0.45594000000E+02  0.51100000000E-03 0. -1.
    9900012    2    1    2    0    0  0.43422201332E+01 -0.15223098523E+02  0.37450881276E+02  0.50528854502E+02  0.29999983743E+02 0.  0.
         12    1    1    2    0    0 -0.43422201332E+01  0.15223098523E+02 -0.37450881276E+02  0.40659145498E+02  0.00000000000E+00 0. -1.
         11    1    3    3    0    0 -0.61173724928E+00 -0.31202442031E+01 -0.23459220223E+01  0.39513917479E+01  0.51100000000E-03 0. -1.
        -11    1    3    3    0    0  0.72257501755E+01 -0.59076123279E+01  0.39607885257E+01  0.10138993787E+02  0.51100000000E-03 0.  1.
        -12    1    3    3    0    0 -0.22717927929E+01 -0.61952419918E+01  0.35836014772E+02  0.36438468966E+02  0.00000000000E+00 0.  1.
</event>
<event>
 7    1  0.5121289E-013  0.5052889E+02  0.7816164E-02  0.1300439E+00
        -11   -1    0    0    0    0  0.00000000000E+00  0.00000000000E+00  0.45593999997E+02  0.45594000000E+02  0.51100000000E-03 0.  1.
         11   -1    0    0    0    0 -0.00000000000E+00 -0.00000000000E+00 -0.45593999997E+02  0.45594000000E+02  0.51100000000E-03 0. -1.
    9900012    2    1    2    0    0 -0.33709496782E+02 -0.21837444450E+02  0.63213169490E+01  0.50528890303E+02  0.30000092565E+02 0.  0.
         12    1    1    2    0    0  0.33709496782E+02  0.21837444450E+02 -0.63213169490E+01  0.40659109697E+02  0.00000000000E+00 0. -1.
         11    1    3    3    0    0 -0.21269293180E+02 -0.17661307835E+02  0.14048388018E+02  0.31010672888E+02  0.51100000000E-03 0.  1.
        -11    1    3    3    0    0 -0.13146433600E+01  0.68742951991E+00  0.29804336994E+01  0.33292389230E+01  0.51100000000E-03 0. -1.
        -12    1    3    3    0    0 -0.11125560242E+02 -0.48635661341E+01 -0.10707504768E+02  0.16188978492E+02  0.00000000000E+00 0.  1.
</event>
<event>
 7    1  0.5121289E-013  0.5052885E+02  0.7816164E-02  0.1300439E+00
        -11   -1    0    0    0    0  0.00000000000E+00  0.00000000000E+00  0.45593999997E+02  0.45594000000E+02  0.51100000000E-03 0.  1.
         11   -1    0    0    0    0 -0.00000000000E+00 -0.00000000000E+00 -0.45593999997E+02  0.45594000000E+02  0.51100000000E-03 0. -1.
    9900012    2    1    2    0    0 -0.29155656098E+02 -0.15026288050E+02  0.24027579141E+02  0.50528853742E+02  0.29999981433E+02 0.  0.
         12    1    1    2    0    0  0.29155656098E+02  0.15026288050E+02 -0.24027579141E+02  0.40659146258E+02  0.00000000000E+00 0. -1.
         11    1    3    3    0    0 -0.17291263701E+02 -0.58782541450E+01  0.40051115182E+01  0.18697127873E+02  0.51100000000E-03 0. -1.
        -11    1    3    3    0    0 -0.11563599742E+02  0.18741145707E+01  0.39934658534E+01  0.12376466144E+02  0.51100000000E-03 0.  1.
         12    1    3    3    0    0 -0.30079265532E+00 -0.11022148476E+02  0.16029001770E+02  0.19455259725E+02  0.00000000000E+00 0. -1.
</event>
<event>
 7    1  0.5121289E-013  0.5052887E+02  0.7816164E-02  0.1300439E+00
        -11   -1    0    0    0    0  0.00000000000E+00  0.00000000000E+00  0.45593999997E+02  0.45594000000E+02  0.51100000000E-03 0.  1.
         11   -1    0    0    0    0 -0.00000000000E+00 -0.00000000000E+00 -0.45593999997E+02  0.45594000000E+02  0.51100000000E-03 0. -1.
    9900012    2    1    2    0    0 -0.14452327338E+02 -0.37415121904E+02  0.66636398747E+01  0.50528865615E+02  0.30000017523E+02 0.  0.
         12    1    1    2    0    0  0.14452327338E+02  0.37415121904E+02 -0.66636398747E+01  0.40659134385E+02  0.00000000000E+00 0. -1.
         11    1    3    3    0    0 -0.30687863264E+01 -0.21748263610E+01 -0.28652334853E+01  0.47283065049E+01  0.51100000000E-03 0. -1.
        -11    1    3    3    0    0 -0.15111543587E+02 -0.37469493182E+02  0.79359384757E+01  0.41174030512E+02  0.51100000000E-03 0.  1.
         12    1    3    3    0    0  0.37280025760E+01  0.22291976387E+01  0.15929348843E+01  0.46265285977E+01  0.00000000000E+00 0. -1.
</event>
<event>
 7    1  0.5121289E-013  0.5052886E+02  0.7816164E-02  0.1300439E+00
        -11   -1    0    0    0    0  0.00000000000E+00  0.00000000000E+00  0.45593999997E+02  0.45594000000E+02  0.51100000000E-03 0. -1.
         11   -1    0    0    0    0 -0.00000000000E+00 -0.00000000000E+00 -0.45593999997E+02  0.45594000000E+02  0.51100000000E-03 0.  1.
    9900012    2    1    2    0    0  0.38841744320E+02  0.78858937569E+01 -0.90717718136E+01  0.50528862453E+02  0.30000007913E+02 0.  0.
         12    1    1    2    0    0 -0.38841744320E+02 -0.78858937569E+01  0.90717718136E+01  0.40659137547E+02  0.00000000000E+00 0. -1.
         11    1    3    3    0    0  0.10021579661E+02  0.93613896965E+01 -0.47462113471E+01  0.14511864055E+02  0.51100000000E-03 0. -1.
        -11    1    3    3    0    0  0.13692202105E+02  0.96207998932E+01 -0.42087364341E+01  0.17255423834E+02  0.51100000000E-03 0.  1.
         12    1    3    3    0    0  0.15127962555E+02 -0.11096295833E+02 -0.11682403239E+00  0.18761574564E+02  0.00000000000E+00 0. -1.
</event>
<event>
 7    1  0.5121289E-013  0.5052885E+02  0.7816164E-02  0.1300439E+00
        -11   -1    0    0    0    0  0.00000000000E+00  0.00000000000E+00  0.45593999997E+02  0.45594000000E+02  0.51100000000E-03 0.  1.
         11   -1    0    0    0    0 -0.00000000000E+00 -0.00000000000E+00 -0.45593999997E+02  0.45594000000E+02  0.51100000000E-03 0. -1.
    9900012    2    1    2    0    0  0.31165158997E+02 -0.12240736345E+02  0.23066500119E+02  0.50528853560E+02  0.29999980880E+02 0.  0.
         12    1    1    2    0    0 -0.31165158997E+02  0.12240736345E+02 -0.23066500119E+02  0.40659146440E+02  0.00000000000E+00 0. -1.
         11    1    3    3    0    0 -0.19478054554E+01 -0.50532297309E+01  0.75142340775E+01  0.92624397886E+01  0.51100000000E-03 0. -1.
        -11    1    3    3    0    0  0.69847413661E+01 -0.29663807332E+01  0.12501169240E+02  0.14624132768E+02  0.51100000000E-03 0.  1.
         12    1    3    3    0    0  0.26128223086E+02 -0.42211258806E+01  0.30510968012E+01  0.26642281003E+02  0.00000000000E+00 0. -1.
</event>
<event>
 7    1  0.5121289E-013  0.5052887E+02  0.7816164E-02  0.1300439E+00
        -11   -1    0    0    0    0  0.00000000000E+00  0.00000000000E+00  0.45593999997E+02  0.45594000000E+02  0.51100000000E-03 0. -1.
         11   -1    0    0    0    0 -0.00000000000E+00 -0.00000000000E+00 -0.45593999997E+02  0.45594000000E+02  0.51100000000E-03 0.  1.
    9900012    2    1    2    0    0  0.37902186862E+02  0.69857330138E+01  0.12953329457E+02  0.50528868446E+02  0.30000026130E+02 0.  0.
         12    1    1    2    0    0 -0.37902186862E+02 -0.69857330138E+01 -0.12953329457E+02  0.40659131554E+02  0.00000000000E+00 0. -1.
         11    1    3    3    0    0  0.13769086236E+02  0.14443041445E+01  0.25143607620E+01  0.14071096636E+02  0.51100000000E-03 0. -1.
        -11    1    3    3    0    0  0.15714100021E+02 -0.38136933995E+01 -0.46341115629E+01  0.16821182689E+02  0.51100000000E-03 0.  1.
         12    1    3    3    0    0  0.84190006046E+01  0.93551222688E+01  0.15073080258E+02  0.19636589121E+02  0.00000000000E+00 0. -1.
</event>
<event>
 7    1  0.5121289E-013  0.5052886E+02  0.7816164E-02  0.1300439E+00
        -11   -1    0    0    0    0  0.00000000000E+00  0.00000000000E+00  0.45593999997E+02  0.45594000000E+02  0.51100000000E-03 0.  1.
         11   -1    0    0    0    0 -0.00000000000E+00 -0.00000000000E+00 -0.45593999997E+02  0.45594000000E+02  0.51100000000E-03 0. -1.
    9900012    2    1    2    0    0  0.26578905930E+02 -0.37575076838E+01  0.30538635549E+02  0.50528863689E+02  0.30000011668E+02 0.  0.
         12    1    1    2    0    0 -0.26578905930E+02  0.37575076838E+01 -0.30538635549E+02  0.40659136311E+02  0.00000000000E+00 0. -1.
         11    1    3    3    0    0  0.69513880711E+01  0.16227586902E+01 -0.26545568698E+01  0.76158922207E+01  0.51100000000E-03 0. -1.
        -11    1    3    3    0    0 -0.42441433435E-02  0.48857586068E+01  0.43344116899E+01  0.65312923787E+01  0.51100000000E-03 0.  1.
        -12    1    3    3    0    0  0.19631762002E+02 -0.10266024981E+02  0.28858780729E+02  0.36381679089E+02  0.00000000000E+00 0.  1.
</event>
<event>
 7    1  0.5121289E-013  0.5052886E+02  0.7816164E-02  0.1300439E+00
        -11   -1    0    0    0    0  0.00000000000E+00  0.00000000000E+00  0.45593999997E+02  0.45594000000E+02  0.51100000000E-03 0. -1.
         11   -1    0    0    0    0 -0.00000000000E+00 -0.00000000000E+00 -0.45593999997E+02  0.45594000000E+02  0.51100000000E-03 0.  1.
    9900012    2    1    2    0    0 -0.25649595470E+02  0.10303109987E+02 -0.29817948299E+02  0.50528857560E+02  0.29999993040E+02 0.  0.
         12    1    1    2    0    0  0.25649595470E+02 -0.10303109987E+02  0.29817948299E+02  0.40659142440E+02  0.00000000000E+00 0. -1.
         11    1    3    3    0    0 -0.76499859150E+00 -0.64528289899E+01 -0.54387467766E+00  0.65207380521E+01  0.51100000000E-03 0. -1.
        -11    1    3    3    0    0 -0.42804501014E+01  0.92900432783E+01 -0.13813447219E+02  0.17188323988E+02  0.51100000000E-03 0.  1.
        -12    1    3    3    0    0 -0.20604146777E+02  0.74658956988E+01 -0.15460626403E+02  0.26819795520E+02  0.00000000000E+00 0.  1.
</event>
<event>
 7    1  0.5121289E-013  0.5052886E+02  0.7816164E-02  0.1300439E+00
        -11   -1    0    0    0    0  0.00000000000E+00  0.00000000000E+00  0.45593999997E+02  0.45594000000E+02  0.51100000000E-03 0. -1.
         11   -1    0    0    0    0 -0.00000000000E+00 -0.00000000000E+00 -0.45593999997E+02  0.45594000000E+02  0.51100000000E-03 0.  1.
    9900012    2    1    2    0    0 -0.33654039285E+02 -0.22485537724E+02  0.38693818028E+01  0.50528857332E+02  0.29999992347E+02 0.  0.
         12    1    1    2    0    0  0.33654039285E+02  0.22485537724E+02 -0.38693818028E+01  0.40659142668E+02  0.00000000000E+00 0. -1.
         11    1    3    3    0    0 -0.17093345713E+02 -0.11798471665E+02  0.11245081501E+02  0.23618599863E+02  0.51100000000E-03 0. -1.
        -11    1    3    3    0    0 -0.13968330845E+02 -0.93015808230E+01  0.21705442601E+01  0.16921729671E+02  0.51100000000E-03 0.  1.
         12    1    3    3    0    0 -0.25923627272E+01 -0.13854852362E+01 -0.95462439585E+01  0.99885277977E+01  0.00000000000E+00 0. -1.
</event>
<event>
 7    1  0.5121289E-013  0.5052884E+02  0.7816164E-02  0.1300439E+00
        -11   -1    0    0    0    0  0.00000000000E+00  0.00000000000E+00  0.45593999997E+02  0.45594000000E+02  0.51100000000E-03 0.  1.
         11   -1    0    0    0    0 -0.00000000000E+00 -0.00000000000E+00 -0.45593999997E+02  0.45594000000E+02  0.51100000000E-03 0. -1.
    9900012    2    1    2    0    0 -0.19465576569E+02  0.29433607591E+02  0.20197069342E+02  0.50528836986E+02  0.29999930503E+02 0.  0.
         12    1    1    2    0    0  0.19465576569E+02 -0.29433607591E+02 -0.20197069342E+02  0.40659163014E+02  0.00000000000E+00 0. -1.
         11    1    3    3    0    0  0.41454485756E+01 -0.16491487291E+01  0.27737871496E+01  0.52534113523E+01  0.51100000000E-03 0. -1.
        -11    1    3    3    0    0 -0.37868731488E+01  0.11333787123E+02  0.11679672393E+02  0.16709574688E+02  0.51100000000E-03 0.  1.
         12    1    3    3    0    0 -0.19824151995E+02  0.19748969198E+02  0.57436097988E+01  0.28565850945E+02  0.00000000000E+00 0. -1.
</event>
<event>
 7    1  0.5121289E-013  0.5052885E+02  0.7816164E-02  0.1300439E+00
        -11   -1    0    0    0    0  0.00000000000E+00  0.00000000000E+00  0.45593999997E+02  0.45594000000E+02  0.51100000000E-03 0. -1.
         11   -1    0    0    0    0 -0.00000000000E+00 -0.00000000000E+00 -0.45593999997E+02  0.45594000000E+02  0.51100000000E-03 0.  1.
    9900012    2    1    2    0    0 -0.30093905040E+02  0.18750851251E+02 -0.19897960637E+02  0.50528851206E+02  0.29999973725E+02 0.  0.
         12    1    1    2    0    0  0.30093905040E+02 -0.18750851251E+02  0.19897960637E+02  0.40659148794E+02  0.00000000000E+00 0. -1.
         11    1    3    3    0    0 -0.20349959755E+02 -0.26098339077E+00 -0.22714355089E+01  0.20477997800E+02  0.51100000000E-03 0. -1.
        -11    1    3    3    0    0 -0.11233933395E+02  0.97539223651E+01 -0.12012314804E+02  0.19121609980E+02  0.51100000000E-03 0.  1.
         12    1    3    3    0    0  0.14899881103E+01  0.92579122767E+01 -0.56142103243E+01  0.10929243426E+02  0.00000000000E+00 0. -1.
</event>
<event>
 7    1  0.5121289E-013  0.5052886E+02  0.7816164E-02  0.1300439E+00
        -11   -1    0    0    0    0  0.00000000000E+00  0.00000000000E+00  0.45593999997E+02  0.45594000000E+02  0.51100000000E-03 0.  1.
         11   -1    0    0    0    0 -0.00000000000E+00 -0.00000000000E+00 -0.45593999997E+02  0.45594000000E+02  0.51100000000E-03 0. -1.
    9900012    2    1    2    0    0  0.22275101029E+01 -0.23874503505E+02  0.32836133158E+02  0.50528863762E+02  0.30000011891E+02 0.  0.
         12    1    1    2    0    0 -0.22275101029E+01  0.23874503505E+02 -0.32836133158E+02  0.40659136238E+02  0.00000000000E+00 0. -1.
         11    1    3    3    0    0  0.33395125568E+01  0.14806572409E+01  0.23889811644E+01  0.43648506558E+01  0.51100000000E-03 0. -1.
        -11    1    3    3    0    0  0.73692957390E+01 -0.43562511942E+01  0.18888506738E+02  0.20737867084E+02  0.51100000000E-03 0.  1.
        -12    1    3    3    0    0 -0.84812981929E+01 -0.20998909551E+02  0.11558645256E+02  0.25426146022E+02  0.00000000000E+00 0.  1.
</event>
<event>
 7    1  0.5121289E-013  0.5052884E+02  0.7816164E-02  0.1300439E+00
        -11   -1    0    0    0    0  0.00000000000E+00  0.00000000000E+00  0.45593999997E+02  0.45594000000E+02  0.51100000000E-03 0. -1.
         11   -1    0    0    0    0 -0.00000000000E+00 -0.00000000000E+00 -0.45593999997E+02  0.45594000000E+02  0.51100000000E-03 0.  1.
    9900012    2    1    2    0    0  0.49453174582E+01 -0.11748065079E+02 -0.38609503257E+02  0.50528844333E+02  0.29999952833E+02 0.  0.
         12    1    1    2    0    0 -0.49453174582E+01  0.11748065079E+02  0.38609503257E+02  0.40659155667E+02  0.00000000000E+00 0. -1.
         11    1    3    3    0    0 -0.80413778426E+01  0.61324472601E-01 -0.10752689760E+02  0.13427131326E+02  0.51100000000E-03 0. -1.
        -11    1    3    3    0    0 -0.21786964207E+01 -0.63648854649E+01 -0.15165586083E+02  0.16590765099E+02  0.51100000000E-03 0.  1.
        -12    1    3    3    0    0  0.15165391721E+02 -0.54445040867E+01 -0.12691227414E+02  0.20510947908E+02  0.00000000000E+00 0.  1.
</event>
<event>
 7    1  0.5121289E-013  0.5052886E+02  0.7816164E-02  0.1300439E+00
        -11   -1    0    0    0    0  0.00000000000E+00  0.00000000000E+00  0.45593999997E+02  0.45594000000E+02  0.51100000000E-03 0.  1.
         11   -1    0    0    0    0 -0.00000000000E+00 -0.00000000000E+00 -0.45593999997E+02  0.45594000000E+02  0.51100000000E-03 0. -1.
    9900012    2    1    2    0    0  0.11327014723E+02  0.26862670429E+02 -0.28341866412E+02  0.50528859369E+02  0.29999998538E+02 0.  0.
         12    1    1    2    0    0 -0.11327014723E+02 -0.26862670429E+02  0.28341866412E+02  0.40659140631E+02  0.00000000000E+00 0. -1.
         11    1    3    3    0    0  0.40090882303E+01  0.21478124521E+02 -0.16174910897E+02  0.27184745063E+02  0.51100000000E-03 0. -1.
        -11    1    3    3    0    0  0.91566059116E+01  0.99283236611E+01 -0.12537609443E+02  0.18428420805E+02  0.51100000000E-03 0.  1.
         12    1    3    3    0    0 -0.18386794189E+01 -0.45437777524E+01  0.37065392772E+00  0.49156935017E+01  0.00000000000E+00 0. -1.
</event>
<event>
 7    1  0.5121289E-013  0.5052886E+02  0.7816164E-02  0.1300439E+00
        -11   -1    0    0    0    0  0.00000000000E+00  0.00000000000E+00  0.45593999997E+02  0.45594000000E+02  0.51100000000E-03 0.  1.
         11   -1    0    0    0    0 -0.00000000000E+00 -0.00000000000E+00 -0.45593999997E+02  0.45594000000E+02  0.51100000000E-03 0. -1.
    9900012    2    1    2    0    0 -0.21600594641E+02  0.34156072236E+02  0.44657270967E+01  0.50528859847E+02  0.29999999991E+02 0.  0.
         12    1    1    2    0    0  0.21600594641E+02 -0.34156072236E+02 -0.44657270967E+01  0.40659140153E+02  0.00000000000E+00 0. -1.
         11    1    3    3    0    0  0.48532079922E+01  0.34129926377E+01 -0.36391645929E+01  0.69602920740E+01  0.51100000000E-03 0. -1.
        -11    1    3    3    0    0 -0.15533958486E+00 -0.78586506449E+00  0.18783416136E+01  0.20420288355E+01  0.51100000000E-03 0.  1.
        -12    1    3    3    0    0 -0.26298463049E+02  0.31528944663E+02  0.62265500760E+01  0.41526538938E+02  0.00000000000E+00 0.  1.
</event>
<event>
 7    1  0.5121289E-013  0.5052886E+02  0.7816164E-02  0.1300439E+00
        -11   -1    0    0    0    0  0.00000000000E+00  0.00000000000E+00  0.45593999997E+02  0.45594000000E+02  0.51100000000E-03 0. -1.
         11   -1    0    0    0    0 -0.00000000000E+00 -0.00000000000E+00 -0.45593999997E+02  0.45594000000E+02  0.51100000000E-03 0.  1.
    9900012    2    1    2    0    0 -0.75254247213E+01 -0.16605712401E+02 -0.36342592004E+02  0.50528859636E+02  0.29999999348E+02 0.  0.
         12    1    1    2    0    0  0.75254247213E+01  0.16605712401E+02  0.36342592004E+02  0.40659140364E+02  0.00000000000E+00 0. -1.
         11    1    3    3    0    0  0.23775259045E+01 -0.13175990068E+01 -0.30530382647E+01  0.40877548210E+01  0.51100000000E-03 0. -1.
        -11    1    3    3    0    0  0.30557633750E+01  0.56388444981E+00  0.32873430452E+01  0.45235251779E+01  0.51100000000E-03 0.  1.
        -12    1    3    3    0    0 -0.12958714001E+02 -0.15851997844E+02 -0.36576896785E+02  0.41917579637E+02  0.00000000000E+00 0.  1.
</event>
<event>
 7    1  0.5121289E-013  0.5052886E+02  0.7816164E-02  0.1300439E+00
        -11   -1    0    0    0    0  0.00000000000E+00  0.00000000000E+00  0.45593999997E+02  0.45594000000E+02  0.51100000000E-03 0.  1.
         11   -1    0    0    0    0 -0.00000000000E+00 -0.00000000000E+00 -0.45593999997E+02  0.45594000000E+02  0.51100000000E-03 0. -1.
    9900012    2    1    2    0    0 -0.36320285468E+02  0.14673604557E+02 -0.10894378158E+02  0.50528864709E+02  0.30000014770E+02 0.  0.
         12    1    1    2    0    0  0.36320285468E+02 -0.14673604557E+02  0.10894378158E+02  0.40659135291E+02  0.00000000000E+00 0. -1.
         11    1    3    3    0    0 -0.20848180315E+01  0.40924250156E+00  0.52799532319E+01  0.56913840182E+01  0.51100000000E-03 0. -1.
        -11    1    3    3    0    0 -0.83499471894E+01  0.12027202946E+02 -0.11078378127E+02  0.18360438202E+02  0.51100000000E-03 0.  1.
        -12    1    3    3    0    0 -0.25885520247E+02  0.22371591092E+01 -0.50959532624E+01  0.26477042489E+02  0.00000000000E+00 0.  1.
</event>
<event>
 7    1  0.5121289E-013  0.5052887E+02  0.7816164E-02  0.1300439E+00
        -11   -1    0    0    0    0  0.00000000000E+00  0.00000000000E+00  0.45593999997E+02  0.45594000000E+02  0.51100000000E-03 0. -1.
         11   -1    0    0    0    0 -0.00000000000E+00 -0.00000000000E+00 -0.45593999997E+02  0.45594000000E+02  0.51100000000E-03 0.  1.
    9900012    2    1    2    0    0 -0.17367523610E+02  0.16385400676E+02 -0.32909769630E+02  0.50528866109E+02  0.30000019024E+02 0.  0.
         12    1    1    2    0    0  0.17367523610E+02 -0.16385400676E+02  0.32909769630E+02  0.40659133891E+02  0.00000000000E+00 0. -1.
         11    1    3    3    0    0 -0.64936737300E+01  0.26475380089E+01 -0.21010569563E+02  0.22149972678E+02  0.51100000000E-03 0. -1.
        -11    1    3    3    0    0  0.23633689928E+01  0.55736116098E+00 -0.91874298075E+01  0.95028959370E+01  0.51100000000E-03 0.  1.
         12    1    3    3    0    0 -0.13237218873E+02  0.13180501506E+02 -0.27117702599E+01  0.18875997494E+02  0.00000000000E+00 0. -1.
</event>
<event>
 7    1  0.5121289E-013  0.5052886E+02  0.7816164E-02  0.1300439E+00
        -11   -1    0    0    0    0  0.00000000000E+00  0.00000000000E+00  0.45593999997E+02  0.45594000000E+02  0.51100000000E-03 0. -1.
         11   -1    0    0    0    0 -0.00000000000E+00 -0.00000000000E+00 -0.45593999997E+02  0.45594000000E+02  0.51100000000E-03 0.  1.
    9900012    2    1    2    0    0  0.22624338973E+02  0.21321003482E+02 -0.26205334233E+02  0.50528862704E+02  0.30000008674E+02 0.  0.
         12    1    1    2    0    0 -0.22624338973E+02 -0.21321003482E+02  0.26205334233E+02  0.40659137296E+02  0.00000000000E+00 0. -1.
         11    1    3    3    0    0  0.13631895787E+02 -0.21301235532E+01 -0.11173957132E+02  0.17754529770E+02  0.51100000000E-03 0. -1.
        -11    1    3    3    0    0  0.66275572390E+01  0.29757322195E+01 -0.84365157189E+01  0.11133476319E+02  0.51100000000E-03 0.  1.
         12    1    3    3    0    0  0.23648859469E+01  0.20475394815E+02 -0.65948613819E+01  0.21640856615E+02  0.00000000000E+00 0. -1.
</event>
<event>
 7    1  0.5121289E-013  0.5052886E+02  0.7816164E-02  0.1300439E+00
        -11   -1    0    0    0    0  0.00000000000E+00  0.00000000000E+00  0.45593999997E+02  0.45594000000E+02  0.51100000000E-03 0.  1.
         11   -1    0    0    0    0 -0.00000000000E+00 -0.00000000000E+00 -0.45593999997E+02  0.45594000000E+02  0.51100000000E-03 0. -1.
    9900012    2    1    2    0    0 -0.16503924217E+01  0.32946076150E+02 -0.23769682988E+02  0.50528861320E+02  0.30000004470E+02 0.  0.
         12    1    1    2    0    0  0.16503924217E+01 -0.32946076150E+02  0.23769682988E+02  0.40659138680E+02  0.00000000000E+00 0. -1.
         11    1    3    3    0    0 -0.54062680885E+01  0.16320928541E+02 -0.77254973259E+01  0.18848972181E+02  0.51100000000E-03 0. -1.
        -11    1    3    3    0    0 -0.58443389561E+01  0.11672387774E+02 -0.90943670593E+00  0.13085412090E+02  0.51100000000E-03 0.  1.
        -12    1    3    3    0    0  0.96002146229E+01  0.49527598353E+01 -0.15134748956E+02  0.18594477050E+02  0.00000000000E+00 0.  1.
</event>
<event>
 7    1  0.5121289E-013  0.5052887E+02  0.7816164E-02  0.1300439E+00
        -11   -1    0    0    0    0  0.00000000000E+00  0.00000000000E+00  0.45593999997E+02  0.45594000000E+02  0.51100000000E-03 0.  1.
         11   -1    0    0    0    0 -0.00000000000E+00 -0.00000000000E+00 -0.45593999997E+02  0.45594000000E+02  0.51100000000E-03 0. -1.
    9900012    2    1    2    0    0 -0.34920373017E+02 -0.20816733239E+02 -0.62936625112E+00  0.50528868968E+02  0.30000027715E+02 0.  0.
         12    1    1    2    0    0  0.34920373017E+02  0.20816733239E+02  0.62936625112E+00  0.40659131032E+02  0.00000000000E+00 0. -1.
         11    1    3    3    0    0 -0.13936604707E+02  0.13894414200E+01  0.68771425614E+01  0.15603031381E+02  0.51100000000E-03 0. -1.
        -11    1    3    3    0    0 -0.50709228763E+01 -0.41979987015E+01 -0.86464490139E+01  0.10867314881E+02  0.51100000000E-03 0.  1.
        -12    1    3    3    0    0 -0.15912845434E+02 -0.18008175957E+02  0.11399402014E+01  0.24058522706E+02  0.00000000000E+00 0.  1.
</event>
<event>
 7    1  0.5121289E-013  0.5052886E+02  0.7816164E-02  0.1300439E+00
        -11   -1    0    0    0    0  0.00000000000E+00  0.00000000000E+00  0.45593999997E+02  0.45594000000E+02  0.51100000000E-03 0. -1.
         11   -1    0    0    0    0 -0.00000000000E+00 -0.00000000000E+00 -0.45593999997E+02  0.45594000000E+02  0.51100000000E-03 0.  1.
    9900012    2    1    2    0    0 -0.15504156742E+02  0.12919577970E+02 -0.35296907641E+02  0.50528855147E+02  0.29999985703E+02 0.  0.
         12    1    1    2    0    0  0.15504156742E+02 -0.12919577970E+02  0.35296907641E+02  0.40659144853E+02  0.00000000000E+00 0. -1.
         11    1    3    3    0    0 -0.48683597295E+00 -0.14774325832E+01 -0.12256964934E+02  0.12355282512E+02  0.51100000000E-03 0. -1.
        -11    1    3    3    0    0  0.49606490827E+01  0.57519848719E+01 -0.10789655507E+02  0.13195076184E+02  0.51100000000E-03 0.  1.
         12    1    3    3    0    0 -0.19977969852E+02  0.86450256818E+01 -0.12250287200E+02  0.24978496450E+02  0.00000000000E+00 0. -1.
</event>
<event>
 7    1  0.5121289E-013  0.5052884E+02  0.7816164E-02  0.1300439E+00
        -11   -1    0    0    0    0  0.00000000000E+00  0.00000000000E+00  0.45593999997E+02  0.45594000000E+02  0.51100000000E-03 0.  1.
         11   -1    0    0    0    0 -0.00000000000E+00 -0.00000000000E+00 -0.45593999997E+02  0.45594000000E+02  0.51100000000E-03 0. -1.
    9900012    2    1    2    0    0 -0.30259674764E+02  0.19433853255E+02  0.18969569001E+02  0.50528842148E+02  0.29999946193E+02 0.  0.
         12    1    1    2    0    0  0.30259674764E+02 -0.19433853255E+02 -0.18969569001E+02  0.40659157852E+02  0.00000000000E+00 0. -1.
         11    1    3    3    0    0 -0.26068834452E+02  0.20466730239E+01  0.15439003277E+02  0.30366689358E+02  0.51100000000E-03 0.  1.
        -11    1    3    3    0    0 -0.79522036346E+00 -0.38038354659E+00 -0.11769954249E+01  0.14705052058E+01  0.51100000000E-03 0. -1.
        -12    1    3    3    0    0 -0.33956199490E+01  0.17767563777E+02  0.47075611492E+01  0.18691647584E+02  0.00000000000E+00 0.  1.
</event>
<event>
 7    1  0.5121289E-013  0.5052888E+02  0.7816164E-02  0.1300439E+00
        -11   -1    0    0    0    0  0.00000000000E+00  0.00000000000E+00  0.45593999997E+02  0.45594000000E+02  0.51100000000E-03 0. -1.
         11   -1    0    0    0    0 -0.00000000000E+00 -0.00000000000E+00 -0.45593999997E+02  0.45594000000E+02  0.51100000000E-03 0.  1.
    9900012    2    1    2    0    0  0.22434030389E+02  0.14072887385E+02  0.30851781346E+02  0.50528876902E+02  0.30000051832E+02 0.  0.
         12    1    1    2    0    0 -0.22434030389E+02 -0.14072887385E+02 -0.30851781346E+02  0.40659123098E+02  0.00000000000E+00 0. -1.
         11    1    3    3    0    0  0.11894578560E+02  0.12776393724E+02  0.12395277853E+02  0.21409347235E+02  0.51100000000E-03 0.  1.
        -11    1    3    3    0    0 -0.11879718190E+01  0.20212377359E+01  0.17136139962E+02  0.17295779025E+02  0.51100000000E-03 0. -1.
         12    1    3    3    0    0  0.11727423648E+02 -0.72474407438E+00  0.13203635306E+01  0.11823750643E+02  0.00000000000E+00 0. -1.
</event>
<event>
 7    1  0.5121289E-013  0.5052889E+02  0.7816164E-02  0.1300439E+00
        -11   -1    0    0    0    0  0.00000000000E+00  0.00000000000E+00  0.45593999997E+02  0.45594000000E+02  0.51100000000E-03 0.  1.
         11   -1    0    0    0    0 -0.00000000000E+00 -0.00000000000E+00 -0.45593999997E+02  0.45594000000E+02  0.51100000000E-03 0. -1.
    9900012    2    1    2    0    0 -0.55542471967E+01 -0.54699886284E+00  0.40274239705E+02  0.50528889662E+02  0.30000090617E+02 0.  0.
         12    1    1    2    0    0  0.55542471967E+01  0.54699886284E+00 -0.40274239705E+02  0.40659110338E+02  0.00000000000E+00 0. -1.
         11    1    3    3    0    0  0.74217139281E+01 -0.75481757269E+01  0.15346556386E+02  0.18643325551E+02  0.51100000000E-03 0. -1.
        -11    1    3    3    0    0  0.24674420641E+00 -0.14825858866E+01  0.10334422662E+02  0.10443142996E+02  0.51100000000E-03 0.  1.
        -12    1    3    3    0    0 -0.13222705331E+02  0.84837627506E+01  0.14593260657E+02  0.21442421115E+02  0.00000000000E+00 0.  1.
</event>
<event>
 7    1  0.5121289E-013  0.5052885E+02  0.7816164E-02  0.1300439E+00
        -11   -1    0    0    0    0  0.00000000000E+00  0.00000000000E+00  0.45593999997E+02  0.45594000000E+02  0.51100000000E-03 0. -1.
         11   -1    0    0    0    0 -0.00000000000E+00 -0.00000000000E+00 -0.45593999997E+02  0.45594000000E+02  0.51100000000E-03 0.  1.
    9900012    2    1    2    0    0  0.21261286299E+02 -0.27989464495E+02 -0.20438055733E+02  0.50528849247E+02  0.29999967770E+02 0.  0.
         12    1    1    2    0    0 -0.21261286299E+02  0.27989464495E+02  0.20438055733E+02  0.40659150753E+02  0.00000000000E+00 0. -1.
         11    1    3    3    0    0  0.15741783401E+01  0.13136033398E+01 -0.33157543906E+01  0.38984379718E+01  0.51100000000E-03 0. -1.
        -11    1    3    3    0    0  0.68913106004E+01 -0.61413919135E+00  0.47151603470E+01  0.83725782228E+01  0.51100000000E-03 0.  1.
         12    1    3    3    0    0  0.12795797358E+02 -0.28688928644E+02 -0.21837461690E+02  0.38257833052E+02  0.00000000000E+00 0. -1.
</event>
<event>
 7    1  0.5121289E-013  0.5052886E+02  0.7816164E-02  0.1300439E+00
        -11   -1    0    0    0    0  0.00000000000E+00  0.00000000000E+00  0.45593999997E+02  0.45594000000E+02  0.51100000000E-03 0.  1.
         11   -1    0    0    0    0 -0.00000000000E+00 -0.00000000000E+00 -0.45593999997E+02  0.45594000000E+02  0.51100000000E-03 0. -1.
    9900012    2    1    2    0    0  0.13902654461E+02  0.36219089207E+02  0.12167962848E+02  0.50528861495E+02  0.30000005001E+02 0.  0.
         12    1    1    2    0    0 -0.13902654461E+02 -0.36219089207E+02 -0.12167962848E+02  0.40659138505E+02  0.00000000000E+00 0. -1.
         11    1    3    3    0    0  0.18211973746E+01  0.11873472317E+02  0.36473256748E+01  0.12553847601E+02  0.51100000000E-03 0. -1.
        -11    1    3    3    0    0  0.12439969124E+02  0.28708747003E+02  0.37693156613E+01  0.31514325744E+02  0.51100000000E-03 0.  1.
         12    1    3    3    0    0 -0.35851203797E+00 -0.43631301126E+01  0.47513215123E+01  0.64606881502E+01  0.00000000000E+00 0. -1.
</event>
<event>
 7    1  0.5121289E-013  0.5052886E+02  0.7816164E-02  0.1300439E+00
        -11   -1    0    0    0    0  0.00000000000E+00  0.00000000000E+00  0.45593999997E+02  0.45594000000E+02  0.51100000000E-03 0. -1.
         11   -1    0    0    0    0 -0.00000000000E+00 -0.00000000000E+00 -0.45593999997E+02  0.45594000000E+02  0.51100000000E-03 0.  1.
    9900012    2    1    2    0    0 -0.37566218709E+02  0.14466927486E+02 -0.57142832935E+01  0.50528858192E+02  0.29999994962E+02 0.  0.
         12    1    1    2    0    0  0.37566218709E+02 -0.14466927486E+02  0.57142832935E+01  0.40659141808E+02  0.00000000000E+00 0. -1.
         11    1    3    3    0    0 -0.18441205565E+02 -0.20306831900E+01 -0.27293480862E+01  0.18752361935E+02  0.51100000000E-03 0.  1.
        -11    1    3    3    0    0 -0.44269447504E+01  0.92345163970E+01  0.71611309552E+01  0.12496236623E+02  0.51100000000E-03 0. -1.
         12    1    3    3    0    0 -0.14698068394E+02  0.72630942790E+01 -0.10146066162E+02  0.19280259635E+02  0.00000000000E+00 0. -1.
</event>
<event>
 7    1  0.5121289E-013  0.5052886E+02  0.7816164E-02  0.1300439E+00
        -11   -1    0    0    0    0  0.00000000000E+00  0.00000000000E+00  0.45593999997E+02  0.45594000000E+02  0.51100000000E-03 0. -1.
         11   -1    0    0    0    0 -0.00000000000E+00 -0.00000000000E+00 -0.45593999997E+02  0.45594000000E+02  0.51100000000E-03 0.  1.
    9900012    2    1    2    0    0  0.14291247695E+02  0.91142149353E+01 -0.36957497482E+02  0.50528864561E+02  0.30000014319E+02 0.  0.
         12    1    1    2    0    0 -0.14291247695E+02 -0.91142149353E+01  0.36957497482E+02  0.40659135439E+02  0.00000000000E+00 0. -1.
         11    1    3    3    0    0 -0.46578057810E-01  0.77726326222E+01 -0.22816024620E+02  0.24103671237E+02  0.51100000000E-03 0. -1.
        -11    1    3    3    0    0  0.20665464236E+01  0.75463679897E+00 -0.13966423710E+02  0.14138637923E+02  0.51100000000E-03 0.  1.
        -12    1    3    3    0    0  0.12271279329E+02  0.58694551411E+00 -0.17504915230E+00  0.12286555400E+02  0.00000000000E+00 0.  1.
</event>
<event>
 7    1  0.5121289E-013  0.5052885E+02  0.7816164E-02  0.1300439E+00
        -11   -1    0    0    0    0  0.00000000000E+00  0.00000000000E+00  0.45593999997E+02  0.45594000000E+02  0.51100000000E-03 0.  1.
         11   -1    0    0    0    0 -0.00000000000E+00 -0.00000000000E+00 -0.45593999997E+02  0.45594000000E+02  0.51100000000E-03 0. -1.
    9900012    2    1    2    0    0  0.14913387505E+02  0.33611537740E+02  0.17349975296E+02  0.50528852949E+02  0.29999979024E+02 0.  0.
         12    1    1    2    0    0 -0.14913387505E+02 -0.33611537740E+02 -0.17349975296E+02  0.40659147051E+02  0.00000000000E+00 0. -1.
         11    1    3    3    0    0  0.87747957542E+01  0.63103781187E+01  0.19085223917E+01  0.10975443978E+02  0.51100000000E-03 0. -1.
        -11    1    3    3    0    0  0.13672833482E+02  0.24576218949E+02  0.99142061616E+01  0.29819932886E+02  0.51100000000E-03 0.  1.
        -12    1    3    3    0    0 -0.75342417313E+01  0.27249406722E+01  0.55272467431E+01  0.97334760847E+01  0.00000000000E+00 0.  1.
</event>
<event>
 7    1  0.5121289E-013  0.5052886E+02  0.7816164E-02  0.1300439E+00
        -11   -1    0    0    0    0  0.00000000000E+00  0.00000000000E+00  0.45593999997E+02  0.45594000000E+02  0.51100000000E-03 0.  1.
         11   -1    0    0    0    0 -0.00000000000E+00 -0.00000000000E+00 -0.45593999997E+02  0.45594000000E+02  0.51100000000E-03 0. -1.
    9900012    2    1    2    0    0  0.25524214043E+01  0.33116851957E+02  0.23450471533E+02  0.50528863835E+02  0.30000012113E+02 0.  0.
         12    1    1    2    0    0 -0.25524214043E+01 -0.33116851957E+02 -0.23450471533E+02  0.40659136165E+02  0.00000000000E+00 0. -1.
         11    1    3    3    0    0  0.96281136382E+01  0.22365756700E+02  0.90323841146E+01  0.25971361305E+02  0.51100000000E-03 0. -1.
        -11    1    3    3    0    0 -0.21294120732E+01  0.10684589531E+02  0.16006145529E+02  0.19362116211E+02  0.51100000000E-03 0.  1.
        -12    1    3    3    0    0 -0.49462801608E+01  0.66505726663E-01 -0.15880581106E+01  0.51953863190E+01  0.00000000000E+00 0.  1.
</event>
<event>
 7    1  0.5121289E-013  0.5052886E+02  0.7816164E-02  0.1300439E+00
        -11   -1    0    0    0    0  0.00000000000E+00  0.00000000000E+00  0.45593999997E+02  0.45594000000E+02  0.51100000000E-03 0.  1.
         11   -1    0    0    0    0 -0.00000000000E+00 -0.00000000000E+00 -0.45593999997E+02  0.45594000000E+02  0.51100000000E-03 0. -1.
    9900012    2    1    2    0    0 -0.36414165005E+02 -0.79743500817E+00 -0.18070373737E+02  0.50528859298E+02  0.29999998322E+02 0.  0.
         12    1    1    2    0    0  0.36414165005E+02  0.79743500817E+00  0.18070373737E+02  0.40659140702E+02  0.00000000000E+00 0. -1.
         11    1    3    3    0    0 -0.32616948327E+01  0.77946435025E+01 -0.11995883536E+01  0.85342915928E+01  0.51100000000E-03 0. -1.
        -11    1    3    3    0    0 -0.26568003845E+02  0.11179421903E+01 -0.10072874623E+02  0.28435390387E+02  0.51100000000E-03 0.  1.
         12    1    3    3    0    0 -0.65844663275E+01 -0.97100207009E+01 -0.67979107605E+01  0.13559177318E+02  0.00000000000E+00 0. -1.
</event>
<event>
 7    1  0.5121289E-013  0.5052886E+02  0.7816164E-02  0.1300439E+00
        -11   -1    0    0    0    0  0.00000000000E+00  0.00000000000E+00  0.45593999997E+02  0.45594000000E+02  0.51100000000E-03 0.  1.
         11   -1    0    0    0    0 -0.00000000000E+00 -0.00000000000E+00 -0.45593999997E+02  0.45594000000E+02  0.51100000000E-03 0. -1.
    9900012    2    1    2    0    0 -0.17009019970E+02 -0.11043517047E+02  0.35240601655E+02  0.50528855467E+02  0.29999986678E+02 0.  0.
         12    1    1    2    0    0  0.17009019970E+02  0.11043517047E+02 -0.35240601655E+02  0.40659144533E+02  0.00000000000E+00 0. -1.
         11    1    3    3    0    0 -0.87087243265E+01 -0.14542202323E+02  0.19676160209E+02  0.25970537319E+02  0.51100000000E-03 0.  1.
        -11    1    3    3    0    0 -0.11960086636E+02 -0.14313370913E+01  0.13471710377E+02  0.18071507379E+02  0.51100000000E-03 0. -1.
         12    1    3    3    0    0  0.36597909918E+01  0.49300223665E+01  0.20927310692E+01  0.64868107700E+01  0.00000000000E+00 0. -1.
</event>
<event>
 7    1  0.5121289E-013  0.5052872E+02  0.7816164E-02  0.1300439E+00
        -11   -1    0    0    0    0  0.00000000000E+00  0.00000000000E+00  0.45593999997E+02  0.45594000000E+02  0.51100000000E-03 0. -1.
         11   -1    0    0    0    0 -0.00000000000E+00 -0.00000000000E+00 -0.45593999997E+02  0.45594000000E+02  0.51100000000E-03 0.  1.
    9900012    2    1    2    0    0  0.27235977357E+02 -0.12147778465E+02 -0.27637108365E+02  0.50528723776E+02  0.29999586387E+02 0.  0.
         12    1    1    2    0    0 -0.27235977357E+02  0.12147778465E+02  0.27637108365E+02  0.40659276224E+02  0.00000000000E+00 0. -1.
         11    1    3    3    0    0 -0.19946843751E+01  0.52812056381E+01 -0.49778088039E+01  0.75265184180E+01  0.51100000000E-03 0. -1.
        -11    1    3    3    0    0 -0.13336502877E+01  0.53062065492E-02 -0.53106758038E+00  0.14355083705E+01  0.51100000000E-03 0.  1.
        -12    1    3    3    0    0  0.30564312020E+02 -0.17434290309E+02 -0.22128231981E+02  0.41566696988E+02  0.00000000000E+00 0.  1.
</event>
<event>
 7    1  0.5121289E-013  0.5052886E+02  0.7816164E-02  0.1300439E+00
        -11   -1    0    0    0    0  0.00000000000E+00  0.00000000000E+00  0.45593999997E+02  0.45594000000E+02  0.51100000000E-03 0.  1.
         11   -1    0    0    0    0 -0.00000000000E+00 -0.00000000000E+00 -0.45593999997E+02  0.45594000000E+02  0.51100000000E-03 0. -1.
    9900012    2    1    2    0    0  0.16764477171E+02 -0.33867315181E+02  0.15004098271E+02  0.50528859609E+02  0.29999999269E+02 0.  0.
         12    1    1    2    0    0 -0.16764477171E+02  0.33867315181E+02 -0.15004098271E+02  0.40659140391E+02  0.00000000000E+00 0. -1.
         11    1    3    3    0    0  0.49275586955E+01 -0.10445780619E+01  0.40948071537E+01  0.64914885745E+01  0.51100000000E-03 0. -1.
        -11    1    3    3    0    0  0.16146887541E+02 -0.21450674081E+02  0.15542911665E+02  0.31023144571E+02  0.51100000000E-03 0.  1.
         12    1    3    3    0    0 -0.43099690655E+01 -0.11372063038E+02 -0.46336205475E+01  0.13014226464E+02  0.00000000000E+00 0. -1.
</event>
<event>
 7    1  0.5329644E-013  0.5052894E+02  0.7816164E-02  0.1300439E+00
        -11   -1    0    0    0    0  0.00000000000E+00  0.00000000000E+00  0.45593999997E+02  0.45594000000E+02  0.51100000000E-03 0. -1.
         11   -1    0    0    0    0 -0.00000000000E+00 -0.00000000000E+00 -0.45593999997E+02  0.45594000000E+02  0.51100000000E-03 0.  1.
    9900012    2    1    2    0    0  0.17761687903E+02  0.11842103852E+02 -0.34604139958E+02  0.50528936028E+02  0.30000231551E+02 0.  0.
         12    1    1    2    0    0 -0.17761687903E+02 -0.11842103852E+02  0.34604139958E+02  0.40659063972E+02  0.00000000000E+00 0. -1.
         11    1    3    3    0    0  0.47254334847E+01  0.90927117212E-01  0.43492443228E+01  0.64229211266E+01  0.51100000000E-03 0. -1.
        -11    1    3    3    0    0  0.58356987131E+01  0.11912400542E+01 -0.48327294834E+01  0.76700525981E+01  0.51100000000E-03 0.  1.
        -12    1    3    3    0    0  0.72005557048E+01  0.10559936681E+02 -0.34120654798E+02  0.36435962304E+02  0.00000000000E+00 0.  1.
</event>
<event>
 7    1  0.5121289E-013  0.5052886E+02  0.7816164E-02  0.1300439E+00
        -11   -1    0    0    0    0  0.00000000000E+00  0.00000000000E+00  0.45593999997E+02  0.45594000000E+02  0.51100000000E-03 0.  1.
         11   -1    0    0    0    0 -0.00000000000E+00 -0.00000000000E+00 -0.45593999997E+02  0.45594000000E+02  0.51100000000E-03 0. -1.
    9900012    2    1    2    0    0 -0.73404891968E+01 -0.24099969352E+02  0.31913548097E+02  0.50528857651E+02  0.29999993314E+02 0.  0.
         12    1    1    2    0    0  0.73404891968E+01  0.24099969352E+02 -0.31913548097E+02  0.40659142349E+02  0.00000000000E+00 0. -1.
         11    1    3    3    0    0  0.36043386693E+00 -0.18389766005E+01  0.40527629895E+01  0.44650459818E+01  0.51100000000E-03 0.  1.
        -11    1    3    3    0    0  0.33515691196E+01 -0.24668791558E+02  0.22457156620E+02  0.33527692677E+02  0.51100000000E-03 0. -1.
         12    1    3    3    0    0 -0.11052492183E+02  0.24077988060E+01  0.54036284877E+01  0.12536118992E+02  0.00000000000E+00 0. -1.
</event>
<event>
 7    1  0.5121289E-013  0.5052888E+02  0.7816164E-02  0.1300439E+00
        -11   -1    0    0    0    0  0.00000000000E+00  0.00000000000E+00  0.45593999997E+02  0.45594000000E+02  0.51100000000E-03 0. -1.
         11   -1    0    0    0    0 -0.00000000000E+00 -0.00000000000E+00 -0.45593999997E+02  0.45594000000E+02  0.51100000000E-03 0.  1.
    9900012    2    1    2    0    0  0.34276116280E+02 -0.21676941230E+02  0.29021046091E+01  0.50528878766E+02  0.30000057498E+02 0.  0.
         12    1    1    2    0    0 -0.34276116280E+02  0.21676941230E+02 -0.29021046091E+01  0.40659121234E+02  0.00000000000E+00 0. -1.
         11    1    3    3    0    0 -0.16366274869E+01 -0.71175976522E+01  0.27809480647E+01  0.78148844053E+01  0.51100000000E-03 0. -1.
        -11    1    3    3    0    0  0.24026349824E+02 -0.61698383279E+01  0.81327880396E+01  0.26105069094E+02  0.51100000000E-03 0.  1.
         12    1    3    3    0    0  0.11886393943E+02 -0.83895052499E+01 -0.80116314952E+01  0.16608925267E+02  0.00000000000E+00 0. -1.
</event>
<event>
 7    1  0.5121289E-013  0.5052886E+02  0.7816164E-02  0.1300439E+00
        -11   -1    0    0    0    0  0.00000000000E+00  0.00000000000E+00  0.45593999997E+02  0.45594000000E+02  0.51100000000E-03 0.  1.
         11   -1    0    0    0    0 -0.00000000000E+00 -0.00000000000E+00 -0.45593999997E+02  0.45594000000E+02  0.51100000000E-03 0. -1.
    9900012    2    1    2    0    0 -0.91619942338E+01  0.17267619355E+02  0.35651829070E+02  0.50528859176E+02  0.29999997951E+02 0.  0.
         12    1    1    2    0    0  0.91619942338E+01 -0.17267619355E+02 -0.35651829070E+02  0.40659140824E+02  0.00000000000E+00 0. -1.
         11    1    3    3    0    0 -0.10221375333E+02  0.15662906349E+02  0.78574731841E+01  0.20286523460E+02  0.51100000000E-03 0. -1.
        -11    1    3    3    0    0 -0.45869218388E+01  0.12248592599E+01  0.56184704754E+01  0.73557693619E+01  0.51100000000E-03 0.  1.
         12    1    3    3    0    0  0.56463029379E+01  0.37985374604E+00  0.22175885411E+02  0.22886566354E+02  0.00000000000E+00 0. -1.
</event>
<event>
 7    1  0.5121289E-013  0.5052891E+02  0.7816164E-02  0.1300439E+00
        -11   -1    0    0    0    0  0.00000000000E+00  0.00000000000E+00  0.45593999997E+02  0.45594000000E+02  0.51100000000E-03 0.  1.
         11   -1    0    0    0    0 -0.00000000000E+00 -0.00000000000E+00 -0.45593999997E+02  0.45594000000E+02  0.51100000000E-03 0. -1.
    9900012    2    1    2    0    0  0.25559589820E+02  0.18716238036E+01  0.31565267687E+02  0.50528908377E+02  0.30000147503E+02 0.  0.
         12    1    1    2    0    0 -0.25559589820E+02 -0.18716238036E+01 -0.31565267687E+02  0.40659091623E+02  0.00000000000E+00 0. -1.
         11    1    3    3    0    0  0.14649790127E+02 -0.17808876584E+01  0.15722463253E+02  0.21563482154E+02  0.51100000000E-03 0. -1.
        -11    1    3    3    0    0  0.14839038921E+02 -0.29623449492E+01  0.14861324146E+02  0.21209231936E+02  0.51100000000E-03 0.  1.
         12    1    3    3    0    0 -0.39292392282E+01  0.66148564111E+01  0.98148028854E+00  0.77561942865E+01  0.00000000000E+00 0. -1.
</event>
<event>
 7    1  0.5121289E-013  0.5052885E+02  0.7816164E-02  0.1300439E+00
        -11   -1    0    0    0    0  0.00000000000E+00  0.00000000000E+00  0.45593999997E+02  0.45594000000E+02  0.51100000000E-03 0. -1.
         11   -1    0    0    0    0 -0.00000000000E+00 -0.00000000000E+00 -0.45593999997E+02  0.45594000000E+02  0.51100000000E-03 0.  1.
    9900012    2    1    2    0    0  0.32421635974E+02  0.22656445665E+02 -0.94175208397E+01  0.50528847178E+02  0.29999961483E+02 0.  0.
         12    1    1    2    0    0 -0.32421635974E+02 -0.22656445665E+02  0.94175208397E+01  0.40659152822E+02  0.00000000000E+00 0. -1.
         11    1    3    3    0    0  0.19966536311E+02  0.18770056679E+02 -0.13211817956E+02  0.30422520177E+02  0.51100000000E-03 0. -1.
        -11    1    3    3    0    0  0.10917140924E+02  0.57195688916E+01 -0.31838814636E+01  0.12729278679E+02  0.51100000000E-03 0.  1.
         12    1    3    3    0    0  0.15379587388E+01 -0.18331799055E+01  0.69781785796E+01  0.73770483214E+01  0.00000000000E+00 0. -1.
</event>
<event>
 7    1  0.5121289E-013  0.5052886E+02  0.7816164E-02  0.1300439E+00
        -11   -1    0    0    0    0  0.00000000000E+00  0.00000000000E+00  0.45593999997E+02  0.45594000000E+02  0.51100000000E-03 0.  1.
         11   -1    0    0    0    0 -0.00000000000E+00 -0.00000000000E+00 -0.45593999997E+02  0.45594000000E+02  0.51100000000E-03 0. -1.
    9900012    2    1    2    0    0  0.36742040578E+02  0.17410196452E+02  0.27062356166E+00  0.50528859288E+02  0.29999998292E+02 0.  0.
         12    1    1    2    0    0 -0.36742040578E+02 -0.17410196452E+02 -0.27062356166E+00  0.40659140712E+02  0.00000000000E+00 0. -1.
         11    1    3    3    0    0  0.20076935824E+02  0.16424724833E+01 -0.35306733664E+01  0.20451081209E+02  0.51100000000E-03 0. -1.
        -11    1    3    3    0    0  0.21761692354E+01  0.49427275493E+01 -0.71302617972E+01  0.89446577199E+01  0.51100000000E-03 0.  1.
        -12    1    3    3    0    0  0.14488935519E+02  0.10824996420E+02  0.10931558725E+02  0.21133120359E+02  0.00000000000E+00 0.  1.
</event>
<event>
 7    1  0.5121289E-013  0.5052886E+02  0.7816164E-02  0.1300439E+00
        -11   -1    0    0    0    0  0.00000000000E+00  0.00000000000E+00  0.45593999997E+02  0.45594000000E+02  0.51100000000E-03 0. -1.
         11   -1    0    0    0    0 -0.00000000000E+00 -0.00000000000E+00 -0.45593999997E+02  0.45594000000E+02  0.51100000000E-03 0.  1.
    9900012    2    1    2    0    0 -0.96655325571E+01 -0.13193827427E+02 -0.37224533723E+02  0.50528861880E+02  0.30000006170E+02 0.  0.
         12    1    1    2    0    0  0.96655325571E+01  0.13193827427E+02  0.37224533723E+02  0.40659138120E+02  0.00000000000E+00 0. -1.
         11    1    3    3    0    0  0.65145111601E+01  0.20804120160E+00 -0.15111636961E+01  0.66907213942E+01  0.51100000000E-03 0. -1.
        -11    1    3    3    0    0  0.24334374380E+01  0.71472505449E-01 -0.38061027880E+01  0.45180908333E+01  0.51100000000E-03 0.  1.
        -12    1    3    3    0    0 -0.18613481155E+02 -0.13473341134E+02 -0.31907267239E+02  0.39320049652E+02  0.00000000000E+00 0.  1.
</event>
<event>
 7    1  0.5121289E-013  0.5052897E+02  0.7816164E-02  0.1300438E+00
        -11   -1    0    0    0    0  0.00000000000E+00  0.00000000000E+00  0.45593999997E+02  0.45594000000E+02  0.51100000000E-03 0. -1.
         11   -1    0    0    0    0 -0.00000000000E+00 -0.00000000000E+00 -0.45593999997E+02  0.45594000000E+02  0.51100000000E-03 0.  1.
    9900012    2    1    2    0    0  0.24169202134E+02  0.29549241274E+02 -0.13994588268E+02  0.50528972805E+02  0.30000343335E+02 0.  0.
         12    1    1    2    0    0 -0.24169202134E+02 -0.29549241274E+02  0.13994588268E+02  0.40659027195E+02  0.00000000000E+00 0. -1.
         11    1    3    3    0    0  0.20030065965E+02  0.10035431376E+02  0.28273530885E+01  0.22581128209E+02  0.51100000000E-03 0. -1.
        -11    1    3    3    0    0  0.12596907410E+01  0.54083816430E+01  0.32026040545E+00  0.55623717736E+01  0.51100000000E-03 0.  1.
         12    1    3    3    0    0  0.28794454286E+01  0.14105428255E+02 -0.17142201761E+02  0.22385472822E+02  0.00000000000E+00 0. -1.
</event>
<event>
 7    1  0.5121289E-013  0.5052894E+02  0.7816164E-02  0.1300438E+00
        -11   -1    0    0    0    0  0.00000000000E+00  0.00000000000E+00  0.45593999997E+02  0.45594000000E+02  0.51100000000E-03 0.  1.
         11   -1    0    0    0    0 -0.00000000000E+00 -0.00000000000E+00 -0.45593999997E+02  0.45594000000E+02  0.51100000000E-03 0. -1.
    9900012    2    1    2    0    0  0.13411533279E+02 -0.19640946323E+02  0.32977612133E+02  0.50528943206E+02  0.30000253369E+02 0.  0.
         12    1    1    2    0    0 -0.13411533279E+02  0.19640946323E+02 -0.32977612133E+02  0.40659056794E+02  0.00000000000E+00 0. -1.
         11    1    3    3    0    0 -0.12547086636E+01  0.58883221427E+00 -0.10146425948E+01  0.17177069201E+01  0.51100000000E-03 0. -1.
        -11    1    3    3    0    0 -0.17244131997E+01  0.24721013705E+00  0.18015213017E+02  0.18099243466E+02  0.51100000000E-03 0.  1.
        -12    1    3    3    0    0  0.16390655142E+02 -0.20476988674E+02  0.15977041711E+02  0.30711992820E+02  0.00000000000E+00 0.  1.
</event>
<event>
 7    1  0.5121289E-013  0.5052886E+02  0.7816164E-02  0.1300439E+00
        -11   -1    0    0    0    0  0.00000000000E+00  0.00000000000E+00  0.45593999997E+02  0.45594000000E+02  0.51100000000E-03 0. -1.
         11   -1    0    0    0    0 -0.00000000000E+00 -0.00000000000E+00 -0.45593999997E+02  0.45594000000E+02  0.51100000000E-03 0.  1.
    9900012    2    1    2    0    0 -0.50242798038E+01  0.10785585131E+02 -0.38879219340E+02  0.50528856740E+02  0.29999990547E+02 0.  0.
         12    1    1    2    0    0  0.50242798038E+01 -0.10785585131E+02  0.38879219340E+02  0.40659143260E+02  0.00000000000E+00 0. -1.
         11    1    3    3    0    0 -0.58401442158E+01 -0.78061259254E+01 -0.13354566029E+02  0.16534428340E+02  0.51100000000E-03 0. -1.
        -11    1    3    3    0    0 -0.16880345641E+01 -0.14436940296E+01 -0.31741406925E+01  0.38741299072E+01  0.51100000000E-03 0.  1.
        -12    1    3    3    0    0  0.25038989761E+01  0.20035405086E+02 -0.22350512618E+02  0.30120298493E+02  0.00000000000E+00 0.  1.
</event>
<event>
 7    1  0.5121289E-013  0.5052886E+02  0.7816164E-02  0.1300439E+00
        -11   -1    0    0    0    0  0.00000000000E+00  0.00000000000E+00  0.45593999997E+02  0.45594000000E+02  0.51100000000E-03 0.  1.
         11   -1    0    0    0    0 -0.00000000000E+00 -0.00000000000E+00 -0.45593999997E+02  0.45594000000E+02  0.51100000000E-03 0. -1.
    9900012    2    1    2    0    0 -0.40469832427E+02  0.74417068945E-01 -0.39183117346E+01  0.50528855377E+02  0.29999986405E+02 0.  0.
         12    1    1    2    0    0  0.40469832427E+02 -0.74417068945E-01  0.39183117346E+01  0.40659144623E+02  0.00000000000E+00 0. -1.
         11    1    3    3    0    0 -0.74397834180E+01  0.19789057809E+00 -0.77700024942E+01  0.10759297236E+02  0.51100000000E-03 0. -1.
        -11    1    3    3    0    0 -0.24432871852E+02  0.12583438858E+01 -0.73834852862E+01  0.25555126912E+02  0.51100000000E-03 0.  1.
        -12    1    3    3    0    0 -0.85971771574E+01 -0.13818173949E+01  0.11235176046E+02  0.14214431229E+02  0.00000000000E+00 0.  1.
</event>
<event>
 7    1  0.5121289E-013  0.5052887E+02  0.7816164E-02  0.1300439E+00
        -11   -1    0    0    0    0  0.00000000000E+00  0.00000000000E+00  0.45593999997E+02  0.45594000000E+02  0.51100000000E-03 0.  1.
         11   -1    0    0    0    0 -0.00000000000E+00 -0.00000000000E+00 -0.45593999997E+02  0.45594000000E+02  0.51100000000E-03 0. -1.
    9900012    2    1    2    0    0  0.35210329898E+02  0.44346072997E+01  0.19842682750E+02  0.50528866560E+02  0.30000020395E+02 0.  0.
         12    1    1    2    0    0 -0.35210329898E+02 -0.44346072997E+01 -0.19842682750E+02  0.40659133440E+02  0.00000000000E+00 0. -1.
         11    1    3    3    0    0  0.12313378407E+02  0.29152401420E+01  0.16094197661E+02  0.20472936074E+02  0.51100000000E-03 0. -1.
        -11    1    3    3    0    0  0.87794155180E+01  0.33719138346E+01  0.10670907066E+02  0.14223789848E+02  0.51100000000E-03 0.  1.
         12    1    3    3    0    0  0.14117535973E+02 -0.18525466769E+01 -0.69224219781E+01  0.15832140638E+02  0.00000000000E+00 0. -1.
</event>
<event>
 7    1  0.5121289E-013  0.5052885E+02  0.7816164E-02  0.1300439E+00
        -11   -1    0    0    0    0  0.00000000000E+00  0.00000000000E+00  0.45593999997E+02  0.45594000000E+02  0.51100000000E-03 0. -1.
         11   -1    0    0    0    0 -0.00000000000E+00 -0.00000000000E+00 -0.45593999997E+02  0.45594000000E+02  0.51100000000E-03 0.  1.
    9900012    2    1    2    0    0  0.70203554655E+01 -0.40015446982E+02 -0.16263137570E+01  0.50528852388E+02  0.29999977320E+02 0.  0.
         12    1    1    2    0    0 -0.70203554655E+01  0.40015446982E+02  0.16263137570E+01  0.40659147612E+02  0.00000000000E+00 0. -1.
         11    1    3    3    0    0 -0.20265434699E+01 -0.24090094307E+02 -0.79505389404E+00  0.24188254031E+02  0.51100000000E-03 0. -1.
        -11    1    3    3    0    0 -0.55191655459E+01 -0.78489767140E+01  0.66530058496E+00  0.96182248315E+01  0.51100000000E-03 0.  1.
         12    1    3    3    0    0  0.14566064481E+02 -0.80763759619E+01 -0.14965604479E+01  0.16722373525E+02  0.00000000000E+00 0. -1.
</event>
<event>
 7    1  0.5121289E-013  0.5052883E+02  0.7816164E-02  0.1300439E+00
        -11   -1    0    0    0    0  0.00000000000E+00  0.00000000000E+00  0.45593999997E+02  0.45594000000E+02  0.51100000000E-03 0.  1.
         11   -1    0    0    0    0 -0.00000000000E+00 -0.00000000000E+00 -0.45593999997E+02  0.45594000000E+02  0.51100000000E-03 0. -1.
    9900012    2    1    2    0    0  0.31486439200E+02 -0.23910414696E+02 -0.94902169203E+01  0.50528831272E+02  0.29999913135E+02 0.  0.
         12    1    1    2    0    0 -0.31486439200E+02  0.23910414696E+02  0.94902169203E+01  0.40659168728E+02  0.00000000000E+00 0. -1.
         11    1    3    3    0    0 -0.27122739979E+00 -0.70897383353E+01 -0.16658128079E+01  0.72878588445E+01  0.51100000000E-03 0. -1.
        -11    1    3    3    0    0  0.70128936935E+01 -0.70311406337E+01 -0.12767509188E+02  0.16174885091E+02  0.51100000000E-03 0.  1.
        -12    1    3    3    0    0  0.24744772906E+02 -0.97895357271E+01  0.49431050757E+01  0.27066087337E+02  0.00000000000E+00 0.  1.
</event>
<event>
 7    1  0.5121289E-013  0.5052886E+02  0.7816164E-02  0.1300439E+00
        -11   -1    0    0    0    0  0.00000000000E+00  0.00000000000E+00  0.45593999997E+02  0.45594000000E+02  0.51100000000E-03 0.  1.
         11   -1    0    0    0    0 -0.00000000000E+00 -0.00000000000E+00 -0.45593999997E+02  0.45594000000E+02  0.51100000000E-03 0. -1.
    9900012    2    1    2    0    0 -0.77564662482E+01  0.34523611489E+02  0.20028064633E+02  0.50528857217E+02  0.29999991995E+02 0.  0.
         12    1    1    2    0    0  0.77564662482E+01 -0.34523611489E+02 -0.20028064633E+02  0.40659142783E+02  0.00000000000E+00 0. -1.
         11    1    3    3    0    0 -0.60449901337E-01 -0.51408021535E+00  0.39579932832E+01  0.39916968509E+01  0.51100000000E-03 0. -1.
        -11    1    3    3    0    0 -0.79101299142E+01  0.31422704938E-02  0.64464575698E+01  0.10204262864E+02  0.51100000000E-03 0.  1.
         12    1    3    3    0    0  0.21411356728E+00  0.35034549434E+02  0.96236137801E+01  0.36332897502E+02  0.00000000000E+00 0. -1.
</event>
<event>
 7    1  0.5121289E-013  0.5052885E+02  0.7816164E-02  0.1300439E+00
        -11   -1    0    0    0    0  0.00000000000E+00  0.00000000000E+00  0.45593999997E+02  0.45594000000E+02  0.51100000000E-03 0.  1.
         11   -1    0    0    0    0 -0.00000000000E+00 -0.00000000000E+00 -0.45593999997E+02  0.45594000000E+02  0.51100000000E-03 0. -1.
    9900012    2    1    2    0    0 -0.36544250364E+02  0.61819207298E+01  0.16717289199E+02  0.50528854205E+02  0.29999982842E+02 0.  0.
         12    1    1    2    0    0  0.36544250364E+02 -0.61819207298E+01 -0.16717289199E+02  0.40659145795E+02  0.00000000000E+00 0. -1.
         11    1    3    3    0    0 -0.80288136012E+01  0.67076745535E+01  0.10947800945E+02  0.15142955179E+02  0.51100000000E-03 0. -1.
        -11    1    3    3    0    0 -0.15023498586E+02  0.83684805887E+01  0.81868024817E+01  0.19046278173E+02  0.51100000000E-03 0.  1.
         12    1    3    3    0    0 -0.13491938177E+02 -0.88942344124E+01 -0.24173142271E+01  0.16339620853E+02  0.00000000000E+00 0. -1.
</event>
<event>
 7    1  0.5121289E-013  0.5052883E+02  0.7816164E-02  0.1300439E+00
        -11   -1    0    0    0    0  0.00000000000E+00  0.00000000000E+00  0.45593999997E+02  0.45594000000E+02  0.51100000000E-03 0.  1.
         11   -1    0    0    0    0 -0.00000000000E+00 -0.00000000000E+00 -0.45593999997E+02  0.45594000000E+02  0.51100000000E-03 0. -1.
    9900012    2    1    2    0    0 -0.12331972085E+02 -0.63132058896E+01  0.38226091959E+02  0.50528828703E+02  0.29999905325E+02 0.  0.
         12    1    1    2    0    0  0.12331972085E+02  0.63132058896E+01 -0.38226091959E+02  0.40659171297E+02  0.00000000000E+00 0. -1.
         11    1    3    3    0    0 -0.90417929111E+00 -0.60911905007E+01  0.16947536984E+02  0.18031615347E+02  0.51100000000E-03 0. -1.
        -11    1    3    3    0    0 -0.12160977658E+02 -0.73490127067E+01  0.20964112014E+02  0.25325705482E+02  0.51100000000E-03 0.  1.
         12    1    3    3    0    0  0.73318486395E+00  0.71269973178E+01  0.31444296054E+00  0.71715078741E+01  0.00000000000E+00 0. -1.
</event>
<event>
 7    1  0.5121289E-013  0.5052888E+02  0.7816164E-02  0.1300439E+00
        -11   -1    0    0    0    0  0.00000000000E+00  0.00000000000E+00  0.45593999997E+02  0.45594000000E+02  0.51100000000E-03 0.  1.
         11   -1    0    0    0    0 -0.00000000000E+00 -0.00000000000E+00 -0.45593999997E+02  0.45594000000E+02  0.51100000000E-03 0. -1.
    9900012    2    1    2    0    0 -0.71651120003E+01  0.88468106526E+01  0.39032799250E+02  0.50528876719E+02  0.30000051275E+02 0.  0.
         12    1    1    2    0    0  0.71651120003E+01 -0.88468106526E+01 -0.39032799250E+02  0.40659123281E+02  0.00000000000E+00 0. -1.
         11    1    3    3    0    0  0.48176334722E+01 -0.37729502549E+01  0.37577382028E+01  0.71809012359E+01  0.51100000000E-03 0. -1.
        -11    1    3    3    0    0  0.30392281376E+01  0.56703046845E+01  0.30478926157E+01  0.71189123147E+01  0.51100000000E-03 0.  1.
        -12    1    3    3    0    0 -0.15021973610E+02  0.69494562230E+01  0.32227168431E+02  0.36229063168E+02  0.00000000000E+00 0.  1.
</event>
<event>
 7    1  0.5121289E-013  0.5052885E+02  0.7816164E-02  0.1300439E+00
        -11   -1    0    0    0    0  0.00000000000E+00  0.00000000000E+00  0.45593999997E+02  0.45594000000E+02  0.51100000000E-03 0.  1.
         11   -1    0    0    0    0 -0.00000000000E+00 -0.00000000000E+00 -0.45593999997E+02  0.45594000000E+02  0.51100000000E-03 0. -1.
    9900012    2    1    2    0    0  0.81317968806E+01 -0.18053680985E+01  0.39796741071E+02  0.50528854973E+02  0.29999985175E+02 0.  0.
         12    1    1    2    0    0 -0.81317968806E+01  0.18053680985E+01 -0.39796741071E+02  0.40659145027E+02  0.00000000000E+00 0. -1.
         11    1    3    3    0    0  0.22789505473E+01  0.29516261537E+01  0.10818341805E+02  0.11442999267E+02  0.51100000000E-03 0. -1.
        -11    1    3    3    0    0 -0.24766185425E+01 -0.16230787975E+01  0.29983862349E+02  0.30129719976E+02  0.51100000000E-03 0.  1.
         12    1    3    3    0    0  0.83294648758E+01 -0.31339154546E+01 -0.10054630837E+01  0.89561357296E+01  0.00000000000E+00 0. -1.
</event>
<event>
 7    1  0.5121289E-013  0.5052887E+02  0.7816164E-02  0.1300439E+00
        -11   -1    0    0    0    0  0.00000000000E+00  0.00000000000E+00  0.45593999997E+02  0.45594000000E+02  0.51100000000E-03 0.  1.
         11   -1    0    0    0    0 -0.00000000000E+00 -0.00000000000E+00 -0.45593999997E+02  0.45594000000E+02  0.51100000000E-03 0. -1.
    9900012    2    1    2    0    0  0.33115758796E+02 -0.15976313874E+02  0.17357086687E+02  0.50528873793E+02  0.30000042381E+02 0.  0.
         12    1    1    2    0    0 -0.33115758796E+02  0.15976313874E+02 -0.17357086687E+02  0.40659126207E+02  0.00000000000E+00 0. -1.
         11    1    3    3    0    0  0.97603487284E+01 -0.11264192231E+02  0.50854168076E+01  0.15748266517E+02  0.51100000000E-03 0. -1.
        -11    1    3    3    0    0  0.15154897457E+02 -0.11685237474E+02  0.14219535460E+02  0.23841369103E+02  0.51100000000E-03 0.  1.
        -12    1    3    3    0    0  0.82005126110E+01  0.69731158310E+01 -0.19478655808E+01  0.10939238173E+02  0.00000000000E+00 0.  1.
</event>
<event>
 7    1  0.5121289E-013  0.5052887E+02  0.7816164E-02  0.1300439E+00
        -11   -1    0    0    0    0  0.00000000000E+00  0.00000000000E+00  0.45593999997E+02  0.45594000000E+02  0.51100000000E-03 0.  1.
         11   -1    0    0    0    0 -0.00000000000E+00 -0.00000000000E+00 -0.45593999997E+02  0.45594000000E+02  0.51100000000E-03 0. -1.
    9900012    2    1    2    0    0  0.28898685971E+01 -0.30011920068E+02  0.27278167682E+02  0.50528866724E+02  0.30000020896E+02 0.  0.
         12    1    1    2    0    0 -0.28898685971E+01  0.30011920068E+02 -0.27278167682E+02  0.40659133276E+02  0.00000000000E+00 0. -1.
         11    1    3    3    0    0  0.55030348414E+01 -0.56932085815E+01  0.12827337762E+02  0.15074369331E+02  0.51100000000E-03 0. -1.
        -11    1    3    3    0    0  0.74034491754E+01 -0.13791141661E+02  0.10510287462E+01  0.15687935164E+02  0.51100000000E-03 0.  1.
        -12    1    3    3    0    0 -0.10016615420E+02 -0.10527569825E+02  0.13399801173E+02  0.19766562230E+02  0.00000000000E+00 0.  1.
</event>
<event>
 7    1  0.5121289E-013  0.5052886E+02  0.7816164E-02  0.1300439E+00
        -11   -1    0    0    0    0  0.00000000000E+00  0.00000000000E+00  0.45593999997E+02  0.45594000000E+02  0.51100000000E-03 0. -1.
         11   -1    0    0    0    0 -0.00000000000E+00 -0.00000000000E+00 -0.45593999997E+02  0.45594000000E+02  0.51100000000E-03 0.  1.
    9900012    2    1    2    0    0  0.21705874056E+02  0.21039771157E+02 -0.27190962911E+02  0.50528863229E+02  0.30000010272E+02 0.  0.
         12    1    1    2    0    0 -0.21705874056E+02 -0.21039771157E+02  0.27190962911E+02  0.40659136771E+02  0.00000000000E+00 0. -1.
         11    1    3    3    0    0  0.50020097346E-01  0.11262499696E+02 -0.31959243992E+01  0.11707276987E+02  0.51100000000E-03 0. -1.
        -11    1    3    3    0    0  0.88043285718E+01 -0.26730062789E+01 -0.40092985954E+00  0.92098810622E+01  0.51100000000E-03 0.  1.
        -12    1    3    3    0    0  0.12851525387E+02  0.12450277739E+02 -0.23594108653E+02  0.29611705180E+02  0.00000000000E+00 0.  1.
</event>
<event>
 7    1  0.5121289E-013  0.5052886E+02  0.7816164E-02  0.1300439E+00
        -11   -1    0    0    0    0  0.00000000000E+00  0.00000000000E+00  0.45593999997E+02  0.45594000000E+02  0.51100000000E-03 0. -1.
         11   -1    0    0    0    0 -0.00000000000E+00 -0.00000000000E+00 -0.45593999997E+02  0.45594000000E+02  0.51100000000E-03 0.  1.
    9900012    2    1    2    0    0  0.21430559217E+02  0.49946415399E+00 -0.34549202863E+02  0.50528858946E+02  0.29999997252E+02 0.  0.
         12    1    1    2    0    0 -0.21430559217E+02 -0.49946415399E+00  0.34549202863E+02  0.40659141054E+02  0.00000000000E+00 0. -1.
         11    1    3    3    0    0  0.62835146486E+01 -0.71849388750E+01 -0.25172158629E+01  0.98712855768E+01  0.51100000000E-03 0. -1.
        -11    1    3    3    0    0  0.11206431686E+02 -0.29351978150E+01 -0.24367483831E+02  0.26980988971E+02  0.51100000000E-03 0.  1.
         12    1    3    3    0    0  0.39406128816E+01  0.10619600844E+02 -0.76645031694E+01  0.13676584398E+02  0.00000000000E+00 0. -1.
</event>
<event>
 7    1  0.5121289E-013  0.5052885E+02  0.7816164E-02  0.1300439E+00
        -11   -1    0    0    0    0  0.00000000000E+00  0.00000000000E+00  0.45593999997E+02  0.45594000000E+02  0.51100000000E-03 0.  1.
         11   -1    0    0    0    0 -0.00000000000E+00 -0.00000000000E+00 -0.45593999997E+02  0.45594000000E+02  0.51100000000E-03 0. -1.
    9900012    2    1    2    0    0  0.18521857646E+01  0.31113205053E+02  0.26109463308E+02  0.50528853489E+02  0.29999980666E+02 0.  0.
         12    1    1    2    0    0 -0.18521857646E+01 -0.31113205053E+02 -0.26109463308E+02  0.40659146511E+02  0.00000000000E+00 0. -1.
         11    1    3    3    0    0 -0.90652681021E+01  0.67974935654E+01  0.68381582359E+01  0.13234251503E+02  0.51100000000E-03 0. -1.
        -11    1    3    3    0    0 -0.43735897092E+01  0.79893622395E+01  0.85368561641E+01  0.12483433397E+02  0.51100000000E-03 0.  1.
        -12    1    3    3    0    0  0.15291043576E+02  0.16326349248E+02  0.10734448907E+02  0.24811168589E+02  0.00000000000E+00 0.  1.
</event>
<event>
 7    1  0.5121289E-013  0.5052886E+02  0.7816164E-02  0.1300439E+00
        -11   -1    0    0    0    0  0.00000000000E+00  0.00000000000E+00  0.45593999997E+02  0.45594000000E+02  0.51100000000E-03 0.  1.
         11   -1    0    0    0    0 -0.00000000000E+00 -0.00000000000E+00 -0.45593999997E+02  0.45594000000E+02  0.51100000000E-03 0. -1.
    9900012    2    1    2    0    0  0.37658042502E+02  0.15327960408E+02 -0.30192218284E+00  0.50528859670E+02  0.29999999454E+02 0.  0.
         12    1    1    2    0    0 -0.37658042502E+02 -0.15327960408E+02  0.30192218284E+00  0.40659140330E+02  0.00000000000E+00 0. -1.
         11    1    3    3    0    0  0.17055590366E+02  0.18896175106E+02  0.48978075007E+01  0.25921942731E+02  0.51100000000E-03 0.  1.
        -11    1    3    3    0    0  0.48834947075E+00 -0.35830461746E+01  0.61745265875E+00  0.36685082993E+01  0.51100000000E-03 0. -1.
        -12    1    3    3    0    0  0.20114102665E+02  0.14831477245E-01 -0.58171823423E+01  0.20938408640E+02  0.00000000000E+00 0.  1.
</event>
<event>
 7    1  0.5121289E-013  0.5052884E+02  0.7816164E-02  0.1300439E+00
        -11   -1    0    0    0    0  0.00000000000E+00  0.00000000000E+00  0.45593999997E+02  0.45594000000E+02  0.51100000000E-03 0. -1.
         11   -1    0    0    0    0 -0.00000000000E+00 -0.00000000000E+00 -0.45593999997E+02  0.45594000000E+02  0.51100000000E-03 0.  1.
    9900012    2    1    2    0    0  0.40158503369E+02 -0.51706257807E+01 -0.37049060953E+01  0.50528842446E+02  0.29999947099E+02 0.  0.
         12    1    1    2    0    0 -0.40158503369E+02  0.51706257807E+01  0.37049060953E+01  0.40659157554E+02  0.00000000000E+00 0. -1.
         11    1    3    3    0    0  0.18859871278E+02 -0.92421315337E+01  0.79336266104E+01  0.22451150780E+02  0.51100000000E-03 0. -1.
        -11    1    3    3    0    0  0.12965512062E+01 -0.33762740108E+01  0.28753025951E+00  0.36280773335E+01  0.51100000000E-03 0.  1.
        -12    1    3    3    0    0  0.20002080885E+02  0.74477797638E+01 -0.11926062965E+02  0.24449614332E+02  0.00000000000E+00 0.  1.
</event>
<event>
 7    1  0.5121289E-013  0.5052885E+02  0.7816164E-02  0.1300439E+00
        -11   -1    0    0    0    0  0.00000000000E+00  0.00000000000E+00  0.45593999997E+02  0.45594000000E+02  0.51100000000E-03 0.  1.
         11   -1    0    0    0    0 -0.00000000000E+00 -0.00000000000E+00 -0.45593999997E+02  0.45594000000E+02  0.51100000000E-03 0. -1.
    9900012    2    1    2    0    0 -0.38263497759E+02 -0.12639894588E+02  0.54133376587E+01  0.50528850715E+02  0.29999972235E+02 0.  0.
         12    1    1    2    0    0  0.38263497759E+02  0.12639894588E+02 -0.54133376587E+01  0.40659149285E+02  0.00000000000E+00 0. -1.
         11    1    3    3    0    0  0.20914353535E+01 -0.24006115198E+01  0.41849340874E+01  0.52583943446E+01  0.51100000000E-03 0. -1.
        -11    1    3    3    0    0 -0.54244902804E+01 -0.87204530148E+01 -0.29045823765E+00  0.10274033377E+02  0.51100000000E-03 0.  1.
        -12    1    3    3    0    0 -0.34930442832E+02 -0.15188300535E+01  0.15188618090E+01  0.34996422994E+02  0.00000000000E+00 0.  1.
</event>
<event>
 7    1  0.5121289E-013  0.5052884E+02  0.7816164E-02  0.1300439E+00
        -11   -1    0    0    0    0  0.00000000000E+00  0.00000000000E+00  0.45593999997E+02  0.45594000000E+02  0.51100000000E-03 0.  1.
         11   -1    0    0    0    0 -0.00000000000E+00 -0.00000000000E+00 -0.45593999997E+02  0.45594000000E+02  0.51100000000E-03 0. -1.
    9900012    2    1    2    0    0 -0.15657638417E+02 -0.67476805852E+01  0.36911712144E+02  0.50528839562E+02  0.29999938334E+02 0.  0.
         12    1    1    2    0    0  0.15657638417E+02  0.67476805852E+01 -0.36911712144E+02  0.40659160438E+02  0.00000000000E+00 0. -1.
         11    1    3    3    0    0 -0.19253219119E+02 -0.30653715391E+01  0.24931493020E+02  0.31649048858E+02  0.51100000000E-03 0. -1.
        -11    1    3    3    0    0  0.22615408518E+01  0.21291309056E+01  0.12513657035E+02  0.12893385052E+02  0.51100000000E-03 0.  1.
        -12    1    3    3    0    0  0.13340398502E+01 -0.58114399517E+01 -0.53343791160E+00  0.59864056528E+01  0.00000000000E+00 0.  1.
</event>
<event>
 7    1  0.5121289E-013  0.5052886E+02  0.7816164E-02  0.1300439E+00
        -11   -1    0    0    0    0  0.00000000000E+00  0.00000000000E+00  0.45593999997E+02  0.45594000000E+02  0.51100000000E-03 0.  1.
         11   -1    0    0    0    0 -0.00000000000E+00 -0.00000000000E+00 -0.45593999997E+02  0.45594000000E+02  0.51100000000E-03 0. -1.
    9900012    2    1    2    0    0 -0.13837701469E+02  0.37926171731E+02  0.48258774832E+01  0.50528861081E+02  0.30000003743E+02 0.  0.
         12    1    1    2    0    0  0.13837701469E+02 -0.37926171731E+02 -0.48258774832E+01  0.40659138919E+02  0.00000000000E+00 0. -1.
         11    1    3    3    0    0  0.26491605990E+01  0.49876134010E+01  0.49380518044E+01  0.75019127695E+01  0.51100000000E-03 0. -1.
        -11    1    3    3    0    0 -0.33629762845E+01  0.12876860259E+02  0.10360658741E+02  0.16866131430E+02  0.51100000000E-03 0.  1.
         12    1    3    3    0    0 -0.13123885784E+02  0.20061698072E+02 -0.10472833062E+02  0.26160816882E+02  0.00000000000E+00 0. -1.
</event>
<event>
 7    1  0.5121289E-013  0.5052886E+02  0.7816164E-02  0.1300439E+00
        -11   -1    0    0    0    0  0.00000000000E+00  0.00000000000E+00  0.45593999997E+02  0.45594000000E+02  0.51100000000E-03 0. -1.
         11   -1    0    0    0    0 -0.00000000000E+00 -0.00000000000E+00 -0.45593999997E+02  0.45594000000E+02  0.51100000000E-03 0.  1.
    9900012    2    1    2    0    0  0.40429178355E+02  0.43115213875E+01 -0.24087245040E+00  0.50528859592E+02  0.29999999217E+02 0.  0.
         12    1    1    2    0    0 -0.40429178355E+02 -0.43115213875E+01  0.24087245040E+00  0.40659140408E+02  0.00000000000E+00 0. -1.
         11    1    3    3    0    0 -0.87017345682E+00 -0.33286764554E+01 -0.75947605230E-01  0.34413743025E+01  0.51100000000E-03 0. -1.
        -11    1    3    3    0    0  0.35968245092E+02 -0.91359600299E+00  0.39597308846E+01  0.36197082501E+02  0.51100000000E-03 0.  1.
         12    1    3    3    0    0  0.53311067205E+01  0.85537938459E+01 -0.41246557298E+01  0.10890402789E+02  0.00000000000E+00 0. -1.
</event>
<event>
 7    1  0.5121289E-013  0.5052886E+02  0.7816164E-02  0.1300439E+00
        -11   -1    0    0    0    0  0.00000000000E+00  0.00000000000E+00  0.45593999997E+02  0.45594000000E+02  0.51100000000E-03 0.  1.
         11   -1    0    0    0    0 -0.00000000000E+00 -0.00000000000E+00 -0.45593999997E+02  0.45594000000E+02  0.51100000000E-03 0. -1.
    9900012    2    1    2    0    0  0.23438598083E+02 -0.29401201709E+02  0.15471492399E+02  0.50528860571E+02  0.30000002193E+02 0.  0.
         12    1    1    2    0    0 -0.23438598083E+02  0.29401201709E+02 -0.15471492399E+02  0.40659139429E+02  0.00000000000E+00 0. -1.
         11    1    3    3    0    0  0.74455226983E+01 -0.47806317866E+01 -0.67257490839E+01  0.11114222849E+02  0.51100000000E-03 0. -1.
        -11    1    3    3    0    0  0.14598794696E+01 -0.83234096777E+01  0.24861469962E+00  0.84541236245E+01  0.51100000000E-03 0.  1.
         12    1    3    3    0    0  0.14533195915E+02 -0.16297160245E+02  0.21948626783E+02  0.30960514098E+02  0.00000000000E+00 0. -1.
</event>
<event>
 7    1  0.5121289E-013  0.5052886E+02  0.7816164E-02  0.1300439E+00
        -11   -1    0    0    0    0  0.00000000000E+00  0.00000000000E+00  0.45593999997E+02  0.45594000000E+02  0.51100000000E-03 0. -1.
         11   -1    0    0    0    0 -0.00000000000E+00 -0.00000000000E+00 -0.45593999997E+02  0.45594000000E+02  0.51100000000E-03 0.  1.
    9900012    2    1    2    0    0  0.27251225625E+02  0.27190094336E+02  0.13085685517E+02  0.50528859656E+02  0.29999999409E+02 0.  0.
         12    1    1    2    0    0 -0.27251225625E+02 -0.27190094336E+02 -0.13085685517E+02  0.40659140344E+02  0.00000000000E+00 0. -1.
         11    1    3    3    0    0 -0.14384433629E+01  0.87601943232E+01  0.95188711502E+01  0.13016106642E+02  0.51100000000E-03 0. -1.
        -11    1    3    3    0    0  0.85710939533E+01  0.14386321441E+02  0.27922313033E+01  0.16977233346E+02  0.51100000000E-03 0.  1.
        -12    1    3    3    0    0  0.20118575035E+02  0.40435785723E+01  0.77458306362E+00  0.20535519668E+02  0.00000000000E+00 0.  1.
</event>
<event>
 7    1  0.5121289E-013  0.5052885E+02  0.7816164E-02  0.1300439E+00
        -11   -1    0    0    0    0  0.00000000000E+00  0.00000000000E+00  0.45593999997E+02  0.45594000000E+02  0.51100000000E-03 0.  1.
         11   -1    0    0    0    0 -0.00000000000E+00 -0.00000000000E+00 -0.45593999997E+02  0.45594000000E+02  0.51100000000E-03 0. -1.
    9900012    2    1    2    0    0 -0.21470579690E+02  0.18888972260E+02  0.28903065895E+02  0.50528852402E+02  0.29999977362E+02 0.  0.
         12    1    1    2    0    0  0.21470579690E+02 -0.18888972260E+02 -0.28903065895E+02  0.40659147598E+02  0.00000000000E+00 0. -1.
         11    1    3    3    0    0  0.27561364005E+01 -0.67688841473E+00  0.11853134991E+02  0.12188161271E+02  0.51100000000E-03 0. -1.
        -11    1    3    3    0    0 -0.72412358312E+01  0.82090393256E+01  0.13859056471E+02  0.17660613510E+02  0.51100000000E-03 0.  1.
         12    1    3    3    0    0 -0.16985480259E+02  0.11356821349E+02  0.31908744326E+01  0.20680077622E+02  0.00000000000E+00 0. -1.
</event>
<event>
 7    1  0.5121289E-013  0.5052886E+02  0.7816164E-02  0.1300439E+00
        -11   -1    0    0    0    0  0.00000000000E+00  0.00000000000E+00  0.45593999997E+02  0.45594000000E+02  0.51100000000E-03 0.  1.
         11   -1    0    0    0    0 -0.00000000000E+00 -0.00000000000E+00 -0.45593999997E+02  0.45594000000E+02  0.51100000000E-03 0. -1.
    9900012    2    1    2    0    0 -0.16866585700E+02  0.21287374113E+02  0.30257759627E+02  0.50528855550E+02  0.29999986929E+02 0.  0.
         12    1    1    2    0    0  0.16866585700E+02 -0.21287374113E+02 -0.30257759627E+02  0.40659144450E+02  0.00000000000E+00 0. -1.
         11    1    3    3    0    0  0.89432770628E-01  0.11720154516E+02  0.83890184680E+01  0.14413384447E+02  0.51100000000E-03 0. -1.
        -11    1    3    3    0    0  0.90589493563E+00  0.66863091931E+01  0.15550454797E+02  0.16951224762E+02  0.51100000000E-03 0.  1.
         12    1    3    3    0    0 -0.17861913406E+02  0.28809104041E+01  0.63182863614E+01  0.19164246341E+02  0.00000000000E+00 0. -1.
</event>
<event>
 7    1  0.5121289E-013  0.5052880E+02  0.7816164E-02  0.1300439E+00
        -11   -1    0    0    0    0  0.00000000000E+00  0.00000000000E+00  0.45593999997E+02  0.45594000000E+02  0.51100000000E-03 0. -1.
         11   -1    0    0    0    0 -0.00000000000E+00 -0.00000000000E+00 -0.45593999997E+02  0.45594000000E+02  0.51100000000E-03 0.  1.
    9900012    2    1    2    0    0 -0.32866910975E+02  0.99535270272E-01 -0.23935884744E+02  0.50528802728E+02  0.29999826372E+02 0.  0.
         12    1    1    2    0    0  0.32866910975E+02 -0.99535270272E-01  0.23935884744E+02  0.40659197272E+02  0.00000000000E+00 0. -1.
         11    1    3    3    0    0 -0.24330123556E+02 -0.76049346929E+01 -0.15782535907E+02  0.29981300570E+02  0.51100000000E-03 0. -1.
        -11    1    3    3    0    0 -0.90502843642E+01  0.38458870530E+00 -0.94562120539E+01  0.13094865491E+02  0.51100000000E-03 0.  1.
         12    1    3    3    0    0  0.51349694484E+00  0.73198812579E+01  0.13028632174E+01  0.74526366680E+01  0.00000000000E+00 0. -1.
</event>
<event>
 7    1  0.5121289E-013  0.5052888E+02  0.7816164E-02  0.1300439E+00
        -11   -1    0    0    0    0  0.00000000000E+00  0.00000000000E+00  0.45593999997E+02  0.45594000000E+02  0.51100000000E-03 0.  1.
         11   -1    0    0    0    0 -0.00000000000E+00 -0.00000000000E+00 -0.45593999997E+02  0.45594000000E+02  0.51100000000E-03 0. -1.
    9900012    2    1    2    0    0 -0.41833121852E+00  0.38621541454E+02  0.12702989699E+02  0.50528875408E+02  0.30000047289E+02 0.  0.
         12    1    1    2    0    0  0.41833121852E+00 -0.38621541454E+02 -0.12702989699E+02  0.40659124592E+02  0.00000000000E+00 0. -1.
         11    1    3    3    0    0 -0.32336465824E+01  0.19961997597E+01  0.13535274106E+01  0.40340203783E+01  0.51100000000E-03 0. -1.
        -11    1    3    3    0    0 -0.43199364488E+01  0.34334105023E+02  0.15511820554E+02  0.37922410206E+02  0.51100000000E-03 0.  1.
         12    1    3    3    0    0  0.71352518127E+01  0.22912366711E+01 -0.41623582658E+01  0.85724448232E+01  0.00000000000E+00 0. -1.
</event>
<event>
 7    1  0.5121289E-013  0.5052886E+02  0.7816164E-02  0.1300439E+00
        -11   -1    0    0    0    0  0.00000000000E+00  0.00000000000E+00  0.45593999997E+02  0.45594000000E+02  0.51100000000E-03 0. -1.
         11   -1    0    0    0    0 -0.00000000000E+00 -0.00000000000E+00 -0.45593999997E+02  0.45594000000E+02  0.51100000000E-03 0.  1.
    9900012    2    1    2    0    0  0.17959123264E+02 -0.57114193598E+01  0.36027983936E+02  0.50528855321E+02  0.29999986235E+02 0.  0.
         12    1    1    2    0    0 -0.17959123264E+02  0.57114193598E+01 -0.36027983936E+02  0.40659144679E+02  0.00000000000E+00 0. -1.
         11    1    3    3    0    0  0.15502753476E+02 -0.83108664318E+01  0.28930023280E+02  0.33857822042E+02  0.51100000000E-03 0. -1.
        -11    1    3    3    0    0  0.18163953196E+01 -0.29175270750E+01 -0.33748025709E+01  0.48166948049E+01  0.51100000000E-03 0.  1.
        -12    1    3    3    0    0  0.63997446800E+00  0.55169741469E+01  0.10472763227E+02  0.11854338475E+02  0.00000000000E+00 0.  1.
</event>
<event>
 7    1  0.5121289E-013  0.5052886E+02  0.7816164E-02  0.1300439E+00
        -11   -1    0    0    0    0  0.00000000000E+00  0.00000000000E+00  0.45593999997E+02  0.45594000000E+02  0.51100000000E-03 0. -1.
         11   -1    0    0    0    0 -0.00000000000E+00 -0.00000000000E+00 -0.45593999997E+02  0.45594000000E+02  0.51100000000E-03 0.  1.
    9900012    2    1    2    0    0 -0.39477266462E+01  0.37817466832E+02 -0.14402092868E+02  0.50528860532E+02  0.30000002075E+02 0.  0.
         12    1    1    2    0    0  0.39477266462E+01 -0.37817466832E+02  0.14402092868E+02  0.40659139468E+02  0.00000000000E+00 0. -1.
         11    1    3    3    0    0  0.30049482098E+01  0.67317646934E+01 -0.79234001026E+01  0.10822506137E+02  0.51100000000E-03 0. -1.
        -11    1    3    3    0    0 -0.40653675700E+01  0.25798918989E+02 -0.14345797983E+02  0.29797875000E+02  0.51100000000E-03 0.  1.
         12    1    3    3    0    0 -0.28873072860E+01  0.52867831499E+01  0.78671052177E+01  0.99084793961E+01  0.00000000000E+00 0. -1.
</event>
<event>
 7    1  0.5121289E-013  0.5052886E+02  0.7816164E-02  0.1300439E+00
        -11   -1    0    0    0    0  0.00000000000E+00  0.00000000000E+00  0.45593999997E+02  0.45594000000E+02  0.51100000000E-03 0.  1.
         11   -1    0    0    0    0 -0.00000000000E+00 -0.00000000000E+00 -0.45593999997E+02  0.45594000000E+02  0.51100000000E-03 0. -1.
    9900012    2    1    2    0    0 -0.12931740354E+02 -0.12914513689E+02  0.36320118077E+02  0.50528861426E+02  0.30000004792E+02 0.  0.
         12    1    1    2    0    0  0.12931740354E+02  0.12914513689E+02 -0.36320118077E+02  0.40659138574E+02  0.00000000000E+00 0. -1.
         11    1    3    3    0    0 -0.96543738164E+01 -0.83780371090E+01  0.17495572566E+02  0.21667798672E+02  0.51100000000E-03 0. -1.
        -11    1    3    3    0    0  0.81411736609E+01 -0.55941932837E+01  0.11898255307E+02  0.15464222796E+02  0.51100000000E-03 0.  1.
         12    1    3    3    0    0 -0.11418540199E+02  0.10577167034E+01  0.69262902037E+01  0.13396839959E+02  0.00000000000E+00 0. -1.
</event>
<event>
 7    1  0.5121289E-013  0.5052885E+02  0.7816164E-02  0.1300439E+00
        -11   -1    0    0    0    0  0.00000000000E+00  0.00000000000E+00  0.45593999997E+02  0.45594000000E+02  0.51100000000E-03 0. -1.
         11   -1    0    0    0    0 -0.00000000000E+00 -0.00000000000E+00 -0.45593999997E+02  0.45594000000E+02  0.51100000000E-03 0.  1.
    9900012    2    1    2    0    0 -0.20043607186E+02 -0.34565348818E+02  0.75270687155E+01  0.50528852304E+02  0.29999977063E+02 0.  0.
         12    1    1    2    0    0  0.20043607186E+02  0.34565348818E+02 -0.75270687155E+01  0.40659147696E+02  0.00000000000E+00 0. -1.
         11    1    3    3    0    0 -0.17136283381E+02 -0.31649466280E+02  0.50269652611E+01  0.36340216069E+02  0.51100000000E-03 0. -1.
        -11    1    3    3    0    0 -0.70023876007E+01 -0.47287156990E+01  0.41529926195E+01  0.94149632092E+01  0.51100000000E-03 0.  1.
        -12    1    3    3    0    0  0.40950637962E+01  0.18128331611E+01 -0.16528891651E+01  0.47736730258E+01  0.00000000000E+00 0.  1.
</event>
<event>
 7    1  0.5121289E-013  0.5052886E+02  0.7816164E-02  0.1300439E+00
        -11   -1    0    0    0    0  0.00000000000E+00  0.00000000000E+00  0.45593999997E+02  0.45594000000E+02  0.51100000000E-03 0.  1.
         11   -1    0    0    0    0 -0.00000000000E+00 -0.00000000000E+00 -0.45593999997E+02  0.45594000000E+02  0.51100000000E-03 0. -1.
    9900012    2    1    2    0    0 -0.19158695761E+01  0.74169206132E+00  0.40607207528E+02  0.50528856298E+02  0.29999989204E+02 0.  0.
         12    1    1    2    0    0  0.19158695761E+01 -0.74169206132E+00 -0.40607207528E+02  0.40659143702E+02  0.00000000000E+00 0. -1.
         11    1    3    3    0    0  0.79202027738E+00  0.41935485346E+01  0.18592308731E+02  0.19075824744E+02  0.51100000000E-03 0. -1.
        -11    1    3    3    0    0 -0.55538255680E+01 -0.71872993082E+00  0.25549234075E+02  0.26155781641E+02  0.51100000000E-03 0.  1.
         12    1    3    3    0    0  0.28459357145E+01 -0.27331265424E+01 -0.35343352785E+01  0.52972499138E+01  0.00000000000E+00 0. -1.
</event>
<event>
 7    1  0.5121289E-013  0.5052886E+02  0.7816164E-02  0.1300439E+00
        -11   -1    0    0    0    0  0.00000000000E+00  0.00000000000E+00  0.45593999997E+02  0.45594000000E+02  0.51100000000E-03 0.  1.
         11   -1    0    0    0    0 -0.00000000000E+00 -0.00000000000E+00 -0.45593999997E+02  0.45594000000E+02  0.51100000000E-03 0. -1.
    9900012    2    1    2    0    0 -0.48613036340E+01  0.20848447822E+01  0.40313608556E+02  0.50528857294E+02  0.29999992230E+02 0.  0.
         12    1    1    2    0    0  0.48613036340E+01 -0.20848447822E+01 -0.40313608556E+02  0.40659142706E+02  0.00000000000E+00 0. -1.
         11    1    3    3    0    0 -0.50043987827E+01  0.34838286121E+01  0.18136665891E+02  0.19134255117E+02  0.51100000000E-03 0.  1.
        -11    1    3    3    0    0  0.93937419630E+01  0.50422650593E+01  0.13305588560E+02  0.17050088334E+02  0.51100000000E-03 0. -1.
         12    1    3    3    0    0 -0.92506468142E+01 -0.64412488892E+01  0.88713541053E+01  0.14344513843E+02  0.00000000000E+00 0. -1.
</event>
<event>
 7    1  0.5121289E-013  0.5052886E+02  0.7816164E-02  0.1300439E+00
        -11   -1    0    0    0    0  0.00000000000E+00  0.00000000000E+00  0.45593999997E+02  0.45594000000E+02  0.51100000000E-03 0.  1.
         11   -1    0    0    0    0 -0.00000000000E+00 -0.00000000000E+00 -0.45593999997E+02  0.45594000000E+02  0.51100000000E-03 0. -1.
    9900012    2    1    2    0    0 -0.16979383007E+02 -0.16851097172E+02  0.32877151654E+02  0.50528855591E+02  0.29999987053E+02 0.  0.
         12    1    1    2    0    0  0.16979383007E+02  0.16851097172E+02 -0.32877151654E+02  0.40659144409E+02  0.00000000000E+00 0. -1.
         11    1    3    3    0    0  0.46372069234E+01 -0.32190074509E+01  0.13595363435E+02  0.14720720234E+02  0.51100000000E-03 0. -1.
        -11    1    3    3    0    0 -0.75118373241E+01  0.22693521679E+01  0.12739427071E+01  0.79498798436E+01  0.51100000000E-03 0.  1.
        -12    1    3    3    0    0 -0.14104752606E+02 -0.15901441889E+02  0.18007845512E+02  0.27858255513E+02  0.00000000000E+00 0.  1.
</event>
<event>
 7    1  0.5121289E-013  0.5052885E+02  0.7816164E-02  0.1300439E+00
        -11   -1    0    0    0    0  0.00000000000E+00  0.00000000000E+00  0.45593999997E+02  0.45594000000E+02  0.51100000000E-03 0. -1.
         11   -1    0    0    0    0 -0.00000000000E+00 -0.00000000000E+00 -0.45593999997E+02  0.45594000000E+02  0.51100000000E-03 0.  1.
    9900012    2    1    2    0    0  0.35580118775E+02  0.19208477960E+02 -0.42726654016E+01  0.50528854076E+02  0.29999982450E+02 0.  0.
         12    1    1    2    0    0 -0.35580118775E+02 -0.19208477960E+02  0.42726654016E+01  0.40659145924E+02  0.00000000000E+00 0. -1.
         11    1    3    3    0    0  0.79967455928E+01 -0.48658588328E+01  0.54715667137E+01  0.10842627210E+02  0.51100000000E-03 0. -1.
        -11    1    3    3    0    0  0.33136413849E+00 -0.65061722455E+00 -0.19375318381E+01  0.20705397484E+01  0.51100000000E-03 0.  1.
        -12    1    3    3    0    0  0.27252009044E+02  0.24724954018E+02 -0.78067002772E+01  0.37615687118E+02  0.00000000000E+00 0.  1.
</event>
<event>
 7    1  0.5121289E-013  0.5052886E+02  0.7816164E-02  0.1300439E+00
        -11   -1    0    0    0    0  0.00000000000E+00  0.00000000000E+00  0.45593999997E+02  0.45594000000E+02  0.51100000000E-03 0.  1.
         11   -1    0    0    0    0 -0.00000000000E+00 -0.00000000000E+00 -0.45593999997E+02  0.45594000000E+02  0.51100000000E-03 0. -1.
    9900012    2    1    2    0    0 -0.23455213456E+02  0.69935331321E+01  0.32467052506E+02  0.50528855366E+02  0.29999986371E+02 0.  0.
         12    1    1    2    0    0  0.23455213456E+02 -0.69935331321E+01 -0.32467052506E+02  0.40659144634E+02  0.00000000000E+00 0. -1.
         11    1    3    3    0    0 -0.10183374711E+02  0.12409244523E+02  0.12460531278E+02  0.20321301881E+02  0.51100000000E-03 0. -1.
        -11    1    3    3    0    0 -0.13831519605E+02  0.30372051386E+01  0.12467385902E+02  0.18867200670E+02  0.51100000000E-03 0.  1.
         12    1    3    3    0    0  0.55968085955E+00 -0.84529165296E+01  0.75391353251E+01  0.11340352815E+02  0.00000000000E+00 0. -1.
</event>
<event>
 7    1  0.5121289E-013  0.5052884E+02  0.7816164E-02  0.1300439E+00
        -11   -1    0    0    0    0  0.00000000000E+00  0.00000000000E+00  0.45593999997E+02  0.45594000000E+02  0.51100000000E-03 0.  1.
         11   -1    0    0    0    0 -0.00000000000E+00 -0.00000000000E+00 -0.45593999997E+02  0.45594000000E+02  0.51100000000E-03 0. -1.
    9900012    2    1    2    0    0  0.20012395018E+02 -0.28082799914E+01  0.35281511764E+02  0.50528837893E+02  0.29999933261E+02 0.  0.
         12    1    1    2    0    0 -0.20012395018E+02  0.28082799914E+01 -0.35281511764E+02  0.40659162107E+02  0.00000000000E+00 0. -1.
         11    1    3    3    0    0  0.54433143829E+00  0.83690605200E+01  0.30177487314E+01  0.89131519885E+01  0.51100000000E-03 0. -1.
        -11    1    3    3    0    0 -0.12670616591E+01 -0.65444386200E+00  0.75468752091E+01  0.76804340827E+01  0.51100000000E-03 0.  1.
        -12    1    3    3    0    0  0.20735125239E+02 -0.10522896649E+02  0.24716887824E+02  0.33935251822E+02  0.00000000000E+00 0.  1.
</event>
<event>
 7    1  0.5121289E-013  0.5052886E+02  0.7816164E-02  0.1300439E+00
        -11   -1    0    0    0    0  0.00000000000E+00  0.00000000000E+00  0.45593999997E+02  0.45594000000E+02  0.51100000000E-03 0.  1.
         11   -1    0    0    0    0 -0.00000000000E+00 -0.00000000000E+00 -0.45593999997E+02  0.45594000000E+02  0.51100000000E-03 0. -1.
    9900012    2    1    2    0    0  0.14604195856E+01  0.11823241596E+02  0.38874714746E+02  0.50528864325E+02  0.30000013603E+02 0.  0.
         12    1    1    2    0    0 -0.14604195856E+01 -0.11823241596E+02 -0.38874714746E+02  0.40659135675E+02  0.00000000000E+00 0. -1.
         11    1    3    3    0    0  0.26729667494E+01 -0.35320112668E+01  0.53781438628E+01  0.69673729987E+01  0.51100000000E-03 0. -1.
        -11    1    3    3    0    0 -0.91594633973E+01  0.16692553052E+02  0.27789315220E+02  0.33686542384E+02  0.51100000000E-03 0.  1.
         12    1    3    3    0    0  0.79469162334E+01 -0.13373001890E+01  0.57072556636E+01  0.98749489430E+01  0.00000000000E+00 0. -1.
</event>
<event>
 7    1  0.5121289E-013  0.5052883E+02  0.7816164E-02  0.1300439E+00
        -11   -1    0    0    0    0  0.00000000000E+00  0.00000000000E+00  0.45593999997E+02  0.45594000000E+02  0.51100000000E-03 0.  1.
         11   -1    0    0    0    0 -0.00000000000E+00 -0.00000000000E+00 -0.45593999997E+02  0.45594000000E+02  0.51100000000E-03 0. -1.
    9900012    2    1    2    0    0  0.26750436570E+02  0.94930074483E+01  0.29111253105E+02  0.50528830008E+02  0.29999909292E+02 0.  0.
         12    1    1    2    0    0 -0.26750436570E+02 -0.94930074483E+01 -0.29111253105E+02  0.40659169992E+02  0.00000000000E+00 0. -1.
         11    1    3    3    0    0  0.79263473957E+00 -0.18458074537E+01  0.11955602488E+02  0.12123188776E+02  0.51100000000E-03 0. -1.
        -11    1    3    3    0    0  0.79301927249E+01  0.55098795680E+01  0.16891971357E+02  0.19457271805E+02  0.51100000000E-03 0.  1.
        -12    1    3    3    0    0  0.18027609106E+02  0.58289353340E+01  0.26367926038E+00  0.18948369427E+02  0.00000000000E+00 0.  1.
</event>
<event>
 7    1  0.5121289E-013  0.5052886E+02  0.7816164E-02  0.1300439E+00
        -11   -1    0    0    0    0  0.00000000000E+00  0.00000000000E+00  0.45593999997E+02  0.45594000000E+02  0.51100000000E-03 0.  1.
         11   -1    0    0    0    0 -0.00000000000E+00 -0.00000000000E+00 -0.45593999997E+02  0.45594000000E+02  0.51100000000E-03 0. -1.
    9900012    2    1    2    0    0 -0.19027854191E+02 -0.15695124743E+01  0.35897677052E+02  0.50528858073E+02  0.29999994598E+02 0.  0.
         12    1    1    2    0    0  0.19027854191E+02  0.15695124743E+01 -0.35897677052E+02  0.40659141927E+02  0.00000000000E+00 0. -1.
         11    1    3    3    0    0 -0.10441739791E+02  0.74629770549E+01  0.11663650128E+02  0.17342626415E+02  0.51100000000E-03 0. -1.
        -11    1    3    3    0    0  0.50334385004E+01  0.14553235207E+01  0.78582138156E+01  0.94448395604E+01  0.51100000000E-03 0.  1.
        -12    1    3    3    0    0 -0.13619552900E+02 -0.10487813050E+02  0.16375813109E+02  0.23741392098E+02  0.00000000000E+00 0.  1.
</event>
<event>
 7    1  0.5121289E-013  0.5052885E+02  0.7816164E-02  0.1300439E+00
        -11   -1    0    0    0    0  0.00000000000E+00  0.00000000000E+00  0.45593999997E+02  0.45594000000E+02  0.51100000000E-03 0.  1.
         11   -1    0    0    0    0 -0.00000000000E+00 -0.00000000000E+00 -0.45593999997E+02  0.45594000000E+02  0.51100000000E-03 0. -1.
    9900012    2    1    2    0    0  0.12624107022E+02  0.14619775449E+02  0.35777932033E+02  0.50528851794E+02  0.29999975512E+02 0.  0.
         12    1    1    2    0    0 -0.12624107022E+02 -0.14619775449E+02 -0.35777932033E+02  0.40659148206E+02  0.00000000000E+00 0. -1.
         11    1    3    3    0    0 -0.56981764922E+01  0.29644449705E+01  0.32610187794E+01  0.72035680785E+01  0.51100000000E-03 0. -1.
        -11    1    3    3    0    0  0.35850082798E+00  0.79544410552E+01  0.28705998619E+01  0.84641596849E+01  0.51100000000E-03 0.  1.
        -12    1    3    3    0    0  0.17963782686E+02  0.37008894233E+01  0.29646313392E+02  0.34861124030E+02  0.00000000000E+00 0.  1.
</event>
<event>
 7    1  0.5121289E-013  0.5052886E+02  0.7816164E-02  0.1300439E+00
        -11   -1    0    0    0    0  0.00000000000E+00  0.00000000000E+00  0.45593999997E+02  0.45594000000E+02  0.51100000000E-03 0.  1.
         11   -1    0    0    0    0 -0.00000000000E+00 -0.00000000000E+00 -0.45593999997E+02  0.45594000000E+02  0.51100000000E-03 0. -1.
    9900012    2    1    2    0    0  0.21910836371E+02 -0.91984021891E+01  0.32991975768E+02  0.50528858120E+02  0.29999994743E+02 0.  0.
         12    1    1    2    0    0 -0.21910836371E+02  0.91984021891E+01 -0.32991975768E+02  0.40659141880E+02  0.00000000000E+00 0. -1.
         11    1    3    3    0    0  0.95474771274E+01 -0.87531939697E+01  0.11697090307E+02  0.17452640089E+02  0.51100000000E-03 0. -1.
        -11    1    3    3    0    0  0.68843147294E+01 -0.76069756166E+01  0.21749113698E+02  0.24047532394E+02  0.51100000000E-03 0.  1.
         12    1    3    3    0    0  0.54790445141E+01  0.71617673972E+01 -0.45422823739E+00  0.90286856369E+01  0.00000000000E+00 0. -1.
</event>
<event>
 7    1  0.5121289E-013  0.5052885E+02  0.7816164E-02  0.1300439E+00
        -11   -1    0    0    0    0  0.00000000000E+00  0.00000000000E+00  0.45593999997E+02  0.45594000000E+02  0.51100000000E-03 0.  1.
         11   -1    0    0    0    0 -0.00000000000E+00 -0.00000000000E+00 -0.45593999997E+02  0.45594000000E+02  0.51100000000E-03 0. -1.
    9900012    2    1    2    0    0  0.28833722000E+01  0.39155135642E+02  0.10570137848E+02  0.50528852240E+02  0.29999976869E+02 0.  0.
         12    1    1    2    0    0 -0.28833722000E+01 -0.39155135642E+02 -0.10570137848E+02  0.40659147760E+02  0.00000000000E+00 0. -1.
         11    1    3    3    0    0  0.34922531300E+00 -0.25181189577E+01  0.19029657373E+01  0.31755566855E+01  0.51100000000E-03 0. -1.
        -11    1    3    3    0    0  0.15455666149E+01 -0.24447254511E+00  0.50284809192E+01  0.52663235376E+01  0.51100000000E-03 0.  1.
        -12    1    3    3    0    0  0.98858027216E+00  0.41917727145E+02  0.36386911919E+01  0.42086972017E+02  0.00000000000E+00 0.  1.
</event>
<event>
 7    1  0.5121289E-013  0.5052887E+02  0.7816164E-02  0.1300439E+00
        -11   -1    0    0    0    0  0.00000000000E+00  0.00000000000E+00  0.45593999997E+02  0.45594000000E+02  0.51100000000E-03 0.  1.
         11   -1    0    0    0    0 -0.00000000000E+00 -0.00000000000E+00 -0.45593999997E+02  0.45594000000E+02  0.51100000000E-03 0. -1.
    9900012    2    1    2    0    0 -0.23537116084E+02  0.13790470144E+02  0.30149487419E+02  0.50528874432E+02  0.30000044324E+02 0.  0.
         12    1    1    2    0    0  0.23537116084E+02 -0.13790470144E+02 -0.30149487419E+02  0.40659125568E+02  0.00000000000E+00 0. -1.
         11    1    3    3    0    0 -0.11939492373E+02  0.91888707016E+00  0.95596691194E+01  0.15322633765E+02  0.51100000000E-03 0. -1.
        -11    1    3    3    0    0 -0.17939177918E+02  0.12920893996E+02  0.17231746104E+02  0.28030281484E+02  0.51100000000E-03 0.  1.
         12    1    3    3    0    0  0.63415542068E+01 -0.49310922131E-01  0.33580721955E+01  0.71759591829E+01  0.00000000000E+00 0. -1.
</event>
<event>
 7    1  0.5121289E-013  0.5052888E+02  0.7816164E-02  0.1300439E+00
        -11   -1    0    0    0    0  0.00000000000E+00  0.00000000000E+00  0.45593999997E+02  0.45594000000E+02  0.51100000000E-03 0.  1.
         11   -1    0    0    0    0 -0.00000000000E+00 -0.00000000000E+00 -0.45593999997E+02  0.45594000000E+02  0.51100000000E-03 0. -1.
    9900012    2    1    2    0    0  0.20627800468E+02  0.17509435795E+02  0.30349260878E+02  0.50528878885E+02  0.30000057858E+02 0.  0.
         12    1    1    2    0    0 -0.20627800468E+02 -0.17509435795E+02 -0.30349260878E+02  0.40659121115E+02  0.00000000000E+00 0. -1.
         11    1    3    3    0    0  0.79775959771E+01  0.16243904247E+02  0.26579830153E+02  0.32155774505E+02  0.51100000000E-03 0.  1.
        -11    1    3    3    0    0 -0.22031079359E+01  0.36445386570E+00  0.26282396558E+01  0.34487903889E+01  0.51100000000E-03 0. -1.
        -12    1    3    3    0    0  0.14853312427E+02  0.90107768148E+00  0.11411910695E+01  0.14924313991E+02  0.00000000000E+00 0.  1.
</event>
<event>
 7    1  0.5570626E-013  0.5052886E+02  0.7816164E-02  0.1300439E+00
        -11   -1    0    0    0    0  0.00000000000E+00  0.00000000000E+00  0.45593999997E+02  0.45594000000E+02  0.51100000000E-03 0.  1.
         11   -1    0    0    0    0 -0.00000000000E+00 -0.00000000000E+00 -0.45593999997E+02  0.45594000000E+02  0.51100000000E-03 0. -1.
    9900012    2    1    2    0    0  0.35376503269E+02 -0.56990357604E+01  0.19214315530E+02  0.50528856952E+02  0.29999991190E+02 0.  0.
         12    1    1    2    0    0 -0.35376503269E+02  0.56990357604E+01 -0.19214315530E+02  0.40659143048E+02  0.00000000000E+00 0. -1.
         11    1    3    3    0    0 -0.35373365671E+01  0.12552793239E+01 -0.19413000863E+01  0.42257688598E+01  0.51100000000E-03 0. -1.
        -11    1    3    3    0    0  0.19477695693E+02  0.17003524200E+01  0.70879802549E+01  0.20796905833E+02  0.51100000000E-03 0.  1.
        -12    1    3    3    0    0  0.19436144143E+02 -0.86546675044E+01  0.14067635361E+02  0.25506182259E+02  0.00000000000E+00 0.  1.
</event>
<event>
 7    1  0.5121289E-013  0.5052886E+02  0.7816164E-02  0.1300439E+00
        -11   -1    0    0    0    0  0.00000000000E+00  0.00000000000E+00  0.45593999997E+02  0.45594000000E+02  0.51100000000E-03 0.  1.
         11   -1    0    0    0    0 -0.00000000000E+00 -0.00000000000E+00 -0.45593999997E+02  0.45594000000E+02  0.51100000000E-03 0. -1.
    9900012    2    1    2    0    0 -0.77560732809E+01 -0.39788735094E+02  0.31409493720E+01  0.50528859870E+02  0.30000000062E+02 0.  0.
         12    1    1    2    0    0  0.77560732809E+01  0.39788735094E+02 -0.31409493720E+01  0.40659140130E+02  0.00000000000E+00 0. -1.
         11    1    3    3    0    0 -0.37878830812E+01 -0.18464554759E+01  0.19660020916E+01  0.46500129620E+01  0.51100000000E-03 0.  1.
        -11    1    3    3    0    0 -0.62253642983E+01 -0.99917785979E+01 -0.10240170195E+02  0.15602944789E+02  0.51100000000E-03 0. -1.
        -12    1    3    3    0    0  0.22571740986E+01 -0.27950501020E+02  0.11415117475E+02  0.30275902120E+02  0.00000000000E+00 0.  1.
</event>
<event>
 7    1  0.5121289E-013  0.5052883E+02  0.7816164E-02  0.1300439E+00
        -11   -1    0    0    0    0  0.00000000000E+00  0.00000000000E+00  0.45593999997E+02  0.45594000000E+02  0.51100000000E-03 0.  1.
         11   -1    0    0    0    0 -0.00000000000E+00 -0.00000000000E+00 -0.45593999997E+02  0.45594000000E+02  0.51100000000E-03 0. -1.
    9900012    2    1    2    0    0  0.34624092761E+02  0.11907273060E+01  0.21281966446E+02  0.50528834651E+02  0.29999923405E+02 0.  0.
         12    1    1    2    0    0 -0.34624092761E+02 -0.11907273060E+01 -0.21281966446E+02  0.40659165349E+02  0.00000000000E+00 0. -1.
         11    1    3    3    0    0  0.20489582187E+00 -0.15321265236E+01 -0.14398615408E+01  0.21124856212E+01  0.51100000000E-03 0. -1.
        -11    1    3    3    0    0 -0.21946754783E+01  0.98219743933E+00 -0.28454346248E+01  0.37252933750E+01  0.51100000000E-03 0.  1.
        -12    1    3    3    0    0  0.36613872418E+02  0.17406563902E+01  0.25567262612E+02  0.44691055655E+02  0.00000000000E+00 0.  1.
</event>
<event>
 7    1  0.5121289E-013  0.5052886E+02  0.7816164E-02  0.1300439E+00
        -11   -1    0    0    0    0  0.00000000000E+00  0.00000000000E+00  0.45593999997E+02  0.45594000000E+02  0.51100000000E-03 0.  1.
         11   -1    0    0    0    0 -0.00000000000E+00 -0.00000000000E+00 -0.45593999997E+02  0.45594000000E+02  0.51100000000E-03 0. -1.
    9900012    2    1    2    0    0 -0.20523622993E+02 -0.28135401989E+02  0.20984415506E+02  0.50528860314E+02  0.30000001411E+02 0.  0.
         12    1    1    2    0    0  0.20523622993E+02  0.28135401989E+02 -0.20984415506E+02  0.40659139686E+02  0.00000000000E+00 0. -1.
         11    1    3    3    0    0 -0.78718220079E+01 -0.23370439149E+00 -0.20468289721E+01  0.81369348386E+01  0.51100000000E-03 0. -1.
        -11    1    3    3    0    0 -0.75638136480E+01 -0.13006670434E+01  0.92011577213E+01  0.11981832720E+02  0.51100000000E-03 0.  1.
        -12    1    3    3    0    0 -0.50879873375E+01 -0.26601030554E+02  0.13830086757E+02  0.30410092755E+02  0.00000000000E+00 0.  1.
</event>
<event>
 7    1  0.5121289E-013  0.5052886E+02  0.7816164E-02  0.1300439E+00
        -11   -1    0    0    0    0  0.00000000000E+00  0.00000000000E+00  0.45593999997E+02  0.45594000000E+02  0.51100000000E-03 0. -1.
         11   -1    0    0    0    0 -0.00000000000E+00 -0.00000000000E+00 -0.45593999997E+02  0.45594000000E+02  0.51100000000E-03 0.  1.
    9900012    2    1    2    0    0 -0.29729418395E+02 -0.18442430768E+01 -0.27675367117E+02  0.50528862089E+02  0.30000006805E+02 0.  0.
         12    1    1    2    0    0  0.29729418395E+02  0.18442430768E+01  0.27675367117E+02  0.40659137911E+02  0.00000000000E+00 0. -1.
         11    1    3    3    0    0 -0.19941927358E+01  0.25384453357E+01 -0.10700701910E+02  0.11177009037E+02  0.51100000000E-03 0.  1.
        -11    1    3    3    0    0 -0.22088302474E+02 -0.11325998055E+02 -0.66700545230E+01  0.25703325966E+02  0.51100000000E-03 0. -1.
         12    1    3    3    0    0 -0.56469231852E+01  0.69433096429E+01 -0.10304610684E+02  0.13648527086E+02  0.00000000000E+00 0. -1.
</event>
<event>
 7    1  0.5121289E-013  0.5052886E+02  0.7816164E-02  0.1300439E+00
        -11   -1    0    0    0    0  0.00000000000E+00  0.00000000000E+00  0.45593999997E+02  0.45594000000E+02  0.51100000000E-03 0. -1.
         11   -1    0    0    0    0 -0.00000000000E+00 -0.00000000000E+00 -0.45593999997E+02  0.45594000000E+02  0.51100000000E-03 0.  1.
    9900012    2    1    2    0    0 -0.99680193706E+01  0.21679387171E+02 -0.32921245251E+02  0.50528860472E+02  0.30000001890E+02 0.  0.
         12    1    1    2    0    0  0.99680193706E+01 -0.21679387171E+02  0.32921245251E+02  0.40659139528E+02  0.00000000000E+00 0. -1.
         11    1    3    3    0    0  0.13407139788E+01  0.43319717652E+01 -0.11336634249E+02  0.12209945524E+02  0.51100000000E-03 0. -1.
        -11    1    3    3    0    0 -0.75509690455E+01  0.21872876046E+02 -0.22605384984E+02  0.32348775411E+02  0.51100000000E-03 0.  1.
        -12    1    3    3    0    0 -0.37577643039E+01 -0.45254606403E+01  0.10207739809E+01  0.59701395369E+01  0.00000000000E+00 0.  1.
</event>
<event>
 7    1  0.5121289E-013  0.5052886E+02  0.7816164E-02  0.1300439E+00
        -11   -1    0    0    0    0  0.00000000000E+00  0.00000000000E+00  0.45593999997E+02  0.45594000000E+02  0.51100000000E-03 0.  1.
         11   -1    0    0    0    0 -0.00000000000E+00 -0.00000000000E+00 -0.45593999997E+02  0.45594000000E+02  0.51100000000E-03 0. -1.
    9900012    2    1    2    0    0 -0.38733628873E+02  0.11712469415E+02  0.39610595037E+01  0.50528856651E+02  0.29999990276E+02 0.  0.
         12    1    1    2    0    0  0.38733628873E+02 -0.11712469415E+02 -0.39610595037E+01  0.40659143349E+02  0.00000000000E+00 0. -1.
         11    1    3    3    0    0 -0.52816713317E+01  0.10500475467E+02 -0.34456452878E+01  0.12248612525E+02  0.51100000000E-03 0. -1.
        -11    1    3    3    0    0 -0.21605459848E+02  0.82362673427E+01  0.80750616299E+01  0.24491602961E+02  0.51100000000E-03 0.  1.
        -12    1    3    3    0    0 -0.11846497693E+02 -0.70242733945E+01 -0.66835683832E+00  0.13788641165E+02  0.00000000000E+00 0.  1.
</event>
<event>
 7    1  0.5121289E-013  0.5052886E+02  0.7816164E-02  0.1300439E+00
        -11   -1    0    0    0    0  0.00000000000E+00  0.00000000000E+00  0.45593999997E+02  0.45594000000E+02  0.51100000000E-03 0. -1.
         11   -1    0    0    0    0 -0.00000000000E+00 -0.00000000000E+00 -0.45593999997E+02  0.45594000000E+02  0.51100000000E-03 0.  1.
    9900012    2    1    2    0    0 -0.27060315327E+02  0.11351019790E+02 -0.28143552682E+02  0.50528857443E+02  0.29999992684E+02 0.  0.
         12    1    1    2    0    0  0.27060315327E+02 -0.11351019790E+02  0.28143552682E+02  0.40659142557E+02  0.00000000000E+00 0. -1.
         11    1    3    3    0    0 -0.17464396454E+02 -0.24743507486E+01 -0.15190752850E+02  0.23278456296E+02  0.51100000000E-03 0.  1.
        -11    1    3    3    0    0 -0.77312692562E+01  0.93464793550E+01  0.12956013849E+01  0.12198679595E+02  0.51100000000E-03 0. -1.
         12    1    3    3    0    0 -0.18646496174E+01  0.44788911838E+01 -0.14248401218E+02  0.15051721552E+02  0.00000000000E+00 0. -1.
</event>
<event>
 7    1  0.5121289E-013  0.5052887E+02  0.7816164E-02  0.1300439E+00
        -11   -1    0    0    0    0  0.00000000000E+00  0.00000000000E+00  0.45593999997E+02  0.45594000000E+02  0.51100000000E-03 0. -1.
         11   -1    0    0    0    0 -0.00000000000E+00 -0.00000000000E+00 -0.45593999997E+02  0.45594000000E+02  0.51100000000E-03 0.  1.
    9900012    2    1    2    0    0 -0.33159456423E+02  0.92946160237E+01 -0.21615397371E+02  0.50528870143E+02  0.30000031285E+02 0.  0.
         12    1    1    2    0    0  0.33159456423E+02 -0.92946160237E+01  0.21615397371E+02  0.40659129857E+02  0.00000000000E+00 0. -1.
         11    1    3    3    0    0 -0.85369459681E+00  0.11782653527E+01 -0.12048335184E+02  0.12135875934E+02  0.51100000000E-03 0. -1.
        -11    1    3    3    0    0 -0.87836239987E+01 -0.14142715300E+01 -0.94970463563E+01  0.13013304894E+02  0.51100000000E-03 0.  1.
         12    1    3    3    0    0 -0.23522137827E+02  0.95306222011E+01 -0.70015830130E-01  0.25379689315E+02  0.00000000000E+00 0. -1.
</event>
<event>
 7    1  0.5121289E-013  0.5052886E+02  0.7816164E-02  0.1300439E+00
        -11   -1    0    0    0    0  0.00000000000E+00  0.00000000000E+00  0.45593999997E+02  0.45594000000E+02  0.51100000000E-03 0.  1.
         11   -1    0    0    0    0 -0.00000000000E+00 -0.00000000000E+00 -0.45593999997E+02  0.45594000000E+02  0.51100000000E-03 0. -1.
    9900012    2    1    2    0    0 -0.16121221642E+02 -0.24132320420E+01  0.37248466711E+02  0.50528858981E+02  0.29999997358E+02 0.  0.
         12    1    1    2    0    0  0.16121221642E+02  0.24132320420E+01 -0.37248466711E+02  0.40659141019E+02  0.00000000000E+00 0. -1.
         11    1    3    3    0    0 -0.87086750222E+01 -0.47051135955E+01  0.10189480003E+02  0.14205795211E+02  0.51100000000E-03 0. -1.
        -11    1    3    3    0    0  0.13115251970E+01  0.23584457254E+01  0.27457354111E+02  0.27589647689E+02  0.51100000000E-03 0.  1.
         12    1    3    3    0    0 -0.87240718167E+01 -0.66564171903E-01 -0.39836740267E+00  0.87334160807E+01  0.00000000000E+00 0. -1.
</event>
<event>
 7    1  0.5121289E-013  0.5052886E+02  0.7816164E-02  0.1300439E+00
        -11   -1    0    0    0    0  0.00000000000E+00  0.00000000000E+00  0.45593999997E+02  0.45594000000E+02  0.51100000000E-03 0.  1.
         11   -1    0    0    0    0 -0.00000000000E+00 -0.00000000000E+00 -0.45593999997E+02  0.45594000000E+02  0.51100000000E-03 0. -1.
    9900012    2    1    2    0    0 -0.11120150150E+02 -0.50891045664E+00  0.39105612998E+02  0.50528859611E+02  0.29999999274E+02 0.  0.
         12    1    1    2    0    0  0.11120150150E+02  0.50891045664E+00 -0.39105612998E+02  0.40659140389E+02  0.00000000000E+00 0. -1.
         11    1    3    3    0    0  0.46512392906E+01  0.23287751443E+01  0.15312341897E+02  0.16171735690E+02  0.51100000000E-03 0. -1.
        -11    1    3    3    0    0 -0.20841237285E+01  0.63920260876E+01  0.12993598510E+02  0.14629940934E+02  0.51100000000E-03 0.  1.
        -12    1    3    3    0    0 -0.13687265712E+02 -0.92297116885E+01  0.10799672591E+02  0.19727182987E+02  0.00000000000E+00 0.  1.
</event>
<event>
 7    1  0.5121289E-013  0.5052886E+02  0.7816164E-02  0.1300439E+00
        -11   -1    0    0    0    0  0.00000000000E+00  0.00000000000E+00  0.45593999997E+02  0.45594000000E+02  0.51100000000E-03 0.  1.
         11   -1    0    0    0    0 -0.00000000000E+00 -0.00000000000E+00 -0.45593999997E+02  0.45594000000E+02  0.51100000000E-03 0. -1.
    9900012    2    1    2    0    0 -0.60674951598E+01 -0.51985213111E+01  0.39866357778E+02  0.50528860759E+02  0.30000002763E+02 0.  0.
         12    1    1    2    0    0  0.60674951598E+01  0.51985213111E+01 -0.39866357778E+02  0.40659139241E+02  0.00000000000E+00 0. -1.
         11    1    3    3    0    0 -0.37236666498E+01 -0.83184045775E+01  0.12661495848E+02  0.15600481576E+02  0.51100000000E-03 0. -1.
        -11    1    3    3    0    0  0.40327436216E+01 -0.66862394018E+01  0.19275635011E+02  0.20797089310E+02  0.51100000000E-03 0.  1.
         12    1    3    3    0    0 -0.63765721316E+01  0.98061226683E+01  0.79292269196E+01  0.14131289873E+02  0.00000000000E+00 0. -1.
</event>
<event>
 7    1  0.5121289E-013  0.5052887E+02  0.7816164E-02  0.1300439E+00
        -11   -1    0    0    0    0  0.00000000000E+00  0.00000000000E+00  0.45593999997E+02  0.45594000000E+02  0.51100000000E-03 0.  1.
         11   -1    0    0    0    0 -0.00000000000E+00 -0.00000000000E+00 -0.45593999997E+02  0.45594000000E+02  0.51100000000E-03 0. -1.
    9900012    2    1    2    0    0 -0.29007620098E+02 -0.24085752068E+02  0.15218393073E+02  0.50528868625E+02  0.30000026673E+02 0.  0.
         12    1    1    2    0    0  0.29007620098E+02  0.24085752068E+02 -0.15218393073E+02  0.40659131375E+02  0.00000000000E+00 0. -1.
         11    1    3    3    0    0 -0.35053656608E+01 -0.30869887732E+01 -0.55002481154E+01  0.72159419131E+01  0.51100000000E-03 0. -1.
        -11    1    3    3    0    0 -0.21758644917E+01  0.33326209225E+01  0.51030066710E+00  0.40126245191E+01  0.51100000000E-03 0.  1.
        -12    1    3    3    0    0 -0.23326389946E+02 -0.24331384217E+02  0.20208340521E+02  0.39300302193E+02  0.00000000000E+00 0.  1.
</event>
<event>
 7    1  0.5121289E-013  0.5052893E+02  0.7816164E-02  0.1300439E+00
        -11   -1    0    0    0    0  0.00000000000E+00  0.00000000000E+00  0.45593999997E+02  0.45594000000E+02  0.51100000000E-03 0.  1.
         11   -1    0    0    0    0 -0.00000000000E+00 -0.00000000000E+00 -0.45593999997E+02  0.45594000000E+02  0.51100000000E-03 0. -1.
    9900012    2    1    2    0    0 -0.23034058303E+02  0.55754560584E+01  0.33037958480E+02  0.50528926564E+02  0.30000202783E+02 0.  0.
         12    1    1    2    0    0  0.23034058303E+02 -0.55754560584E+01 -0.33037958480E+02  0.40659073436E+02  0.00000000000E+00 0. -1.
         11    1    3    3    0    0  0.13619781445E+01 -0.41321109628E+00 -0.34996561522E+01  0.37780049392E+01  0.51100000000E-03 0. -1.
        -11    1    3    3    0    0 -0.57212693839E+01  0.24004614246E+01  0.78277484548E+00  0.62536289572E+01  0.51100000000E-03 0.  1.
        -12    1    3    3    0    0 -0.18674767063E+02  0.35882057301E+01  0.35754839787E+02  0.40497292668E+02  0.00000000000E+00 0.  1.
</event>
<event>
 7    1  0.5121289E-013  0.5052887E+02  0.7816164E-02  0.1300439E+00
        -11   -1    0    0    0    0  0.00000000000E+00  0.00000000000E+00  0.45593999997E+02  0.45594000000E+02  0.51100000000E-03 0. -1.
         11   -1    0    0    0    0 -0.00000000000E+00 -0.00000000000E+00 -0.45593999997E+02  0.45594000000E+02  0.51100000000E-03 0.  1.
    9900012    2    1    2    0    0 -0.15897976465E+02 -0.28923543452E+02 -0.23745480006E+02  0.50528870124E+02  0.30000031230E+02 0.  0.
         12    1    1    2    0    0  0.15897976465E+02  0.28923543452E+02  0.23745480006E+02  0.40659129876E+02  0.00000000000E+00 0. -1.
         11    1    3    3    0    0  0.52750008110E+01 -0.51105518053E+01 -0.95948218613E+01  0.12083210671E+02  0.51100000000E-03 0. -1.
        -11    1    3    3    0    0 -0.16920769926E+02 -0.13298961241E+02 -0.16178676205E+02  0.26924419938E+02  0.51100000000E-03 0.  1.
        -12    1    3    3    0    0 -0.42522073503E+01 -0.10514030406E+02  0.20280180599E+01  0.11521239516E+02  0.00000000000E+00 0.  1.
</event>
<event>
 7    1  0.5121289E-013  0.5052887E+02  0.7816164E-02  0.1300439E+00
        -11   -1    0    0    0    0  0.00000000000E+00  0.00000000000E+00  0.45593999997E+02  0.45594000000E+02  0.51100000000E-03 0.  1.
         11   -1    0    0    0    0 -0.00000000000E+00 -0.00000000000E+00 -0.45593999997E+02  0.45594000000E+02  0.51100000000E-03 0. -1.
    9900012    2    1    2    0    0  0.63902377240E+01  0.18346020645E+02  0.35717688878E+02  0.50528869285E+02  0.30000028680E+02 0.  0.
         12    1    1    2    0    0 -0.63902377240E+01 -0.18346020645E+02 -0.35717688878E+02  0.40659130715E+02  0.00000000000E+00 0. -1.
         11    1    3    3    0    0  0.26299627549E+00 -0.92210038386E+00  0.34686651020E+01  0.35987600656E+01  0.51100000000E-03 0. -1.
        -11    1    3    3    0    0 -0.34657030569E+00 -0.64623493316E+01  0.11700744611E+02  0.13371218889E+02  0.51100000000E-03 0.  1.
         12    1    3    3    0    0  0.64738117542E+01  0.25730470360E+02  0.20548279165E+02  0.33558890331E+02  0.00000000000E+00 0. -1.
</event>
<event>
 7    1  0.5121289E-013  0.5052884E+02  0.7816164E-02  0.1300439E+00
        -11   -1    0    0    0    0  0.00000000000E+00  0.00000000000E+00  0.45593999997E+02  0.45594000000E+02  0.51100000000E-03 0. -1.
         11   -1    0    0    0    0 -0.00000000000E+00 -0.00000000000E+00 -0.45593999997E+02  0.45594000000E+02  0.51100000000E-03 0.  1.
    9900012    2    1    2    0    0 -0.13223986197E+01  0.32076473004E+02 -0.24950324666E+02  0.50528836710E+02  0.29999929664E+02 0.  0.
         12    1    1    2    0    0  0.13223986197E+01 -0.32076473004E+02  0.24950324666E+02  0.40659163290E+02  0.00000000000E+00 0. -1.
         11    1    3    3    0    0 -0.49453300470E+01  0.43670637447E+01 -0.12376351561E+01  0.67126206555E+01  0.51100000000E-03 0.  1.
        -11    1    3    3    0    0 -0.65469163916E+01  0.23909767659E+02 -0.11062676517E+02  0.27146305747E+02  0.51100000000E-03 0. -1.
        -12    1    3    3    0    0  0.10169847819E+02  0.37996416011E+01 -0.12650012992E+02  0.16669910308E+02  0.00000000000E+00 0.  1.
</event>
<event>
 7    1  0.5121289E-013  0.5052886E+02  0.7816164E-02  0.1300439E+00
        -11   -1    0    0    0    0  0.00000000000E+00  0.00000000000E+00  0.45593999997E+02  0.45594000000E+02  0.51100000000E-03 0.  1.
         11   -1    0    0    0    0 -0.00000000000E+00 -0.00000000000E+00 -0.45593999997E+02  0.45594000000E+02  0.51100000000E-03 0. -1.
    9900012    2    1    2    0    0  0.28154375833E+02  0.28265948317E+02  0.78443125663E+01  0.50528856472E+02  0.29999989733E+02 0.  0.
         12    1    1    2    0    0 -0.28154375833E+02 -0.28265948317E+02 -0.78443125663E+01  0.40659143528E+02  0.00000000000E+00 0. -1.
         11    1    3    3    0    0  0.73744682493E+01  0.84324673071E+01  0.22747440904E+01  0.11430824458E+02  0.51100000000E-03 0. -1.
        -11    1    3    3    0    0  0.63663699931E+01  0.22317205514E+02  0.73981945552E+01  0.24358193935E+02  0.51100000000E-03 0.  1.
        -12    1    3    3    0    0  0.14413537590E+02 -0.24837245039E+01 -0.18286260793E+01  0.14739838080E+02  0.00000000000E+00 0.  1.
</event>
<event>
 7    1  0.5121289E-013  0.5052885E+02  0.7816164E-02  0.1300439E+00
        -11   -1    0    0    0    0  0.00000000000E+00  0.00000000000E+00  0.45593999997E+02  0.45594000000E+02  0.51100000000E-03 0. -1.
         11   -1    0    0    0    0 -0.00000000000E+00 -0.00000000000E+00 -0.45593999997E+02  0.45594000000E+02  0.51100000000E-03 0.  1.
    9900012    2    1    2    0    0  0.36149443781E+02 -0.93529914813E+01 -0.16090552895E+02  0.50528848166E+02  0.29999964487E+02 0.  0.
         12    1    1    2    0    0 -0.36149443781E+02  0.93529914813E+01  0.16090552895E+02  0.40659151834E+02  0.00000000000E+00 0. -1.
         11    1    3    3    0    0  0.26367903675E+02 -0.56196079746E+01 -0.19454442518E+01  0.27030188524E+02  0.51100000000E-03 0. -1.
        -11    1    3    3    0    0  0.13196868753E+02 -0.17566999049E+01 -0.63250805630E+01  0.14739402425E+02  0.51100000000E-03 0.  1.
         12    1    3    3    0    0 -0.34153286475E+01 -0.19766836019E+01 -0.78200280805E+01  0.87592572181E+01  0.00000000000E+00 0. -1.
</event>
<event>
 7    1  0.5121289E-013  0.5052886E+02  0.7816164E-02  0.1300439E+00
        -11   -1    0    0    0    0  0.00000000000E+00  0.00000000000E+00  0.45593999997E+02  0.45594000000E+02  0.51100000000E-03 0.  1.
         11   -1    0    0    0    0 -0.00000000000E+00 -0.00000000000E+00 -0.45593999997E+02  0.45594000000E+02  0.51100000000E-03 0. -1.
    9900012    2    1    2    0    0  0.56069812825E+01  0.40189769028E+02  0.25514097507E+01  0.50528862462E+02  0.30000007940E+02 0.  0.
         12    1    1    2    0    0 -0.56069812825E+01 -0.40189769028E+02 -0.25514097507E+01  0.40659137538E+02  0.00000000000E+00 0. -1.
         11    1    3    3    0    0 -0.24082116899E+01  0.47196596858E+01  0.56111351443E-01  0.52988508035E+01  0.51100000000E-03 0. -1.
        -11    1    3    3    0    0 -0.73417408431E+01  0.23948609104E+01 -0.31290309127E+01  0.83323077296E+01  0.51100000000E-03 0.  1.
        -12    1    3    3    0    0  0.15356933815E+02  0.33075248432E+02  0.56243293120E+01  0.36897703929E+02  0.00000000000E+00 0.  1.
</event>
<event>
 7    1  0.5121289E-013  0.5052887E+02  0.7816164E-02  0.1300439E+00
        -11   -1    0    0    0    0  0.00000000000E+00  0.00000000000E+00  0.45593999997E+02  0.45594000000E+02  0.51100000000E-03 0. -1.
         11   -1    0    0    0    0 -0.00000000000E+00 -0.00000000000E+00 -0.45593999997E+02  0.45594000000E+02  0.51100000000E-03 0.  1.
    9900012    2    1    2    0    0  0.23087097679E+02  0.31503879502E+02  0.11298505410E+02  0.50528871536E+02  0.30000035521E+02 0.  0.
         12    1    1    2    0    0 -0.23087097679E+02 -0.31503879502E+02 -0.11298505410E+02  0.40659128464E+02  0.00000000000E+00 0. -1.
         11    1    3    3    0    0  0.11139640011E+02  0.25918690224E+02  0.16390495680E+01  0.28258743183E+02  0.51100000000E-03 0.  1.
        -11    1    3    3    0    0 -0.34746752680E+01  0.11031914913E+01  0.24473396703E+00  0.36538055039E+01  0.51100000000E-03 0. -1.
         12    1    3    3    0    0  0.15422132936E+02  0.44819977865E+01  0.94147218749E+01  0.18616322849E+02  0.00000000000E+00 0. -1.
</event>
<event>
 7    1  0.5121289E-013  0.5052886E+02  0.7816164E-02  0.1300439E+00
        -11   -1    0    0    0    0  0.00000000000E+00  0.00000000000E+00  0.45593999997E+02  0.45594000000E+02  0.51100000000E-03 0. -1.
         11   -1    0    0    0    0 -0.00000000000E+00 -0.00000000000E+00 -0.45593999997E+02  0.45594000000E+02  0.51100000000E-03 0.  1.
    9900012    2    1    2    0    0 -0.40520489703E+02 -0.32125752845E+01 -0.96707790990E+00  0.50528856313E+02  0.29999989248E+02 0.  0.
         12    1    1    2    0    0  0.40520489703E+02  0.32125752845E+01  0.96707790990E+00  0.40659143687E+02  0.00000000000E+00 0. -1.
         11    1    3    3    0    0 -0.29937973101E+02 -0.83906234302E+01 -0.46471648399E+01  0.31436935860E+02  0.51100000000E-03 0. -1.
        -11    1    3    3    0    0  0.10616148750E+01 -0.46052945064E+00 -0.39199959426E+01  0.40872340242E+01  0.51100000000E-03 0.  1.
        -12    1    3    3    0    0 -0.11644131476E+02  0.56385775963E+01  0.76000828726E+01  0.15004686428E+02  0.00000000000E+00 0.  1.
</event>
<event>
 7    1  0.5121289E-013  0.5052887E+02  0.7816164E-02  0.1300439E+00
        -11   -1    0    0    0    0  0.00000000000E+00  0.00000000000E+00  0.45593999997E+02  0.45594000000E+02  0.51100000000E-03 0.  1.
         11   -1    0    0    0    0 -0.00000000000E+00 -0.00000000000E+00 -0.45593999997E+02  0.45594000000E+02  0.51100000000E-03 0. -1.
    9900012    2    1    2    0    0 -0.19291666518E+01 -0.24111919264E+01  0.40541702676E+02  0.50528865893E+02  0.30000018367E+02 0.  0.
         12    1    1    2    0    0  0.19291666518E+01  0.24111919264E+01 -0.40541702676E+02  0.40659134107E+02  0.00000000000E+00 0. -1.
         11    1    3    3    0    0 -0.63714729980E+01  0.38862046019E+01  0.12998464705E+02  0.14988606984E+02  0.51100000000E-03 0.  1.
        -11    1    3    3    0    0  0.82939686271E+01  0.30892602720E+01  0.36346568345E+01  0.95678720299E+01  0.51100000000E-03 0. -1.
        -12    1    3    3    0    0 -0.38516622808E+01 -0.93866568004E+01  0.23908581136E+02  0.25972386878E+02  0.00000000000E+00 0.  1.
</event>
<event>
 7    1  0.5121289E-013  0.5052886E+02  0.7816164E-02  0.1300439E+00
        -11   -1    0    0    0    0  0.00000000000E+00  0.00000000000E+00  0.45593999997E+02  0.45594000000E+02  0.51100000000E-03 0. -1.
         11   -1    0    0    0    0 -0.00000000000E+00 -0.00000000000E+00 -0.45593999997E+02  0.45594000000E+02  0.51100000000E-03 0.  1.
    9900012    2    1    2    0    0  0.11923095888E+02 -0.26121978853E+02 -0.28786246304E+02  0.50528856243E+02  0.29999989037E+02 0.  0.
         12    1    1    2    0    0 -0.11923095888E+02  0.26121978853E+02  0.28786246304E+02  0.40659143757E+02  0.00000000000E+00 0. -1.
         11    1    3    3    0    0 -0.25490248594E+00 -0.26922394372E+01  0.27702632145E+01  0.38713675882E+01  0.51100000000E-03 0. -1.
        -11    1    3    3    0    0  0.11282739728E+02 -0.94179931390E+01 -0.32378876444E+01  0.15049343082E+02  0.51100000000E-03 0.  1.
        -12    1    3    3    0    0  0.89525864646E+00 -0.14011746277E+02 -0.28318621874E+02  0.31608145574E+02  0.00000000000E+00 0.  1.
</event>
<event>
 7    1  0.5121289E-013  0.5052886E+02  0.7816164E-02  0.1300439E+00
        -11   -1    0    0    0    0  0.00000000000E+00  0.00000000000E+00  0.45593999997E+02  0.45594000000E+02  0.51100000000E-03 0.  1.
         11   -1    0    0    0    0 -0.00000000000E+00 -0.00000000000E+00 -0.45593999997E+02  0.45594000000E+02  0.51100000000E-03 0. -1.
    9900012    2    1    2    0    0 -0.32830078166E+02  0.92721319374E+01  0.22121914646E+02  0.50528861166E+02  0.30000004001E+02 0.  0.
         12    1    1    2    0    0  0.32830078166E+02 -0.92721319374E+01 -0.22121914646E+02  0.40659138834E+02  0.00000000000E+00 0. -1.
         11    1    3    3    0    0 -0.27022127623E+02  0.77442998652E+01  0.29423379991E+01  0.28263526228E+02  0.51100000000E-03 0.  1.
        -11    1    3    3    0    0  0.12134359696E+01  0.24727158142E+01  0.13250206646E+01  0.30565389533E+01  0.51100000000E-03 0. -1.
        -12    1    3    3    0    0 -0.70213865126E+01 -0.94488374200E+00  0.17854555983E+02  0.19208795985E+02  0.00000000000E+00 0.  1.
</event>
<event>
 7    1  0.5121289E-013  0.5052886E+02  0.7816164E-02  0.1300439E+00
        -11   -1    0    0    0    0  0.00000000000E+00  0.00000000000E+00  0.45593999997E+02  0.45594000000E+02  0.51100000000E-03 0. -1.
         11   -1    0    0    0    0 -0.00000000000E+00 -0.00000000000E+00 -0.45593999997E+02  0.45594000000E+02  0.51100000000E-03 0.  1.
    9900012    2    1    2    0    0  0.21610943514E+00  0.32328103293E+02 -0.24657908363E+02  0.50528863134E+02  0.30000009983E+02 0.  0.
         12    1    1    2    0    0 -0.21610943514E+00 -0.32328103293E+02  0.24657908363E+02  0.40659136866E+02  0.00000000000E+00 0. -1.
         11    1    3    3    0    0 -0.31721092154E+01  0.68928443826E+01 -0.11843211062E+01  0.76795961678E+01  0.51100000000E-03 0. -1.
        -11    1    3    3    0    0 -0.57522431190E+01  0.25934534089E+02 -0.15831099158E+02  0.30924295629E+02  0.51100000000E-03 0.  1.
         12    1    3    3    0    0  0.91404617695E+01 -0.49927517860E+00 -0.76424880991E+01  0.11924971338E+02  0.00000000000E+00 0. -1.
</event>
<event>
 7    1  0.5121289E-013  0.5052886E+02  0.7816164E-02  0.1300439E+00
        -11   -1    0    0    0    0  0.00000000000E+00  0.00000000000E+00  0.45593999997E+02  0.45594000000E+02  0.51100000000E-03 0. -1.
         11   -1    0    0    0    0 -0.00000000000E+00 -0.00000000000E+00 -0.45593999997E+02  0.45594000000E+02  0.51100000000E-03 0.  1.
    9900012    2    1    2    0    0 -0.14386870953E+00  0.39837831300E+02  0.81296994535E+01  0.50528861862E+02  0.30000006116E+02 0.  0.
         12    1    1    2    0    0  0.14386870953E+00 -0.39837831300E+02 -0.81296994535E+01  0.40659138138E+02  0.00000000000E+00 0. -1.
         11    1    3    3    0    0  0.57515842308E+01  0.21007235371E+02  0.12774153110E+02  0.25250022714E+02  0.51100000000E-03 0.  1.
        -11    1    3    3    0    0  0.16553416649E+01  0.23021257914E+01 -0.64224461205E+01  0.70205237425E+01  0.51100000000E-03 0. -1.
         12    1    3    3    0    0 -0.75507946053E+01  0.16528470138E+02  0.17779924644E+01  0.18258315406E+02  0.00000000000E+00 0. -1.
</event>
<event>
 7    1  0.5121289E-013  0.5052888E+02  0.7816164E-02  0.1300439E+00
        -11   -1    0    0    0    0  0.00000000000E+00  0.00000000000E+00  0.45593999997E+02  0.45594000000E+02  0.51100000000E-03 0. -1.
         11   -1    0    0    0    0 -0.00000000000E+00 -0.00000000000E+00 -0.45593999997E+02  0.45594000000E+02  0.51100000000E-03 0.  1.
    9900012    2    1    2    0    0  0.21894011410E+02 -0.28647174460E+02  0.18792437949E+02  0.50528879692E+02  0.30000060311E+02 0.  0.
         12    1    1    2    0    0 -0.21894011410E+02  0.28647174460E+02 -0.18792437949E+02  0.40659120308E+02  0.00000000000E+00 0. -1.
         11    1    3    3    0    0  0.10896720040E+02 -0.12204774028E+02  0.15163956560E+02  0.22307859501E+02  0.51100000000E-03 0. -1.
        -11    1    3    3    0    0  0.15075594853E+02 -0.11454786670E+02  0.78734585115E+01  0.20505536985E+02  0.51100000000E-03 0.  1.
         12    1    3    3    0    0 -0.40783034830E+01 -0.49876137615E+01 -0.42449771222E+01  0.77154832060E+01  0.00000000000E+00 0. -1.
</event>
<event>
 7    1  0.5121289E-013  0.5052883E+02  0.7816164E-02  0.1300439E+00
        -11   -1    0    0    0    0  0.00000000000E+00  0.00000000000E+00  0.45593999997E+02  0.45594000000E+02  0.51100000000E-03 0. -1.
         11   -1    0    0    0    0 -0.00000000000E+00 -0.00000000000E+00 -0.45593999997E+02  0.45594000000E+02  0.51100000000E-03 0.  1.
    9900012    2    1    2    0    0 -0.32379887720E+02 -0.48648818900E+01  0.24104849066E+02  0.50528831870E+02  0.29999914951E+02 0.  0.
         12    1    1    2    0    0  0.32379887720E+02  0.48648818900E+01 -0.24104849066E+02  0.40659168130E+02  0.00000000000E+00 0. -1.
         11    1    3    3    0    0 -0.34395545940E+01  0.34907550756E+00  0.89736255588E+01  0.96165661983E+01  0.51100000000E-03 0. -1.
        -11    1    3    3    0    0 -0.91245841248E+01 -0.59389770536E+01  0.17839444907E+02  0.20899169331E+02  0.51100000000E-03 0.  1.
        -12    1    3    3    0    0 -0.19815749001E+02  0.72501965608E+00 -0.27082213999E+01  0.20013096340E+02  0.00000000000E+00 0.  1.
</event>
<event>
 7    1  0.5121289E-013  0.5052886E+02  0.7816164E-02  0.1300439E+00
        -11   -1    0    0    0    0  0.00000000000E+00  0.00000000000E+00  0.45593999997E+02  0.45594000000E+02  0.51100000000E-03 0.  1.
         11   -1    0    0    0    0 -0.00000000000E+00 -0.00000000000E+00 -0.45593999997E+02  0.45594000000E+02  0.51100000000E-03 0. -1.
    9900012    2    1    2    0    0  0.32715405445E+02 -0.13098045463E+02  0.20280749794E+02  0.50528863750E+02  0.30000011853E+02 0.  0.
         12    1    1    2    0    0 -0.32715405445E+02  0.13098045463E+02 -0.20280749794E+02  0.40659136250E+02  0.00000000000E+00 0. -1.
         11    1    3    3    0    0  0.16132195678E+02 -0.69919569273E+01  0.12563116370E+02  0.21609421378E+02  0.51100000000E-03 0. -1.
        -11    1    3    3    0    0  0.74878293540E+01  0.73316047234E+01  0.71438648851E+01  0.12682855436E+02  0.51100000000E-03 0.  1.
         12    1    3    3    0    0  0.90953804129E+01 -0.13437693259E+02  0.57376853898E+00  0.16236586936E+02  0.00000000000E+00 0. -1.
</event>
<event>
 7    1  0.5121289E-013  0.5052885E+02  0.7816164E-02  0.1300439E+00
        -11   -1    0    0    0    0  0.00000000000E+00  0.00000000000E+00  0.45593999997E+02  0.45594000000E+02  0.51100000000E-03 0.  1.
         11   -1    0    0    0    0 -0.00000000000E+00 -0.00000000000E+00 -0.45593999997E+02  0.45594000000E+02  0.51100000000E-03 0. -1.
    9900012    2    1    2    0    0  0.29588422641E+02  0.23745267501E+02  0.14623744128E+02  0.50528851270E+02  0.29999973921E+02 0.  0.
         12    1    1    2    0    0 -0.29588422641E+02 -0.23745267501E+02 -0.14623744128E+02  0.40659148730E+02  0.00000000000E+00 0. -1.
         11    1    3    3    0    0  0.14058155588E+01  0.23912277587E+01  0.43898160317E+01  0.51927615613E+01  0.51100000000E-03 0. -1.
        -11    1    3    3    0    0  0.20985842825E+02 -0.26832436825E+00  0.79124944147E+01  0.22429560075E+02  0.51100000000E-03 0.  1.
         12    1    3    3    0    0  0.71967642577E+01  0.21622364111E+02  0.23214336816E+01  0.22906529634E+02  0.00000000000E+00 0. -1.
</event>
<event>
 7    1  0.5121289E-013  0.5052885E+02  0.7816164E-02  0.1300439E+00
        -11   -1    0    0    0    0  0.00000000000E+00  0.00000000000E+00  0.45593999997E+02  0.45594000000E+02  0.51100000000E-03 0. -1.
         11   -1    0    0    0    0 -0.00000000000E+00 -0.00000000000E+00 -0.45593999997E+02  0.45594000000E+02  0.51100000000E-03 0.  1.
    9900012    2    1    2    0    0  0.19571808018E+02  0.31521263221E+02 -0.16628915558E+02  0.50528849287E+02  0.29999967892E+02 0.  0.
         12    1    1    2    0    0 -0.19571808018E+02 -0.31521263221E+02  0.16628915558E+02  0.40659150713E+02  0.00000000000E+00 0. -1.
         11    1    3    3    0    0  0.70026283944E+01  0.11452747709E+01 -0.82169168951E+01  0.10856619283E+02  0.51100000000E-03 0. -1.
        -11    1    3    3    0    0  0.12057731361E+02  0.66988009692E+01 -0.80826150409E+01  0.15987228845E+02  0.51100000000E-03 0.  1.
         12    1    3    3    0    0  0.51144826278E+00  0.23677187480E+02 -0.32938362148E+00  0.23685001158E+02  0.00000000000E+00 0. -1.
</event>
<event>
 7    1  0.5121289E-013  0.5052886E+02  0.7816164E-02  0.1300439E+00
        -11   -1    0    0    0    0  0.00000000000E+00  0.00000000000E+00  0.45593999997E+02  0.45594000000E+02  0.51100000000E-03 0.  1.
         11   -1    0    0    0    0 -0.00000000000E+00 -0.00000000000E+00 -0.45593999997E+02  0.45594000000E+02  0.51100000000E-03 0. -1.
    9900012    2    1    2    0    0 -0.16629812983E+02 -0.26761962320E+00  0.37101800287E+02  0.50528857306E+02  0.29999992266E+02 0.  0.
         12    1    1    2    0    0  0.16629812983E+02  0.26761962320E+00 -0.37101800287E+02  0.40659142694E+02  0.00000000000E+00 0. -1.
         11    1    3    3    0    0  0.29885880421E+01 -0.43743103621E-01  0.18424141387E+01  0.35111340140E+01  0.51100000000E-03 0. -1.
        -11    1    3    3    0    0  0.44218297283E+00  0.88607296336E+01  0.12699449460E+02  0.15491419311E+02  0.51100000000E-03 0.  1.
        -12    1    3    3    0    0 -0.20060583998E+02 -0.90846061531E+01  0.22559936688E+02  0.31526303980E+02  0.00000000000E+00 0.  1.
</event>
<event>
 7    1  0.5121289E-013  0.5052885E+02  0.7816164E-02  0.1300439E+00
        -11   -1    0    0    0    0  0.00000000000E+00  0.00000000000E+00  0.45593999997E+02  0.45594000000E+02  0.51100000000E-03 0. -1.
         11   -1    0    0    0    0 -0.00000000000E+00 -0.00000000000E+00 -0.45593999997E+02  0.45594000000E+02  0.51100000000E-03 0.  1.
    9900012    2    1    2    0    0  0.99232851872E+01  0.21167490746E+01 -0.39372764326E+02  0.50528846219E+02  0.29999958567E+02 0.  0.
         12    1    1    2    0    0 -0.99232851872E+01 -0.21167490746E+01  0.39372764326E+02  0.40659153781E+02  0.00000000000E+00 0. -1.
         11    1    3    3    0    0  0.68790871789E+01 -0.13540784612E+01  0.97312970937E+00  0.70783013913E+01  0.51100000000E-03 0. -1.
        -11    1    3    3    0    0  0.40182870793E+01 -0.46642999783E+01 -0.27747504632E+02  0.28422285955E+02  0.51100000000E-03 0.  1.
        -12    1    3    3    0    0 -0.97408907107E+00  0.81351275141E+01 -0.12598389403E+02  0.15028258873E+02  0.00000000000E+00 0.  1.
</event>
<event>
 7    1  0.5121289E-013  0.5052886E+02  0.7816164E-02  0.1300439E+00
        -11   -1    0    0    0    0  0.00000000000E+00  0.00000000000E+00  0.45593999997E+02  0.45594000000E+02  0.51100000000E-03 0. -1.
         11   -1    0    0    0    0 -0.00000000000E+00 -0.00000000000E+00 -0.45593999997E+02  0.45594000000E+02  0.51100000000E-03 0.  1.
    9900012    2    1    2    0    0 -0.36226766802E+02  0.17627042987E+02 -0.54840420393E+01  0.50528855955E+02  0.29999988160E+02 0.  0.
         12    1    1    2    0    0  0.36226766802E+02 -0.17627042987E+02  0.54840420393E+01  0.40659144045E+02  0.00000000000E+00 0. -1.
         11    1    3    3    0    0 -0.41347171917E+01 -0.31981879540E+01  0.20615899357E+00  0.52313281522E+01  0.51100000000E-03 0. -1.
        -11    1    3    3    0    0 -0.97448751773E+01 -0.39099627060E+01  0.28616596683E+01  0.10882991174E+02  0.51100000000E-03 0.  1.
        -12    1    3    3    0    0 -0.22347174433E+02  0.24735193646E+02 -0.85518607011E+01  0.34414536628E+02  0.00000000000E+00 0.  1.
</event>
<event>
 7    1  0.5121289E-013  0.5052887E+02  0.7816164E-02  0.1300439E+00
        -11   -1    0    0    0    0  0.00000000000E+00  0.00000000000E+00  0.45593999997E+02  0.45594000000E+02  0.51100000000E-03 0. -1.
         11   -1    0    0    0    0 -0.00000000000E+00 -0.00000000000E+00 -0.45593999997E+02  0.45594000000E+02  0.51100000000E-03 0.  1.
    9900012    2    1    2    0    0 -0.29294592532E+02 -0.36290298309E+01 -0.27961083694E+02  0.50528865596E+02  0.30000017465E+02 0.  0.
         12    1    1    2    0    0  0.29294592532E+02  0.36290298309E+01  0.27961083694E+02  0.40659134404E+02  0.00000000000E+00 0. -1.
         11    1    3    3    0    0 -0.35609470298E+01 -0.55152264570E+01 -0.39343069499E+01  0.76535506830E+01  0.51100000000E-03 0. -1.
        -11    1    3    3    0    0 -0.15824857475E+02 -0.87133576124E+01 -0.46246138780E+01  0.18647674621E+02  0.51100000000E-03 0.  1.
        -12    1    3    3    0    0 -0.99087880273E+01  0.10599554238E+02 -0.19402162867E+02  0.24227640292E+02  0.00000000000E+00 0.  1.
</event>
<event>
 7    1  0.5121289E-013  0.5052886E+02  0.7816164E-02  0.1300439E+00
        -11   -1    0    0    0    0  0.00000000000E+00  0.00000000000E+00  0.45593999997E+02  0.45594000000E+02  0.51100000000E-03 0.  1.
         11   -1    0    0    0    0 -0.00000000000E+00 -0.00000000000E+00 -0.45593999997E+02  0.45594000000E+02  0.51100000000E-03 0. -1.
    9900012    2    1    2    0    0  0.71556708779E+00  0.40301841081E+02  0.53306081420E+01  0.50528858176E+02  0.29999994910E+02 0.  0.
         12    1    1    2    0    0 -0.71556708779E+00 -0.40301841081E+02 -0.53306081420E+01  0.40659141824E+02  0.00000000000E+00 0. -1.
         11    1    3    3    0    0  0.22076735015E+01  0.36797040154E+00 -0.92555473022E+00  0.24219571271E+01  0.51100000000E-03 0. -1.
        -11    1    3    3    0    0  0.17762869486E+00  0.14964862845E+01 -0.71938649559E+01  0.73500147223E+01  0.51100000000E-03 0.  1.
        -12    1    3    3    0    0 -0.16697351086E+01  0.38437384395E+02  0.13450027828E+02  0.40756886326E+02  0.00000000000E+00 0.  1.
</event>
<event>
 7    1  0.5121289E-013  0.5052886E+02  0.7816164E-02  0.1300439E+00
        -11   -1    0    0    0    0  0.00000000000E+00  0.00000000000E+00  0.45593999997E+02  0.45594000000E+02  0.51100000000E-03 0.  1.
         11   -1    0    0    0    0 -0.00000000000E+00 -0.00000000000E+00 -0.45593999997E+02  0.45594000000E+02  0.51100000000E-03 0. -1.
    9900012    2    1    2    0    0 -0.30768033561E+01 -0.39916956370E+02  0.70947799940E+01  0.50528855544E+02  0.29999986912E+02 0.  0.
         12    1    1    2    0    0  0.30768033561E+01  0.39916956370E+02 -0.70947799940E+01  0.40659144456E+02  0.00000000000E+00 0. -1.
         11    1    3    3    0    0 -0.52007748133E+01 -0.11334277164E+02  0.27255144386E+01  0.12764886474E+02  0.51100000000E-03 0. -1.
        -11    1    3    3    0    0 -0.99663550877E+01 -0.20585441754E+02  0.10632609358E+01  0.22895833027E+02  0.51100000000E-03 0.  1.
         12    1    3    3    0    0  0.12090326545E+02 -0.79972374521E+01  0.33060046196E+01  0.14868136042E+02  0.00000000000E+00 0. -1.
</event>
<event>
 7    1  0.5121289E-013  0.5052886E+02  0.7816164E-02  0.1300439E+00
        -11   -1    0    0    0    0  0.00000000000E+00  0.00000000000E+00  0.45593999997E+02  0.45594000000E+02  0.51100000000E-03 0.  1.
         11   -1    0    0    0    0 -0.00000000000E+00 -0.00000000000E+00 -0.45593999997E+02  0.45594000000E+02  0.51100000000E-03 0. -1.
    9900012    2    1    2    0    0 -0.25465380979E+02  0.68792216578E+01  0.30941179273E+02  0.50528857192E+02  0.29999991922E+02 0.  0.
         12    1    1    2    0    0  0.25465380979E+02 -0.68792216578E+01 -0.30941179273E+02  0.40659142808E+02  0.00000000000E+00 0. -1.
         11    1    3    3    0    0 -0.16785214494E+01  0.47242391731E+01 -0.41636522970E+01  0.65170446317E+01  0.51100000000E-03 0. -1.
        -11    1    3    3    0    0 -0.15519783708E+02  0.41252128674E+01  0.14165746229E+02  0.21413767395E+02  0.51100000000E-03 0.  1.
        -12    1    3    3    0    0 -0.82670758214E+01 -0.19702303826E+01  0.20939085341E+02  0.22598045166E+02  0.00000000000E+00 0.  1.
</event>
<event>
 7    1  0.5121289E-013  0.5052886E+02  0.7816164E-02  0.1300439E+00
        -11   -1    0    0    0    0  0.00000000000E+00  0.00000000000E+00  0.45593999997E+02  0.45594000000E+02  0.51100000000E-03 0.  1.
         11   -1    0    0    0    0 -0.00000000000E+00 -0.00000000000E+00 -0.45593999997E+02  0.45594000000E+02  0.51100000000E-03 0. -1.
    9900012    2    1    2    0    0  0.35437066497E+02 -0.92298624554E+01  0.17668880302E+02  0.50528863585E+02  0.30000011354E+02 0.  0.
         12    1    1    2    0    0 -0.35437066497E+02  0.92298624554E+01 -0.17668880302E+02  0.40659136415E+02  0.00000000000E+00 0. -1.
         11    1    3    3    0    0  0.69539117508E+01  0.32776360977E+01  0.16726529024E+01  0.78674999218E+01  0.51100000000E-03 0. -1.
        -11    1    3    3    0    0 -0.43082295549E+00  0.53794579788E+01  0.35294929603E+01  0.64483716846E+01  0.51100000000E-03 0.  1.
         12    1    3    3    0    0  0.28913977701E+02 -0.17886956532E+02  0.12466734440E+02  0.36212991979E+02  0.00000000000E+00 0. -1.
</event>
<event>
 7    1  0.5121289E-013  0.5052886E+02  0.7816164E-02  0.1300439E+00
        -11   -1    0    0    0    0  0.00000000000E+00  0.00000000000E+00  0.45593999997E+02  0.45594000000E+02  0.51100000000E-03 0.  1.
         11   -1    0    0    0    0 -0.00000000000E+00 -0.00000000000E+00 -0.45593999997E+02  0.45594000000E+02  0.51100000000E-03 0. -1.
    9900012    2    1    2    0    0  0.33232086361E+02  0.45208413427E+01  0.22985993762E+02  0.50528862287E+02  0.30000007408E+02 0.  0.
         12    1    1    2    0    0 -0.33232086361E+02 -0.45208413427E+01 -0.22985993762E+02  0.40659137713E+02  0.00000000000E+00 0. -1.
         11    1    3    3    0    0 -0.94859822028E+00 -0.26097017540E+01  0.47385392690E+01  0.54921886797E+01  0.51100000000E-03 0. -1.
        -11    1    3    3    0    0  0.11408684430E+02 -0.25669834236E+01  0.16500668594E+02  0.20224231719E+02  0.51100000000E-03 0.  1.
         12    1    3    3    0    0  0.22772000151E+02  0.96975265204E+01  0.17467858990E+01  0.24812441889E+02  0.00000000000E+00 0. -1.
</event>
<event>
 7    1  0.5121289E-013  0.5052886E+02  0.7816164E-02  0.1300439E+00
        -11   -1    0    0    0    0  0.00000000000E+00  0.00000000000E+00  0.45593999997E+02  0.45594000000E+02  0.51100000000E-03 0.  1.
         11   -1    0    0    0    0 -0.00000000000E+00 -0.00000000000E+00 -0.45593999997E+02  0.45594000000E+02  0.51100000000E-03 0. -1.
    9900012    2    1    2    0    0  0.34329196378E+02  0.13652364769E+02  0.16978946976E+02  0.50528862919E+02  0.30000009328E+02 0.  0.
         12    1    1    2    0    0 -0.34329196378E+02 -0.13652364769E+02 -0.16978946976E+02  0.40659137081E+02  0.00000000000E+00 0. -1.
         11    1    3    3    0    0  0.29566572648E+01 -0.65109136663E+01 -0.13962654567E+00  0.71521545554E+01  0.51100000000E-03 0. -1.
        -11    1    3    3    0    0  0.30609865062E+01 -0.21917085423E+01  0.12445946502E+01  0.39651280975E+01  0.51100000000E-03 0.  1.
         12    1    3    3    0    0  0.28311552607E+02  0.22354986978E+02  0.15873978871E+02  0.39411580266E+02  0.00000000000E+00 0. -1.
</event>
<event>
 7    1  0.5121289E-013  0.5052886E+02  0.7816164E-02  0.1300439E+00
        -11   -1    0    0    0    0  0.00000000000E+00  0.00000000000E+00  0.45593999997E+02  0.45594000000E+02  0.51100000000E-03 0.  1.
         11   -1    0    0    0    0 -0.00000000000E+00 -0.00000000000E+00 -0.45593999997E+02  0.45594000000E+02  0.51100000000E-03 0. -1.
    9900012    2    1    2    0    0 -0.22737335840E+02  0.26654004755E+02  0.20633554154E+02  0.50528856285E+02  0.29999989165E+02 0.  0.
         12    1    1    2    0    0  0.22737335840E+02 -0.26654004755E+02 -0.20633554154E+02  0.40659143715E+02  0.00000000000E+00 0. -1.
         11    1    3    3    0    0 -0.89336226973E+01  0.17941814275E+02 -0.27979888561E+01  0.20237268982E+02  0.51100000000E-03 0. -1.
        -11    1    3    3    0    0 -0.59711088558E+01 -0.10429336344E+01  0.42965155631E+01  0.74297979635E+01  0.51100000000E-03 0.  1.
        -12    1    3    3    0    0 -0.78326042871E+01  0.97551241151E+01  0.19135027447E+02  0.22861789339E+02  0.00000000000E+00 0.  1.
</event>
<event>
 7    1  0.5121289E-013  0.5052887E+02  0.7816164E-02  0.1300439E+00
        -11   -1    0    0    0    0  0.00000000000E+00  0.00000000000E+00  0.45593999997E+02  0.45594000000E+02  0.51100000000E-03 0.  1.
         11   -1    0    0    0    0 -0.00000000000E+00 -0.00000000000E+00 -0.45593999997E+02  0.45594000000E+02  0.51100000000E-03 0. -1.
    9900012    2    1    2    0    0 -0.28933002170E+02 -0.28346610427E+02 -0.35378001465E+01  0.50528868589E+02  0.30000026562E+02 0.  0.
         12    1    1    2    0    0  0.28933002170E+02  0.28346610427E+02  0.35378001465E+01  0.40659131411E+02  0.00000000000E+00 0. -1.
         11    1    3    3    0    0 -0.84730074247E+01 -0.20625135558E+02 -0.61524144925E+01  0.23130937636E+02  0.51100000000E-03 0. -1.
        -11    1    3    3    0    0 -0.82509322775E+01 -0.63586358213E+01 -0.63412093435E+01  0.12195124811E+02  0.51100000000E-03 0.  1.
        -12    1    3    3    0    0 -0.12209062468E+02 -0.13628390481E+01  0.89558236894E+01  0.15202806141E+02  0.00000000000E+00 0.  1.
</event>
<event>
 7    1  0.5121289E-013  0.5052888E+02  0.7816164E-02  0.1300439E+00
        -11   -1    0    0    0    0  0.00000000000E+00  0.00000000000E+00  0.45593999997E+02  0.45594000000E+02  0.51100000000E-03 0.  1.
         11   -1    0    0    0    0 -0.00000000000E+00 -0.00000000000E+00 -0.45593999997E+02  0.45594000000E+02  0.51100000000E-03 0. -1.
    9900012    2    1    2    0    0 -0.81933050521E+01 -0.10518959312E+02  0.38410739826E+02  0.50528884335E+02  0.30000074424E+02 0.  0.
         12    1    1    2    0    0  0.81933050521E+01  0.10518959312E+02 -0.38410739826E+02  0.40659115665E+02  0.00000000000E+00 0. -1.
         11    1    3    3    0    0  0.11330543855E+01 -0.12277339606E+02  0.13760406098E+02  0.18476083359E+02  0.51100000000E-03 0. -1.
        -11    1    3    3    0    0 -0.75879085504E+01 -0.70581185772E+01  0.78517135155E+01  0.13001646027E+02  0.51100000000E-03 0.  1.
         12    1    3    3    0    0 -0.17384508873E+01  0.88164988715E+01  0.16798620212E+02  0.19051154949E+02  0.00000000000E+00 0. -1.
</event>
<event>
 7    1  0.5121289E-013  0.5052880E+02  0.7816164E-02  0.1300439E+00
        -11   -1    0    0    0    0  0.00000000000E+00  0.00000000000E+00  0.45593999997E+02  0.45594000000E+02  0.51100000000E-03 0.  1.
         11   -1    0    0    0    0 -0.00000000000E+00 -0.00000000000E+00 -0.45593999997E+02  0.45594000000E+02  0.51100000000E-03 0. -1.
    9900012    2    1    2    0    0 -0.28916792525E+01 -0.38497280573E+02  0.12758066380E+02  0.50528798358E+02  0.29999813088E+02 0.  0.
         12    1    1    2    0    0  0.28916792525E+01  0.38497280573E+02 -0.12758066380E+02  0.40659201642E+02  0.00000000000E+00 0. -1.
         11    1    3    3    0    0  0.54010278300E+01 -0.28558145362E+01 -0.12959549413E+00  0.61109388427E+01  0.51100000000E-03 0. -1.
        -11    1    3    3    0    0 -0.79155069857E+01 -0.39928767894E+01 -0.25189150030E+01  0.92164661856E+01  0.51100000000E-03 0.  1.
        -12    1    3    3    0    0 -0.37720009681E+00 -0.31648589248E+02  0.15406576877E+02  0.35201393329E+02  0.00000000000E+00 0.  1.
</event>
<event>
 7    1  0.5121289E-013  0.5052886E+02  0.7816164E-02  0.1300439E+00
        -11   -1    0    0    0    0  0.00000000000E+00  0.00000000000E+00  0.45593999997E+02  0.45594000000E+02  0.51100000000E-03 0. -1.
         11   -1    0    0    0    0 -0.00000000000E+00 -0.00000000000E+00 -0.45593999997E+02  0.45594000000E+02  0.51100000000E-03 0.  1.
    9900012    2    1    2    0    0  0.23138965921E+02  0.33428212661E+02  0.55552749580E+00  0.50528858882E+02  0.29999997058E+02 0.  0.
         12    1    1    2    0    0 -0.23138965921E+02 -0.33428212661E+02 -0.55552749580E+00  0.40659141118E+02  0.00000000000E+00 0. -1.
         11    1    3    3    0    0  0.39964059960E+01  0.16807853606E+02  0.49304584637E+01  0.17966207854E+02  0.51100000000E-03 0. -1.
        -11    1    3    3    0    0  0.14897707023E+02  0.35861876022E+01  0.48117979278E+01  0.16061002946E+02  0.51100000000E-03 0.  1.
        -12    1    3    3    0    0  0.42448529019E+01  0.13034171453E+02 -0.91867288957E+01  0.16501648082E+02  0.00000000000E+00 0.  1.
</event>
<event>
 7    1  0.5121289E-013  0.5052893E+02  0.7816164E-02  0.1300439E+00
        -11   -1    0    0    0    0  0.00000000000E+00  0.00000000000E+00  0.45593999997E+02  0.45594000000E+02  0.51100000000E-03 0.  1.
         11   -1    0    0    0    0 -0.00000000000E+00 -0.00000000000E+00 -0.45593999997E+02  0.45594000000E+02  0.51100000000E-03 0. -1.
    9900012    2    1    2    0    0  0.29989685147E+01 -0.19244845482E+02  0.35690363820E+02  0.50528930171E+02  0.30000213746E+02 0.  0.
         12    1    1    2    0    0 -0.29989685147E+01  0.19244845482E+02 -0.35690363820E+02  0.40659069829E+02  0.00000000000E+00 0. -1.
         11    1    3    3    0    0  0.31729391703E+01 -0.16654648615E+00  0.21672428710E+02  0.21904096584E+02  0.51100000000E-03 0. -1.
        -11    1    3    3    0    0 -0.17059921964E+01 -0.36258300215E+01  0.12377755848E+02  0.13010222627E+02  0.51100000000E-03 0.  1.
        -12    1    3    3    0    0  0.15320215408E+01 -0.15452468974E+02  0.16401792620E+01  0.15614610959E+02  0.00000000000E+00 0.  1.
</event>
<event>
 7    1  0.5121289E-013  0.5052886E+02  0.7816164E-02  0.1300439E+00
        -11   -1    0    0    0    0  0.00000000000E+00  0.00000000000E+00  0.45593999997E+02  0.45594000000E+02  0.51100000000E-03 0.  1.
         11   -1    0    0    0    0 -0.00000000000E+00 -0.00000000000E+00 -0.45593999997E+02  0.45594000000E+02  0.51100000000E-03 0. -1.
    9900012    2    1    2    0    0  0.30949102921E+02 -0.14437030422E+01  0.26329351139E+02  0.50528856115E+02  0.29999988646E+02 0.  0.
         12    1    1    2    0    0 -0.30949102921E+02  0.14437030422E+01 -0.26329351139E+02  0.40659143885E+02  0.00000000000E+00 0. -1.
         11    1    3    3    0    0  0.52359138600E+00 -0.66328859808E+01  0.83203763870E+01  0.10653543441E+02  0.51100000000E-03 0. -1.
        -11    1    3    3    0    0 -0.10261694353E+01  0.31979474968E+01  0.44312070846E+01  0.55601698166E+01  0.51100000000E-03 0.  1.
        -12    1    3    3    0    0  0.31451680970E+02  0.19912354418E+01  0.13577767668E+02  0.34315142857E+02  0.00000000000E+00 0.  1.
</event>
<event>
 7    1  0.5121289E-013  0.5052885E+02  0.7816164E-02  0.1300439E+00
        -11   -1    0    0    0    0  0.00000000000E+00  0.00000000000E+00  0.45593999997E+02  0.45594000000E+02  0.51100000000E-03 0.  1.
         11   -1    0    0    0    0 -0.00000000000E+00 -0.00000000000E+00 -0.45593999997E+02  0.45594000000E+02  0.51100000000E-03 0. -1.
    9900012    2    1    2    0    0  0.19916960002E+02 -0.16051430420E+02  0.31604312991E+02  0.50528852027E+02  0.29999976222E+02 0.  0.
         12    1    1    2    0    0 -0.19916960002E+02  0.16051430420E+02 -0.31604312991E+02  0.40659147973E+02  0.00000000000E+00 0. -1.
         11    1    3    3    0    0  0.63306248252E+01 -0.19430171734E+01  0.15523684594E+02  0.16877112017E+02  0.51100000000E-03 0. -1.
        -11    1    3    3    0    0  0.70773197449E+01 -0.76799140998E+01  0.20861368045E+02  0.23329513761E+02  0.51100000000E-03 0.  1.
        -12    1    3    3    0    0  0.65090154316E+01 -0.64284991465E+01 -0.47807396474E+01  0.10322226249E+02  0.00000000000E+00 0.  1.
</event>
<event>
 7    1  0.5121289E-013  0.5052886E+02  0.7816164E-02  0.1300439E+00
        -11   -1    0    0    0    0  0.00000000000E+00  0.00000000000E+00  0.45593999997E+02  0.45594000000E+02  0.51100000000E-03 0.  1.
         11   -1    0    0    0    0 -0.00000000000E+00 -0.00000000000E+00 -0.45593999997E+02  0.45594000000E+02  0.51100000000E-03 0. -1.
    9900012    2    1    2    0    0 -0.24000162846E+02  0.11011776333E+02  0.30917609777E+02  0.50528860450E+02  0.30000001823E+02 0.  0.
         12    1    1    2    0    0  0.24000162846E+02 -0.11011776333E+02 -0.30917609777E+02  0.40659139550E+02  0.00000000000E+00 0. -1.
         11    1    3    3    0    0 -0.35799365743E+01 -0.41789492987E+01  0.49246614362E+01  0.73845686157E+01  0.51100000000E-03 0. -1.
        -11    1    3    3    0    0 -0.13314310360E+02 -0.30873043071E+01  0.16290749373E+02  0.21264778946E+02  0.51100000000E-03 0.  1.
        -12    1    3    3    0    0 -0.71059159115E+01  0.18278029939E+02  0.97021989681E+01  0.21879512888E+02  0.00000000000E+00 0.  1.
</event>
<event>
 7    1  0.5121289E-013  0.5052886E+02  0.7816164E-02  0.1300439E+00
        -11   -1    0    0    0    0  0.00000000000E+00  0.00000000000E+00  0.45593999997E+02  0.45594000000E+02  0.51100000000E-03 0. -1.
         11   -1    0    0    0    0 -0.00000000000E+00 -0.00000000000E+00 -0.45593999997E+02  0.45594000000E+02  0.51100000000E-03 0.  1.
    9900012    2    1    2    0    0 -0.23125383215E+02 -0.33441296177E+02 -0.24924229556E+00  0.50528858831E+02  0.29999996903E+02 0.  0.
         12    1    1    2    0    0  0.23125383215E+02  0.33441296177E+02  0.24924229556E+00  0.40659141169E+02  0.00000000000E+00 0. -1.
         11    1    3    3    0    0 -0.14302032469E+01  0.11402748882E+01 -0.13659684759E+01  0.22828881458E+01  0.51100000000E-03 0. -1.
        -11    1    3    3    0    0 -0.15130854334E+02 -0.40790441011E+01  0.57709814482E+01  0.16699867688E+02  0.51100000000E-03 0.  1.
         12    1    3    3    0    0 -0.65643256345E+01 -0.30502526964E+02 -0.46542552679E+01  0.31546102998E+02  0.00000000000E+00 0. -1.
</event>
<event>
 7    1  0.5121289E-013  0.5052886E+02  0.7816164E-02  0.1300439E+00
        -11   -1    0    0    0    0  0.00000000000E+00  0.00000000000E+00  0.45593999997E+02  0.45594000000E+02  0.51100000000E-03 0.  1.
         11   -1    0    0    0    0 -0.00000000000E+00 -0.00000000000E+00 -0.45593999997E+02  0.45594000000E+02  0.51100000000E-03 0. -1.
    9900012    2    1    2    0    0 -0.15803906762E+02  0.19196478312E+02  0.32169822353E+02  0.50528859346E+02  0.29999998469E+02 0.  0.
         12    1    1    2    0    0  0.15803906762E+02 -0.19196478312E+02 -0.32169822353E+02  0.40659140654E+02  0.00000000000E+00 0. -1.
         11    1    3    3    0    0  0.39565725440E+01  0.30313391371E+01  0.13964499754E+02  0.14827364463E+02  0.51100000000E-03 0. -1.
        -11    1    3    3    0    0 -0.15583559121E+01  0.39289053782E+01  0.12273388572E+02  0.12980787261E+02  0.51100000000E-03 0.  1.
         12    1    3    3    0    0 -0.18202123393E+02  0.12236233796E+02  0.59319340260E+01  0.22720707622E+02  0.00000000000E+00 0. -1.
</event>
<event>
 7    1  0.5121289E-013  0.5052886E+02  0.7816164E-02  0.1300439E+00
        -11   -1    0    0    0    0  0.00000000000E+00  0.00000000000E+00  0.45593999997E+02  0.45594000000E+02  0.51100000000E-03 0. -1.
         11   -1    0    0    0    0 -0.00000000000E+00 -0.00000000000E+00 -0.45593999997E+02  0.45594000000E+02  0.51100000000E-03 0.  1.
    9900012    2    1    2    0    0 -0.81758634845E+00  0.35243115063E+02  0.20258833893E+02  0.50528856410E+02  0.29999989543E+02 0.  0.
         12    1    1    2    0    0  0.81758634845E+00 -0.35243115063E+02 -0.20258833893E+02  0.40659143590E+02  0.00000000000E+00 0. -1.
         11    1    3    3    0    0 -0.44506691585E+01 -0.44968430148E+01  0.22479589332E+01  0.67144152898E+01  0.51100000000E-03 0. -1.
        -11    1    3    3    0    0  0.32998289537E+00  0.29008467165E+01  0.85297861735E+00  0.30416070040E+01  0.51100000000E-03 0.  1.
         12    1    3    3    0    0  0.33030999146E+01  0.36839111361E+02  0.17157896342E+02  0.40772834116E+02  0.00000000000E+00 0. -1.
</event>
<event>
 7    1  0.5121289E-013  0.5052886E+02  0.7816164E-02  0.1300439E+00
        -11   -1    0    0    0    0  0.00000000000E+00  0.00000000000E+00  0.45593999997E+02  0.45594000000E+02  0.51100000000E-03 0.  1.
         11   -1    0    0    0    0 -0.00000000000E+00 -0.00000000000E+00 -0.45593999997E+02  0.45594000000E+02  0.51100000000E-03 0. -1.
    9900012    2    1    2    0    0  0.23500737796E+02  0.74920136448E+01  0.32322603693E+02  0.50528860131E+02  0.30000000853E+02 0.  0.
         12    1    1    2    0    0 -0.23500737796E+02 -0.74920136448E+01 -0.32322603693E+02  0.40659139869E+02  0.00000000000E+00 0. -1.
         11    1    3    3    0    0  0.40465454796E-01 -0.51017501433E+01  0.13293859346E+01  0.52722631955E+01  0.51100000000E-03 0. -1.
        -11    1    3    3    0    0  0.22172590042E+01 -0.17135660802E+01  0.14557459039E+02  0.14824714504E+02  0.51100000000E-03 0.  1.
        -12    1    3    3    0    0  0.21243013337E+02  0.14307329868E+02  0.16435758719E+02  0.30431882431E+02  0.00000000000E+00 0.  1.
</event>
<event>
 7    1  0.5121289E-013  0.5052884E+02  0.7816164E-02  0.1300439E+00
        -11   -1    0    0    0    0  0.00000000000E+00  0.00000000000E+00  0.45593999997E+02  0.45594000000E+02  0.51100000000E-03 0. -1.
         11   -1    0    0    0    0 -0.00000000000E+00 -0.00000000000E+00 -0.45593999997E+02  0.45594000000E+02  0.51100000000E-03 0.  1.
    9900012    2    1    2    0    0  0.69373632904E+01  0.39931757221E+02  0.32395703177E+01  0.50528842852E+02  0.29999948332E+02 0.  0.
         12    1    1    2    0    0 -0.69373632904E+01 -0.39931757221E+02 -0.32395703177E+01  0.40659157148E+02  0.00000000000E+00 0. -1.
         11    1    3    3    0    0  0.11329008269E+02  0.14497665359E+02  0.96507844828E+01  0.20776582265E+02  0.51100000000E-03 0. -1.
        -11    1    3    3    0    0  0.17176743869E+01  0.98617340758E+01 -0.81850975397E+01  0.12930584916E+02  0.51100000000E-03 0.  1.
        -12    1    3    3    0    0 -0.61093193655E+01  0.15572357786E+02  0.17738833746E+01  0.16821675671E+02  0.00000000000E+00 0.  1.
</event>
<event>
 7    1  0.5121289E-013  0.5052883E+02  0.7816164E-02  0.1300439E+00
        -11   -1    0    0    0    0  0.00000000000E+00  0.00000000000E+00  0.45593999997E+02  0.45594000000E+02  0.51100000000E-03 0.  1.
         11   -1    0    0    0    0 -0.00000000000E+00 -0.00000000000E+00 -0.45593999997E+02  0.45594000000E+02  0.51100000000E-03 0. -1.
    9900012    2    1    2    0    0  0.41450296916E+01  0.17669178900E+02  0.36383877861E+02  0.50528834707E+02  0.29999923575E+02 0.  0.
         12    1    1    2    0    0 -0.41450296916E+01 -0.17669178900E+02 -0.36383877861E+02  0.40659165293E+02  0.00000000000E+00 0. -1.
         11    1    3    3    0    0  0.81369975956E+00  0.10339581996E+00  0.25558631144E+00  0.85914062761E+00  0.51100000000E-03 0. -1.
        -11    1    3    3    0    0  0.90227729175E+01  0.15974978632E+02  0.65101173463E+01  0.19467716906E+02  0.51100000000E-03 0.  1.
         12    1    3    3    0    0 -0.56914429855E+01  0.15908044481E+01  0.29618174203E+02  0.30201977173E+02  0.00000000000E+00 0. -1.
</event>
<event>
 7    1  0.5121289E-013  0.5052885E+02  0.7816164E-02  0.1300439E+00
        -11   -1    0    0    0    0  0.00000000000E+00  0.00000000000E+00  0.45593999997E+02  0.45594000000E+02  0.51100000000E-03 0.  1.
         11   -1    0    0    0    0 -0.00000000000E+00 -0.00000000000E+00 -0.45593999997E+02  0.45594000000E+02  0.51100000000E-03 0. -1.
    9900012    2    1    2    0    0 -0.29934158541E+02  0.94116894760E+01  0.25855992269E+02  0.50528854872E+02  0.29999984869E+02 0.  0.
         12    1    1    2    0    0  0.29934158541E+02 -0.94116894760E+01 -0.25855992269E+02  0.40659145128E+02  0.00000000000E+00 0. -1.
         11    1    3    3    0    0 -0.21017961819E+02  0.10574089301E+02  0.57767126066E+01  0.24226772223E+02  0.51100000000E-03 0. -1.
        -11    1    3    3    0    0 -0.21941663623E+01 -0.29254732978E+01 -0.12536296359E+01  0.38657919715E+01  0.51100000000E-03 0.  1.
         12    1    3    3    0    0 -0.67220303597E+01  0.17630734733E+01  0.21332909298E+02  0.22436290677E+02  0.00000000000E+00 0. -1.
</event>
<event>
 7    1  0.5121289E-013  0.5052886E+02  0.7816164E-02  0.1300439E+00
        -11   -1    0    0    0    0  0.00000000000E+00  0.00000000000E+00  0.45593999997E+02  0.45594000000E+02  0.51100000000E-03 0.  1.
         11   -1    0    0    0    0 -0.00000000000E+00 -0.00000000000E+00 -0.45593999997E+02  0.45594000000E+02  0.51100000000E-03 0. -1.
    9900012    2    1    2    0    0  0.18407409042E+02  0.34957012512E+02  0.96093650068E+01  0.50528864161E+02  0.30000013103E+02 0.  0.
         12    1    1    2    0    0 -0.18407409042E+02 -0.34957012512E+02 -0.96093650068E+01  0.40659135839E+02  0.00000000000E+00 0. -1.
         11    1    3    3    0    0  0.19664141357E+02  0.18925084512E+02  0.29439506438E+01  0.27450029595E+02  0.51100000000E-03 0. -1.
        -11    1    3    3    0    0  0.19308834077E+01  0.18160177944E+02  0.54974575966E+01  0.19072032246E+02  0.51100000000E-03 0.  1.
         12    1    3    3    0    0 -0.31876157229E+01 -0.21282499448E+01  0.11679567664E+01  0.40068023201E+01  0.00000000000E+00 0. -1.
</event>
<event>
 7    1  0.5121289E-013  0.5052885E+02  0.7816164E-02  0.1300439E+00
        -11   -1    0    0    0    0  0.00000000000E+00  0.00000000000E+00  0.45593999997E+02  0.45594000000E+02  0.51100000000E-03 0.  1.
         11   -1    0    0    0    0 -0.00000000000E+00 -0.00000000000E+00 -0.45593999997E+02  0.45594000000E+02  0.51100000000E-03 0. -1.
    9900012    2    1    2    0    0 -0.28186291163E+02  0.15246542522E+01  0.29263879038E+02  0.50528853471E+02  0.29999980610E+02 0.  0.
         12    1    1    2    0    0  0.28186291163E+02 -0.15246542522E+01 -0.29263879038E+02  0.40659146529E+02  0.00000000000E+00 0. -1.
         11    1    3    3    0    0 -0.18686419335E+01  0.36915802178E+01  0.13783299182E+01  0.43611215077E+01  0.51100000000E-03 0. -1.
        -11    1    3    3    0    0 -0.29014651608E+01 -0.48529293095E+01 -0.37001198398E+01  0.67572413049E+01  0.51100000000E-03 0.  1.
        -12    1    3    3    0    0 -0.23416184069E+02  0.26860033439E+01  0.31585668960E+02  0.39410490658E+02  0.00000000000E+00 0.  1.
</event>
<event>
 7    1  0.5121289E-013  0.5052885E+02  0.7816164E-02  0.1300439E+00
        -11   -1    0    0    0    0  0.00000000000E+00  0.00000000000E+00  0.45593999997E+02  0.45594000000E+02  0.51100000000E-03 0.  1.
         11   -1    0    0    0    0 -0.00000000000E+00 -0.00000000000E+00 -0.45593999997E+02  0.45594000000E+02  0.51100000000E-03 0. -1.
    9900012    2    1    2    0    0 -0.24616287386E+02 -0.30803700478E+02  0.99165046535E+01  0.50528848111E+02  0.29999964317E+02 0.  0.
         12    1    1    2    0    0  0.24616287386E+02  0.30803700478E+02 -0.99165046535E+01  0.40659151889E+02  0.00000000000E+00 0. -1.
         11    1    3    3    0    0 -0.24141911156E+01 -0.10623159164E+02 -0.49330924092E+01  0.11958897539E+02  0.51100000000E-03 0. -1.
        -11    1    3    3    0    0 -0.19605228865E+01 -0.14148232726E+02  0.40430073109E+01  0.14844596581E+02  0.51100000000E-03 0.  1.
         12    1    3    3    0    0 -0.20241573384E+02 -0.60323085885E+01  0.10806589752E+02  0.23725353991E+02  0.00000000000E+00 0. -1.
</event>
<event>
 7    1  0.5121289E-013  0.5052887E+02  0.7816164E-02  0.1300439E+00
        -11   -1    0    0    0    0  0.00000000000E+00  0.00000000000E+00  0.45593999997E+02  0.45594000000E+02  0.51100000000E-03 0. -1.
         11   -1    0    0    0    0 -0.00000000000E+00 -0.00000000000E+00 -0.45593999997E+02  0.45594000000E+02  0.51100000000E-03 0.  1.
    9900012    2    1    2    0    0 -0.40184019709E+02  0.48539218586E+00 -0.61784899929E+01  0.50528870839E+02  0.30000033403E+02 0.  0.
         12    1    1    2    0    0  0.40184019709E+02 -0.48539218586E+00  0.61784899929E+01  0.40659129161E+02  0.00000000000E+00 0. -1.
         11    1    3    3    0    0 -0.10276936223E+02 -0.45122497629E+01  0.56324640272E+01  0.12557884668E+02  0.51100000000E-03 0. -1.
        -11    1    3    3    0    0 -0.17237545954E+02 -0.71594804119E+00  0.31642139650E+01  0.17540177376E+02  0.51100000000E-03 0.  1.
        -12    1    3    3    0    0 -0.12669537532E+02  0.57135899899E+01 -0.14975167985E+02  0.20430808795E+02  0.00000000000E+00 0.  1.
</event>
<event>
 7    1  0.5121289E-013  0.5052886E+02  0.7816164E-02  0.1300439E+00
        -11   -1    0    0    0    0  0.00000000000E+00  0.00000000000E+00  0.45593999997E+02  0.45594000000E+02  0.51100000000E-03 0.  1.
         11   -1    0    0    0    0 -0.00000000000E+00 -0.00000000000E+00 -0.45593999997E+02  0.45594000000E+02  0.51100000000E-03 0. -1.
    9900012    2    1    2    0    0  0.21144950620E+02  0.17804877851E+02  0.29816825216E+02  0.50528859847E+02  0.29999999990E+02 0.  0.
         12    1    1    2    0    0 -0.21144950620E+02 -0.17804877851E+02 -0.29816825216E+02  0.40659140153E+02  0.00000000000E+00 0. -1.
         11    1    3    3    0    0  0.56748694041E+01  0.54813365903E+01  0.21233979470E+01  0.81705576720E+01  0.51100000000E-03 0. -1.
        -11    1    3    3    0    0  0.15565870220E+02  0.18245145928E+02  0.14831830620E+02  0.28198667796E+02  0.51100000000E-03 0.  1.
         12    1    3    3    0    0 -0.95789004016E-01 -0.59216046674E+01  0.12861596650E+02  0.14159634379E+02  0.00000000000E+00 0. -1.
</event>
<event>
 7    1  0.5121289E-013  0.5052887E+02  0.7816164E-02  0.1300439E+00
        -11   -1    0    0    0    0  0.00000000000E+00  0.00000000000E+00  0.45593999997E+02  0.45594000000E+02  0.51100000000E-03 0.  1.
         11   -1    0    0    0    0 -0.00000000000E+00 -0.00000000000E+00 -0.45593999997E+02  0.45594000000E+02  0.51100000000E-03 0. -1.
    9900012    2    1    2    0    0 -0.75517757763E+01  0.39750935430E+02  0.39998334657E+01  0.50528869996E+02  0.30000030841E+02 0.  0.
         12    1    1    2    0    0  0.75517757763E+01 -0.39750935430E+02 -0.39998334657E+01  0.40659130004E+02  0.00000000000E+00 0. -1.
         11    1    3    3    0    0 -0.10756326550E+02  0.27789058217E+02  0.13712925667E+02  0.32802052498E+02  0.51100000000E-03 0.  1.
        -11    1    3    3    0    0  0.20995448500E+01 -0.57814181695E+00 -0.20405786626E+01  0.29843421514E+01  0.51100000000E-03 0. -1.
        -12    1    3    3    0    0  0.11050059240E+01  0.12540019030E+02 -0.76725135392E+01  0.14742475347E+02  0.00000000000E+00 0.  1.
</event>
<event>
 7    1  0.5121289E-013  0.5052889E+02  0.7816164E-02  0.1300439E+00
        -11   -1    0    0    0    0  0.00000000000E+00  0.00000000000E+00  0.45593999997E+02  0.45594000000E+02  0.51100000000E-03 0.  1.
         11   -1    0    0    0    0 -0.00000000000E+00 -0.00000000000E+00 -0.45593999997E+02  0.45594000000E+02  0.51100000000E-03 0. -1.
    9900012    2    1    2    0    0  0.28550424277E+02 -0.21696756553E+02  0.19164740880E+02  0.50528889529E+02  0.30000090212E+02 0.  0.
         12    1    1    2    0    0 -0.28550424277E+02  0.21696756553E+02 -0.19164740880E+02  0.40659110471E+02  0.00000000000E+00 0. -1.
         11    1    3    3    0    0  0.87143013811E+00  0.34993572773E+01  0.25066971272E+00  0.36149311758E+01  0.51100000000E-03 0. -1.
        -11    1    3    3    0    0  0.15228600223E+02 -0.24594169441E+02  0.18703726754E+02  0.34447247059E+02  0.51100000000E-03 0.  1.
         12    1    3    3    0    0  0.12450393916E+02 -0.60194438901E+00  0.21034441353E+00  0.12466711294E+02  0.00000000000E+00 0. -1.
</event>
<event>
 7    1  0.5121289E-013  0.5052886E+02  0.7816164E-02  0.1300439E+00
        -11   -1    0    0    0    0  0.00000000000E+00  0.00000000000E+00  0.45593999997E+02  0.45594000000E+02  0.51100000000E-03 0.  1.
         11   -1    0    0    0    0 -0.00000000000E+00 -0.00000000000E+00 -0.45593999997E+02  0.45594000000E+02  0.51100000000E-03 0. -1.
    9900012    2    1    2    0    0  0.76756739739E+01 -0.39914048059E+02 -0.10577095549E+01  0.50528856466E+02  0.29999989713E+02 0.  0.
         12    1    1    2    0    0 -0.76756739739E+01  0.39914048059E+02  0.10577095549E+01  0.40659143534E+02  0.00000000000E+00 0. -1.
         11    1    3    3    0    0  0.74894536077E+01 -0.60989366843E+01  0.87618921096E+01  0.13040693909E+02  0.51100000000E-03 0. -1.
        -11    1    3    3    0    0 -0.28168075989E+01 -0.80310340981E+00 -0.47485051553E-01  0.29294428186E+01  0.51100000000E-03 0.  1.
        -12    1    3    3    0    0  0.30030279652E+01 -0.33012007965E+02 -0.97721166129E+01  0.34558719738E+02  0.00000000000E+00 0.  1.
</event>
<event>
 7    1  0.5121289E-013  0.5052884E+02  0.7816164E-02  0.1300439E+00
        -11   -1    0    0    0    0  0.00000000000E+00  0.00000000000E+00  0.45593999997E+02  0.45594000000E+02  0.51100000000E-03 0. -1.
         11   -1    0    0    0    0 -0.00000000000E+00 -0.00000000000E+00 -0.45593999997E+02  0.45594000000E+02  0.51100000000E-03 0.  1.
    9900012    2    1    2    0    0 -0.28390696831E+02 -0.26082833489E+02 -0.12915924087E+02  0.50528844028E+02  0.29999951906E+02 0.  0.
         12    1    1    2    0    0  0.28390696831E+02  0.26082833489E+02  0.12915924087E+02  0.40659155972E+02  0.00000000000E+00 0. -1.
         11    1    3    3    0    0  0.18569486852E+01 -0.27278565052E+01  0.36120785170E+01  0.48925015081E+01  0.51100000000E-03 0. -1.
        -11    1    3    3    0    0 -0.25576214728E+02 -0.24389127659E+02 -0.19134052154E+02  0.40188110927E+02  0.51100000000E-03 0.  1.
         12    1    3    3    0    0 -0.46714307881E+01  0.10341506751E+01  0.26060495502E+01  0.54482315924E+01  0.00000000000E+00 0. -1.
</event>
<event>
 7    1  0.5121289E-013  0.5052886E+02  0.7816164E-02  0.1300439E+00
        -11   -1    0    0    0    0  0.00000000000E+00  0.00000000000E+00  0.45593999997E+02  0.45594000000E+02  0.51100000000E-03 0.  1.
         11   -1    0    0    0    0 -0.00000000000E+00 -0.00000000000E+00 -0.45593999997E+02  0.45594000000E+02  0.51100000000E-03 0. -1.
    9900012    2    1    2    0    0 -0.28206306822E+02 -0.12681840600E+02  0.26395849818E+02  0.50528859414E+02  0.29999998674E+02 0.  0.
         12    1    1    2    0    0  0.28206306822E+02  0.12681840600E+02 -0.26395849818E+02  0.40659140586E+02  0.00000000000E+00 0. -1.
         11    1    3    3    0    0 -0.89649325701E+00  0.32682355253E+01  0.63540680624E+01  0.72013363212E+01  0.51100000000E-03 0. -1.
        -11    1    3    3    0    0 -0.71717474699E+01 -0.68776035008E+01  0.18728410130E+02  0.21201149449E+02  0.51100000000E-03 0.  1.
         12    1    3    3    0    0 -0.20138066096E+02 -0.90724726244E+01  0.13133716255E+01  0.22126373644E+02  0.00000000000E+00 0. -1.
</event>
<event>
 7    1  0.5121289E-013  0.5052887E+02  0.7816164E-02  0.1300439E+00
        -11   -1    0    0    0    0  0.00000000000E+00  0.00000000000E+00  0.45593999997E+02  0.45594000000E+02  0.51100000000E-03 0.  1.
         11   -1    0    0    0    0 -0.00000000000E+00 -0.00000000000E+00 -0.45593999997E+02  0.45594000000E+02  0.51100000000E-03 0. -1.
    9900012    2    1    2    0    0 -0.13710733052E+02 -0.81429700337E+01  0.37401508696E+02  0.50528868006E+02  0.30000024791E+02 0.  0.
         12    1    1    2    0    0  0.13710733052E+02  0.81429700337E+01 -0.37401508696E+02  0.40659131994E+02  0.00000000000E+00 0. -1.
         11    1    3    3    0    0 -0.41473472501E+01 -0.52307151376E+01  0.63045479993E+01  0.91819494554E+01  0.51100000000E-03 0. -1.
        -11    1    3    3    0    0 -0.16548273049E+02 -0.21749832674E+01  0.10827386092E+02  0.19894928574E+02  0.51100000000E-03 0.  1.
         12    1    3    3    0    0  0.69848872471E+01 -0.73727162865E+00  0.20269574604E+02  0.21451989976E+02  0.00000000000E+00 0. -1.
</event>
<event>
 7    1  0.5121289E-013  0.5052886E+02  0.7816164E-02  0.1300439E+00
        -11   -1    0    0    0    0  0.00000000000E+00  0.00000000000E+00  0.45593999997E+02  0.45594000000E+02  0.51100000000E-03 0. -1.
         11   -1    0    0    0    0 -0.00000000000E+00 -0.00000000000E+00 -0.45593999997E+02  0.45594000000E+02  0.51100000000E-03 0.  1.
    9900012    2    1    2    0    0 -0.38015042486E+02 -0.84675336845E+01 -0.11675763178E+02  0.50528855547E+02  0.29999986920E+02 0.  0.
         12    1    1    2    0    0  0.38015042486E+02  0.84675336845E+01  0.11675763178E+02  0.40659144453E+02  0.00000000000E+00 0. -1.
         11    1    3    3    0    0 -0.92757389035E+01  0.54721646520E+01 -0.14040767258E+02  0.17695396679E+02  0.51100000000E-03 0. -1.
        -11    1    3    3    0    0 -0.26303319034E+01  0.51217672224E+00  0.12854701955E+01  0.29721044398E+01  0.51100000000E-03 0.  1.
        -12    1    3    3    0    0 -0.26108971679E+02 -0.14451875059E+02  0.10795338849E+01  0.29861354428E+02  0.00000000000E+00 0.  1.
</event>
<event>
 7    1  0.5121289E-013  0.5052886E+02  0.7816164E-02  0.1300439E+00
        -11   -1    0    0    0    0  0.00000000000E+00  0.00000000000E+00  0.45593999997E+02  0.45594000000E+02  0.51100000000E-03 0.  1.
         11   -1    0    0    0    0 -0.00000000000E+00 -0.00000000000E+00 -0.45593999997E+02  0.45594000000E+02  0.51100000000E-03 0. -1.
    9900012    2    1    2    0    0 -0.35253460802E+02  0.17917791062E+02  0.94505159039E+01  0.50528856061E+02  0.29999988482E+02 0.  0.
         12    1    1    2    0    0  0.35253460802E+02 -0.17917791062E+02 -0.94505159039E+01  0.40659143939E+02  0.00000000000E+00 0. -1.
         11    1    3    3    0    0 -0.44013599188E+01 -0.42768591530E+01  0.21336029948E+01  0.64973652622E+01  0.51100000000E-03 0. -1.
        -11    1    3    3    0    0 -0.28517615458E+02  0.13285371645E+02 -0.12052946028E+01  0.31483459570E+02  0.51100000000E-03 0.  1.
         12    1    3    3    0    0 -0.23344854249E+01  0.89092785698E+01  0.85222075118E+01  0.12548031228E+02  0.00000000000E+00 0. -1.
</event>
<event>
 7    1  0.5121289E-013  0.5052882E+02  0.7816164E-02  0.1300439E+00
        -11   -1    0    0    0    0  0.00000000000E+00  0.00000000000E+00  0.45593999997E+02  0.45594000000E+02  0.51100000000E-03 0.  1.
         11   -1    0    0    0    0 -0.00000000000E+00 -0.00000000000E+00 -0.45593999997E+02  0.45594000000E+02  0.51100000000E-03 0. -1.
    9900012    2    1    2    0    0  0.15897837884E+02 -0.37420607101E+02 -0.35417390479E+00  0.50528824844E+02  0.29999893595E+02 0.  0.
         12    1    1    2    0    0 -0.15897837884E+02  0.37420607101E+02  0.35417390479E+00  0.40659175156E+02  0.00000000000E+00 0. -1.
         11    1    3    3    0    0  0.77281366126E+01 -0.17748693274E+02  0.91272638279E+01  0.21402036204E+02  0.51100000000E-03 0. -1.
        -11    1    3    3    0    0  0.36177126024E+00  0.24621601660E+00  0.38791556828E+01  0.39037609871E+01  0.51100000000E-03 0.  1.
         12    1    3    3    0    0  0.78079300113E+01 -0.19918129844E+02 -0.13360593416E+02  0.25223027652E+02  0.00000000000E+00 0. -1.
</event>
<event>
 7    1  0.5121289E-013  0.5052886E+02  0.7816164E-02  0.1300439E+00
        -11   -1    0    0    0    0  0.00000000000E+00  0.00000000000E+00  0.45593999997E+02  0.45594000000E+02  0.51100000000E-03 0.  1.
         11   -1    0    0    0    0 -0.00000000000E+00 -0.00000000000E+00 -0.45593999997E+02  0.45594000000E+02  0.51100000000E-03 0. -1.
    9900012    2    1    2    0    0  0.28771499407E+02 -0.69415254845E+01  0.27877977977E+02  0.50528860680E+02  0.30000002523E+02 0.  0.
         12    1    1    2    0    0 -0.28771499407E+02  0.69415254845E+01 -0.27877977977E+02  0.40659139320E+02  0.00000000000E+00 0. -1.
         11    1    3    3    0    0  0.87303295205E+01 -0.24483034337E+01 -0.36241349042E+01  0.97645889471E+01  0.51100000000E-03 0. -1.
        -11    1    3    3    0    0  0.93369223302E+00 -0.19229094603E+01 -0.14524444823E+01  0.25843678557E+01  0.51100000000E-03 0.  1.
        -12    1    3    3    0    0  0.19107477653E+02 -0.25703125905E+01  0.32954557363E+02  0.38179903877E+02  0.00000000000E+00 0.  1.
</event>
<event>
 7    1  0.5121289E-013  0.5052886E+02  0.7816164E-02  0.1300439E+00
        -11   -1    0    0    0    0  0.00000000000E+00  0.00000000000E+00  0.45593999997E+02  0.45594000000E+02  0.51100000000E-03 0.  1.
         11   -1    0    0    0    0 -0.00000000000E+00 -0.00000000000E+00 -0.45593999997E+02  0.45594000000E+02  0.51100000000E-03 0. -1.
    9900012    2    1    2    0    0  0.26525772580E+02  0.27097954127E+02  0.14671408124E+02  0.50528856562E+02  0.29999990005E+02 0.  0.
         12    1    1    2    0    0 -0.26525772580E+02 -0.27097954127E+02 -0.14671408124E+02  0.40659143438E+02  0.00000000000E+00 0. -1.
         11    1    3    3    0    0 -0.24888515955E+01  0.20641176015E+01  0.42291260252E+00  0.32609537052E+01  0.51100000000E-03 0.  1.
        -11    1    3    3    0    0  0.24154005164E+01 -0.11653771970E+01 -0.46910611264E+01  0.54035468369E+01  0.51100000000E-03 0. -1.
        -12    1    3    3    0    0  0.26599223659E+02  0.26199213722E+02  0.18939556647E+02  0.41864356019E+02  0.00000000000E+00 0.  1.
</event>
<event>
 7    1  0.5121289E-013  0.5052886E+02  0.7816164E-02  0.1300439E+00
        -11   -1    0    0    0    0  0.00000000000E+00  0.00000000000E+00  0.45593999997E+02  0.45594000000E+02  0.51100000000E-03 0.  1.
         11   -1    0    0    0    0 -0.00000000000E+00 -0.00000000000E+00 -0.45593999997E+02  0.45594000000E+02  0.51100000000E-03 0. -1.
    9900012    2    1    2    0    0  0.88182537039E+01  0.24852715483E+01  0.39613472036E+02  0.50528864006E+02  0.30000012633E+02 0.  0.
         12    1    1    2    0    0 -0.88182537039E+01 -0.24852715483E+01 -0.39613472036E+02  0.40659135994E+02  0.00000000000E+00 0. -1.
         11    1    3    3    0    0  0.63811914385E+01  0.64989333305E+01  0.72712661100E+01  0.11654486248E+02  0.51100000000E-03 0. -1.
        -11    1    3    3    0    0  0.80104696610E+01  0.58424709276E+01  0.11747079501E+02  0.15371921409E+02  0.51100000000E-03 0.  1.
        -12    1    3    3    0    0 -0.55734073956E+01 -0.98561327099E+01  0.20595126424E+02  0.23502456349E+02  0.00000000000E+00 0.  1.
</event>
<event>
 7    1  0.5121289E-013  0.5052887E+02  0.7816164E-02  0.1300439E+00
        -11   -1    0    0    0    0  0.00000000000E+00  0.00000000000E+00  0.45593999997E+02  0.45594000000E+02  0.51100000000E-03 0.  1.
         11   -1    0    0    0    0 -0.00000000000E+00 -0.00000000000E+00 -0.45593999997E+02  0.45594000000E+02  0.51100000000E-03 0. -1.
    9900012    2    1    2    0    0  0.19458004581E+01 -0.39091597875E+02  0.11010271654E+02  0.50528865162E+02  0.30000016148E+02 0.  0.
         12    1    1    2    0    0 -0.19458004581E+01  0.39091597875E+02 -0.11010271654E+02  0.40659134838E+02  0.00000000000E+00 0. -1.
         11    1    3    3    0    0  0.10366283673E+02 -0.80843463102E+01 -0.30309882142E+01  0.13490862918E+02  0.51100000000E-03 0. -1.
        -11    1    3    3    0    0 -0.54339773558E+01 -0.48360444479E+01  0.61906584903E+01  0.95519468492E+01  0.51100000000E-03 0.  1.
        -12    1    3    3    0    0 -0.29865058589E+01 -0.26171207117E+02  0.78506013775E+01  0.27486055395E+02  0.00000000000E+00 0.  1.
</event>
<event>
 7    1  0.5121289E-013  0.5052886E+02  0.7816164E-02  0.1300439E+00
        -11   -1    0    0    0    0  0.00000000000E+00  0.00000000000E+00  0.45593999997E+02  0.45594000000E+02  0.51100000000E-03 0. -1.
         11   -1    0    0    0    0 -0.00000000000E+00 -0.00000000000E+00 -0.45593999997E+02  0.45594000000E+02  0.51100000000E-03 0.  1.
    9900012    2    1    2    0    0  0.40612866227E+02  0.17235953194E+01  0.88885417713E+00  0.50528859014E+02  0.29999997458E+02 0.  0.
         12    1    1    2    0    0 -0.40612866227E+02 -0.17235953194E+01 -0.88885417713E+00  0.40659140986E+02  0.00000000000E+00 0. -1.
         11    1    3    3    0    0 -0.34343510514E+01 -0.54687647778E+00  0.30577540480E+01  0.46307344024E+01  0.51100000000E-03 0. -1.
        -11    1    3    3    0    0 -0.14261473177E+00  0.15969535746E+01  0.31279929680E+00  0.16335370649E+01  0.51100000000E-03 0.  1.
        -12    1    3    3    0    0  0.44189832010E+02  0.67351822258E+00 -0.24816991677E+01  0.44264587546E+02  0.00000000000E+00 0.  1.
</event>
<event>
 7    1  0.5121289E-013  0.5052888E+02  0.7816164E-02  0.1300439E+00
        -11   -1    0    0    0    0  0.00000000000E+00  0.00000000000E+00  0.45593999997E+02  0.45594000000E+02  0.51100000000E-03 0.  1.
         11   -1    0    0    0    0 -0.00000000000E+00 -0.00000000000E+00 -0.45593999997E+02  0.45594000000E+02  0.51100000000E-03 0. -1.
    9900012    2    1    2    0    0  0.38013915117E+02 -0.17105168917E+01  0.14324133904E+02  0.50528875284E+02  0.30000046914E+02 0.  0.
         12    1    1    2    0    0 -0.38013915117E+02  0.17105168917E+01 -0.14324133904E+02  0.40659124716E+02  0.00000000000E+00 0. -1.
         11    1    3    3    0    0  0.23124356629E+02 -0.68262686302E+01  0.92287763866E+01  0.25816741211E+02  0.51100000000E-03 0. -1.
        -11    1    3    3    0    0  0.13279154641E+02  0.67229239530E+01  0.10919131214E+02  0.18459715089E+02  0.51100000000E-03 0.  1.
         12    1    3    3    0    0  0.16104038473E+01 -0.16071722144E+01 -0.58237736967E+01  0.62524189838E+01  0.00000000000E+00 0. -1.
</event>
<event>
 7    1  0.5121289E-013  0.5052885E+02  0.7816164E-02  0.1300439E+00
        -11   -1    0    0    0    0  0.00000000000E+00  0.00000000000E+00  0.45593999997E+02  0.45594000000E+02  0.51100000000E-03 0.  1.
         11   -1    0    0    0    0 -0.00000000000E+00 -0.00000000000E+00 -0.45593999997E+02  0.45594000000E+02  0.51100000000E-03 0. -1.
    9900012    2    1    2    0    0  0.22620611296E+02  0.59847526333E+01  0.33251419975E+02  0.50528852814E+02  0.29999978615E+02 0.  0.
         12    1    1    2    0    0 -0.22620611296E+02 -0.59847526333E+01 -0.33251419975E+02  0.40659147186E+02  0.00000000000E+00 0. -1.
         11    1    3    3    0    0  0.70040369338E+01  0.84463173668E+01  0.32410257304E+01  0.11441200045E+02  0.51100000000E-03 0. -1.
        -11    1    3    3    0    0  0.14585059801E+02  0.39779382785E+01  0.10214314562E+02  0.18245004373E+02  0.51100000000E-03 0.  1.
        -12    1    3    3    0    0  0.10315145609E+01 -0.64395030120E+01  0.19796079683E+02  0.20842648396E+02  0.00000000000E+00 0.  1.
</event>
<event>
 7    1  0.5121289E-013  0.5052886E+02  0.7816164E-02  0.1300439E+00
        -11   -1    0    0    0    0  0.00000000000E+00  0.00000000000E+00  0.45593999997E+02  0.45594000000E+02  0.51100000000E-03 0.  1.
         11   -1    0    0    0    0 -0.00000000000E+00 -0.00000000000E+00 -0.45593999997E+02  0.45594000000E+02  0.51100000000E-03 0. -1.
    9900012    2    1    2    0    0 -0.13763822454E+02  0.37526794741E+02 -0.74473244916E+01  0.50528858664E+02  0.29999996396E+02 0.  0.
         12    1    1    2    0    0  0.13763822454E+02 -0.37526794741E+02  0.74473244916E+01  0.40659141336E+02  0.00000000000E+00 0. -1.
         11    1    3    3    0    0 -0.88006769926E+01  0.10199591762E+01 -0.32754497571E+01  0.94456764513E+01  0.51100000000E-03 0. -1.
        -11    1    3    3    0    0 -0.81340860547E+01  0.81205732706E+01  0.24748125609E+01  0.11757200503E+02  0.51100000000E-03 0.  1.
         12    1    3    3    0    0  0.31709405937E+01  0.28386262294E+02 -0.66466872954E+01  0.29325981710E+02  0.00000000000E+00 0. -1.
</event>
<event>
 7    1  0.5121289E-013  0.5052886E+02  0.7816164E-02  0.1300439E+00
        -11   -1    0    0    0    0  0.00000000000E+00  0.00000000000E+00  0.45593999997E+02  0.45594000000E+02  0.51100000000E-03 0. -1.
         11   -1    0    0    0    0 -0.00000000000E+00 -0.00000000000E+00 -0.45593999997E+02  0.45594000000E+02  0.51100000000E-03 0.  1.
    9900012    2    1    2    0    0  0.34938700207E+02  0.10639034544E+02 -0.17867959203E+02  0.50528858417E+02  0.29999995643E+02 0.  0.
         12    1    1    2    0    0 -0.34938700207E+02 -0.10639034544E+02  0.17867959203E+02  0.40659141583E+02  0.00000000000E+00 0. -1.
         11    1    3    3    0    0  0.94707809951E+01  0.89791967163E+01 -0.11713839360E+02  0.17536695787E+02  0.51100000000E-03 0. -1.
        -11    1    3    3    0    0  0.12414878597E+02  0.65954078140E+00 -0.13193534129E+02  0.18128252748E+02  0.51100000000E-03 0.  1.
        -12    1    3    3    0    0  0.13053040615E+02  0.10002970467E+01  0.70394142854E+01  0.14863909881E+02  0.00000000000E+00 0.  1.
</event>
<event>
 7    1  0.5121289E-013  0.5052886E+02  0.7816164E-02  0.1300439E+00
        -11   -1    0    0    0    0  0.00000000000E+00  0.00000000000E+00  0.45593999997E+02  0.45594000000E+02  0.51100000000E-03 0.  1.
         11   -1    0    0    0    0 -0.00000000000E+00 -0.00000000000E+00 -0.45593999997E+02  0.45594000000E+02  0.51100000000E-03 0. -1.
    9900012    2    1    2    0    0 -0.31558625650E+02 -0.96997813945E+01  0.23730418069E+02  0.50528863834E+02  0.30000012109E+02 0.  0.
         12    1    1    2    0    0  0.31558625650E+02  0.96997813945E+01 -0.23730418069E+02  0.40659136166E+02  0.00000000000E+00 0. -1.
         11    1    3    3    0    0 -0.59548715552E+01 -0.12261734536E+02  0.17004457887E+02  0.21793627908E+02  0.51100000000E-03 0. -1.
        -11    1    3    3    0    0 -0.67164390492E+01 -0.38566848648E+01  0.36107082140E+01  0.85452785627E+01  0.51100000000E-03 0.  1.
        -12    1    3    3    0    0 -0.18887315046E+02  0.64186380064E+01  0.31152519680E+01  0.20189957363E+02  0.00000000000E+00 0.  1.
</event>
<event>
 7    1  0.5121289E-013  0.5052874E+02  0.7816164E-02  0.1300439E+00
        -11   -1    0    0    0    0  0.00000000000E+00  0.00000000000E+00  0.45593999997E+02  0.45594000000E+02  0.51100000000E-03 0.  1.
         11   -1    0    0    0    0 -0.00000000000E+00 -0.00000000000E+00 -0.45593999997E+02  0.45594000000E+02  0.51100000000E-03 0. -1.
    9900012    2    1    2    0    0 -0.38937875234E+02  0.11684157645E+02 -0.70526509268E+00  0.50528744394E+02  0.29999649057E+02 0.  0.
         12    1    1    2    0    0  0.38937875234E+02 -0.11684157645E+02  0.70526509268E+00  0.40659255606E+02  0.00000000000E+00 0. -1.
         11    1    3    3    0    0 -0.10800579125E+02  0.57902184397E+00  0.86477424685E+01  0.13848148822E+02  0.51100000000E-03 0. -1.
        -11    1    3    3    0    0 -0.54790495170E+01 -0.48437672776E+01  0.35196531223E+00  0.73216080810E+01  0.51100000000E-03 0.  1.
         12    1    3    3    0    0 -0.22658246592E+02  0.15948903078E+02 -0.97049728734E+01  0.29358987491E+02  0.00000000000E+00 0. -1.
</event>
<event>
 7    1  0.5121289E-013  0.5052885E+02  0.7816164E-02  0.1300439E+00
        -11   -1    0    0    0    0  0.00000000000E+00  0.00000000000E+00  0.45593999997E+02  0.45594000000E+02  0.51100000000E-03 0. -1.
         11   -1    0    0    0    0 -0.00000000000E+00 -0.00000000000E+00 -0.45593999997E+02  0.45594000000E+02  0.51100000000E-03 0.  1.
    9900012    2    1    2    0    0 -0.21076830865E+02  0.59264382513E+01 -0.34260927223E+02  0.50528848461E+02  0.29999965383E+02 0.  0.
         12    1    1    2    0    0  0.21076830865E+02 -0.59264382513E+01  0.34260927223E+02  0.40659151539E+02  0.00000000000E+00 0. -1.
         11    1    3    3    0    0  0.21477207563E+01  0.12373235682E+01  0.16521603295E+01  0.29788098420E+01  0.51100000000E-03 0. -1.
        -11    1    3    3    0    0  0.92726759873E+00 -0.34015009114E+01 -0.51468841154E-02  0.35256290788E+01  0.51100000000E-03 0.  1.
        -12    1    3    3    0    0 -0.24151819220E+02  0.80906155945E+01 -0.35907940668E+02  0.44024409540E+02  0.00000000000E+00 0.  1.
</event>
<event>
 7    1  0.5121289E-013  0.5052879E+02  0.7816164E-02  0.1300439E+00
        -11   -1    0    0    0    0  0.00000000000E+00  0.00000000000E+00  0.45593999997E+02  0.45594000000E+02  0.51100000000E-03 0.  1.
         11   -1    0    0    0    0 -0.00000000000E+00 -0.00000000000E+00 -0.45593999997E+02  0.45594000000E+02  0.51100000000E-03 0. -1.
    9900012    2    1    2    0    0  0.12553923209E+02  0.14041790347E+01  0.38647106563E+02  0.50528787607E+02  0.29999780410E+02 0.  0.
         12    1    1    2    0    0 -0.12553923209E+02 -0.14041790347E+01 -0.38647106563E+02  0.40659212393E+02  0.00000000000E+00 0. -1.
         11    1    3    3    0    0 -0.91011502733E+00 -0.82392834543E+01  0.21083105012E+02  0.22654170001E+02  0.51100000000E-03 0.  1.
        -11    1    3    3    0    0 -0.21524252087E+01  0.48549744256E+01  0.42910244756E+01  0.68276351882E+01  0.51100000000E-03 0. -1.
        -12    1    3    3    0    0  0.15616463445E+02  0.47884880634E+01  0.13272977075E+02  0.21046982418E+02  0.00000000000E+00 0.  1.
</event>
<event>
 7    1  0.5121289E-013  0.5052888E+02  0.7816164E-02  0.1300439E+00
        -11   -1    0    0    0    0  0.00000000000E+00  0.00000000000E+00  0.45593999997E+02  0.45594000000E+02  0.51100000000E-03 0. -1.
         11   -1    0    0    0    0 -0.00000000000E+00 -0.00000000000E+00 -0.45593999997E+02  0.45594000000E+02  0.51100000000E-03 0.  1.
    9900012    2    1    2    0    0  0.75926798025E+01  0.32306291278E+02  0.23490831438E+02  0.50528875509E+02  0.30000047597E+02 0.  0.
         12    1    1    2    0    0 -0.75926798025E+01 -0.32306291278E+02 -0.23490831438E+02  0.40659124491E+02  0.00000000000E+00 0. -1.
         11    1    3    3    0    0 -0.37494194932E+01 -0.73850074265E+00  0.14793821195E+01  0.40978166869E+01  0.51100000000E-03 0. -1.
        -11    1    3    3    0    0  0.10213141548E+02  0.24252599995E+02  0.25743233810E+02  0.36813189947E+02  0.51100000000E-03 0.  1.
         12    1    3    3    0    0  0.11289577473E+01  0.87921920258E+01 -0.37317844915E+01  0.96178688754E+01  0.00000000000E+00 0. -1.
</event>
<event>
 7    1  0.5121289E-013  0.5052886E+02  0.7816164E-02  0.1300439E+00
        -11   -1    0    0    0    0  0.00000000000E+00  0.00000000000E+00  0.45593999997E+02  0.45594000000E+02  0.51100000000E-03 0.  1.
         11   -1    0    0    0    0 -0.00000000000E+00 -0.00000000000E+00 -0.45593999997E+02  0.45594000000E+02  0.51100000000E-03 0. -1.
    9900012    2    1    2    0    0 -0.25801693433E+02  0.31344579733E+02  0.22260411194E+01  0.50528864228E+02  0.30000013308E+02 0.  0.
         12    1    1    2    0    0  0.25801693433E+02 -0.31344579733E+02 -0.22260411194E+01  0.40659135772E+02  0.00000000000E+00 0. -1.
         11    1    3    3    0    0 -0.87013934052E+01  0.93556091929E+01  0.12047828852E+02  0.17561089114E+02  0.51100000000E-03 0.  1.
        -11    1    3    3    0    0 -0.17936858826E+01  0.65611277200E+00  0.31487026508E+01  0.36826785984E+01  0.51100000000E-03 0. -1.
         12    1    3    3    0    0 -0.15306614145E+02  0.21332857768E+02 -0.12970490384E+02  0.29285096516E+02  0.00000000000E+00 0. -1.
</event>
<event>
 7    1  0.5121289E-013  0.5052885E+02  0.7816164E-02  0.1300439E+00
        -11   -1    0    0    0    0  0.00000000000E+00  0.00000000000E+00  0.45593999997E+02  0.45594000000E+02  0.51100000000E-03 0.  1.
         11   -1    0    0    0    0 -0.00000000000E+00 -0.00000000000E+00 -0.45593999997E+02  0.45594000000E+02  0.51100000000E-03 0. -1.
    9900012    2    1    2    0    0 -0.20401305422E+02 -0.25189388158E+01  0.35080026381E+02  0.50528848920E+02  0.29999966777E+02 0.  0.
         12    1    1    2    0    0  0.20401305422E+02  0.25189388158E+01 -0.35080026381E+02  0.40659151080E+02  0.00000000000E+00 0. -1.
         11    1    3    3    0    0 -0.15564906914E+02 -0.54296997948E+01  0.19415782014E+02  0.25469993297E+02  0.51100000000E-03 0. -1.
        -11    1    3    3    0    0 -0.11587927179E+01  0.12828396501E+01  0.19455280683E+02  0.19531933464E+02  0.51100000000E-03 0.  1.
         12    1    3    3    0    0 -0.36776057900E+01  0.16279213288E+01 -0.37910363156E+01  0.55269221585E+01  0.00000000000E+00 0. -1.
</event>
<event>
 7    1  0.5121289E-013  0.5052886E+02  0.7816164E-02  0.1300439E+00
        -11   -1    0    0    0    0  0.00000000000E+00  0.00000000000E+00  0.45593999997E+02  0.45594000000E+02  0.51100000000E-03 0. -1.
         11   -1    0    0    0    0 -0.00000000000E+00 -0.00000000000E+00 -0.45593999997E+02  0.45594000000E+02  0.51100000000E-03 0.  1.
    9900012    2    1    2    0    0 -0.18833645049E+02  0.57490153613E+01 -0.35572577626E+02  0.50528860284E+02  0.30000001319E+02 0.  0.
         12    1    1    2    0    0  0.18833645049E+02 -0.57490153613E+01  0.35572577626E+02  0.40659139716E+02  0.00000000000E+00 0. -1.
         11    1    3    3    0    0 -0.41260620011E+01  0.55433025977E+01 -0.10108611591E+02  0.12244860958E+02  0.51100000000E-03 0.  1.
        -11    1    3    3    0    0 -0.11392644303E+02  0.11554519304E+02 -0.18308505841E+02  0.24464272868E+02  0.51100000000E-03 0. -1.
         12    1    3    3    0    0 -0.33149387449E+01 -0.11348806540E+02 -0.71554601945E+01  0.13819726458E+02  0.00000000000E+00 0. -1.
</event>
<event>
 7    1  0.5121289E-013  0.5052887E+02  0.7816164E-02  0.1300439E+00
        -11   -1    0    0    0    0  0.00000000000E+00  0.00000000000E+00  0.45593999997E+02  0.45594000000E+02  0.51100000000E-03 0.  1.
         11   -1    0    0    0    0 -0.00000000000E+00 -0.00000000000E+00 -0.45593999997E+02  0.45594000000E+02  0.51100000000E-03 0. -1.
    9900012    2    1    2    0    0 -0.35021324540E+02  0.20596976503E+01  0.20553087112E+02  0.50528869208E+02  0.30000028445E+02 0.  0.
         12    1    1    2    0    0  0.35021324540E+02 -0.20596976503E+01 -0.20553087112E+02  0.40659130792E+02  0.00000000000E+00 0. -1.
         11    1    3    3    0    0 -0.23606739195E+01  0.49722065495E+01  0.14011181325E+01  0.56796788296E+01  0.51100000000E-03 0. -1.
        -11    1    3    3    0    0  0.20923751651E+01  0.30287664724E+01  0.63496380735E+01  0.73395751990E+01  0.51100000000E-03 0.  1.
        -12    1    3    3    0    0 -0.34753025785E+02 -0.59412753715E+01  0.12802330906E+02  0.37509615179E+02  0.00000000000E+00 0.  1.
</event>
<event>
 7    1  0.5121289E-013  0.5052887E+02  0.7816164E-02  0.1300439E+00
        -11   -1    0    0    0    0  0.00000000000E+00  0.00000000000E+00  0.45593999997E+02  0.45594000000E+02  0.51100000000E-03 0.  1.
         11   -1    0    0    0    0 -0.00000000000E+00 -0.00000000000E+00 -0.45593999997E+02  0.45594000000E+02  0.51100000000E-03 0. -1.
    9900012    2    1    2    0    0  0.37251096226E+02 -0.92166480308E+01  0.13437794001E+02  0.50528867218E+02  0.30000022397E+02 0.  0.
         12    1    1    2    0    0 -0.37251096226E+02  0.92166480308E+01 -0.13437794001E+02  0.40659132782E+02  0.00000000000E+00 0. -1.
         11    1    3    3    0    0  0.16456596862E+02 -0.71160083335E+01  0.13311329313E+02  0.22330442074E+02  0.51100000000E-03 0.  1.
        -11    1    3    3    0    0 -0.23045995650E+01 -0.97887052515E+00  0.40304689299E+01  0.47448969131E+01  0.51100000000E-03 0. -1.
         12    1    3    3    0    0  0.23099098929E+02 -0.11217691722E+01 -0.39040042413E+01  0.23453528232E+02  0.00000000000E+00 0. -1.
</event>
<event>
 7    1  0.5121289E-013  0.5052885E+02  0.7816164E-02  0.1300439E+00
        -11   -1    0    0    0    0  0.00000000000E+00  0.00000000000E+00  0.45593999997E+02  0.45594000000E+02  0.51100000000E-03 0.  1.
         11   -1    0    0    0    0 -0.00000000000E+00 -0.00000000000E+00 -0.45593999997E+02  0.45594000000E+02  0.51100000000E-03 0. -1.
    9900012    2    1    2    0    0 -0.28358571393E+02  0.27578466993E+02  0.94013713133E+01  0.50528853480E+02  0.29999980639E+02 0.  0.
         12    1    1    2    0    0  0.28358571393E+02 -0.27578466993E+02 -0.94013713133E+01  0.40659146520E+02  0.00000000000E+00 0. -1.
         11    1    3    3    0    0 -0.12822564603E+02  0.51940513876E+01  0.51221601387E+00  0.13844085319E+02  0.51100000000E-03 0. -1.
        -11    1    3    3    0    0 -0.20455357873E+02  0.11733346131E+02  0.80689288719E+01  0.24923897981E+02  0.51100000000E-03 0.  1.
        -12    1    3    3    0    0  0.49193510828E+01  0.10651069474E+02  0.82022642754E+00  0.11760870181E+02  0.00000000000E+00 0.  1.
</event>
<event>
 7    1  0.5121289E-013  0.5052887E+02  0.7816164E-02  0.1300439E+00
        -11   -1    0    0    0    0  0.00000000000E+00  0.00000000000E+00  0.45593999997E+02  0.45594000000E+02  0.51100000000E-03 0.  1.
         11   -1    0    0    0    0 -0.00000000000E+00 -0.00000000000E+00 -0.45593999997E+02  0.45594000000E+02  0.51100000000E-03 0. -1.
    9900012    2    1    2    0    0  0.94453960924E+01 -0.12598512585E+02  0.37486356964E+02  0.50528868367E+02  0.30000025888E+02 0.  0.
         12    1    1    2    0    0 -0.94453960924E+01  0.12598512585E+02 -0.37486356964E+02  0.40659131633E+02  0.00000000000E+00 0. -1.
         11    1    3    3    0    0  0.10312554342E+02 -0.47074763428E+01  0.65710767023E+01  0.13102982861E+02  0.51100000000E-03 0. -1.
        -11    1    3    3    0    0 -0.63399599262E-04  0.32883348904E+00 -0.27455165860E+01  0.27651388848E+01  0.51100000000E-03 0.  1.
        -12    1    3    3    0    0 -0.86709484966E+00 -0.82198697314E+01  0.33660796848E+02  0.34660746621E+02  0.00000000000E+00 0.  1.
</event>
<event>
 7    1  0.5121289E-013  0.5052885E+02  0.7816164E-02  0.1300439E+00
        -11   -1    0    0    0    0  0.00000000000E+00  0.00000000000E+00  0.45593999997E+02  0.45594000000E+02  0.51100000000E-03 0. -1.
         11   -1    0    0    0    0 -0.00000000000E+00 -0.00000000000E+00 -0.45593999997E+02  0.45594000000E+02  0.51100000000E-03 0.  1.
    9900012    2    1    2    0    0 -0.14409818185E+02  0.37122283546E+02 -0.82134015505E+01  0.50528846531E+02  0.29999959516E+02 0.  0.
         12    1    1    2    0    0  0.14409818185E+02 -0.37122283546E+02  0.82134015505E+01  0.40659153469E+02  0.00000000000E+00 0. -1.
         11    1    3    3    0    0  0.14986498654E+01  0.48204024928E+01 -0.44464249214E+00  0.50675377471E+01  0.51100000000E-03 0. -1.
        -11    1    3    3    0    0  0.62106372188E+01  0.14302882826E+02  0.10041222128E+01  0.15625387467E+02  0.51100000000E-03 0.  1.
         12    1    3    3    0    0 -0.22119105269E+02  0.17998998227E+02 -0.87728812711E+01  0.29835921317E+02  0.00000000000E+00 0. -1.
</event>
<event>
 7    1  0.5121289E-013  0.5052888E+02  0.7816164E-02  0.1300439E+00
        -11   -1    0    0    0    0  0.00000000000E+00  0.00000000000E+00  0.45593999997E+02  0.45594000000E+02  0.51100000000E-03 0. -1.
         11   -1    0    0    0    0 -0.00000000000E+00 -0.00000000000E+00 -0.45593999997E+02  0.45594000000E+02  0.51100000000E-03 0.  1.
    9900012    2    1    2    0    0  0.22535041639E+02 -0.27042430300E+02 -0.20348034906E+02  0.50528884629E+02  0.30000075319E+02 0.  0.
         12    1    1    2    0    0 -0.22535041639E+02  0.27042430300E+02  0.20348034906E+02  0.40659115371E+02  0.00000000000E+00 0. -1.
         11    1    3    3    0    0 -0.56183417053E+00 -0.59485398872E+01 -0.10866796590E+02  0.12401131111E+02  0.51100000000E-03 0. -1.
        -11    1    3    3    0    0  0.11061419877E+02 -0.15674776743E+02 -0.14456773876E+02  0.24021905562E+02  0.51100000000E-03 0.  1.
        -12    1    3    3    0    0  0.12035455933E+02 -0.54191136692E+01  0.49755355603E+01  0.14105847957E+02  0.00000000000E+00 0.  1.
</event>
<event>
 7    1  0.5121289E-013  0.5052887E+02  0.7816164E-02  0.1300439E+00
        -11   -1    0    0    0    0  0.00000000000E+00  0.00000000000E+00  0.45593999997E+02  0.45594000000E+02  0.51100000000E-03 0. -1.
         11   -1    0    0    0    0 -0.00000000000E+00 -0.00000000000E+00 -0.45593999997E+02  0.45594000000E+02  0.51100000000E-03 0.  1.
    9900012    2    1    2    0    0  0.38300506598E+02 -0.91397996156E+00  0.13616186440E+02  0.50528871896E+02  0.30000036615E+02 0.  0.
         12    1    1    2    0    0 -0.38300506598E+02  0.91397996156E+00 -0.13616186440E+02  0.40659128104E+02  0.00000000000E+00 0. -1.
         11    1    3    3    0    0  0.17016879100E+02 -0.35476125696E+01 -0.12910794186E+01  0.17430622925E+02  0.51100000000E-03 0. -1.
        -11    1    3    3    0    0  0.14134556346E+02  0.56178165659E+01 -0.11668227043E+01  0.15254737675E+02  0.51100000000E-03 0.  1.
        -12    1    3    3    0    0  0.71490711523E+01 -0.29841839579E+01  0.16074088563E+02  0.17843511296E+02  0.00000000000E+00 0.  1.
</event>
<event>
 7    1  0.5121289E-013  0.5052888E+02  0.7816164E-02  0.1300439E+00
        -11   -1    0    0    0    0  0.00000000000E+00  0.00000000000E+00  0.45593999997E+02  0.45594000000E+02  0.51100000000E-03 0. -1.
         11   -1    0    0    0    0 -0.00000000000E+00 -0.00000000000E+00 -0.45593999997E+02  0.45594000000E+02  0.51100000000E-03 0.  1.
    9900012    2    1    2    0    0 -0.25024674840E+02 -0.15689372958E+01 -0.32007319898E+02  0.50528875045E+02  0.30000046186E+02 0.  0.
         12    1    1    2    0    0  0.25024674840E+02  0.15689372958E+01  0.32007319898E+02  0.40659124955E+02  0.00000000000E+00 0. -1.
         11    1    3    3    0    0 -0.95407640469E+01 -0.52227994294E+01 -0.57262365858E+01  0.12292013593E+02  0.51100000000E-03 0. -1.
        -11    1    3    3    0    0 -0.80146075418E+01 -0.53364781775E+01 -0.17126046215E+00  0.96302265703E+01  0.51100000000E-03 0.  1.
        -12    1    3    3    0    0 -0.74693032516E+01  0.89903403111E+01 -0.26109822850E+02  0.28606634881E+02  0.00000000000E+00 0.  1.
</event>
<event>
 7    1  0.5121289E-013  0.5052886E+02  0.7816164E-02  0.1300439E+00
        -11   -1    0    0    0    0  0.00000000000E+00  0.00000000000E+00  0.45593999997E+02  0.45594000000E+02  0.51100000000E-03 0. -1.
         11   -1    0    0    0    0 -0.00000000000E+00 -0.00000000000E+00 -0.45593999997E+02  0.45594000000E+02  0.51100000000E-03 0.  1.
    9900012    2    1    2    0    0  0.77347786329E+00 -0.34687376939E+02  0.21197950898E+02  0.50528861922E+02  0.30000006299E+02 0.  0.
         12    1    1    2    0    0 -0.77347786329E+00  0.34687376939E+02 -0.21197950898E+02  0.40659138078E+02  0.00000000000E+00 0. -1.
         11    1    3    3    0    0  0.18025088313E+01 -0.10317247081E+01 -0.23462017575E+01  0.31333938323E+01  0.51100000000E-03 0. -1.
        -11    1    3    3    0    0  0.36661529149E+01 -0.11452383890E+02 -0.30784868684E+01  0.12412689298E+02  0.51100000000E-03 0.  1.
         12    1    3    3    0    0 -0.46951838830E+01 -0.22203268341E+02  0.26622639524E+02  0.34982778791E+02  0.00000000000E+00 0. -1.
</event>
<event>
 7    1  0.5121289E-013  0.5052885E+02  0.7816164E-02  0.1300439E+00
        -11   -1    0    0    0    0  0.00000000000E+00  0.00000000000E+00  0.45593999997E+02  0.45594000000E+02  0.51100000000E-03 0.  1.
         11   -1    0    0    0    0 -0.00000000000E+00 -0.00000000000E+00 -0.45593999997E+02  0.45594000000E+02  0.51100000000E-03 0. -1.
    9900012    2    1    2    0    0 -0.75822179711E+01 -0.11441523100E+02  0.38272290237E+02  0.50528847523E+02  0.29999962530E+02 0.  0.
         12    1    1    2    0    0  0.75822179711E+01  0.11441523100E+02 -0.38272290237E+02  0.40659152477E+02  0.00000000000E+00 0. -1.
         11    1    3    3    0    0  0.14379792170E+01 -0.70279713769E+01  0.31009962844E+01  0.78151355792E+01  0.51100000000E-03 0. -1.
        -11    1    3    3    0    0 -0.59926252467E+01 -0.56722985550E+01  0.91632417680E+00  0.83021791418E+01  0.51100000000E-03 0.  1.
        -12    1    3    3    0    0 -0.30275719415E+01  0.12587468317E+01  0.34254969775E+02  0.34411532802E+02  0.00000000000E+00 0.  1.
</event>
<event>
 7    1  0.5121289E-013  0.5052882E+02  0.7816164E-02  0.1300439E+00
        -11   -1    0    0    0    0  0.00000000000E+00  0.00000000000E+00  0.45593999997E+02  0.45594000000E+02  0.51100000000E-03 0.  1.
         11   -1    0    0    0    0 -0.00000000000E+00 -0.00000000000E+00 -0.45593999997E+02  0.45594000000E+02  0.51100000000E-03 0. -1.
    9900012    2    1    2    0    0  0.15836755435E+02  0.37314247592E+02 -0.31643597145E+01  0.50528818153E+02  0.29999873258E+02 0.  0.
         12    1    1    2    0    0 -0.15836755435E+02 -0.37314247592E+02  0.31643597145E+01  0.40659181847E+02  0.00000000000E+00 0. -1.
         11    1    3    3    0    0 -0.78149388387E+00 -0.19641532901E+01 -0.80831600504E+00  0.22631848936E+01  0.51100000000E-03 0. -1.
        -11    1    3    3    0    0 -0.14628918180E+01  0.64806575156E+01 -0.79914985501E+01  0.10392450319E+02  0.51100000000E-03 0.  1.
        -12    1    3    3    0    0  0.18081141137E+02  0.32797743366E+02  0.56354548406E+01  0.37873182940E+02  0.00000000000E+00 0.  1.
</event>
<event>
 7    1  0.5121289E-013  0.5052886E+02  0.7816164E-02  0.1300439E+00
        -11   -1    0    0    0    0  0.00000000000E+00  0.00000000000E+00  0.45593999997E+02  0.45594000000E+02  0.51100000000E-03 0.  1.
         11   -1    0    0    0    0 -0.00000000000E+00 -0.00000000000E+00 -0.45593999997E+02  0.45594000000E+02  0.51100000000E-03 0. -1.
    9900012    2    1    2    0    0  0.21990918758E+02 -0.20146798719E+02  0.27634607247E+02  0.50528861739E+02  0.30000005740E+02 0.  0.
         12    1    1    2    0    0 -0.21990918758E+02  0.20146798719E+02 -0.27634607247E+02  0.40659138261E+02  0.00000000000E+00 0. -1.
         11    1    3    3    0    0  0.12628082671E+00  0.22030227020E+01  0.71790954509E+00  0.23204849168E+01  0.51100000000E-03 0. -1.
        -11    1    3    3    0    0  0.18303307310E+02 -0.10582311689E+01  0.10914788008E+02  0.21336904865E+02  0.51100000000E-03 0.  1.
        -12    1    3    3    0    0  0.35613306214E+01 -0.21291590252E+02  0.16001909694E+02  0.26871471957E+02  0.00000000000E+00 0.  1.
</event>
<event>
 7    1  0.5121289E-013  0.5052896E+02  0.7816164E-02  0.1300438E+00
        -11   -1    0    0    0    0  0.00000000000E+00  0.00000000000E+00  0.45593999997E+02  0.45594000000E+02  0.51100000000E-03 0. -1.
         11   -1    0    0    0    0 -0.00000000000E+00 -0.00000000000E+00 -0.45593999997E+02  0.45594000000E+02  0.51100000000E-03 0.  1.
    9900012    2    1    2    0    0  0.36102035862E+02 -0.76750889973E+01  0.17055613447E+02  0.50528955071E+02  0.30000289431E+02 0.  0.
         12    1    1    2    0    0 -0.36102035862E+02  0.76750889973E+01 -0.17055613447E+02  0.40659044929E+02  0.00000000000E+00 0. -1.
         11    1    3    3    0    0 -0.18321663314E+01 -0.40925591802E-01 -0.12803593602E+01  0.22355824124E+01  0.51100000000E-03 0. -1.
        -11    1    3    3    0    0  0.25708760134E+02 -0.16664114199E+01  0.37965980758E+00  0.25765508271E+02  0.51100000000E-03 0.  1.
         12    1    3    3    0    0  0.12225442060E+02 -0.59677519856E+01  0.17956312999E+02  0.22527864387E+02  0.00000000000E+00 0. -1.
</event>
<event>
 7    1  0.5121289E-013  0.5052886E+02  0.7816164E-02  0.1300439E+00
        -11   -1    0    0    0    0  0.00000000000E+00  0.00000000000E+00  0.45593999997E+02  0.45594000000E+02  0.51100000000E-03 0.  1.
         11   -1    0    0    0    0 -0.00000000000E+00 -0.00000000000E+00 -0.45593999997E+02  0.45594000000E+02  0.51100000000E-03 0. -1.
    9900012    2    1    2    0    0 -0.33013265770E+02  0.39100952209E+01  0.23409414824E+02  0.50528864940E+02  0.30000015473E+02 0.  0.
         12    1    1    2    0    0  0.33013265770E+02 -0.39100952209E+01 -0.23409414824E+02  0.40659135060E+02  0.00000000000E+00 0. -1.
         11    1    3    3    0    0 -0.46948182649E+01  0.35742706352E+01  0.48264583922E-01  0.59007676488E+01  0.51100000000E-03 0. -1.
        -11    1    3    3    0    0  0.46166079442E+01 -0.66848549712E+00  0.90099366680E+00  0.47509716500E+01  0.51100000000E-03 0.  1.
        -12    1    3    3    0    0 -0.32935055449E+02  0.10043100829E+01  0.22460156573E+02  0.39877125642E+02  0.00000000000E+00 0.  1.
</event>
<event>
 7    1  0.5121289E-013  0.5052886E+02  0.7816164E-02  0.1300439E+00
        -11   -1    0    0    0    0  0.00000000000E+00  0.00000000000E+00  0.45593999997E+02  0.45594000000E+02  0.51100000000E-03 0.  1.
         11   -1    0    0    0    0 -0.00000000000E+00 -0.00000000000E+00 -0.45593999997E+02  0.45594000000E+02  0.51100000000E-03 0. -1.
    9900012    2    1    2    0    0  0.25048404204E+02  0.33311897584E+00  0.32025493061E+02  0.50528859241E+02  0.29999998150E+02 0.  0.
         12    1    1    2    0    0 -0.25048404204E+02 -0.33311897584E+00 -0.32025493061E+02  0.40659140759E+02  0.00000000000E+00 0. -1.
         11    1    3    3    0    0  0.13542299284E+02 -0.77278772386E+01  0.80469933846E+01  0.17546169363E+02  0.51100000000E-03 0. -1.
        -11    1    3    3    0    0  0.11995871331E+02  0.89529624148E+01  0.80007698988E+01  0.16972589202E+02  0.51100000000E-03 0.  1.
        -12    1    3    3    0    0 -0.48976641043E+00 -0.89196620036E+00  0.15977729778E+02  0.16010100677E+02  0.00000000000E+00 0.  1.
</event>
<event>
 7    1  0.5121289E-013  0.5052887E+02  0.7816164E-02  0.1300439E+00
        -11   -1    0    0    0    0  0.00000000000E+00  0.00000000000E+00  0.45593999997E+02  0.45594000000E+02  0.51100000000E-03 0.  1.
         11   -1    0    0    0    0 -0.00000000000E+00 -0.00000000000E+00 -0.45593999997E+02  0.45594000000E+02  0.51100000000E-03 0. -1.
    9900012    2    1    2    0    0 -0.42044067260E+01 -0.34209328659E+02  0.21568719746E+02  0.50528869725E+02  0.30000030015E+02 0.  0.
         12    1    1    2    0    0  0.42044067260E+01  0.34209328659E+02 -0.21568719746E+02  0.40659130275E+02  0.00000000000E+00 0. -1.
         11    1    3    3    0    0 -0.99025599231E+00  0.22154364033E+01 -0.22734237496E+01  0.33252400205E+01  0.51100000000E-03 0. -1.
        -11    1    3    3    0    0  0.19169125712E+01 -0.73053126837E+01 -0.21314116421E+01  0.78476151194E+01  0.51100000000E-03 0.  1.
        -12    1    3    3    0    0 -0.51310633049E+01 -0.29119452379E+02  0.25973555138E+02  0.39356014585E+02  0.00000000000E+00 0.  1.
</event>
<event>
 7    1  0.5121289E-013  0.5052886E+02  0.7816164E-02  0.1300439E+00
        -11   -1    0    0    0    0  0.00000000000E+00  0.00000000000E+00  0.45593999997E+02  0.45594000000E+02  0.51100000000E-03 0.  1.
         11   -1    0    0    0    0 -0.00000000000E+00 -0.00000000000E+00 -0.45593999997E+02  0.45594000000E+02  0.51100000000E-03 0. -1.
    9900012    2    1    2    0    0 -0.40617541179E+02  0.36239964154E+00  0.18026686979E+01  0.50528860814E+02  0.30000002930E+02 0.  0.
         12    1    1    2    0    0  0.40617541179E+02 -0.36239964154E+00 -0.18026686979E+01  0.40659139186E+02  0.00000000000E+00 0. -1.
         11    1    3    3    0    0 -0.10929407398E+02 -0.36561663348E+01  0.47544647365E+01  0.12466933606E+02  0.51100000000E-03 0. -1.
        -11    1    3    3    0    0 -0.33292642645E+02  0.14956684471E+01 -0.39229031815E+01  0.33556314577E+02  0.51100000000E-03 0.  1.
         12    1    3    3    0    0  0.36045088640E+01  0.25228975293E+01  0.97110714287E+00  0.45056126306E+01  0.00000000000E+00 0. -1.
</event>
<event>
 7    1  0.5121289E-013  0.5052886E+02  0.7816164E-02  0.1300439E+00
        -11   -1    0    0    0    0  0.00000000000E+00  0.00000000000E+00  0.45593999997E+02  0.45594000000E+02  0.51100000000E-03 0. -1.
         11   -1    0    0    0    0 -0.00000000000E+00 -0.00000000000E+00 -0.45593999997E+02  0.45594000000E+02  0.51100000000E-03 0.  1.
    9900012    2    1    2    0    0  0.20023739324E+02  0.18808028225E+02 -0.29974549829E+02  0.50528859579E+02  0.29999999178E+02 0.  0.
         12    1    1    2    0    0 -0.20023739324E+02 -0.18808028225E+02  0.29974549829E+02  0.40659140421E+02  0.00000000000E+00 0. -1.
         11    1    3    3    0    0  0.10737949363E+02 -0.59978815419E+01 -0.89562870252E+01  0.15214901152E+02  0.51100000000E-03 0. -1.
        -11    1    3    3    0    0 -0.11610190153E+01  0.14589823861E+01 -0.44873338504E+01  0.48592962559E+01  0.51100000000E-03 0.  1.
         12    1    3    3    0    0  0.10446808977E+02  0.23346927381E+02 -0.16530928954E+02  0.30454662172E+02  0.00000000000E+00 0. -1.
</event>
<event>
 7    1  0.5121289E-013  0.5052888E+02  0.7816164E-02  0.1300439E+00
        -11   -1    0    0    0    0  0.00000000000E+00  0.00000000000E+00  0.45593999997E+02  0.45594000000E+02  0.51100000000E-03 0.  1.
         11   -1    0    0    0    0 -0.00000000000E+00 -0.00000000000E+00 -0.45593999997E+02  0.45594000000E+02  0.51100000000E-03 0. -1.
    9900012    2    1    2    0    0 -0.18143092299E+01  0.28236010603E+02  0.29199319054E+02  0.50528877457E+02  0.30000053517E+02 0.  0.
         12    1    1    2    0    0  0.18143092299E+01 -0.28236010603E+02 -0.29199319054E+02  0.40659122543E+02  0.00000000000E+00 0. -1.
         11    1    3    3    0    0  0.67372893600E+01  0.12374935348E+02  0.64527644840E+01  0.15497363083E+02  0.51100000000E-03 0. -1.
        -11    1    3    3    0    0  0.32185599928E+01  0.25909003734E+01  0.15205953356E+02  0.15757312934E+02  0.51100000000E-03 0.  1.
        -12    1    3    3    0    0 -0.11770158583E+02  0.13270174882E+02  0.75406012146E+01  0.19274201440E+02  0.00000000000E+00 0.  1.
</event>
<event>
 7    1  0.5121289E-013  0.5052885E+02  0.7816164E-02  0.1300439E+00
        -11   -1    0    0    0    0  0.00000000000E+00  0.00000000000E+00  0.45593999997E+02  0.45594000000E+02  0.51100000000E-03 0.  1.
         11   -1    0    0    0    0 -0.00000000000E+00 -0.00000000000E+00 -0.45593999997E+02  0.45594000000E+02  0.51100000000E-03 0. -1.
    9900012    2    1    2    0    0 -0.37139075489E+02 -0.81815019318E+01  0.14384661196E+02  0.50528851217E+02  0.29999973759E+02 0.  0.
         12    1    1    2    0    0  0.37139075489E+02  0.81815019318E+01 -0.14384661196E+02  0.40659148783E+02  0.00000000000E+00 0. -1.
         11    1    3    3    0    0 -0.22850800049E+02 -0.70887948992E+01  0.61766163509E+01  0.24709525811E+02  0.51100000000E-03 0. -1.
        -11    1    3    3    0    0 -0.18667117749E+02 -0.37109646885E+01  0.81838986159E+01  0.20717353614E+02  0.51100000000E-03 0.  1.
         12    1    3    3    0    0  0.43788423089E+01  0.26182576559E+01  0.24146229371E-01  0.51019717913E+01  0.00000000000E+00 0. -1.
</event>
<event>
 7    1  0.5121289E-013  0.5052887E+02  0.7816164E-02  0.1300439E+00
        -11   -1    0    0    0    0  0.00000000000E+00  0.00000000000E+00  0.45593999997E+02  0.45594000000E+02  0.51100000000E-03 0. -1.
         11   -1    0    0    0    0 -0.00000000000E+00 -0.00000000000E+00 -0.45593999997E+02  0.45594000000E+02  0.51100000000E-03 0.  1.
    9900012    2    1    2    0    0 -0.37679008655E+01 -0.40384323606E+02 -0.28415339570E+01  0.50528868366E+02  0.30000025884E+02 0.  0.
         12    1    1    2    0    0  0.37679008655E+01  0.40384323606E+02  0.28415339570E+01  0.40659131634E+02  0.00000000000E+00 0. -1.
         11    1    3    3    0    0  0.77914788599E+01 -0.19670149124E+02 -0.10697768686E+02  0.23707892451E+02  0.51100000000E-03 0.  1.
        -11    1    3    3    0    0  0.11265611173E+01 -0.11226558635E+00  0.13600239760E+01  0.17695787604E+01  0.51100000000E-03 0. -1.
         12    1    3    3    0    0 -0.12685940843E+02 -0.20601908896E+02  0.64962107525E+01  0.25051397154E+02  0.00000000000E+00 0. -1.
</event>
<event>
 7    1  0.5121289E-013  0.5052886E+02  0.7816164E-02  0.1300439E+00
        -11   -1    0    0    0    0  0.00000000000E+00  0.00000000000E+00  0.45593999997E+02  0.45594000000E+02  0.51100000000E-03 0. -1.
         11   -1    0    0    0    0 -0.00000000000E+00 -0.00000000000E+00 -0.45593999997E+02  0.45594000000E+02  0.51100000000E-03 0.  1.
    9900012    2    1    2    0    0  0.27977372567E+02  0.20929299022E+02 -0.20794148250E+02  0.50528861609E+02  0.30000005345E+02 0.  0.
         12    1    1    2    0    0 -0.27977372567E+02 -0.20929299022E+02  0.20794148250E+02  0.40659138391E+02  0.00000000000E+00 0. -1.
         11    1    3    3    0    0 -0.71396713092E+00  0.60225401594E+01 -0.47068774277E+01  0.76769417358E+01  0.51100000000E-03 0. -1.
        -11    1    3    3    0    0  0.10097629230E+02  0.17721068369E+02 -0.11801504530E+02  0.23564250245E+02  0.51100000000E-03 0.  1.
         12    1    3    3    0    0  0.18593710467E+02 -0.28143095062E+01 -0.42857662932E+01  0.19287669628E+02  0.00000000000E+00 0. -1.
</event>
<event>
 7    1  0.5121289E-013  0.5052886E+02  0.7816164E-02  0.1300439E+00
        -11   -1    0    0    0    0  0.00000000000E+00  0.00000000000E+00  0.45593999997E+02  0.45594000000E+02  0.51100000000E-03 0.  1.
         11   -1    0    0    0    0 -0.00000000000E+00 -0.00000000000E+00 -0.45593999997E+02  0.45594000000E+02  0.51100000000E-03 0. -1.
    9900012    2    1    2    0    0 -0.21625949871E+02 -0.16960561803E+02  0.29963698043E+02  0.50528861238E+02  0.30000004218E+02 0.  0.
         12    1    1    2    0    0  0.21625949871E+02  0.16960561803E+02 -0.29963698043E+02  0.40659138762E+02  0.00000000000E+00 0. -1.
         11    1    3    3    0    0 -0.16584422728E+02 -0.63848284911E+01  0.88330323688E+01  0.19845190178E+02  0.51100000000E-03 0. -1.
        -11    1    3    3    0    0 -0.90877012871E+01 -0.87502724048E+01  0.43792039969E+01  0.13354063417E+02  0.51100000000E-03 0.  1.
         12    1    3    3    0    0  0.40461741447E+01 -0.18254609073E+01  0.16751461677E+02  0.17329607643E+02  0.00000000000E+00 0. -1.
</event>
<event>
 7    1  0.5121289E-013  0.5052886E+02  0.7816164E-02  0.1300439E+00
        -11   -1    0    0    0    0  0.00000000000E+00  0.00000000000E+00  0.45593999997E+02  0.45594000000E+02  0.51100000000E-03 0.  1.
         11   -1    0    0    0    0 -0.00000000000E+00 -0.00000000000E+00 -0.45593999997E+02  0.45594000000E+02  0.51100000000E-03 0. -1.
    9900012    2    1    2    0    0 -0.33846374434E+02  0.11764895531E+02  0.19213943264E+02  0.50528862713E+02  0.30000008702E+02 0.  0.
         12    1    1    2    0    0  0.33846374434E+02 -0.11764895531E+02 -0.19213943264E+02  0.40659137287E+02  0.00000000000E+00 0. -1.
         11    1    3    3    0    0 -0.12055498725E+01 -0.10705543254E+00  0.64941529809E+01  0.66059696156E+01  0.51100000000E-03 0. -1.
        -11    1    3    3    0    0 -0.45442983294E+01  0.54133065298E+01  0.13329196192E+02  0.15087147056E+02  0.51100000000E-03 0.  1.
         12    1    3    3    0    0 -0.28096526232E+02  0.64586444338E+01 -0.60940590907E+00  0.28835746042E+02  0.00000000000E+00 0. -1.
</event>
<event>
 7    1  0.5121289E-013  0.5052886E+02  0.7816164E-02  0.1300439E+00
        -11   -1    0    0    0    0  0.00000000000E+00  0.00000000000E+00  0.45593999997E+02  0.45594000000E+02  0.51100000000E-03 0. -1.
         11   -1    0    0    0    0 -0.00000000000E+00 -0.00000000000E+00 -0.45593999997E+02  0.45594000000E+02  0.51100000000E-03 0.  1.
    9900012    2    1    2    0    0  0.28647646422E+02  0.28849410177E+02  0.43556687561E+00  0.50528857958E+02  0.29999994250E+02 0.  0.
         12    1    1    2    0    0 -0.28647646422E+02 -0.28849410177E+02 -0.43556687561E+00  0.40659142042E+02  0.00000000000E+00 0. -1.
         11    1    3    3    0    0  0.13005417372E+02  0.14916136441E+02  0.20417152665E+00  0.19790747677E+02  0.51100000000E-03 0. -1.
        -11    1    3    3    0    0  0.14000236536E+02  0.19904519779E+02 -0.12616807399E+01  0.24367773169E+02  0.51100000000E-03 0.  1.
         12    1    3    3    0    0  0.16419925133E+01 -0.59712460422E+01  0.14930760888E+01  0.63703371117E+01  0.00000000000E+00 0. -1.
</event>
<event>
 7    1  0.5121289E-013  0.5052886E+02  0.7816164E-02  0.1300439E+00
        -11   -1    0    0    0    0  0.00000000000E+00  0.00000000000E+00  0.45593999997E+02  0.45594000000E+02  0.51100000000E-03 0.  1.
         11   -1    0    0    0    0 -0.00000000000E+00 -0.00000000000E+00 -0.45593999997E+02  0.45594000000E+02  0.51100000000E-03 0. -1.
    9900012    2    1    2    0    0 -0.21066984227E+02  0.17955503069E+02  0.29781670449E+02  0.50528858228E+02  0.29999995070E+02 0.  0.
         12    1    1    2    0    0  0.21066984227E+02 -0.17955503069E+02 -0.29781670449E+02  0.40659141772E+02  0.00000000000E+00 0. -1.
         11    1    3    3    0    0  0.20218115808E+00  0.29091517647E+01 -0.16852616296E+01  0.33681075149E+01  0.51100000000E-03 0. -1.
        -11    1    3    3    0    0 -0.10782141306E+02  0.11896228917E+02  0.32411501124E+02  0.36170156745E+02  0.51100000000E-03 0.  1.
         12    1    3    3    0    0 -0.10487024079E+02  0.31501223881E+01 -0.94456904516E+00  0.10990593968E+02  0.00000000000E+00 0. -1.
</event>
<event>
 7    1  0.5121289E-013  0.5052887E+02  0.7816164E-02  0.1300439E+00
        -11   -1    0    0    0    0  0.00000000000E+00  0.00000000000E+00  0.45593999997E+02  0.45594000000E+02  0.51100000000E-03 0.  1.
         11   -1    0    0    0    0 -0.00000000000E+00 -0.00000000000E+00 -0.45593999997E+02  0.45594000000E+02  0.51100000000E-03 0. -1.
    9900012    2    1    2    0    0  0.23926962709E+02  0.14461650617E+02 -0.29521612921E+02  0.50528874179E+02  0.30000043554E+02 0.  0.
         12    1    1    2    0    0 -0.23926962709E+02 -0.14461650617E+02  0.29521612921E+02  0.40659125821E+02  0.00000000000E+00 0. -1.
         11    1    3    3    0    0  0.12089165497E+01  0.72985920932E+01 -0.14769541459E+02  0.16518785698E+02  0.51100000000E-03 0.  1.
        -11    1    3    3    0    0  0.33848161884E+01 -0.36319913875E+01  0.28488961632E+01  0.57240328160E+01  0.51100000000E-03 0. -1.
         12    1    3    3    0    0  0.19333229971E+02  0.10795049911E+02 -0.17600967625E+02  0.28286055664E+02  0.00000000000E+00 0. -1.
</event>
<event>
 7    1  0.5121289E-013  0.5052886E+02  0.7816164E-02  0.1300439E+00
        -11   -1    0    0    0    0  0.00000000000E+00  0.00000000000E+00  0.45593999997E+02  0.45594000000E+02  0.51100000000E-03 0.  1.
         11   -1    0    0    0    0 -0.00000000000E+00 -0.00000000000E+00 -0.45593999997E+02  0.45594000000E+02  0.51100000000E-03 0. -1.
    9900012    2    1    2    0    0 -0.35123351050E+02  0.18930912369E+02 -0.78189766519E+01  0.50528860462E+02  0.30000001859E+02 0.  0.
         12    1    1    2    0    0  0.35123351050E+02 -0.18930912369E+02  0.78189766519E+01  0.40659139538E+02  0.00000000000E+00 0. -1.
         11    1    3    3    0    0 -0.36241376811E+01  0.75912372209E+01 -0.61502621974E+01  0.10420507753E+02  0.51100000000E-03 0. -1.
        -11    1    3    3    0    0 -0.85207053862E+01  0.54983784767E+01 -0.10695600535E+02  0.14738740015E+02  0.51100000000E-03 0.  1.
        -12    1    3    3    0    0 -0.22978507983E+02  0.58412966711E+01  0.90268860806E+01  0.25369612694E+02  0.00000000000E+00 0.  1.
</event>
<event>
 7    1  0.5121289E-013  0.5052884E+02  0.7816164E-02  0.1300439E+00
        -11   -1    0    0    0    0  0.00000000000E+00  0.00000000000E+00  0.45593999997E+02  0.45594000000E+02  0.51100000000E-03 0.  1.
         11   -1    0    0    0    0 -0.00000000000E+00 -0.00000000000E+00 -0.45593999997E+02  0.45594000000E+02  0.51100000000E-03 0. -1.
    9900012    2    1    2    0    0  0.19288113514E+02  0.21741974263E+02  0.28432774662E+02  0.50528838145E+02  0.29999934025E+02 0.  0.
         12    1    1    2    0    0 -0.19288113514E+02 -0.21741974263E+02 -0.28432774662E+02  0.40659161855E+02  0.00000000000E+00 0. -1.
         11    1    3    3    0    0 -0.45363746350E+01  0.67694731609E+01  0.17664964291E+01  0.83381635628E+01  0.51100000000E-03 0. -1.
        -11    1    3    3    0    0  0.26203159834E+01  0.10625673004E+02  0.10586121156E+02  0.15226192697E+02  0.51100000000E-03 0.  1.
        -12    1    3    3    0    0  0.21204172165E+02  0.43468280976E+01  0.16080157077E+02  0.26964481886E+02  0.00000000000E+00 0.  1.
</event>
<event>
 7    1  0.5121289E-013  0.5052888E+02  0.7816164E-02  0.1300439E+00
        -11   -1    0    0    0    0  0.00000000000E+00  0.00000000000E+00  0.45593999997E+02  0.45594000000E+02  0.51100000000E-03 0. -1.
         11   -1    0    0    0    0 -0.00000000000E+00 -0.00000000000E+00 -0.45593999997E+02  0.45594000000E+02  0.51100000000E-03 0.  1.
    9900012    2    1    2    0    0  0.30266520955E+01  0.37023612660E+02 -0.16530438392E+02  0.50528881580E+02  0.30000066049E+02 0.  0.
         12    1    1    2    0    0 -0.30266520955E+01 -0.37023612660E+02  0.16530438392E+02  0.40659118420E+02  0.00000000000E+00 0. -1.
         11    1    3    3    0    0  0.33935623211E+01  0.40435416074E+01 -0.10797687047E+02  0.12019007437E+02  0.51100000000E-03 0.  1.
        -11    1    3    3    0    0 -0.76565974864E+01  0.66316702346E+01  0.14783533675E+01  0.10236604130E+02  0.51100000000E-03 0. -1.
        -12    1    3    3    0    0  0.72896872608E+01  0.26348400818E+02 -0.72111047130E+01  0.28273270013E+02  0.00000000000E+00 0.  1.
</event>
<event>
 7    1  0.5121289E-013  0.5052886E+02  0.7816164E-02  0.1300439E+00
        -11   -1    0    0    0    0  0.00000000000E+00  0.00000000000E+00  0.45593999997E+02  0.45594000000E+02  0.51100000000E-03 0. -1.
         11   -1    0    0    0    0 -0.00000000000E+00 -0.00000000000E+00 -0.45593999997E+02  0.45594000000E+02  0.51100000000E-03 0.  1.
    9900012    2    1    2    0    0  0.31255288827E+02  0.25818603071E+02 -0.31100967237E+01  0.50528855324E+02  0.29999986241E+02 0.  0.
         12    1    1    2    0    0 -0.31255288827E+02 -0.25818603071E+02  0.31100967237E+01  0.40659144676E+02  0.00000000000E+00 0. -1.
         11    1    3    3    0    0  0.21854688766E+01  0.48606428758E+01 -0.82801772690E+01  0.98470025512E+01  0.51100000000E-03 0. -1.
        -11    1    3    3    0    0  0.10526634451E+02  0.13620437952E+02 -0.54912188387E+01  0.18068753345E+02  0.51100000000E-03 0.  1.
        -12    1    3    3    0    0  0.18543185499E+02  0.73375222435E+01  0.10661299384E+02  0.22613099427E+02  0.00000000000E+00 0.  1.
</event>
<event>
 7    1  0.5121289E-013  0.5052886E+02  0.7816164E-02  0.1300439E+00
        -11   -1    0    0    0    0  0.00000000000E+00  0.00000000000E+00  0.45593999997E+02  0.45594000000E+02  0.51100000000E-03 0.  1.
         11   -1    0    0    0    0 -0.00000000000E+00 -0.00000000000E+00 -0.45593999997E+02  0.45594000000E+02  0.51100000000E-03 0. -1.
    9900012    2    1    2    0    0  0.84801884632E+01  0.25020927009E+01  0.39686161244E+02  0.50528862546E+02  0.30000008194E+02 0.  0.
         12    1    1    2    0    0 -0.84801884632E+01 -0.25020927009E+01 -0.39686161244E+02  0.40659137454E+02  0.00000000000E+00 0. -1.
         11    1    3    3    0    0  0.41370807331E+01 -0.14172476574E+01  0.71887184086E+01  0.84143746371E+01  0.51100000000E-03 0. -1.
        -11    1    3    3    0    0  0.73824484729E+01  0.45728728341E+01 -0.75526590410E+00  0.87167733858E+01  0.51100000000E-03 0.  1.
        -12    1    3    3    0    0 -0.30393407428E+01 -0.65353247586E+00  0.33252708739E+02  0.33397714523E+02  0.00000000000E+00 0.  1.
</event>
<event>
 7    1  0.5121289E-013  0.5052886E+02  0.7816164E-02  0.1300439E+00
        -11   -1    0    0    0    0  0.00000000000E+00  0.00000000000E+00  0.45593999997E+02  0.45594000000E+02  0.51100000000E-03 0. -1.
         11   -1    0    0    0    0 -0.00000000000E+00 -0.00000000000E+00 -0.45593999997E+02  0.45594000000E+02  0.51100000000E-03 0.  1.
    9900012    2    1    2    0    0 -0.23881059145E+02 -0.13619912147E+02 -0.29955950321E+02  0.50528856472E+02  0.29999989733E+02 0.  0.
         12    1    1    2    0    0  0.23881059145E+02  0.13619912147E+02  0.29955950321E+02  0.40659143528E+02  0.00000000000E+00 0. -1.
         11    1    3    3    0    0 -0.23300146524E+01 -0.64553760093E+01 -0.10214156955E+01  0.69385976960E+01  0.51100000000E-03 0. -1.
        -11    1    3    3    0    0  0.35150920842E+00 -0.47068034280E+00 -0.18351170447E+02  0.18360570681E+02  0.51100000000E-03 0.  1.
         12    1    3    3    0    0 -0.21902553701E+02 -0.66938557950E+01 -0.10583364178E+02  0.25229688095E+02  0.00000000000E+00 0. -1.
</event>
<event>
 7    1  0.5121289E-013  0.5052885E+02  0.7816164E-02  0.1300439E+00
        -11   -1    0    0    0    0  0.00000000000E+00  0.00000000000E+00  0.45593999997E+02  0.45594000000E+02  0.51100000000E-03 0. -1.
         11   -1    0    0    0    0 -0.00000000000E+00 -0.00000000000E+00 -0.45593999997E+02  0.45594000000E+02  0.51100000000E-03 0.  1.
    9900012    2    1    2    0    0 -0.13309439046E+02  0.35076979697E+02 -0.15672609805E+02  0.50528851331E+02  0.29999974105E+02 0.  0.
         12    1    1    2    0    0  0.13309439046E+02 -0.35076979697E+02  0.15672609805E+02  0.40659148669E+02  0.00000000000E+00 0. -1.
         11    1    3    3    0    0 -0.77716492062E+01  0.28754774605E+02 -0.73796293892E+00  0.29795640344E+02  0.51100000000E-03 0. -1.
        -11    1    3    3    0    0 -0.19597741622E+01  0.34342608582E+01  0.10575820162E+01  0.40930847037E+01  0.51100000000E-03 0.  1.
        -12    1    3    3    0    0 -0.35780156776E+01  0.28879442344E+01 -0.15992228882E+02  0.16640126283E+02  0.00000000000E+00 0.  1.
</event>
<event>
 7    1  0.5121289E-013  0.5052886E+02  0.7816164E-02  0.1300439E+00
        -11   -1    0    0    0    0  0.00000000000E+00  0.00000000000E+00  0.45593999997E+02  0.45594000000E+02  0.51100000000E-03 0.  1.
         11   -1    0    0    0    0 -0.00000000000E+00 -0.00000000000E+00 -0.45593999997E+02  0.45594000000E+02  0.51100000000E-03 0. -1.
    9900012    2    1    2    0    0 -0.30414493937E+01  0.17947073125E+02  0.36356814133E+02  0.50528858567E+02  0.29999996101E+02 0.  0.
         12    1    1    2    0    0  0.30414493937E+01 -0.17947073125E+02 -0.36356814133E+02  0.40659141433E+02  0.00000000000E+00 0. -1.
         11    1    3    3    0    0  0.84422531534E+01  0.79268994026E+01  0.36145813885E+01  0.12131470287E+02  0.51100000000E-03 0.  1.
        -11    1    3    3    0    0 -0.93362384049E+01  0.58248560181E+00  0.10063895694E+02  0.13739964841E+02  0.51100000000E-03 0. -1.
        -12    1    3    3    0    0 -0.21474641423E+01  0.94376881204E+01  0.22678337051E+02  0.24657423440E+02  0.00000000000E+00 0.  1.
</event>
<event>
 7    1  0.5121289E-013  0.5052886E+02  0.7816164E-02  0.1300439E+00
        -11   -1    0    0    0    0  0.00000000000E+00  0.00000000000E+00  0.45593999997E+02  0.45594000000E+02  0.51100000000E-03 0.  1.
         11   -1    0    0    0    0 -0.00000000000E+00 -0.00000000000E+00 -0.45593999997E+02  0.45594000000E+02  0.51100000000E-03 0. -1.
    9900012    2    1    2    0    0 -0.45240525321E+01 -0.18818934850E+02  0.35756763378E+02  0.50528862190E+02  0.30000007113E+02 0.  0.
         12    1    1    2    0    0  0.45240525321E+01  0.18818934850E+02 -0.35756763378E+02  0.40659137810E+02  0.00000000000E+00 0. -1.
         11    1    3    3    0    0 -0.27341375481E+01  0.67285721365E+00 -0.13468283171E+01  0.31212484263E+01  0.51100000000E-03 0. -1.
        -11    1    3    3    0    0 -0.22195798986E+00 -0.24781649336E+01 -0.29517462946E+01  0.38604887302E+01  0.51100000000E-03 0.  1.
        -12    1    3    3    0    0 -0.15679569942E+01 -0.17013627130E+02  0.40055337989E+02  0.43547125034E+02  0.00000000000E+00 0.  1.
</event>
<event>
 7    1  0.5121289E-013  0.5052885E+02  0.7816164E-02  0.1300439E+00
        -11   -1    0    0    0    0  0.00000000000E+00  0.00000000000E+00  0.45593999997E+02  0.45594000000E+02  0.51100000000E-03 0. -1.
         11   -1    0    0    0    0 -0.00000000000E+00 -0.00000000000E+00 -0.45593999997E+02  0.45594000000E+02  0.51100000000E-03 0.  1.
    9900012    2    1    2    0    0  0.96262704056E+01 -0.54207191090E+01 -0.39129489137E+02  0.50528853456E+02  0.29999980564E+02 0.  0.
         12    1    1    2    0    0 -0.96262704056E+01  0.54207191090E+01  0.39129489137E+02  0.40659146544E+02  0.00000000000E+00 0. -1.
         11    1    3    3    0    0 -0.16956030459E+01  0.40493710319E+01 -0.81212951037E+00  0.44645302156E+01  0.51100000000E-03 0.  1.
        -11    1    3    3    0    0 -0.42143228448E+00 -0.12644514901E+02 -0.13971437908E+02  0.18848406822E+02  0.51100000000E-03 0. -1.
        -12    1    3    3    0    0  0.11743305736E+02  0.31744247599E+01 -0.24345921719E+02  0.27215916419E+02  0.00000000000E+00 0.  1.
</event>
<event>
 7    1  0.5121289E-013  0.5052885E+02  0.7816164E-02  0.1300439E+00
        -11   -1    0    0    0    0  0.00000000000E+00  0.00000000000E+00  0.45593999997E+02  0.45594000000E+02  0.51100000000E-03 0. -1.
         11   -1    0    0    0    0 -0.00000000000E+00 -0.00000000000E+00 -0.45593999997E+02  0.45594000000E+02  0.51100000000E-03 0.  1.
    9900012    2    1    2    0    0  0.16636969433E+02  0.13209916299E+02 -0.34668077924E+02  0.50528852598E+02  0.29999977956E+02 0.  0.
         12    1    1    2    0    0 -0.16636969433E+02 -0.13209916299E+02  0.34668077924E+02  0.40659147402E+02  0.00000000000E+00 0. -1.
         11    1    3    3    0    0  0.14535095874E+02  0.83191930615E+01 -0.20915178284E+02  0.26794078976E+02  0.51100000000E-03 0. -1.
        -11    1    3    3    0    0  0.97997526468E+01  0.59958833052E+01 -0.92411328853E+01  0.14743958282E+02  0.51100000000E-03 0.  1.
        -12    1    3    3    0    0 -0.76978790879E+01 -0.11051600680E+01 -0.45117667545E+01  0.89908153398E+01  0.00000000000E+00 0.  1.
</event>
<event>
 7    1  0.5121289E-013  0.5052887E+02  0.7816164E-02  0.1300439E+00
        -11   -1    0    0    0    0  0.00000000000E+00  0.00000000000E+00  0.45593999997E+02  0.45594000000E+02  0.51100000000E-03 0.  1.
         11   -1    0    0    0    0 -0.00000000000E+00 -0.00000000000E+00 -0.45593999997E+02  0.45594000000E+02  0.51100000000E-03 0. -1.
    9900012    2    1    2    0    0  0.25030256599E+02 -0.29181078224E+02  0.13233139257E+02  0.50528867615E+02  0.30000023603E+02 0.  0.
         12    1    1    2    0    0 -0.25030256599E+02  0.29181078224E+02 -0.13233139257E+02  0.40659132385E+02  0.00000000000E+00 0. -1.
         11    1    3    3    0    0  0.71112115568E+01 -0.20265435061E+02 -0.45808068319E+01  0.21959985872E+02  0.51100000000E-03 0. -1.
        -11    1    3    3    0    0  0.32070357170E+01 -0.39209008833E+01  0.99275405116E+01  0.11145160506E+02  0.51100000000E-03 0.  1.
        -12    1    3    3    0    0  0.14712009325E+02 -0.49947422792E+01  0.78864055777E+01  0.17423721237E+02  0.00000000000E+00 0.  1.
</event>
<event>
 7    1  0.5121289E-013  0.5052886E+02  0.7816164E-02  0.1300439E+00
        -11   -1    0    0    0    0  0.00000000000E+00  0.00000000000E+00  0.45593999997E+02  0.45594000000E+02  0.51100000000E-03 0.  1.
         11   -1    0    0    0    0 -0.00000000000E+00 -0.00000000000E+00 -0.45593999997E+02  0.45594000000E+02  0.51100000000E-03 0. -1.
    9900012    2    1    2    0    0  0.34824550068E+02 -0.20951898309E+02 -0.11977124589E+01  0.50528857789E+02  0.29999993735E+02 0.  0.
         12    1    1    2    0    0 -0.34824550068E+02  0.20951898309E+02  0.11977124589E+01  0.40659142211E+02  0.00000000000E+00 0. -1.
         11    1    3    3    0    0  0.61537640322E+00 -0.33497522946E+01  0.92826073614E+00  0.35300420406E+01  0.51100000000E-03 0. -1.
        -11    1    3    3    0    0  0.36077561455E+01 -0.14981955855E+02  0.34290198923E+01  0.15787117639E+02  0.51100000000E-03 0.  1.
        -12    1    3    3    0    0  0.30601417520E+02 -0.26201901589E+01 -0.55549930873E+01  0.31211698110E+02  0.00000000000E+00 0.  1.
</event>
<event>
 7    1  0.5121289E-013  0.5052886E+02  0.7816164E-02  0.1300439E+00
        -11   -1    0    0    0    0  0.00000000000E+00  0.00000000000E+00  0.45593999997E+02  0.45594000000E+02  0.51100000000E-03 0.  1.
         11   -1    0    0    0    0 -0.00000000000E+00 -0.00000000000E+00 -0.45593999997E+02  0.45594000000E+02  0.51100000000E-03 0. -1.
    9900012    2    1    2    0    0  0.29614490574E+02  0.26387870721E+02  0.89346296098E+01  0.50528863519E+02  0.30000011151E+02 0.  0.
         12    1    1    2    0    0 -0.29614490574E+02 -0.26387870721E+02 -0.89346296098E+01  0.40659136481E+02  0.00000000000E+00 0. -1.
         11    1    3    3    0    0  0.68079132947E+01 -0.30832767241E+01  0.70238452363E+00  0.75065053830E+01  0.51100000000E-03 0. -1.
        -11    1    3    3    0    0  0.25876746796E+01 -0.18987212891E+01  0.44827421787E+01  0.55132731188E+01  0.51100000000E-03 0.  1.
        -12    1    3    3    0    0  0.20218902600E+02  0.31369868734E+02  0.37495029075E+01  0.37509085017E+02  0.00000000000E+00 0.  1.
</event>
<event>
 7    1  0.5121289E-013  0.5052886E+02  0.7816164E-02  0.1300439E+00
        -11   -1    0    0    0    0  0.00000000000E+00  0.00000000000E+00  0.45593999997E+02  0.45594000000E+02  0.51100000000E-03 0.  1.
         11   -1    0    0    0    0 -0.00000000000E+00 -0.00000000000E+00 -0.45593999997E+02  0.45594000000E+02  0.51100000000E-03 0. -1.
    9900012    2    1    2    0    0  0.26245175798E+02 -0.38786995227E+01  0.30810912240E+02  0.50528857416E+02  0.29999992601E+02 0.  0.
         12    1    1    2    0    0 -0.26245175798E+02  0.38786995227E+01 -0.30810912240E+02  0.40659142584E+02  0.00000000000E+00 0. -1.
         11    1    3    3    0    0 -0.21911612628E+01  0.35124191341E+01  0.81015749451E+00  0.42183683196E+01  0.51100000000E-03 0. -1.
        -11    1    3    3    0    0  0.67023421564E+01  0.29733356664E+00  0.20154933285E+02  0.21242201713E+02  0.51100000000E-03 0.  1.
        -12    1    3    3    0    0  0.21733994904E+02 -0.76884522234E+01  0.98458214601E+01  0.25068287383E+02  0.00000000000E+00 0.  1.
</event>
<event>
 7    1  0.5121289E-013  0.5052886E+02  0.7816164E-02  0.1300439E+00
        -11   -1    0    0    0    0  0.00000000000E+00  0.00000000000E+00  0.45593999997E+02  0.45594000000E+02  0.51100000000E-03 0.  1.
         11   -1    0    0    0    0 -0.00000000000E+00 -0.00000000000E+00 -0.45593999997E+02  0.45594000000E+02  0.51100000000E-03 0. -1.
    9900012    2    1    2    0    0  0.58765918254E+00 -0.39931743176E+02  0.76338821753E+01  0.50528860641E+02  0.30000002404E+02 0.  0.
         12    1    1    2    0    0 -0.58765918254E+00  0.39931743176E+02 -0.76338821753E+01  0.40659139359E+02  0.00000000000E+00 0. -1.
         11    1    3    3    0    0 -0.78666700239E+01 -0.17333922173E+02 -0.91956165881E+00  0.19057674283E+02  0.51100000000E-03 0. -1.
        -11    1    3    3    0    0 -0.41343260602E+01 -0.33374759773E+01  0.64633785944E+01  0.83669983260E+01  0.51100000000E-03 0.  1.
        -12    1    3    3    0    0  0.12588655267E+02 -0.19260345025E+02  0.20900652397E+01  0.23104188032E+02  0.00000000000E+00 0.  1.
</event>
<event>
 7    1  0.5121289E-013  0.5052887E+02  0.7816164E-02  0.1300439E+00
        -11   -1    0    0    0    0  0.00000000000E+00  0.00000000000E+00  0.45593999997E+02  0.45594000000E+02  0.51100000000E-03 0.  1.
         11   -1    0    0    0    0 -0.00000000000E+00 -0.00000000000E+00 -0.45593999997E+02  0.45594000000E+02  0.51100000000E-03 0. -1.
    9900012    2    1    2    0    0  0.30701127773E+02  0.25417968922E+02  0.80332103622E+01  0.50528869914E+02  0.30000030589E+02 0.  0.
         12    1    1    2    0    0 -0.30701127773E+02 -0.25417968922E+02 -0.80332103622E+01  0.40659130086E+02  0.00000000000E+00 0. -1.
         11    1    3    3    0    0  0.12848692587E+01 -0.46349875885E+01  0.31584815199E+01  0.57541293633E+01  0.51100000000E-03 0. -1.
        -11    1    3    3    0    0  0.77521711220E+01  0.10607518287E+02 -0.49656867107E+01  0.14045413703E+02  0.51100000000E-03 0.  1.
        -12    1    3    3    0    0  0.21664087392E+02  0.19445438224E+02  0.98404155530E+01  0.30729326848E+02  0.00000000000E+00 0.  1.
</event>
<event>
 7    1  0.5121289E-013  0.5052887E+02  0.7816164E-02  0.1300439E+00
        -11   -1    0    0    0    0  0.00000000000E+00  0.00000000000E+00  0.45593999997E+02  0.45594000000E+02  0.51100000000E-03 0.  1.
         11   -1    0    0    0    0 -0.00000000000E+00 -0.00000000000E+00 -0.45593999997E+02  0.45594000000E+02  0.51100000000E-03 0. -1.
    9900012    2    1    2    0    0 -0.18626205317E+02 -0.18891020009E+02  0.30811669060E+02  0.50528866810E+02  0.30000021157E+02 0.  0.
         12    1    1    2    0    0  0.18626205317E+02  0.18891020009E+02 -0.30811669060E+02  0.40659133190E+02  0.00000000000E+00 0. -1.
         11    1    3    3    0    0 -0.28611415702E+01 -0.11414419086E+02  0.28565575200E+01  0.12109294582E+02  0.51100000000E-03 0. -1.
        -11    1    3    3    0    0 -0.10143760051E+01 -0.75100894493E+01  0.93556825668E+00  0.76358162917E+01  0.51100000000E-03 0.  1.
        -12    1    3    3    0    0 -0.14750687742E+02  0.33488526651E-01  0.27019543283E+02  0.30783755937E+02  0.00000000000E+00 0.  1.
</event>
<event>
 7    1  0.5121289E-013  0.5052887E+02  0.7816164E-02  0.1300439E+00
        -11   -1    0    0    0    0  0.00000000000E+00  0.00000000000E+00  0.45593999997E+02  0.45594000000E+02  0.51100000000E-03 0. -1.
         11   -1    0    0    0    0 -0.00000000000E+00 -0.00000000000E+00 -0.45593999997E+02  0.45594000000E+02  0.51100000000E-03 0.  1.
    9900012    2    1    2    0    0  0.11214640741E+02 -0.30618183719E+02 -0.24288347835E+02  0.50528865949E+02  0.30000018539E+02 0.  0.
         12    1    1    2    0    0 -0.11214640741E+02  0.30618183719E+02  0.24288347835E+02  0.40659134051E+02  0.00000000000E+00 0. -1.
         11    1    3    3    0    0  0.89349534335E+01 -0.83332264156E+00  0.18298653299E+01  0.91583965229E+01  0.51100000000E-03 0. -1.
        -11    1    3    3    0    0 -0.15166481648E+01 -0.78155837350E+01 -0.14008311952E+01  0.80836810349E+01  0.51100000000E-03 0.  1.
         12    1    3    3    0    0  0.37963354722E+01 -0.21969277342E+02 -0.24717381970E+02  0.33286788391E+02  0.00000000000E+00 0. -1.
</event>
<event>
 7    1  0.5121289E-013  0.5052887E+02  0.7816164E-02  0.1300439E+00
        -11   -1    0    0    0    0  0.00000000000E+00  0.00000000000E+00  0.45593999997E+02  0.45594000000E+02  0.51100000000E-03 0.  1.
         11   -1    0    0    0    0 -0.00000000000E+00 -0.00000000000E+00 -0.45593999997E+02  0.45594000000E+02  0.51100000000E-03 0. -1.
    9900012    2    1    2    0    0  0.13083171780E+02  0.38100006399E+02 -0.55122258047E+01  0.50528874275E+02  0.30000043846E+02 0.  0.
         12    1    1    2    0    0 -0.13083171780E+02 -0.38100006399E+02  0.55122258047E+01  0.40659125725E+02  0.00000000000E+00 0. -1.
         11    1    3    3    0    0  0.10922362303E+02  0.31767644570E+02 -0.20224585204E+01  0.33653700815E+02  0.51100000000E-03 0. -1.
        -11    1    3    3    0    0  0.68708389977E+00  0.10284098439E+02  0.14180348029E+01  0.10404113992E+02  0.51100000000E-03 0.  1.
         12    1    3    3    0    0  0.14737255768E+01 -0.39517366103E+01 -0.49078020871E+01  0.64710594680E+01  0.00000000000E+00 0. -1.
</event>
<event>
 7    1  0.5121289E-013  0.5052886E+02  0.7816164E-02  0.1300439E+00
        -11   -1    0    0    0    0  0.00000000000E+00  0.00000000000E+00  0.45593999997E+02  0.45594000000E+02  0.51100000000E-03 0.  1.
         11   -1    0    0    0    0 -0.00000000000E+00 -0.00000000000E+00 -0.45593999997E+02  0.45594000000E+02  0.51100000000E-03 0. -1.
    9900012    2    1    2    0    0  0.33763997994E+01 -0.36867695076E+02  0.16808888007E+02  0.50528859185E+02  0.29999997978E+02 0.  0.
         12    1    1    2    0    0 -0.33763997994E+01  0.36867695076E+02 -0.16808888007E+02  0.40659140815E+02  0.00000000000E+00 0. -1.
         11    1    3    3    0    0 -0.90400737282E+00 -0.89873995498E+01  0.17973089227E+02  0.20115230961E+02  0.51100000000E-03 0. -1.
        -11    1    3    3    0    0  0.21340125730E+01 -0.19868438992E+02  0.43537027378E+01  0.20451493966E+02  0.51100000000E-03 0.  1.
        -12    1    3    3    0    0  0.21463945992E+01 -0.80118565337E+01 -0.55179039575E+01  0.99621342581E+01  0.00000000000E+00 0.  1.
</event>
<event>
 7    1  0.5121289E-013  0.5052888E+02  0.7816164E-02  0.1300439E+00
        -11   -1    0    0    0    0  0.00000000000E+00  0.00000000000E+00  0.45593999997E+02  0.45594000000E+02  0.51100000000E-03 0.  1.
         11   -1    0    0    0    0 -0.00000000000E+00 -0.00000000000E+00 -0.45593999997E+02  0.45594000000E+02  0.51100000000E-03 0. -1.
    9900012    2    1    2    0    0 -0.43882865247E+01  0.18633221012E+02  0.35870735929E+02  0.50528884417E+02  0.30000074674E+02 0.  0.
         12    1    1    2    0    0  0.43882865247E+01 -0.18633221012E+02 -0.35870735929E+02  0.40659115583E+02  0.00000000000E+00 0. -1.
         11    1    3    3    0    0 -0.59800534914E+01 -0.48691345464E+00  0.11449399228E+02  0.12926208547E+02  0.51100000000E-03 0. -1.
        -11    1    3    3    0    0 -0.76056911580E+01  0.72805033014E+00  0.95237232897E+01  0.12209746141E+02  0.51100000000E-03 0.  1.
         12    1    3    3    0    0  0.91974581248E+01  0.18392084136E+02  0.14897613411E+02  0.25392929728E+02  0.00000000000E+00 0. -1.
</event>
<event>
 7    1  0.5121289E-013  0.5052883E+02  0.7816164E-02  0.1300439E+00
        -11   -1    0    0    0    0  0.00000000000E+00  0.00000000000E+00  0.45593999997E+02  0.45594000000E+02  0.51100000000E-03 0. -1.
         11   -1    0    0    0    0 -0.00000000000E+00 -0.00000000000E+00 -0.45593999997E+02  0.45594000000E+02  0.51100000000E-03 0.  1.
    9900012    2    1    2    0    0 -0.62926754350E+01 -0.34791528663E+02  0.20077846959E+02  0.50528829210E+02  0.29999906866E+02 0.  0.
         12    1    1    2    0    0  0.62926754350E+01  0.34791528663E+02 -0.20077846959E+02  0.40659170790E+02  0.00000000000E+00 0. -1.
         11    1    3    3    0    0 -0.51870735590E+01 -0.32572228525E+02  0.16503860285E+02  0.36881339560E+02  0.51100000000E-03 0. -1.
        -11    1    3    3    0    0  0.15736758912E+01 -0.70719875430E+01  0.39118211782E+00  0.72555142705E+01  0.51100000000E-03 0.  1.
         12    1    3    3    0    0 -0.26792777673E+01  0.48526874048E+01  0.31828045564E+01  0.63919753791E+01  0.00000000000E+00 0. -1.
</event>
<event>
 7    1  0.5121289E-013  0.5052883E+02  0.7816164E-02  0.1300439E+00
        -11   -1    0    0    0    0  0.00000000000E+00  0.00000000000E+00  0.45593999997E+02  0.45594000000E+02  0.51100000000E-03 0.  1.
         11   -1    0    0    0    0 -0.00000000000E+00 -0.00000000000E+00 -0.45593999997E+02  0.45594000000E+02  0.51100000000E-03 0. -1.
    9900012    2    1    2    0    0 -0.20700684944E+02 -0.30811878991E+01  0.34859088541E+02  0.50528829695E+02  0.29999908341E+02 0.  0.
         12    1    1    2    0    0  0.20700684944E+02  0.30811878991E+01 -0.34859088541E+02  0.40659170305E+02  0.00000000000E+00 0. -1.
         11    1    3    3    0    0 -0.88369722211E+01  0.31220367229E-01  0.38920225937E+01  0.96561323975E+01  0.51100000000E-03 0. -1.
        -11    1    3    3    0    0 -0.15959377888E+02 -0.44913743565E+01  0.97791133483E+01  0.19248512782E+02  0.51100000000E-03 0.  1.
        -12    1    3    3    0    0  0.40956651653E+01  0.13789660901E+01  0.21187952599E+02  0.21624184515E+02  0.00000000000E+00 0.  1.
</event>
<event>
 7    1  0.5121289E-013  0.5052885E+02  0.7816164E-02  0.1300439E+00
        -11   -1    0    0    0    0  0.00000000000E+00  0.00000000000E+00  0.45593999997E+02  0.45594000000E+02  0.51100000000E-03 0. -1.
         11   -1    0    0    0    0 -0.00000000000E+00 -0.00000000000E+00 -0.45593999997E+02  0.45594000000E+02  0.51100000000E-03 0.  1.
    9900012    2    1    2    0    0 -0.80345463148E+01  0.20186226436E+02 -0.34367550499E+02  0.50528853434E+02  0.29999980498E+02 0.  0.
         12    1    1    2    0    0  0.80345463148E+01 -0.20186226436E+02  0.34367550499E+02  0.40659146566E+02  0.00000000000E+00 0. -1.
         11    1    3    3    0    0  0.31008248994E+01  0.33736848095E+01 -0.19953290570E+01  0.49978197804E+01  0.51100000000E-03 0. -1.
        -11    1    3    3    0    0  0.71559853191E+01  0.58842340424E+01 -0.41063094091E+01  0.10133810408E+02  0.51100000000E-03 0.  1.
        -12    1    3    3    0    0 -0.18291356533E+02  0.10928307584E+02 -0.28265912033E+02  0.35397223246E+02  0.00000000000E+00 0.  1.
</event>
<event>
 7    1  0.5121289E-013  0.5052885E+02  0.7816164E-02  0.1300439E+00
        -11   -1    0    0    0    0  0.00000000000E+00  0.00000000000E+00  0.45593999997E+02  0.45594000000E+02  0.51100000000E-03 0.  1.
         11   -1    0    0    0    0 -0.00000000000E+00 -0.00000000000E+00 -0.45593999997E+02  0.45594000000E+02  0.51100000000E-03 0. -1.
    9900012    2    1    2    0    0 -0.19173472786E+01 -0.15666682118E+02  0.37470588745E+02  0.50528853796E+02  0.29999981598E+02 0.  0.
         12    1    1    2    0    0  0.19173472786E+01  0.15666682118E+02 -0.37470588745E+02  0.40659146204E+02  0.00000000000E+00 0. -1.
         11    1    3    3    0    0 -0.72691637965E+01 -0.60471463823E+01  0.15969806605E+02  0.18559187615E+02  0.51100000000E-03 0.  1.
        -11    1    3    3    0    0 -0.33049306346E+01 -0.70837670280E+01  0.21576546737E+02  0.22948849451E+02  0.51100000000E-03 0. -1.
         12    1    3    3    0    0  0.86567471525E+01 -0.25357687075E+01 -0.75764596594E-01  0.90208167299E+01  0.00000000000E+00 0. -1.
</event>
<event>
 7    1  0.5121289E-013  0.5052883E+02  0.7816164E-02  0.1300439E+00
        -11   -1    0    0    0    0  0.00000000000E+00  0.00000000000E+00  0.45593999997E+02  0.45594000000E+02  0.51100000000E-03 0. -1.
         11   -1    0    0    0    0 -0.00000000000E+00 -0.00000000000E+00 -0.45593999997E+02  0.45594000000E+02  0.51100000000E-03 0.  1.
    9900012    2    1    2    0    0  0.29028274886E+01  0.24254784272E+02 -0.32503032428E+02  0.50528830253E+02  0.29999910036E+02 0.  0.
         12    1    1    2    0    0 -0.29028274886E+01 -0.24254784272E+02  0.32503032428E+02  0.40659169747E+02  0.00000000000E+00 0. -1.
         11    1    3    3    0    0 -0.45767617556E+01  0.17934769040E+02 -0.17099675364E+02  0.25199237816E+02  0.51100000000E-03 0. -1.
        -11    1    3    3    0    0 -0.50346067419E+01  0.56184278229E+01 -0.51251467765E+01  0.91203687419E+01  0.51100000000E-03 0.  1.
         12    1    3    3    0    0  0.12514195986E+02  0.70158740873E+00 -0.10278210288E+02  0.16209223695E+02  0.00000000000E+00 0. -1.
</event>
<event>
 7    1  0.5121289E-013  0.5052886E+02  0.7816164E-02  0.1300439E+00
        -11   -1    0    0    0    0  0.00000000000E+00  0.00000000000E+00  0.45593999997E+02  0.45594000000E+02  0.51100000000E-03 0.  1.
         11   -1    0    0    0    0 -0.00000000000E+00 -0.00000000000E+00 -0.45593999997E+02  0.45594000000E+02  0.51100000000E-03 0. -1.
    9900012    2    1    2    0    0  0.30413394003E+02  0.13548211141E+02  0.23337462662E+02  0.50528859288E+02  0.29999998293E+02 0.  0.
         12    1    1    2    0    0 -0.30413394003E+02 -0.13548211141E+02 -0.23337462662E+02  0.40659140712E+02  0.00000000000E+00 0. -1.
         11    1    3    3    0    0 -0.21467868586E+01 -0.32290747158E+01  0.31532394744E+01  0.49978532172E+01  0.51100000000E-03 0. -1.
        -11    1    3    3    0    0  0.50259052797E+01  0.15434274889E+01  0.11872063234E+02  0.12984135627E+02  0.51100000000E-03 0.  1.
         12    1    3    3    0    0  0.27534275582E+02  0.15233858368E+02  0.83121599538E+01  0.32546870444E+02  0.00000000000E+00 0. -1.
</event>
<event>
 7    1  0.5121289E-013  0.5052886E+02  0.7816164E-02  0.1300439E+00
        -11   -1    0    0    0    0  0.00000000000E+00  0.00000000000E+00  0.45593999997E+02  0.45594000000E+02  0.51100000000E-03 0.  1.
         11   -1    0    0    0    0 -0.00000000000E+00 -0.00000000000E+00 -0.45593999997E+02  0.45594000000E+02  0.51100000000E-03 0. -1.
    9900012    2    1    2    0    0 -0.25912304781E+02  0.15941030523E+02  0.26974091997E+02  0.50528860409E+02  0.30000001700E+02 0.  0.
         12    1    1    2    0    0  0.25912304781E+02 -0.15941030523E+02 -0.26974091997E+02  0.40659139591E+02  0.00000000000E+00 0. -1.
         11    1    3    3    0    0 -0.10006759285E+02  0.70335063015E+01  0.50061665985E+00  0.12241570961E+02  0.51100000000E-03 0. -1.
        -11    1    3    3    0    0 -0.70776156771E+01  0.14799008026E+01 -0.20527376858E+01  0.75164141933E+01  0.51100000000E-03 0.  1.
        -12    1    3    3    0    0 -0.88279298189E+01  0.74276234193E+01  0.28526213023E+02  0.30770875255E+02  0.00000000000E+00 0.  1.
</event>
<event>
 7    1  0.5121289E-013  0.5052888E+02  0.7816164E-02  0.1300439E+00
        -11   -1    0    0    0    0  0.00000000000E+00  0.00000000000E+00  0.45593999997E+02  0.45594000000E+02  0.51100000000E-03 0. -1.
         11   -1    0    0    0    0 -0.00000000000E+00 -0.00000000000E+00 -0.45593999997E+02  0.45594000000E+02  0.51100000000E-03 0.  1.
    9900012    2    1    2    0    0 -0.27441485571E+02  0.29159252989E+02  0.70616717843E+01  0.50528875887E+02  0.30000048747E+02 0.  0.
         12    1    1    2    0    0  0.27441485571E+02 -0.29159252989E+02 -0.70616717843E+01  0.40659124113E+02  0.00000000000E+00 0. -1.
         11    1    3    3    0    0 -0.16016773379E+01  0.99984248412E+01 -0.20463084937E+01  0.10330597674E+02  0.51100000000E-03 0.  1.
        -11    1    3    3    0    0 -0.94778002139E+01 -0.64087960879E+00 -0.51643891250E+01  0.10812508445E+02  0.51100000000E-03 0. -1.
        -12    1    3    3    0    0 -0.16362008019E+02  0.19801707756E+02  0.14272369403E+02  0.29385769768E+02  0.00000000000E+00 0.  1.
</event>
<event>
 7    1  0.5121289E-013  0.5052883E+02  0.7816164E-02  0.1300439E+00
        -11   -1    0    0    0    0  0.00000000000E+00  0.00000000000E+00  0.45593999997E+02  0.45594000000E+02  0.51100000000E-03 0.  1.
         11   -1    0    0    0    0 -0.00000000000E+00 -0.00000000000E+00 -0.45593999997E+02  0.45594000000E+02  0.51100000000E-03 0. -1.
    9900012    2    1    2    0    0 -0.11718872169E+02  0.73534335351E+01  0.38233014563E+02  0.50528826961E+02  0.29999900031E+02 0.  0.
         12    1    1    2    0    0  0.11718872169E+02 -0.73534335351E+01 -0.38233014563E+02  0.40659173039E+02  0.00000000000E+00 0. -1.
         11    1    3    3    0    0  0.11921645654E+01 -0.47073211217E+01  0.43171430877E+01  0.64975266983E+01  0.51100000000E-03 0. -1.
        -11    1    3    3    0    0 -0.17965589119E+01 -0.43617912263E+01  0.17988715218E+02  0.18596954646E+02  0.51100000000E-03 0.  1.
         12    1    3    3    0    0 -0.11114477822E+02  0.16422545883E+02  0.15927156257E+02  0.25434345617E+02  0.00000000000E+00 0. -1.
</event>
<event>
 7    1  0.5121289E-013  0.5052886E+02  0.7816164E-02  0.1300439E+00
        -11   -1    0    0    0    0  0.00000000000E+00  0.00000000000E+00  0.45593999997E+02  0.45594000000E+02  0.51100000000E-03 0. -1.
         11   -1    0    0    0    0 -0.00000000000E+00 -0.00000000000E+00 -0.45593999997E+02  0.45594000000E+02  0.51100000000E-03 0.  1.
    9900012    2    1    2    0    0  0.36691945480E+01 -0.38108992587E+02 -0.13689687921E+02  0.50528857608E+02  0.29999993187E+02 0.  0.
         12    1    1    2    0    0 -0.36691945480E+01  0.38108992587E+02  0.13689687921E+02  0.40659142392E+02  0.00000000000E+00 0. -1.
         11    1    3    3    0    0  0.12592364967E+02 -0.62510213451E+01 -0.37461609329E+01  0.14549111496E+02  0.51100000000E-03 0. -1.
        -11    1    3    3    0    0 -0.14971604121E+01 -0.21316843541E+02 -0.38309294356E+01  0.21710028292E+02  0.51100000000E-03 0.  1.
        -12    1    3    3    0    0 -0.74260100070E+01 -0.10541127702E+02 -0.61125975526E+01  0.14269717821E+02  0.00000000000E+00 0.  1.
</event>
<event>
 7    1  0.5121289E-013  0.5052884E+02  0.7816164E-02  0.1300439E+00
        -11   -1    0    0    0    0  0.00000000000E+00  0.00000000000E+00  0.45593999997E+02  0.45594000000E+02  0.51100000000E-03 0.  1.
         11   -1    0    0    0    0 -0.00000000000E+00 -0.00000000000E+00 -0.45593999997E+02  0.45594000000E+02  0.51100000000E-03 0. -1.
    9900012    2    1    2    0    0  0.29050110211E+02  0.91418868099E+01  0.26938525477E+02  0.50528841714E+02  0.29999944873E+02 0.  0.
         12    1    1    2    0    0 -0.29050110211E+02 -0.91418868099E+01 -0.26938525477E+02  0.40659158286E+02  0.00000000000E+00 0. -1.
         11    1    3    3    0    0  0.57161027667E+01 -0.33982368196E+01  0.24129622180E+01  0.70741947420E+01  0.51100000000E-03 0. -1.
        -11    1    3    3    0    0  0.12519213813E+02 -0.30494181016E+01  0.57320392086E+00  0.12897993187E+02  0.51100000000E-03 0.  1.
        -12    1    3    3    0    0  0.10814793631E+02  0.15589541731E+02  0.23952359338E+02  0.30556653785E+02  0.00000000000E+00 0.  1.
</event>
<event>
 7    1  0.5121289E-013  0.5052890E+02  0.7816164E-02  0.1300439E+00
        -11   -1    0    0    0    0  0.00000000000E+00  0.00000000000E+00  0.45593999997E+02  0.45594000000E+02  0.51100000000E-03 0.  1.
         11   -1    0    0    0    0 -0.00000000000E+00 -0.00000000000E+00 -0.45593999997E+02  0.45594000000E+02  0.51100000000E-03 0. -1.
    9900012    2    1    2    0    0  0.85302900841E+00  0.18961967008E+02  0.35956620830E+02  0.50528899754E+02  0.30000121293E+02 0.  0.
         12    1    1    2    0    0 -0.85302900841E+00 -0.18961967008E+02 -0.35956620830E+02  0.40659100246E+02  0.00000000000E+00 0. -1.
         11    1    3    3    0    0 -0.99246138234E+00  0.83524630815E+01  0.89651587141E+01  0.12293196905E+02  0.51100000000E-03 0. -1.
        -11    1    3    3    0    0  0.80253975226E+01  0.15153575130E+02  0.10655774893E+02  0.20188694446E+02  0.51100000000E-03 0.  1.
        -12    1    3    3    0    0 -0.61799071319E+01 -0.45440712035E+01  0.16335687223E+02  0.18047008403E+02  0.00000000000E+00 0.  1.
</event>
<event>
 7    1  0.5121289E-013  0.5052886E+02  0.7816164E-02  0.1300439E+00
        -11   -1    0    0    0    0  0.00000000000E+00  0.00000000000E+00  0.45593999997E+02  0.45594000000E+02  0.51100000000E-03 0. -1.
         11   -1    0    0    0    0 -0.00000000000E+00 -0.00000000000E+00 -0.45593999997E+02  0.45594000000E+02  0.51100000000E-03 0.  1.
    9900012    2    1    2    0    0 -0.59595691130E+01 -0.39778317348E+02  0.59442786905E+01  0.50528862722E+02  0.30000008729E+02 0.  0.
         12    1    1    2    0    0  0.59595691130E+01  0.39778317348E+02 -0.59442786905E+01  0.40659137278E+02  0.00000000000E+00 0. -1.
         11    1    3    3    0    0 -0.83313621549E+01 -0.36094478627E+01 -0.23977062511E+01  0.93908841308E+01  0.51100000000E-03 0.  1.
        -11    1    3    3    0    0 -0.21873902391E+01 -0.13996782188E+02  0.11546739244E+02  0.18276262613E+02  0.51100000000E-03 0. -1.
        -12    1    3    3    0    0  0.45591832810E+01 -0.22172087297E+02 -0.32047543020E+01  0.22861715978E+02  0.00000000000E+00 0.  1.
</event>
<event>
 7    1  0.5121289E-013  0.5052884E+02  0.7816164E-02  0.1300439E+00
        -11   -1    0    0    0    0  0.00000000000E+00  0.00000000000E+00  0.45593999997E+02  0.45594000000E+02  0.51100000000E-03 0.  1.
         11   -1    0    0    0    0 -0.00000000000E+00 -0.00000000000E+00 -0.45593999997E+02  0.45594000000E+02  0.51100000000E-03 0. -1.
    9900012    2    1    2    0    0  0.14161142367E+02  0.53320213429E+01  0.37738556587E+02  0.50528842877E+02  0.29999948408E+02 0.  0.
         12    1    1    2    0    0 -0.14161142367E+02 -0.53320213429E+01 -0.37738556587E+02  0.40659157123E+02  0.00000000000E+00 0. -1.
         11    1    3    3    0    0  0.10673476115E+01 -0.19367114767E+01  0.68469547888E+01  0.71951978715E+01  0.51100000000E-03 0. -1.
        -11    1    3    3    0    0 -0.81159134284E+01  0.34492289077E+01  0.96928399051E+01  0.13104059544E+02  0.51100000000E-03 0.  1.
         12    1    3    3    0    0  0.21209708184E+02  0.38195039119E+01  0.21198761893E+02  0.30229585462E+02  0.00000000000E+00 0. -1.
</event>
<event>
 7    1  0.5121289E-013  0.5052886E+02  0.7816164E-02  0.1300439E+00
        -11   -1    0    0    0    0  0.00000000000E+00  0.00000000000E+00  0.45593999997E+02  0.45594000000E+02  0.51100000000E-03 0.  1.
         11   -1    0    0    0    0 -0.00000000000E+00 -0.00000000000E+00 -0.45593999997E+02  0.45594000000E+02  0.51100000000E-03 0. -1.
    9900012    2    1    2    0    0  0.38560965063E+02  0.12677245226E+02  0.23462779201E+01  0.50528860890E+02  0.30000003160E+02 0.  0.
         12    1    1    2    0    0 -0.38560965063E+02 -0.12677245226E+02 -0.23462779201E+01  0.40659139110E+02  0.00000000000E+00 0. -1.
         11    1    3    3    0    0  0.60159917672E+00 -0.36329834750E+01  0.15131208550E+01  0.39812090477E+01  0.51100000000E-03 0. -1.
        -11    1    3    3    0    0  0.35162203396E+01  0.61649229725E+01  0.71677131957E+01  0.10086931815E+02  0.51100000000E-03 0.  1.
        -12    1    3    3    0    0  0.34443145547E+02  0.10145305729E+02 -0.63345561306E+01  0.36460720026E+02  0.00000000000E+00 0.  1.
</event>
<event>
 7    1  0.5121289E-013  0.5052889E+02  0.7816164E-02  0.1300439E+00
        -11   -1    0    0    0    0  0.00000000000E+00  0.00000000000E+00  0.45593999997E+02  0.45594000000E+02  0.51100000000E-03 0.  1.
         11   -1    0    0    0    0 -0.00000000000E+00 -0.00000000000E+00 -0.45593999997E+02  0.45594000000E+02  0.51100000000E-03 0. -1.
    9900012    2    1    2    0    0  0.23516444173E+02 -0.28784974715E+02  0.16479232299E+02  0.50528892619E+02  0.30000099605E+02 0.  0.
         12    1    1    2    0    0 -0.23516444173E+02  0.28784974715E+02 -0.16479232299E+02  0.40659107381E+02  0.00000000000E+00 0. -1.
         11    1    3    3    0    0  0.40726293866E+01 -0.39187693220E+01  0.46978733756E+00  0.56713105649E+01  0.51100000000E-03 0. -1.
        -11    1    3    3    0    0  0.68486196294E+01 -0.12567297520E+02 -0.69625932311E+01  0.15915975074E+02  0.51100000000E-03 0.  1.
         12    1    3    3    0    0  0.12595195157E+02 -0.12298907873E+02  0.22972038192E+02  0.28941606980E+02  0.00000000000E+00 0. -1.
</event>
<event>
 7    1  0.5121289E-013  0.5052885E+02  0.7816164E-02  0.1300439E+00
        -11   -1    0    0    0    0  0.00000000000E+00  0.00000000000E+00  0.45593999997E+02  0.45594000000E+02  0.51100000000E-03 0. -1.
         11   -1    0    0    0    0 -0.00000000000E+00 -0.00000000000E+00 -0.45593999997E+02  0.45594000000E+02  0.51100000000E-03 0.  1.
    9900012    2    1    2    0    0 -0.16018738881E+02 -0.26528344102E+02 -0.26321349328E+02  0.50528850149E+02  0.29999970513E+02 0.  0.
         12    1    1    2    0    0  0.16018738881E+02  0.26528344102E+02  0.26321349328E+02  0.40659149851E+02  0.00000000000E+00 0. -1.
         11    1    3    3    0    0 -0.80340524714E+01  0.27224844532E+00 -0.16296954940E+02  0.18171704899E+02  0.51100000000E-03 0. -1.
        -11    1    3    3    0    0 -0.73025958716E+01 -0.62607265040E+01 -0.62254465171E+01  0.11457782832E+02  0.51100000000E-03 0.  1.
         12    1    3    3    0    0 -0.68209053821E+00 -0.20539866043E+02 -0.37989478710E+01  0.20899362419E+02  0.00000000000E+00 0. -1.
</event>
<event>
 7    1  0.5121289E-013  0.5052884E+02  0.7816164E-02  0.1300439E+00
        -11   -1    0    0    0    0  0.00000000000E+00  0.00000000000E+00  0.45593999997E+02  0.45594000000E+02  0.51100000000E-03 0. -1.
         11   -1    0    0    0    0 -0.00000000000E+00 -0.00000000000E+00 -0.45593999997E+02  0.45594000000E+02  0.51100000000E-03 0.  1.
    9900012    2    1    2    0    0 -0.21221002391E+02  0.34680917001E+02  0.26502983412E+00  0.50528841286E+02  0.29999943574E+02 0.  0.
         12    1    1    2    0    0  0.21221002391E+02 -0.34680917001E+02 -0.26502983412E+00  0.40659158714E+02  0.00000000000E+00 0. -1.
         11    1    3    3    0    0 -0.83186392087E+01  0.14702792876E+02  0.89315420680E+01  0.19108749844E+02  0.51100000000E-03 0. -1.
        -11    1    3    3    0    0 -0.42070850938E+01  0.46151391844E+01  0.58560434763E+01  0.85610933960E+01  0.51100000000E-03 0.  1.
         12    1    3    3    0    0 -0.86952780888E+01  0.15362984940E+02 -0.14522555710E+02  0.22858998046E+02  0.00000000000E+00 0. -1.
</event>
<event>
 7    1  0.5121289E-013  0.5052887E+02  0.7816164E-02  0.1300439E+00
        -11   -1    0    0    0    0  0.00000000000E+00  0.00000000000E+00  0.45593999997E+02  0.45594000000E+02  0.51100000000E-03 0.  1.
         11   -1    0    0    0    0 -0.00000000000E+00 -0.00000000000E+00 -0.45593999997E+02  0.45594000000E+02  0.51100000000E-03 0. -1.
    9900012    2    1    2    0    0 -0.13746981825E+02 -0.24424656174E+02  0.29455409990E+02  0.50528874134E+02  0.30000043418E+02 0.  0.
         12    1    1    2    0    0  0.13746981825E+02  0.24424656174E+02 -0.29455409990E+02  0.40659125866E+02  0.00000000000E+00 0. -1.
         11    1    3    3    0    0  0.11997953032E-01  0.74757281406E+00  0.99473058907E+01  0.99753648458E+01  0.51100000000E-03 0. -1.
        -11    1    3    3    0    0 -0.53465877785E+00  0.34239398304E+01  0.44327486306E+01  0.56265873008E+01  0.51100000000E-03 0.  1.
        -12    1    3    3    0    0 -0.13224321000E+02 -0.28596168819E+02  0.15075355469E+02  0.34926921987E+02  0.00000000000E+00 0.  1.
</event>
<event>
 7    1  0.5121289E-013  0.5052886E+02  0.7816164E-02  0.1300439E+00
        -11   -1    0    0    0    0  0.00000000000E+00  0.00000000000E+00  0.45593999997E+02  0.45594000000E+02  0.51100000000E-03 0.  1.
         11   -1    0    0    0    0 -0.00000000000E+00 -0.00000000000E+00 -0.45593999997E+02  0.45594000000E+02  0.51100000000E-03 0. -1.
    9900012    2    1    2    0    0 -0.38943593907E+02 -0.70849591441E+01  0.92933003393E+01  0.50528861007E+02  0.30000003518E+02 0.  0.
         12    1    1    2    0    0  0.38943593907E+02  0.70849591441E+01 -0.92933003393E+01  0.40659138993E+02  0.00000000000E+00 0. -1.
         11    1    3    3    0    0 -0.13697558115E+02  0.72881998484E+01 -0.11059045751E+01  0.15555191434E+02  0.51100000000E-03 0. -1.
        -11    1    3    3    0    0 -0.17857068382E+02 -0.99955604681E+00  0.35700325575E+01  0.18237849002E+02  0.51100000000E-03 0.  1.
        -12    1    3    3    0    0 -0.73889674089E+01 -0.13373602946E+02  0.68291723569E+01  0.16735820571E+02  0.00000000000E+00 0.  1.
</event>
<event>
 7    1  0.5121289E-013  0.5052886E+02  0.7816164E-02  0.1300439E+00
        -11   -1    0    0    0    0  0.00000000000E+00  0.00000000000E+00  0.45593999997E+02  0.45594000000E+02  0.51100000000E-03 0.  1.
         11   -1    0    0    0    0 -0.00000000000E+00 -0.00000000000E+00 -0.45593999997E+02  0.45594000000E+02  0.51100000000E-03 0. -1.
    9900012    2    1    2    0    0 -0.21070285945E+01 -0.46141424018E+01  0.40341491074E+02  0.50528858571E+02  0.29999996114E+02 0.  0.
         12    1    1    2    0    0  0.21070285945E+01  0.46141424018E+01 -0.40341491074E+02  0.40659141429E+02  0.00000000000E+00 0. -1.
         11    1    3    3    0    0  0.28449000856E+01  0.44801323772E+01  0.91415263668E+01  0.10570361734E+02  0.51100000000E-03 0. -1.
        -11    1    3    3    0    0  0.64760920117E+01 -0.37493135019E+01  0.24614727786E+02  0.25727066365E+02  0.51100000000E-03 0.  1.
         12    1    3    3    0    0 -0.11428020692E+02 -0.53449612770E+01  0.65852369212E+01  0.14231430473E+02  0.00000000000E+00 0. -1.
</event>
<event>
 7    1  0.5121289E-013  0.5052886E+02  0.7816164E-02  0.1300439E+00
        -11   -1    0    0    0    0  0.00000000000E+00  0.00000000000E+00  0.45593999997E+02  0.45594000000E+02  0.51100000000E-03 0. -1.
         11   -1    0    0    0    0 -0.00000000000E+00 -0.00000000000E+00 -0.45593999997E+02  0.45594000000E+02  0.51100000000E-03 0.  1.
    9900012    2    1    2    0    0 -0.11615902269E+02  0.38798608625E+02 -0.35922815110E+01  0.50528859537E+02  0.29999999048E+02 0.  0.
         12    1    1    2    0    0  0.11615902269E+02 -0.38798608625E+02  0.35922815110E+01  0.40659140463E+02  0.00000000000E+00 0. -1.
         11    1    3    3    0    0  0.81694388351E+00  0.23218826447E+02  0.45909694502E+01  0.23682447078E+02  0.51100000000E-03 0. -1.
        -11    1    3    3    0    0 -0.13890566022E+02  0.16378970741E+02 -0.33505766718E+01  0.21735797000E+02  0.51100000000E-03 0.  1.
        -12    1    3    3    0    0  0.14577198695E+01 -0.79918856229E+00 -0.48326742894E+01  0.51106154584E+01  0.00000000000E+00 0.  1.
</event>
<event>
 7    1  0.5121289E-013  0.5052887E+02  0.7816164E-02  0.1300439E+00
        -11   -1    0    0    0    0  0.00000000000E+00  0.00000000000E+00  0.45593999997E+02  0.45594000000E+02  0.51100000000E-03 0.  1.
         11   -1    0    0    0    0 -0.00000000000E+00 -0.00000000000E+00 -0.45593999997E+02  0.45594000000E+02  0.51100000000E-03 0. -1.
    9900012    2    1    2    0    0  0.55036109641E+01  0.26194267390E+02  0.30606136740E+02  0.50528868383E+02  0.30000025935E+02 0.  0.
         12    1    1    2    0    0 -0.55036109641E+01 -0.26194267390E+02 -0.30606136740E+02  0.40659131617E+02  0.00000000000E+00 0. -1.
         11    1    3    3    0    0  0.13085358438E+02  0.55114146724E+01  0.12586044403E+02  0.18973950857E+02  0.51100000000E-03 0. -1.
        -11    1    3    3    0    0 -0.17291837205E+01  0.86439875292E+01  0.15648156204E+02  0.17960328215E+02  0.51100000000E-03 0.  1.
         12    1    3    3    0    0 -0.58525637530E+01  0.12038865189E+02  0.23719361326E+01  0.13594589311E+02  0.00000000000E+00 0. -1.
</event>
<event>
 7    1  0.5121289E-013  0.5052887E+02  0.7816164E-02  0.1300439E+00
        -11   -1    0    0    0    0  0.00000000000E+00  0.00000000000E+00  0.45593999997E+02  0.45594000000E+02  0.51100000000E-03 0.  1.
         11   -1    0    0    0    0 -0.00000000000E+00 -0.00000000000E+00 -0.45593999997E+02  0.45594000000E+02  0.51100000000E-03 0. -1.
    9900012    2    1    2    0    0 -0.24709692842E+02 -0.64675757326E+01  0.31634894250E+02  0.50528868303E+02  0.30000025692E+02 0.  0.
         12    1    1    2    0    0  0.24709692842E+02  0.64675757326E+01 -0.31634894250E+02  0.40659131697E+02  0.00000000000E+00 0. -1.
         11    1    3    3    0    0 -0.98873983872E+01 -0.24338881260E+01  0.21334021614E+02  0.23639478353E+02  0.51100000000E-03 0. -1.
        -11    1    3    3    0    0 -0.91200065081E+01 -0.28698510535E+01  0.16067181292E+02  0.18696654212E+02  0.51100000000E-03 0.  1.
         12    1    3    3    0    0 -0.57022879466E+01 -0.11638365531E+01 -0.57663086569E+01  0.81927357381E+01  0.00000000000E+00 0. -1.
</event>
<event>
 7    1  0.5121289E-013  0.5052887E+02  0.7816164E-02  0.1300439E+00
        -11   -1    0    0    0    0  0.00000000000E+00  0.00000000000E+00  0.45593999997E+02  0.45594000000E+02  0.51100000000E-03 0.  1.
         11   -1    0    0    0    0 -0.00000000000E+00 -0.00000000000E+00 -0.45593999997E+02  0.45594000000E+02  0.51100000000E-03 0. -1.
    9900012    2    1    2    0    0 -0.74384273068E+01 -0.36640356665E+02  0.15978709430E+02  0.50528867048E+02  0.30000021880E+02 0.  0.
         12    1    1    2    0    0  0.74384273068E+01  0.36640356665E+02 -0.15978709430E+02  0.40659132952E+02  0.00000000000E+00 0. -1.
         11    1    3    3    0    0 -0.48855497829E+01 -0.44353323727E+01 -0.31101975273E+01  0.72947994392E+01  0.51100000000E-03 0. -1.
        -11    1    3    3    0    0 -0.11305163873E+02 -0.20018792456E+02  0.72011117974E+01  0.24091799289E+02  0.51100000000E-03 0.  1.
        -12    1    3    3    0    0  0.87522863487E+01 -0.12186231836E+02  0.11887795159E+02  0.19142268321E+02  0.00000000000E+00 0.  1.
</event>
<event>
 7    1  0.5121289E-013  0.5052888E+02  0.7816164E-02  0.1300439E+00
        -11   -1    0    0    0    0  0.00000000000E+00  0.00000000000E+00  0.45593999997E+02  0.45594000000E+02  0.51100000000E-03 0.  1.
         11   -1    0    0    0    0 -0.00000000000E+00 -0.00000000000E+00 -0.45593999997E+02  0.45594000000E+02  0.51100000000E-03 0. -1.
    9900012    2    1    2    0    0 -0.22578396294E+02  0.51813709163E+01  0.33414574201E+02  0.50528876143E+02  0.30000049523E+02 0.  0.
         12    1    1    2    0    0  0.22578396294E+02 -0.51813709163E+01 -0.33414574201E+02  0.40659123857E+02  0.00000000000E+00 0. -1.
         11    1    3    3    0    0 -0.11829758383E+02 -0.30961849226E+01  0.17246150203E+02  0.21141410586E+02  0.51100000000E-03 0. -1.
        -11    1    3    3    0    0 -0.95060108516E+01 -0.52861627084E+01  0.63238548395E+01  0.12581689027E+02  0.51100000000E-03 0.  1.
         12    1    3    3    0    0 -0.12426270600E+01  0.13563718547E+02  0.98445691590E+01  0.16805776530E+02  0.00000000000E+00 0. -1.
</event>
<event>
 7    1  0.5121289E-013  0.5052887E+02  0.7816164E-02  0.1300439E+00
        -11   -1    0    0    0    0  0.00000000000E+00  0.00000000000E+00  0.45593999997E+02  0.45594000000E+02  0.51100000000E-03 0.  1.
         11   -1    0    0    0    0 -0.00000000000E+00 -0.00000000000E+00 -0.45593999997E+02  0.45594000000E+02  0.51100000000E-03 0. -1.
    9900012    2    1    2    0    0  0.12457459232E+02  0.14644204478E+02  0.35826305321E+02  0.50528866115E+02  0.30000019044E+02 0.  0.
         12    1    1    2    0    0 -0.12457459232E+02 -0.14644204478E+02 -0.35826305321E+02  0.40659133885E+02  0.00000000000E+00 0. -1.
         11    1    3    3    0    0 -0.31353039728E+01 -0.42765051966E+01  0.29071436249E+01  0.60473227146E+01  0.51100000000E-03 0.  1.
        -11    1    3    3    0    0  0.11771404456E+01  0.14369239720E+02  0.19616981131E+02  0.24345156781E+02  0.51100000000E-03 0. -1.
         12    1    3    3    0    0  0.14415622760E+02  0.45514699542E+01  0.13302180566E+02  0.20136386619E+02  0.00000000000E+00 0. -1.
</event>
<event>
 7    1  0.5121289E-013  0.5052886E+02  0.7816164E-02  0.1300439E+00
        -11   -1    0    0    0    0  0.00000000000E+00  0.00000000000E+00  0.45593999997E+02  0.45594000000E+02  0.51100000000E-03 0.  1.
         11   -1    0    0    0    0 -0.00000000000E+00 -0.00000000000E+00 -0.45593999997E+02  0.45594000000E+02  0.51100000000E-03 0. -1.
    9900012    2    1    2    0    0 -0.16321352082E+02  0.33056061148E+01  0.37092480853E+02  0.50528859559E+02  0.29999999116E+02 0.  0.
         12    1    1    2    0    0  0.16321352082E+02 -0.33056061148E+01 -0.37092480853E+02  0.40659140441E+02  0.00000000000E+00 0. -1.
         11    1    3    3    0    0 -0.51165632095E+01  0.47898897570E+01  0.32716482634E+01  0.77347233681E+01  0.51100000000E-03 0. -1.
        -11    1    3    3    0    0  0.42170274686E+01  0.67285078672E+01  0.60452755868E+01  0.99800549082E+01  0.51100000000E-03 0.  1.
         12    1    3    3    0    0 -0.15421816342E+02 -0.82127915094E+01  0.27775557002E+02  0.32814081283E+02  0.00000000000E+00 0. -1.
</event>
<event>
 7    1  0.5121289E-013  0.5052886E+02  0.7816164E-02  0.1300439E+00
        -11   -1    0    0    0    0  0.00000000000E+00  0.00000000000E+00  0.45593999997E+02  0.45594000000E+02  0.51100000000E-03 0.  1.
         11   -1    0    0    0    0 -0.00000000000E+00 -0.00000000000E+00 -0.45593999997E+02  0.45594000000E+02  0.51100000000E-03 0. -1.
    9900012    2    1    2    0    0  0.21162650493E+02  0.29128012939E+02  0.18890919223E+02  0.50528859051E+02  0.29999997570E+02 0.  0.
         12    1    1    2    0    0 -0.21162650493E+02 -0.29128012939E+02 -0.18890919223E+02  0.40659140949E+02  0.00000000000E+00 0. -1.
         11    1    3    3    0    0  0.81557527126E+01  0.13581468811E+02  0.75201602942E+01  0.17536402382E+02  0.51100000000E-03 0. -1.
        -11    1    3    3    0    0  0.11764766078E+02  0.19768770926E+02  0.14850741927E+02  0.27381719465E+02  0.51100000000E-03 0.  1.
         12    1    3    3    0    0  0.12421317034E+01 -0.42222267990E+01 -0.34799829980E+01  0.56107372044E+01  0.00000000000E+00 0. -1.
</event>
<event>
 7    1  0.5121289E-013  0.5052886E+02  0.7816164E-02  0.1300439E+00
        -11   -1    0    0    0    0  0.00000000000E+00  0.00000000000E+00  0.45593999997E+02  0.45594000000E+02  0.51100000000E-03 0.  1.
         11   -1    0    0    0    0 -0.00000000000E+00 -0.00000000000E+00 -0.45593999997E+02  0.45594000000E+02  0.51100000000E-03 0. -1.
    9900012    2    1    2    0    0  0.27811228413E+02 -0.96711233685E+01  0.28038736250E+02  0.50528858549E+02  0.29999996044E+02 0.  0.
         12    1    1    2    0    0 -0.27811228413E+02  0.96711233685E+01 -0.28038736250E+02  0.40659141451E+02  0.00000000000E+00 0. -1.
         11    1    3    3    0    0 -0.48816739882E+00 -0.38098293315E+01  0.48980885382E+01  0.62244982556E+01  0.51100000000E-03 0.  1.
        -11    1    3    3    0    0  0.24430717830E+02 -0.37009287527E+01  0.44642024193E+01  0.25109479302E+02  0.51100000000E-03 0. -1.
         12    1    3    3    0    0  0.38686779821E+01 -0.21603652843E+01  0.18676445293E+02  0.19194880991E+02  0.00000000000E+00 0. -1.
</event>
<event>
 7    1  0.5121289E-013  0.5052886E+02  0.7816164E-02  0.1300439E+00
        -11   -1    0    0    0    0  0.00000000000E+00  0.00000000000E+00  0.45593999997E+02  0.45594000000E+02  0.51100000000E-03 0.  1.
         11   -1    0    0    0    0 -0.00000000000E+00 -0.00000000000E+00 -0.45593999997E+02  0.45594000000E+02  0.51100000000E-03 0. -1.
    9900012    2    1    2    0    0 -0.16295651650E+02 -0.22014609025E+02  0.30049529503E+02  0.50528862078E+02  0.30000006772E+02 0.  0.
         12    1    1    2    0    0  0.16295651650E+02  0.22014609025E+02 -0.30049529503E+02  0.40659137922E+02  0.00000000000E+00 0. -1.
         11    1    3    3    0    0 -0.16108772977E+01  0.40000310005E+01 -0.10795396569E+01  0.44452873704E+01  0.51100000000E-03 0. -1.
        -11    1    3    3    0    0  0.22625765977E+01 -0.41985305184E+01  0.43598837048E+00  0.47892585537E+01  0.51100000000E-03 0.  1.
        -12    1    3    3    0    0 -0.16947350950E+02 -0.21816109507E+02  0.30693080789E+02  0.41294316154E+02  0.00000000000E+00 0.  1.
</event>
<event>
 7    1  0.5121289E-013  0.5052886E+02  0.7816164E-02  0.1300439E+00
        -11   -1    0    0    0    0  0.00000000000E+00  0.00000000000E+00  0.45593999997E+02  0.45594000000E+02  0.51100000000E-03 0.  1.
         11   -1    0    0    0    0 -0.00000000000E+00 -0.00000000000E+00 -0.45593999997E+02  0.45594000000E+02  0.51100000000E-03 0. -1.
    9900012    2    1    2    0    0  0.20128733462E+02  0.12779838807E+02  0.32934412985E+02  0.50528858969E+02  0.29999997323E+02 0.  0.
         12    1    1    2    0    0 -0.20128733462E+02 -0.12779838807E+02 -0.32934412985E+02  0.40659141031E+02  0.00000000000E+00 0. -1.
         11    1    3    3    0    0  0.47200859197E+01 -0.18948568303E+01  0.17952058676E+02  0.18658673706E+02  0.51100000000E-03 0. -1.
        -11    1    3    3    0    0  0.84901261331E+01  0.80325830618E+01  0.18306701493E+02  0.21719575323E+02  0.51100000000E-03 0.  1.
         12    1    3    3    0    0  0.69185214089E+01  0.66421125752E+01 -0.33243471847E+01  0.10150609940E+02  0.00000000000E+00 0. -1.
</event>
<event>
 7    1  0.5121289E-013  0.5052886E+02  0.7816164E-02  0.1300439E+00
        -11   -1    0    0    0    0  0.00000000000E+00  0.00000000000E+00  0.45593999997E+02  0.45594000000E+02  0.51100000000E-03 0. -1.
         11   -1    0    0    0    0 -0.00000000000E+00 -0.00000000000E+00 -0.45593999997E+02  0.45594000000E+02  0.51100000000E-03 0.  1.
    9900012    2    1    2    0    0 -0.33524241958E+02 -0.51475623914E+01 -0.22423058843E+02  0.50528858773E+02  0.29999996727E+02 0.  0.
         12    1    1    2    0    0  0.33524241958E+02  0.51475623914E+01  0.22423058843E+02  0.40659141227E+02  0.00000000000E+00 0. -1.
         11    1    3    3    0    0 -0.13374593795E+02 -0.53714853478E+01  0.41220196593E+01  0.14990785849E+02  0.51100000000E-03 0. -1.
        -11    1    3    3    0    0 -0.20622190884E+01 -0.38325727591E+01 -0.20262162212E+01  0.48007201500E+01  0.51100000000E-03 0.  1.
        -12    1    3    3    0    0 -0.18087429074E+02  0.40564957154E+01 -0.24518862281E+02  0.30737352775E+02  0.00000000000E+00 0.  1.
</event>
<event>
 7    1  0.5121289E-013  0.5052886E+02  0.7816164E-02  0.1300439E+00
        -11   -1    0    0    0    0  0.00000000000E+00  0.00000000000E+00  0.45593999997E+02  0.45594000000E+02  0.51100000000E-03 0. -1.
         11   -1    0    0    0    0 -0.00000000000E+00 -0.00000000000E+00 -0.45593999997E+02  0.45594000000E+02  0.51100000000E-03 0.  1.
    9900012    2    1    2    0    0  0.32277770712E+02 -0.71212908282E+00 -0.24714443912E+02  0.50528863907E+02  0.30000012331E+02 0.  0.
         12    1    1    2    0    0 -0.32277770712E+02  0.71212908282E+00  0.24714443912E+02  0.40659136093E+02  0.00000000000E+00 0. -1.
         11    1    3    3    0    0 -0.19127898005E+01 -0.22353638579E+00  0.16464999274E+00  0.19328329514E+01  0.51100000000E-03 0. -1.
        -11    1    3    3    0    0  0.18576753317E+02  0.61676601628E+01 -0.13994795633E+01  0.19623820704E+02  0.51100000000E-03 0.  1.
        -12    1    3    3    0    0  0.15613807195E+02 -0.66562528599E+01 -0.23479614341E+02  0.28972210252E+02  0.00000000000E+00 0.  1.
</event>
<event>
 7    1  0.5121289E-013  0.5052886E+02  0.7816164E-02  0.1300439E+00
        -11   -1    0    0    0    0  0.00000000000E+00  0.00000000000E+00  0.45593999997E+02  0.45594000000E+02  0.51100000000E-03 0.  1.
         11   -1    0    0    0    0 -0.00000000000E+00 -0.00000000000E+00 -0.45593999997E+02  0.45594000000E+02  0.51100000000E-03 0. -1.
    9900012    2    1    2    0    0  0.70740003428E+01  0.35722338394E+02  0.18084212630E+02  0.50528859728E+02  0.29999999630E+02 0.  0.
         12    1    1    2    0    0 -0.70740003428E+01 -0.35722338394E+02 -0.18084212630E+02  0.40659140272E+02  0.00000000000E+00 0. -1.
         11    1    3    3    0    0 -0.88767942182E+01  0.90931204748E+01 -0.15219939764E+01  0.12798389801E+02  0.51100000000E-03 0. -1.
        -11    1    3    3    0    0  0.48546892169E+01  0.39597767529E+01  0.73959802659E+01  0.96926964091E+01  0.51100000000E-03 0.  1.
        -12    1    3    3    0    0  0.11096105344E+02  0.22669441166E+02  0.12210226340E+02  0.28037773519E+02  0.00000000000E+00 0.  1.
</event>
<event>
 7    1  0.5121289E-013  0.5052886E+02  0.7816164E-02  0.1300439E+00
        -11   -1    0    0    0    0  0.00000000000E+00  0.00000000000E+00  0.45593999997E+02  0.45594000000E+02  0.51100000000E-03 0. -1.
         11   -1    0    0    0    0 -0.00000000000E+00 -0.00000000000E+00 -0.45593999997E+02  0.45594000000E+02  0.51100000000E-03 0.  1.
    9900012    2    1    2    0    0  0.12081996415E+02  0.24048519260E+02 -0.30477201242E+02  0.50528859435E+02  0.29999998738E+02 0.  0.
         12    1    1    2    0    0 -0.12081996415E+02 -0.24048519260E+02  0.30477201242E+02  0.40659140565E+02  0.00000000000E+00 0. -1.
         11    1    3    3    0    0  0.60344241185E+01 -0.14371560375E+01 -0.61695756030E+01  0.87489059488E+01  0.51100000000E-03 0. -1.
        -11    1    3    3    0    0 -0.15609196438E+01  0.28785960320E+01 -0.16289398708E+02  0.16615272967E+02  0.51100000000E-03 0.  1.
         12    1    3    3    0    0  0.76084919401E+01  0.22607079265E+02 -0.80182269318E+01  0.25164680519E+02  0.00000000000E+00 0. -1.
</event>
<event>
 7    1  0.5121289E-013  0.5052886E+02  0.7816164E-02  0.1300439E+00
        -11   -1    0    0    0    0  0.00000000000E+00  0.00000000000E+00  0.45593999997E+02  0.45594000000E+02  0.51100000000E-03 0. -1.
         11   -1    0    0    0    0 -0.00000000000E+00 -0.00000000000E+00 -0.45593999997E+02  0.45594000000E+02  0.51100000000E-03 0.  1.
    9900012    2    1    2    0    0  0.19181511914E+02  0.33013790681E+02  0.13975865755E+02  0.50528860830E+02  0.30000002979E+02 0.  0.
         12    1    1    2    0    0 -0.19181511914E+02 -0.33013790681E+02 -0.13975865755E+02  0.40659139170E+02  0.00000000000E+00 0. -1.
         11    1    3    3    0    0  0.15449967560E+02  0.14493871536E+02  0.70311673651E+01  0.22320643461E+02  0.51100000000E-03 0.  1.
        -11    1    3    3    0    0  0.10278153140E+02  0.39372612520E+01  0.50562404064E+01  0.12112308840E+02  0.51100000000E-03 0. -1.
        -12    1    3    3    0    0 -0.65466087859E+01  0.14582657893E+02  0.18884579829E+01  0.16095908529E+02  0.00000000000E+00 0.  1.
</event>
<event>
 7    1  0.5121289E-013  0.5052886E+02  0.7816164E-02  0.1300439E+00
        -11   -1    0    0    0    0  0.00000000000E+00  0.00000000000E+00  0.45593999997E+02  0.45594000000E+02  0.51100000000E-03 0.  1.
         11   -1    0    0    0    0 -0.00000000000E+00 -0.00000000000E+00 -0.45593999997E+02  0.45594000000E+02  0.51100000000E-03 0. -1.
    9900012    2    1    2    0    0  0.26199407987E+02  0.28662178672E+02 -0.12051386698E+02  0.50528863432E+02  0.30000010889E+02 0.  0.
         12    1    1    2    0    0 -0.26199407987E+02 -0.28662178672E+02  0.12051386698E+02  0.40659136568E+02  0.00000000000E+00 0. -1.
         11    1    3    3    0    0  0.14514648193E+02  0.50256790529E+01 -0.36421164921E+01  0.15785989830E+02  0.51100000000E-03 0.  1.
        -11    1    3    3    0    0 -0.18047542898E+01  0.77653971255E+01  0.55097028109E+01  0.96909935450E+01  0.51100000000E-03 0. -1.
         12    1    3    3    0    0  0.13489514084E+02  0.15871102493E+02 -0.13918973017E+02  0.25051880058E+02  0.00000000000E+00 0. -1.
</event>
<event>
 7    1  0.5121289E-013  0.5052888E+02  0.7816164E-02  0.1300439E+00
        -11   -1    0    0    0    0  0.00000000000E+00  0.00000000000E+00  0.45593999997E+02  0.45594000000E+02  0.51100000000E-03 0.  1.
         11   -1    0    0    0    0 -0.00000000000E+00 -0.00000000000E+00 -0.45593999997E+02  0.45594000000E+02  0.51100000000E-03 0. -1.
    9900012    2    1    2    0    0 -0.28889639962E+02  0.28053621185E+02  0.56166922530E+01  0.50528878138E+02  0.30000055588E+02 0.  0.
         12    1    1    2    0    0  0.28889639962E+02 -0.28053621185E+02 -0.56166922530E+01  0.40659121862E+02  0.00000000000E+00 0. -1.
         11    1    3    3    0    0 -0.89272338124E+01 -0.18588949130E+01 -0.44405828863E+01  0.10142473587E+02  0.51100000000E-03 0. -1.
        -11    1    3    3    0    0 -0.76512393235E+01  0.52180095708E+01  0.87832982026E+01  0.12763832287E+02  0.51100000000E-03 0.  1.
        -12    1    3    3    0    0 -0.12311166826E+02  0.24694506527E+02  0.12739769367E+01  0.27622572264E+02  0.00000000000E+00 0.  1.
</event>
<event>
 7    1  0.5121289E-013  0.5052886E+02  0.7816164E-02  0.1300439E+00
        -11   -1    0    0    0    0  0.00000000000E+00  0.00000000000E+00  0.45593999997E+02  0.45594000000E+02  0.51100000000E-03 0.  1.
         11   -1    0    0    0    0 -0.00000000000E+00 -0.00000000000E+00 -0.45593999997E+02  0.45594000000E+02  0.51100000000E-03 0. -1.
    9900012    2    1    2    0    0  0.32066793613E+02  0.20187359537E+01  0.24916087125E+02  0.50528856562E+02  0.29999990007E+02 0.  0.
         12    1    1    2    0    0 -0.32066793613E+02 -0.20187359537E+01 -0.24916087125E+02  0.40659143438E+02  0.00000000000E+00 0. -1.
         11    1    3    3    0    0  0.12732526474E+02 -0.69795943322E+00  0.15767713770E+02  0.20278687718E+02  0.51100000000E-03 0. -1.
        -11    1    3    3    0    0  0.45225611584E+00  0.38755134664E+00  0.11108394877E+02  0.11124350258E+02  0.51100000000E-03 0.  1.
         12    1    3    3    0    0  0.18882011023E+02  0.23291440403E+01 -0.19600215225E+01  0.19125818587E+02  0.00000000000E+00 0. -1.
</event>
<event>
 7    1  0.5121289E-013  0.5052886E+02  0.7816164E-02  0.1300439E+00
        -11   -1    0    0    0    0  0.00000000000E+00  0.00000000000E+00  0.45593999997E+02  0.45594000000E+02  0.51100000000E-03 0.  1.
         11   -1    0    0    0    0 -0.00000000000E+00 -0.00000000000E+00 -0.45593999997E+02  0.45594000000E+02  0.51100000000E-03 0. -1.
    9900012    2    1    2    0    0  0.23152760348E+02 -0.26589269511E+02  0.20251567642E+02  0.50528861337E+02  0.30000004520E+02 0.  0.
         12    1    1    2    0    0 -0.23152760348E+02  0.26589269511E+02 -0.20251567642E+02  0.40659138663E+02  0.00000000000E+00 0. -1.
         11    1    3    3    0    0  0.79271019014E+00 -0.84738962807E+01 -0.34763067876E+01  0.91934768594E+01  0.51100000000E-03 0. -1.
        -11    1    3    3    0    0  0.14644253446E+02 -0.14779744637E+02  0.59021073092E+01  0.21627063635E+02  0.51100000000E-03 0.  1.
         12    1    3    3    0    0  0.77157967121E+01 -0.33356285930E+01  0.17825767120E+02  0.19708320843E+02  0.00000000000E+00 0. -1.
</event>
<event>
 7    1  0.5121289E-013  0.5052886E+02  0.7816164E-02  0.1300439E+00
        -11   -1    0    0    0    0  0.00000000000E+00  0.00000000000E+00  0.45593999997E+02  0.45594000000E+02  0.51100000000E-03 0. -1.
         11   -1    0    0    0    0 -0.00000000000E+00 -0.00000000000E+00 -0.45593999997E+02  0.45594000000E+02  0.51100000000E-03 0.  1.
    9900012    2    1    2    0    0  0.13728365696E+02 -0.37574748948E+02 -0.72688350908E+01  0.50528859001E+02  0.29999997421E+02 0.  0.
         12    1    1    2    0    0 -0.13728365696E+02  0.37574748948E+02  0.72688350908E+01  0.40659140999E+02  0.00000000000E+00 0. -1.
         11    1    3    3    0    0  0.32072717709E+01 -0.10687781320E+02 -0.10084780669E+02  0.15040547302E+02  0.51100000000E-03 0. -1.
        -11    1    3    3    0    0  0.11639691414E+02 -0.46702383456E+01 -0.20748337716E+01  0.12712138996E+02  0.51100000000E-03 0.  1.
        -12    1    3    3    0    0 -0.11185974888E+01 -0.22216729282E+02  0.48907793498E+01  0.22776172703E+02  0.00000000000E+00 0.  1.
</event>
<event>
 7    1  0.5121289E-013  0.5052886E+02  0.7816164E-02  0.1300439E+00
        -11   -1    0    0    0    0  0.00000000000E+00  0.00000000000E+00  0.45593999997E+02  0.45594000000E+02  0.51100000000E-03 0.  1.
         11   -1    0    0    0    0 -0.00000000000E+00 -0.00000000000E+00 -0.45593999997E+02  0.45594000000E+02  0.51100000000E-03 0. -1.
    9900012    2    1    2    0    0 -0.24068723410E+02 -0.13604863570E+02  0.29812249456E+02  0.50528856170E+02  0.29999988816E+02 0.  0.
         12    1    1    2    0    0  0.24068723410E+02  0.13604863570E+02 -0.29812249456E+02  0.40659143830E+02  0.00000000000E+00 0. -1.
         11    1    3    3    0    0 -0.32142873898E+01 -0.60043524638E+01  0.75869996978E+01  0.10195413508E+02  0.51100000000E-03 0. -1.
        -11    1    3    3    0    0 -0.12326623494E+02 -0.39585062965E+01  0.26970441485E+02  0.29916887087E+02  0.51100000000E-03 0.  1.
         12    1    3    3    0    0 -0.85278125260E+01 -0.36420048098E+01 -0.47451917268E+01  0.10416555575E+02  0.00000000000E+00 0. -1.
</event>
<event>
 7    1  0.5121289E-013  0.5052887E+02  0.7816164E-02  0.1300439E+00
        -11   -1    0    0    0    0  0.00000000000E+00  0.00000000000E+00  0.45593999997E+02  0.45594000000E+02  0.51100000000E-03 0.  1.
         11   -1    0    0    0    0 -0.00000000000E+00 -0.00000000000E+00 -0.45593999997E+02  0.45594000000E+02  0.51100000000E-03 0. -1.
    9900012    2    1    2    0    0 -0.36655820763E+02  0.16276260222E+02  0.66782577453E+01  0.50528868564E+02  0.30000026487E+02 0.  0.
         12    1    1    2    0    0  0.36655820763E+02 -0.16276260222E+02 -0.66782577453E+01  0.40659131436E+02  0.00000000000E+00 0. -1.
         11    1    3    3    0    0 -0.24827593466E+02  0.13122975554E+02  0.11928108244E+02  0.30510680937E+02  0.51100000000E-03 0.  1.
        -11    1    3    3    0    0 -0.39136071089E+01 -0.66774459278E+00  0.50852258241E+01  0.64514901679E+01  0.51100000000E-03 0. -1.
         12    1    3    3    0    0 -0.79146201882E+01  0.38210292605E+01 -0.10335076323E+02  0.13566697459E+02  0.00000000000E+00 0. -1.
</event>
<event>
 7    1  0.5121289E-013  0.5052885E+02  0.7816164E-02  0.1300439E+00
        -11   -1    0    0    0    0  0.00000000000E+00  0.00000000000E+00  0.45593999997E+02  0.45594000000E+02  0.51100000000E-03 0. -1.
         11   -1    0    0    0    0 -0.00000000000E+00 -0.00000000000E+00 -0.45593999997E+02  0.45594000000E+02  0.51100000000E-03 0.  1.
    9900012    2    1    2    0    0 -0.24294832077E+02  0.57668698052E+01 -0.32088480665E+02  0.50528852882E+02  0.29999978819E+02 0.  0.
         12    1    1    2    0    0  0.24294832077E+02 -0.57668698052E+01  0.32088480665E+02  0.40659147118E+02  0.00000000000E+00 0. -1.
         11    1    3    3    0    0 -0.14007524954E+02  0.49158495596E+01 -0.85734476883E+01  0.17142938423E+02  0.51100000000E-03 0. -1.
        -11    1    3    3    0    0 -0.11529803304E+02  0.59428462650E+01 -0.24801851910E+02  0.27989027214E+02  0.51100000000E-03 0.  1.
        -12    1    3    3    0    0  0.12424961812E+01 -0.50918260193E+01  0.12868189330E+01  0.53968872453E+01  0.00000000000E+00 0.  1.
</event>
<event>
 7    1  0.5121289E-013  0.5052887E+02  0.7816164E-02  0.1300439E+00
        -11   -1    0    0    0    0  0.00000000000E+00  0.00000000000E+00  0.45593999997E+02  0.45594000000E+02  0.51100000000E-03 0.  1.
         11   -1    0    0    0    0 -0.00000000000E+00 -0.00000000000E+00 -0.45593999997E+02  0.45594000000E+02  0.51100000000E-03 0. -1.
    9900012    2    1    2    0    0 -0.20954413761E+02 -0.19408997369E+02  0.28937321664E+02  0.50528865479E+02  0.30000017110E+02 0.  0.
         12    1    1    2    0    0  0.20954413761E+02  0.19408997369E+02 -0.28937321664E+02  0.40659134521E+02  0.00000000000E+00 0. -1.
         11    1    3    3    0    0 -0.52777831145E+01  0.34704017052E+00  0.32553918509E+01  0.62107171765E+01  0.51100000000E-03 0. -1.
        -11    1    3    3    0    0 -0.18776527180E+02 -0.54314604318E+01  0.21542913282E+02  0.29088758109E+02  0.51100000000E-03 0.  1.
        -12    1    3    3    0    0  0.30998965334E+01 -0.14324577108E+02  0.41390165307E+01  0.15229390194E+02  0.00000000000E+00 0.  1.
</event>
<event>
 7    1  0.5121289E-013  0.5052886E+02  0.7816164E-02  0.1300439E+00
        -11   -1    0    0    0    0  0.00000000000E+00  0.00000000000E+00  0.45593999997E+02  0.45594000000E+02  0.51100000000E-03 0.  1.
         11   -1    0    0    0    0 -0.00000000000E+00 -0.00000000000E+00 -0.45593999997E+02  0.45594000000E+02  0.51100000000E-03 0. -1.
    9900012    2    1    2    0    0 -0.75602382094E+01 -0.75486215579E+01  0.39230430500E+02  0.50528861219E+02  0.30000004160E+02 0.  0.
         12    1    1    2    0    0  0.75602382094E+01  0.75486215579E+01 -0.39230430500E+02  0.40659138781E+02  0.00000000000E+00 0. -1.
         11    1    3    3    0    0  0.54021566063E+01 -0.64624628115E+01  0.44653800104E+01  0.95334327756E+01  0.51100000000E-03 0. -1.
        -11    1    3    3    0    0 -0.41999333093E+01 -0.82286061839E+01  0.22460237644E+02  0.24286038681E+02  0.51100000000E-03 0.  1.
         12    1    3    3    0    0 -0.87624615064E+01  0.71424474376E+01  0.12304812846E+02  0.16709389762E+02  0.00000000000E+00 0. -1.
</event>
<event>
 7    1  0.5121289E-013  0.5052886E+02  0.7816164E-02  0.1300439E+00
        -11   -1    0    0    0    0  0.00000000000E+00  0.00000000000E+00  0.45593999997E+02  0.45594000000E+02  0.51100000000E-03 0. -1.
         11   -1    0    0    0    0 -0.00000000000E+00 -0.00000000000E+00 -0.45593999997E+02  0.45594000000E+02  0.51100000000E-03 0.  1.
    9900012    2    1    2    0    0 -0.18581230639E+02 -0.71928206202E+01 -0.35442444225E+02  0.50528860152E+02  0.30000000917E+02 0.  0.
         12    1    1    2    0    0  0.18581230639E+02  0.71928206202E+01  0.35442444225E+02  0.40659139848E+02  0.00000000000E+00 0. -1.
         11    1    3    3    0    0 -0.94485689125E+00 -0.33762295241E+01  0.20620768357E+01  0.40674121357E+01  0.51100000000E-03 0. -1.
        -11    1    3    3    0    0 -0.20839218205E+02 -0.77333859479E+01 -0.28627736970E+02  0.36243973263E+02  0.51100000000E-03 0.  1.
         12    1    3    3    0    0  0.32028444568E+01  0.39167948518E+01 -0.88767840909E+01  0.10217474753E+02  0.00000000000E+00 0. -1.
</event>
<event>
 7    1  0.5121289E-013  0.5052886E+02  0.7816164E-02  0.1300439E+00
        -11   -1    0    0    0    0  0.00000000000E+00  0.00000000000E+00  0.45593999997E+02  0.45594000000E+02  0.51100000000E-03 0.  1.
         11   -1    0    0    0    0 -0.00000000000E+00 -0.00000000000E+00 -0.45593999997E+02  0.45594000000E+02  0.51100000000E-03 0. -1.
    9900012    2    1    2    0    0  0.37547777721E+02  0.12225712970E+02 -0.96882584021E+01  0.50528855637E+02  0.29999987195E+02 0.  0.
         12    1    1    2    0    0 -0.37547777721E+02 -0.12225712970E+02  0.96882584021E+01  0.40659144363E+02  0.00000000000E+00 0. -1.
         11    1    3    3    0    0  0.17712152409E+02  0.44536575265E+01 -0.40022206251E+01  0.18696876170E+02  0.51100000000E-03 0. -1.
        -11    1    3    3    0    0  0.54502557264E+01  0.52161894431E+00  0.86700305227E+01  0.10254111533E+02  0.51100000000E-03 0.  1.
         12    1    3    3    0    0  0.14385369586E+02  0.72504364995E+01 -0.14356068300E+02  0.21577867934E+02  0.00000000000E+00 0. -1.
</event>
<event>
 7    1  0.5121289E-013  0.5052886E+02  0.7816164E-02  0.1300439E+00
        -11   -1    0    0    0    0  0.00000000000E+00  0.00000000000E+00  0.45593999997E+02  0.45594000000E+02  0.51100000000E-03 0.  1.
         11   -1    0    0    0    0 -0.00000000000E+00 -0.00000000000E+00 -0.45593999997E+02  0.45594000000E+02  0.51100000000E-03 0. -1.
    9900012    2    1    2    0    0 -0.32438120185E+02  0.97636061193E+01  0.22485684554E+02  0.50528860124E+02  0.30000000834E+02 0.  0.
         12    1    1    2    0    0  0.32438120185E+02 -0.97636061193E+01 -0.22485684554E+02  0.40659139876E+02  0.00000000000E+00 0. -1.
         11    1    3    3    0    0 -0.71027410031E+01  0.11095391278E+02  0.98056422524E+01  0.16422766442E+02  0.51100000000E-03 0. -1.
        -11    1    3    3    0    0 -0.12418766770E+02 -0.29609434253E+00  0.16447463671E+02  0.20611465290E+02  0.51100000000E-03 0.  1.
         12    1    3    3    0    0 -0.12916612411E+02 -0.10356908166E+01 -0.37674213694E+01  0.13494628392E+02  0.00000000000E+00 0. -1.
</event>
<event>
 7    1  0.5121289E-013  0.5052887E+02  0.7816164E-02  0.1300439E+00
        -11   -1    0    0    0    0  0.00000000000E+00  0.00000000000E+00  0.45593999997E+02  0.45594000000E+02  0.51100000000E-03 0. -1.
         11   -1    0    0    0    0 -0.00000000000E+00 -0.00000000000E+00 -0.45593999997E+02  0.45594000000E+02  0.51100000000E-03 0.  1.
    9900012    2    1    2    0    0  0.34264840321E+02 -0.21036385727E+02 -0.60461920094E+01  0.50528865178E+02  0.30000016195E+02 0.  0.
         12    1    1    2    0    0 -0.34264840321E+02  0.21036385727E+02  0.60461920094E+01  0.40659134822E+02  0.00000000000E+00 0. -1.
         11    1    3    3    0    0  0.25655586071E+02 -0.43278664072E+01 -0.87599403658E+01  0.27453161562E+02  0.51100000000E-03 0. -1.
        -11    1    3    3    0    0  0.78026233051E+01 -0.55642796552E+01 -0.36053847513E+01  0.10239186393E+02  0.51100000000E-03 0.  1.
         12    1    3    3    0    0  0.80663094480E+00 -0.11144239664E+02  0.63191331078E+01  0.12836517223E+02  0.00000000000E+00 0. -1.
</event>
<event>
 7    1  0.5121289E-013  0.5052887E+02  0.7816164E-02  0.1300439E+00
        -11   -1    0    0    0    0  0.00000000000E+00  0.00000000000E+00  0.45593999997E+02  0.45594000000E+02  0.51100000000E-03 0. -1.
         11   -1    0    0    0    0 -0.00000000000E+00 -0.00000000000E+00 -0.45593999997E+02  0.45594000000E+02  0.51100000000E-03 0.  1.
    9900012    2    1    2    0    0 -0.11945608324E+02 -0.34597878640E+02 -0.17704625258E+02  0.50528874086E+02  0.30000043271E+02 0.  0.
         12    1    1    2    0    0  0.11945608324E+02  0.34597878640E+02  0.17704625258E+02  0.40659125914E+02  0.00000000000E+00 0. -1.
         11    1    3    3    0    0 -0.88555398213E+01 -0.14470975691E+02  0.27282729662E+01  0.17183515258E+02  0.51100000000E-03 0. -1.
        -11    1    3    3    0    0 -0.55353213184E+01 -0.18252656902E+01 -0.30839319977E-01  0.58285785799E+01  0.51100000000E-03 0.  1.
         12    1    3    3    0    0  0.24452528160E+01 -0.18301637258E+02 -0.20402058904E+02  0.27516780248E+02  0.00000000000E+00 0. -1.
</event>
<event>
 7    1  0.5121289E-013  0.5052885E+02  0.7816164E-02  0.1300439E+00
        -11   -1    0    0    0    0  0.00000000000E+00  0.00000000000E+00  0.45593999997E+02  0.45594000000E+02  0.51100000000E-03 0. -1.
         11   -1    0    0    0    0 -0.00000000000E+00 -0.00000000000E+00 -0.45593999997E+02  0.45594000000E+02  0.51100000000E-03 0.  1.
    9900012    2    1    2    0    0 -0.29333092881E+02  0.23591982514E+02  0.15367321614E+02  0.50528849118E+02  0.29999967378E+02 0.  0.
         12    1    1    2    0    0  0.29333092881E+02 -0.23591982514E+02 -0.15367321614E+02  0.40659150882E+02  0.00000000000E+00 0. -1.
         11    1    3    3    0    0 -0.13638889647E+02  0.21576053324E+02  0.87157103747E+01  0.26972374672E+02  0.51100000000E-03 0.  1.
        -11    1    3    3    0    0 -0.81832434355E+01  0.85386858889E+01  0.67312536686E+01  0.13608247721E+02  0.51100000000E-03 0. -1.
        -12    1    3    3    0    0 -0.75109597983E+01 -0.65227566987E+01 -0.79642429692E-01  0.99482267243E+01  0.00000000000E+00 0.  1.
</event>
<event>
 7    1  0.5121289E-013  0.5052886E+02  0.7816164E-02  0.1300439E+00
        -11   -1    0    0    0    0  0.00000000000E+00  0.00000000000E+00  0.45593999997E+02  0.45594000000E+02  0.51100000000E-03 0.  1.
         11   -1    0    0    0    0 -0.00000000000E+00 -0.00000000000E+00 -0.45593999997E+02  0.45594000000E+02  0.51100000000E-03 0. -1.
    9900012    2    1    2    0    0  0.10221725264E+02 -0.34645287251E+02  0.18665098049E+02  0.50528862267E+02  0.30000007345E+02 0.  0.
         12    1    1    2    0    0 -0.10221725264E+02  0.34645287251E+02 -0.18665098049E+02  0.40659137733E+02  0.00000000000E+00 0. -1.
         11    1    3    3    0    0  0.48692509000E+00  0.20133974937E+01  0.44817298801E+01  0.49372835133E+01  0.51100000000E-03 0. -1.
        -11    1    3    3    0    0 -0.18245868640E+01 -0.12859514596E+02 -0.38801355361E+01  0.13555503861E+02  0.51100000000E-03 0.  1.
        -12    1    3    3    0    0  0.11559387038E+02 -0.23799170148E+02  0.18063503705E+02  0.32036074893E+02  0.00000000000E+00 0.  1.
</event>
<event>
 7    1  0.5121289E-013  0.5052886E+02  0.7816164E-02  0.1300439E+00
        -11   -1    0    0    0    0  0.00000000000E+00  0.00000000000E+00  0.45593999997E+02  0.45594000000E+02  0.51100000000E-03 0.  1.
         11   -1    0    0    0    0 -0.00000000000E+00 -0.00000000000E+00 -0.45593999997E+02  0.45594000000E+02  0.51100000000E-03 0. -1.
    9900012    2    1    2    0    0 -0.37156298902E+02  0.16384336058E+02  0.20319165932E+01  0.50528859561E+02  0.29999999123E+02 0.  0.
         12    1    1    2    0    0  0.37156298902E+02 -0.16384336058E+02 -0.20319165932E+01  0.40659140439E+02  0.00000000000E+00 0. -1.
         11    1    3    3    0    0 -0.49275360398E-02 -0.47905275966E+00 -0.56546904916E+00  0.74112841926E+00  0.51100000000E-03 0. -1.
        -11    1    3    3    0    0 -0.38699594060E+02  0.13839667091E+02  0.94205921555E+01  0.42165655722E+02  0.51100000000E-03 0.  1.
        -12    1    3    3    0    0  0.15482226945E+01  0.30237217275E+01 -0.68232065131E+01  0.76220754206E+01  0.00000000000E+00 0.  1.
</event>
<event>
 7    1  0.5121289E-013  0.5052885E+02  0.7816164E-02  0.1300439E+00
        -11   -1    0    0    0    0  0.00000000000E+00  0.00000000000E+00  0.45593999997E+02  0.45594000000E+02  0.51100000000E-03 0.  1.
         11   -1    0    0    0    0 -0.00000000000E+00 -0.00000000000E+00 -0.45593999997E+02  0.45594000000E+02  0.51100000000E-03 0. -1.
    9900012    2    1    2    0    0  0.79744371991E+01 -0.39521229388E+02  0.52580414641E+01  0.50528853169E+02  0.29999979693E+02 0.  0.
         12    1    1    2    0    0 -0.79744371991E+01  0.39521229388E+02 -0.52580414641E+01  0.40659146831E+02  0.00000000000E+00 0. -1.
         11    1    3    3    0    0 -0.27898082083E+01  0.14783754385E+01  0.44868587122E+01  0.54863945484E+01  0.51100000000E-03 0. -1.
        -11    1    3    3    0    0 -0.93975772245E+00 -0.13278890515E+01 -0.30985823171E+01  0.34996637763E+01  0.51100000000E-03 0.  1.
        -12    1    3    3    0    0  0.11704003130E+02 -0.39671715775E+02  0.38697650690E+01  0.41542794844E+02  0.00000000000E+00 0.  1.
</event>
<event>
 7    1  0.5121289E-013  0.5052885E+02  0.7816164E-02  0.1300439E+00
        -11   -1    0    0    0    0  0.00000000000E+00  0.00000000000E+00  0.45593999997E+02  0.45594000000E+02  0.51100000000E-03 0.  1.
         11   -1    0    0    0    0 -0.00000000000E+00 -0.00000000000E+00 -0.45593999997E+02  0.45594000000E+02  0.51100000000E-03 0. -1.
    9900012    2    1    2    0    0  0.29605535704E+02  0.27289246822E+02  0.56546766615E+01  0.50528854601E+02  0.29999984045E+02 0.  0.
         12    1    1    2    0    0 -0.29605535704E+02 -0.27289246822E+02 -0.56546766615E+01  0.40659145399E+02  0.00000000000E+00 0. -1.
         11    1    3    3    0    0 -0.13503811181E+01  0.50666552469E+01 -0.38218561273E+01  0.64885367436E+01  0.51100000000E-03 0. -1.
        -11    1    3    3    0    0  0.87056106669E+01  0.12137322470E+02  0.12431386054E+02  0.19433003198E+02  0.51100000000E-03 0.  1.
         12    1    3    3    0    0  0.22250306155E+02  0.10085269106E+02 -0.29548532650E+01  0.24607314659E+02  0.00000000000E+00 0. -1.
</event>
<event>
 7    1  0.5121289E-013  0.5052886E+02  0.7816164E-02  0.1300439E+00
        -11   -1    0    0    0    0  0.00000000000E+00  0.00000000000E+00  0.45593999997E+02  0.45594000000E+02  0.51100000000E-03 0.  1.
         11   -1    0    0    0    0 -0.00000000000E+00 -0.00000000000E+00 -0.45593999997E+02  0.45594000000E+02  0.51100000000E-03 0. -1.
    9900012    2    1    2    0    0 -0.63020398016E+01 -0.39856633512E+02 -0.49898741796E+01  0.50528858532E+02  0.29999995994E+02 0.  0.
         12    1    1    2    0    0  0.63020398016E+01  0.39856633512E+02  0.49898741796E+01  0.40659141468E+02  0.00000000000E+00 0. -1.
         11    1    3    3    0    0 -0.75198132407E+01 -0.10903870379E+02 -0.80799299297E+01  0.15515387470E+02  0.51100000000E-03 0. -1.
        -11    1    3    3    0    0  0.85135868293E+00 -0.30925113413E+02 -0.45498459010E+00  0.30940175540E+02  0.51100000000E-03 0.  1.
        -12    1    3    3    0    0  0.36641475619E+00  0.19723502795E+01  0.35450403402E+01  0.40732955224E+01  0.00000000000E+00 0.  1.
</event>
<event>
 7    1  0.5121289E-013  0.5052887E+02  0.7816164E-02  0.1300439E+00
        -11   -1    0    0    0    0  0.00000000000E+00  0.00000000000E+00  0.45593999997E+02  0.45594000000E+02  0.51100000000E-03 0.  1.
         11   -1    0    0    0    0 -0.00000000000E+00 -0.00000000000E+00 -0.45593999997E+02  0.45594000000E+02  0.51100000000E-03 0. -1.
    9900012    2    1    2    0    0 -0.14644503206E+01 -0.16404179794E+02  0.37174222135E+02  0.50528874077E+02  0.30000043245E+02 0.  0.
         12    1    1    2    0    0  0.14644503206E+01  0.16404179794E+02 -0.37174222135E+02  0.40659125923E+02  0.00000000000E+00 0. -1.
         11    1    3    3    0    0  0.21970580734E+01 -0.34725171420E+01  0.14164669965E+02  0.14748671634E+02  0.51100000000E-03 0. -1.
        -11    1    3    3    0    0  0.37908461450E+01 -0.98581677140E+01  0.25286393264E+02  0.27403570383E+02  0.51100000000E-03 0.  1.
         12    1    3    3    0    0 -0.74523545391E+01 -0.30734949383E+01 -0.22768410939E+01  0.83766320606E+01  0.00000000000E+00 0. -1.
</event>
<event>
 7    1  0.5121289E-013  0.5052886E+02  0.7816164E-02  0.1300439E+00
        -11   -1    0    0    0    0  0.00000000000E+00  0.00000000000E+00  0.45593999997E+02  0.45594000000E+02  0.51100000000E-03 0.  1.
         11   -1    0    0    0    0 -0.00000000000E+00 -0.00000000000E+00 -0.45593999997E+02  0.45594000000E+02  0.51100000000E-03 0. -1.
    9900012    2    1    2    0    0 -0.12005611198E+02 -0.36487919141E+02 -0.13329023763E+02  0.50528858125E+02  0.29999994758E+02 0.  0.
         12    1    1    2    0    0  0.12005611198E+02  0.36487919141E+02  0.13329023763E+02  0.40659141875E+02  0.00000000000E+00 0. -1.
         11    1    3    3    0    0 -0.79159975698E+01 -0.93035066058E+00 -0.64000563530E+01  0.10222000365E+02  0.51100000000E-03 0. -1.
        -11    1    3    3    0    0  0.30375066202E+01  0.29641963067E+00 -0.13134111856E+01  0.33225532755E+01  0.51100000000E-03 0.  1.
        -12    1    3    3    0    0 -0.71271202483E+01 -0.35853988111E+02 -0.56155562249E+01  0.36984304485E+02  0.00000000000E+00 0.  1.
</event>
<event>
 7    1  0.5121289E-013  0.5052889E+02  0.7816164E-02  0.1300439E+00
        -11   -1    0    0    0    0  0.00000000000E+00  0.00000000000E+00  0.45593999997E+02  0.45594000000E+02  0.51100000000E-03 0.  1.
         11   -1    0    0    0    0 -0.00000000000E+00 -0.00000000000E+00 -0.45593999997E+02  0.45594000000E+02  0.51100000000E-03 0. -1.
    9900012    2    1    2    0    0  0.18262287288E+01  0.40505669132E+02 -0.30197943856E+01  0.50528886614E+02  0.30000081352E+02 0.  0.
         12    1    1    2    0    0 -0.18262287288E+01 -0.40505669132E+02  0.30197943856E+01  0.40659113386E+02  0.00000000000E+00 0. -1.
         11    1    3    3    0    0  0.28017429806E+01  0.76525470344E+01 -0.43042308735E+01  0.92161620817E+01  0.51100000000E-03 0. -1.
        -11    1    3    3    0    0 -0.79374718129E+00  0.16217829620E+02 -0.11862406673E+02  0.20108822057E+02  0.51100000000E-03 0.  1.
        -12    1    3    3    0    0 -0.18176707057E+00  0.16635292478E+02  0.13146843161E+02  0.21203902476E+02  0.00000000000E+00 0.  1.
</event>
<event>
 7    1  0.5121289E-013  0.5052885E+02  0.7816164E-02  0.1300439E+00
        -11   -1    0    0    0    0  0.00000000000E+00  0.00000000000E+00  0.45593999997E+02  0.45594000000E+02  0.51100000000E-03 0.  1.
         11   -1    0    0    0    0 -0.00000000000E+00 -0.00000000000E+00 -0.45593999997E+02  0.45594000000E+02  0.51100000000E-03 0. -1.
    9900012    2    1    2    0    0 -0.27277524278E+02 -0.16092790356E+02 -0.25497550090E+02  0.50528852287E+02  0.29999977011E+02 0.  0.
         12    1    1    2    0    0  0.27277524278E+02  0.16092790356E+02  0.25497550090E+02  0.40659147713E+02  0.00000000000E+00 0. -1.
         11    1    3    3    0    0  0.11805393954E+01 -0.11609804687E+01 -0.80224034673E+01  0.81914898868E+01  0.51100000000E-03 0. -1.
        -11    1    3    3    0    0 -0.46367482113E+01 -0.28578286470E+01 -0.14471426032E+02  0.15462496248E+02  0.51100000000E-03 0.  1.
        -12    1    3    3    0    0 -0.23821315462E+02 -0.12073981241E+02 -0.30037205908E+01  0.26874866152E+02  0.00000000000E+00 0.  1.
</event>
<event>
 7    1  0.5121289E-013  0.5052887E+02  0.7816164E-02  0.1300439E+00
        -11   -1    0    0    0    0  0.00000000000E+00  0.00000000000E+00  0.45593999997E+02  0.45594000000E+02  0.51100000000E-03 0.  1.
         11   -1    0    0    0    0 -0.00000000000E+00 -0.00000000000E+00 -0.45593999997E+02  0.45594000000E+02  0.51100000000E-03 0. -1.
    9900012    2    1    2    0    0 -0.40607344123E+02  0.20248880527E+01 -0.32950028263E+00  0.50528866478E+02  0.30000020146E+02 0.  0.
         12    1    1    2    0    0  0.40607344123E+02 -0.20248880527E+01  0.32950028263E+00  0.40659133522E+02  0.00000000000E+00 0. -1.
         11    1    3    3    0    0  0.13691356901E+01 -0.12062315464E+01  0.15061205607E+01  0.23659937629E+01  0.51100000000E-03 0. -1.
        -11    1    3    3    0    0 -0.34766735163E+01  0.78382118832E+01  0.30081605128E+01  0.90870156925E+01  0.51100000000E-03 0.  1.
         12    1    3    3    0    0 -0.38499806297E+02 -0.46070922841E+01 -0.48437813562E+01  0.39075857022E+02  0.00000000000E+00 0. -1.
</event>
<event>
 7    1  0.5121289E-013  0.5052886E+02  0.7816164E-02  0.1300439E+00
        -11   -1    0    0    0    0  0.00000000000E+00  0.00000000000E+00  0.45593999997E+02  0.45594000000E+02  0.51100000000E-03 0. -1.
         11   -1    0    0    0    0 -0.00000000000E+00 -0.00000000000E+00 -0.45593999997E+02  0.45594000000E+02  0.51100000000E-03 0.  1.
    9900012    2    1    2    0    0  0.16830847106E+02  0.16998323480E+02 -0.32877727702E+02  0.50528863336E+02  0.30000010596E+02 0.  0.
         12    1    1    2    0    0 -0.16830847106E+02 -0.16998323480E+02  0.32877727702E+02  0.40659136664E+02  0.00000000000E+00 0. -1.
         11    1    3    3    0    0  0.12118181094E+02  0.99612304495E+01 -0.26245546739E+02  0.30576218684E+02  0.51100000000E-03 0. -1.
        -11    1    3    3    0    0  0.51433223007E+01  0.34982446597E+01 -0.11995650717E+02  0.13512480023E+02  0.51100000000E-03 0.  1.
         12    1    3    3    0    0 -0.43065628877E+00  0.35388483710E+01  0.53634697552E+01  0.64401646289E+01  0.00000000000E+00 0. -1.
</event>
<event>
 7    1  0.5121289E-013  0.5052885E+02  0.7816164E-02  0.1300439E+00
        -11   -1    0    0    0    0  0.00000000000E+00  0.00000000000E+00  0.45593999997E+02  0.45594000000E+02  0.51100000000E-03 0. -1.
         11   -1    0    0    0    0 -0.00000000000E+00 -0.00000000000E+00 -0.45593999997E+02  0.45594000000E+02  0.51100000000E-03 0.  1.
    9900012    2    1    2    0    0  0.40402084185E+02  0.13712927160E+01  0.43540158205E+01  0.50528852149E+02  0.29999976591E+02 0.  0.
         12    1    1    2    0    0 -0.40402084185E+02 -0.13712927160E+01 -0.43540158205E+01  0.40659147851E+02  0.00000000000E+00 0. -1.
         11    1    3    3    0    0  0.61467135742E+01 -0.65920916331E+01  0.25177440018E+01  0.93582474312E+01  0.51100000000E-03 0. -1.
        -11    1    3    3    0    0  0.22038297389E+02  0.37416781058E+01  0.11398590356E+02  0.25092121656E+02  0.51100000000E-03 0.  1.
         12    1    3    3    0    0  0.12217073223E+02  0.42217062434E+01 -0.95623185378E+01  0.16078483061E+02  0.00000000000E+00 0. -1.
</event>
<event>
 7    1  0.5121289E-013  0.5052883E+02  0.7816164E-02  0.1300439E+00
        -11   -1    0    0    0    0  0.00000000000E+00  0.00000000000E+00  0.45593999997E+02  0.45594000000E+02  0.51100000000E-03 0.  1.
         11   -1    0    0    0    0 -0.00000000000E+00 -0.00000000000E+00 -0.45593999997E+02  0.45594000000E+02  0.51100000000E-03 0. -1.
    9900012    2    1    2    0    0  0.37668537089E+02 -0.15290815144E+02  0.66377019319E+00  0.50528827540E+02  0.29999901792E+02 0.  0.
         12    1    1    2    0    0 -0.37668537089E+02  0.15290815144E+02 -0.66377019319E+00  0.40659172460E+02  0.00000000000E+00 0. -1.
         11    1    3    3    0    0  0.10087032367E+02 -0.72993094696E+01 -0.79500243256E+01  0.14772644575E+02  0.51100000000E-03 0. -1.
        -11    1    3    3    0    0  0.24947752054E+02 -0.10382904580E+02  0.13100493991E+02  0.30030284434E+02  0.51100000000E-03 0.  1.
         12    1    3    3    0    0  0.26337526681E+01  0.23913989054E+01 -0.44866994723E+01  0.57258985318E+01  0.00000000000E+00 0. -1.
</event>
<event>
 7    1  0.5121289E-013  0.5052886E+02  0.7816164E-02  0.1300439E+00
        -11   -1    0    0    0    0  0.00000000000E+00  0.00000000000E+00  0.45593999997E+02  0.45594000000E+02  0.51100000000E-03 0.  1.
         11   -1    0    0    0    0 -0.00000000000E+00 -0.00000000000E+00 -0.45593999997E+02  0.45594000000E+02  0.51100000000E-03 0. -1.
    9900012    2    1    2    0    0 -0.10521060925E+02 -0.30270312828E+02  0.25023616518E+02  0.50528856559E+02  0.29999989997E+02 0.  0.
         12    1    1    2    0    0  0.10521060925E+02  0.30270312828E+02 -0.25023616518E+02  0.40659143441E+02  0.00000000000E+00 0. -1.
         11    1    3    3    0    0  0.26400858921E+01 -0.12194877113E+01 -0.26969646209E+01  0.39662100579E+01  0.51100000000E-03 0. -1.
        -11    1    3    3    0    0  0.16678722111E+01 -0.18984834779E+02  0.10753070767E+02  0.21882282342E+02  0.51100000000E-03 0.  1.
        -12    1    3    3    0    0 -0.14829019028E+02 -0.10065990337E+02  0.16967510372E+02  0.24680364159E+02  0.00000000000E+00 0.  1.
</event>
<event>
 7    1  0.5121289E-013  0.5052886E+02  0.7816164E-02  0.1300439E+00
        -11   -1    0    0    0    0  0.00000000000E+00  0.00000000000E+00  0.45593999997E+02  0.45594000000E+02  0.51100000000E-03 0.  1.
         11   -1    0    0    0    0 -0.00000000000E+00 -0.00000000000E+00 -0.45593999997E+02  0.45594000000E+02  0.51100000000E-03 0. -1.
    9900012    2    1    2    0    0 -0.23499070525E+02  0.26822107222E+02  0.19532894474E+02  0.50528859356E+02  0.29999998500E+02 0.  0.
         12    1    1    2    0    0  0.23499070525E+02 -0.26822107222E+02 -0.19532894474E+02  0.40659140644E+02  0.00000000000E+00 0. -1.
         11    1    3    3    0    0 -0.69082584415E+01  0.88191786880E+01  0.20829854657E+02  0.23651316934E+02  0.51100000000E-03 0. -1.
        -11    1    3    3    0    0 -0.24731141122E+01  0.60640202731E+00  0.31353486039E+01  0.40391122738E+01  0.51100000000E-03 0.  1.
        -12    1    3    3    0    0 -0.14117697971E+02  0.17396526507E+02 -0.44323087866E+01  0.22838430149E+02  0.00000000000E+00 0.  1.
</event>
<event>
 7    1  0.5121289E-013  0.5052886E+02  0.7816164E-02  0.1300439E+00
        -11   -1    0    0    0    0  0.00000000000E+00  0.00000000000E+00  0.45593999997E+02  0.45594000000E+02  0.51100000000E-03 0.  1.
         11   -1    0    0    0    0 -0.00000000000E+00 -0.00000000000E+00 -0.45593999997E+02  0.45594000000E+02  0.51100000000E-03 0. -1.
    9900012    2    1    2    0    0  0.36656365226E+02  0.35794689630E+00 -0.17588315018E+02  0.50528855116E+02  0.29999985611E+02 0.  0.
         12    1    1    2    0    0 -0.36656365226E+02 -0.35794689630E+00  0.17588315018E+02  0.40659144884E+02  0.00000000000E+00 0. -1.
         11    1    3    3    0    0  0.14911857079E+02  0.74571761945E+01 -0.13033792514E+02  0.21162530707E+02  0.51100000000E-03 0. -1.
        -11    1    3    3    0    0  0.11523349190E+02  0.14920681039E+00 -0.10414889288E+02  0.15533182494E+02  0.51100000000E-03 0.  1.
        -12    1    3    3    0    0  0.10221158956E+02 -0.72484361086E+01  0.58603667843E+01  0.13833141916E+02  0.00000000000E+00 0.  1.
</event>
<event>
 7    1  0.5121289E-013  0.5052887E+02  0.7816164E-02  0.1300439E+00
        -11   -1    0    0    0    0  0.00000000000E+00  0.00000000000E+00  0.45593999997E+02  0.45594000000E+02  0.51100000000E-03 0.  1.
         11   -1    0    0    0    0 -0.00000000000E+00 -0.00000000000E+00 -0.45593999997E+02  0.45594000000E+02  0.51100000000E-03 0. -1.
    9900012    2    1    2    0    0  0.15564334168E+02 -0.22468312690E+02  0.30101354004E+02  0.50528867125E+02  0.30000022114E+02 0.  0.
         12    1    1    2    0    0 -0.15564334168E+02  0.22468312690E+02 -0.30101354004E+02  0.40659132875E+02  0.00000000000E+00 0. -1.
         11    1    3    3    0    0  0.53897591358E+01 -0.63742254036E+00  0.46224618780E+01  0.71290227318E+01  0.51100000000E-03 0. -1.
        -11    1    3    3    0    0  0.16567699437E+02 -0.10406362364E+02  0.70543182522E+01  0.20797702963E+02  0.51100000000E-03 0.  1.
        -12    1    3    3    0    0 -0.63931244048E+01 -0.11424527786E+02  0.18424573874E+02  0.22602141430E+02  0.00000000000E+00 0.  1.
</event>
<event>
 7    1  0.5121289E-013  0.5052886E+02  0.7816164E-02  0.1300439E+00
        -11   -1    0    0    0    0  0.00000000000E+00  0.00000000000E+00  0.45593999997E+02  0.45594000000E+02  0.51100000000E-03 0. -1.
         11   -1    0    0    0    0 -0.00000000000E+00 -0.00000000000E+00 -0.45593999997E+02  0.45594000000E+02  0.51100000000E-03 0.  1.
    9900012    2    1    2    0    0  0.62156735285E+01  0.33963251065E+02 -0.21471577549E+02  0.50528860034E+02  0.30000000559E+02 0.  0.
         12    1    1    2    0    0 -0.62156735285E+01 -0.33963251065E+02  0.21471577549E+02  0.40659139966E+02  0.00000000000E+00 0. -1.
         11    1    3    3    0    0 -0.31605006975E+01  0.16550974797E+02 -0.18326970858E+02  0.24895810742E+02  0.51100000000E-03 0. -1.
        -11    1    3    3    0    0  0.12748921328E+01  0.10777184448E+02 -0.85804079885E+01  0.13834610804E+02  0.51100000000E-03 0.  1.
         12    1    3    3    0    0  0.81012820931E+01  0.66350918204E+01  0.54358012980E+01  0.11798438489E+02  0.00000000000E+00 0. -1.
</event>
<event>
 7    1  0.5121289E-013  0.5052885E+02  0.7816164E-02  0.1300439E+00
        -11   -1    0    0    0    0  0.00000000000E+00  0.00000000000E+00  0.45593999997E+02  0.45594000000E+02  0.51100000000E-03 0.  1.
         11   -1    0    0    0    0 -0.00000000000E+00 -0.00000000000E+00 -0.45593999997E+02  0.45594000000E+02  0.51100000000E-03 0. -1.
    9900012    2    1    2    0    0  0.18489722830E+02 -0.90696721339E+01  0.35057629217E+02  0.50528853806E+02  0.29999981628E+02 0.  0.
         12    1    1    2    0    0 -0.18489722830E+02  0.90696721339E+01 -0.35057629217E+02  0.40659146194E+02  0.00000000000E+00 0. -1.
         11    1    3    3    0    0  0.49481649095E+01  0.61701562136E+01  0.11519472191E+02  0.13973310398E+02  0.51100000000E-03 0. -1.
        -11    1    3    3    0    0  0.14972959656E+02 -0.25378253743E+01  0.12815857395E+02  0.19871494144E+02  0.51100000000E-03 0.  1.
         12    1    3    3    0    0 -0.14314017353E+01 -0.12702002973E+02  0.10722299631E+02  0.16684049263E+02  0.00000000000E+00 0. -1.
</event>
<event>
 7    1  0.5121289E-013  0.5052884E+02  0.7816164E-02  0.1300439E+00
        -11   -1    0    0    0    0  0.00000000000E+00  0.00000000000E+00  0.45593999997E+02  0.45594000000E+02  0.51100000000E-03 0.  1.
         11   -1    0    0    0    0 -0.00000000000E+00 -0.00000000000E+00 -0.45593999997E+02  0.45594000000E+02  0.51100000000E-03 0. -1.
    9900012    2    1    2    0    0  0.19437631365E+02  0.25764887443E+02  0.24728856691E+02  0.50528840008E+02  0.29999939687E+02 0.  0.
         12    1    1    2    0    0 -0.19437631365E+02 -0.25764887443E+02 -0.24728856691E+02  0.40659159992E+02  0.00000000000E+00 0. -1.
         11    1    3    3    0    0  0.20795923130E+01 -0.14708127645E+01  0.15092837659E+02  0.15306264836E+02  0.51100000000E-03 0. -1.
        -11    1    3    3    0    0  0.42436997631E+01  0.43895617988E+01  0.61228314346E+01  0.86467511530E+01  0.51100000000E-03 0.  1.
         12    1    3    3    0    0  0.13114339289E+02  0.22846138408E+02  0.35131875979E+01  0.26575824019E+02  0.00000000000E+00 0. -1.
</event>
<event>
 7    1  0.5121289E-013  0.5052886E+02  0.7816164E-02  0.1300439E+00
        -11   -1    0    0    0    0  0.00000000000E+00  0.00000000000E+00  0.45593999997E+02  0.45594000000E+02  0.51100000000E-03 0.  1.
         11   -1    0    0    0    0 -0.00000000000E+00 -0.00000000000E+00 -0.45593999997E+02  0.45594000000E+02  0.51100000000E-03 0. -1.
    9900012    2    1    2    0    0  0.23674303507E+02  0.17372000672E+02  0.28123061476E+02  0.50528860306E+02  0.30000001385E+02 0.  0.
         12    1    1    2    0    0 -0.23674303507E+02 -0.17372000672E+02 -0.28123061476E+02  0.40659139694E+02  0.00000000000E+00 0. -1.
         11    1    3    3    0    0  0.49361092342E+01  0.12144242656E+02  0.44160589798E+01  0.13832909355E+02  0.51100000000E-03 0. -1.
        -11    1    3    3    0    0  0.10412133696E+02 -0.35117005912E+00 -0.56783416909E+00  0.10433517356E+02  0.51100000000E-03 0.  1.
        -12    1    3    3    0    0  0.83260605777E+01  0.55789280754E+01  0.24274836665E+02  0.26262433595E+02  0.00000000000E+00 0.  1.
</event>
<event>
 7    1  0.5121289E-013  0.5052886E+02  0.7816164E-02  0.1300439E+00
        -11   -1    0    0    0    0  0.00000000000E+00  0.00000000000E+00  0.45593999997E+02  0.45594000000E+02  0.51100000000E-03 0.  1.
         11   -1    0    0    0    0 -0.00000000000E+00 -0.00000000000E+00 -0.45593999997E+02  0.45594000000E+02  0.51100000000E-03 0. -1.
    9900012    2    1    2    0    0  0.31182150215E+02 -0.25031662469E+02 -0.73658055468E+01  0.50528859461E+02  0.29999998818E+02 0.  0.
         12    1    1    2    0    0 -0.31182150215E+02  0.25031662469E+02  0.73658055468E+01  0.40659140539E+02  0.00000000000E+00 0. -1.
         11    1    3    3    0    0  0.10811796591E+02 -0.13424695240E+02 -0.24881334078E+00  0.17238889064E+02  0.51100000000E-03 0. -1.
        -11    1    3    3    0    0  0.30127582164E+01 -0.14277118234E+02 -0.57203376204E+01  0.15672749596E+02  0.51100000000E-03 0.  1.
         12    1    3    3    0    0  0.17357595408E+02  0.26701510049E+01 -0.13966545856E+01  0.17617220801E+02  0.00000000000E+00 0. -1.
</event>
<event>
 7    1  0.5121289E-013  0.5052885E+02  0.7816164E-02  0.1300439E+00
        -11   -1    0    0    0    0  0.00000000000E+00  0.00000000000E+00  0.45593999997E+02  0.45594000000E+02  0.51100000000E-03 0.  1.
         11   -1    0    0    0    0 -0.00000000000E+00 -0.00000000000E+00 -0.45593999997E+02  0.45594000000E+02  0.51100000000E-03 0. -1.
    9900012    2    1    2    0    0  0.17438810405E+01 -0.38249475721E+02  0.13678544235E+02  0.50528854825E+02  0.29999984725E+02 0.  0.
         12    1    1    2    0    0 -0.17438810405E+01  0.38249475721E+02 -0.13678544235E+02  0.40659145175E+02  0.00000000000E+00 0. -1.
         11    1    3    3    0    0  0.13455482945E+02 -0.30358717438E+02  0.98030655762E+01  0.34623717893E+02  0.51100000000E-03 0.  1.
        -11    1    3    3    0    0 -0.18731519440E+01 -0.44869012653E+01  0.20541598179E+00  0.48665364641E+01  0.51100000000E-03 0. -1.
         12    1    3    3    0    0 -0.98384499609E+01 -0.34038570173E+01  0.36700626772E+01  0.11038600468E+02  0.00000000000E+00 0. -1.
</event>
<event>
 7    1  0.5121289E-013  0.5052886E+02  0.7816164E-02  0.1300439E+00
        -11   -1    0    0    0    0  0.00000000000E+00  0.00000000000E+00  0.45593999997E+02  0.45594000000E+02  0.51100000000E-03 0.  1.
         11   -1    0    0    0    0 -0.00000000000E+00 -0.00000000000E+00 -0.45593999997E+02  0.45594000000E+02  0.51100000000E-03 0. -1.
    9900012    2    1    2    0    0 -0.17731639037E+02  0.58590534202E+01  0.36116838474E+02  0.50528861405E+02  0.30000004725E+02 0.  0.
         12    1    1    2    0    0  0.17731639037E+02 -0.58590534202E+01 -0.36116838474E+02  0.40659138595E+02  0.00000000000E+00 0. -1.
         11    1    3    3    0    0 -0.12158254493E+02 -0.10108630970E+02  0.15627881648E+02  0.22231469980E+02  0.51100000000E-03 0. -1.
        -11    1    3    3    0    0 -0.43088208569E+01  0.16788898165E+01  0.81750374176E+01  0.93923290633E+01  0.51100000000E-03 0.  1.
         12    1    3    3    0    0 -0.12645636872E+01  0.14288794573E+02  0.12313919409E+02  0.18905062361E+02  0.00000000000E+00 0. -1.
</event>
<event>
 7    1  0.5121289E-013  0.5052886E+02  0.7816164E-02  0.1300439E+00
        -11   -1    0    0    0    0  0.00000000000E+00  0.00000000000E+00  0.45593999997E+02  0.45594000000E+02  0.51100000000E-03 0.  1.
         11   -1    0    0    0    0 -0.00000000000E+00 -0.00000000000E+00 -0.45593999997E+02  0.45594000000E+02  0.51100000000E-03 0. -1.
    9900012    2    1    2    0    0  0.29819416549E+01 -0.17319711530E+02  0.36664714624E+02  0.50528859798E+02  0.29999999841E+02 0.  0.
         12    1    1    2    0    0 -0.29819416549E+01  0.17319711530E+02 -0.36664714624E+02  0.40659140202E+02  0.00000000000E+00 0. -1.
         11    1    3    3    0    0 -0.60864025124E+01 -0.97345492387E+01  0.97910552752E+01  0.15088754358E+02  0.51100000000E-03 0. -1.
        -11    1    3    3    0    0 -0.30294324217E+01  0.39388726160E+01  0.12312313375E+02  0.13277245166E+02  0.51100000000E-03 0.  1.
         12    1    3    3    0    0  0.12097776589E+02 -0.11524034907E+02  0.14561345973E+02  0.22162860273E+02  0.00000000000E+00 0. -1.
</event>
<event>
 7    1  0.5121289E-013  0.5052887E+02  0.7816164E-02  0.1300439E+00
        -11   -1    0    0    0    0  0.00000000000E+00  0.00000000000E+00  0.45593999997E+02  0.45594000000E+02  0.51100000000E-03 0.  1.
         11   -1    0    0    0    0 -0.00000000000E+00 -0.00000000000E+00 -0.45593999997E+02  0.45594000000E+02  0.51100000000E-03 0. -1.
    9900012    2    1    2    0    0 -0.13648851750E+02  0.16838531576E+02  0.34399673686E+02  0.50528870036E+02  0.30000030961E+02 0.  0.
         12    1    1    2    0    0  0.13648851750E+02 -0.16838531576E+02 -0.34399673686E+02  0.40659129964E+02  0.00000000000E+00 0. -1.
         11    1    3    3    0    0  0.19086731590E+00 -0.62682571278E+01  0.10452131268E+02  0.12189115065E+02  0.51100000000E-03 0. -1.
        -11    1    3    3    0    0  0.75366045651E+00  0.10603982094E+02  0.99989503808E+01  0.14594226574E+02  0.51100000000E-03 0.  1.
        -12    1    3    3    0    0 -0.14593379523E+02  0.12502806610E+02  0.13948592038E+02  0.23745528397E+02  0.00000000000E+00 0.  1.
</event>
<event>
 7    1  0.5121289E-013  0.5052886E+02  0.7816164E-02  0.1300439E+00
        -11   -1    0    0    0    0  0.00000000000E+00  0.00000000000E+00  0.45593999997E+02  0.45594000000E+02  0.51100000000E-03 0.  1.
         11   -1    0    0    0    0 -0.00000000000E+00 -0.00000000000E+00 -0.45593999997E+02  0.45594000000E+02  0.51100000000E-03 0. -1.
    9900012    2    1    2    0    0  0.38636023943E+02  0.76354863971E+00  0.12642808823E+02  0.50528856286E+02  0.29999989167E+02 0.  0.
         12    1    1    2    0    0 -0.38636023943E+02 -0.76354863971E+00 -0.12642808823E+02  0.40659143714E+02  0.00000000000E+00 0. -1.
         11    1    3    3    0    0  0.32843828744E+01 -0.91744955739E+00  0.35188360607E+01  0.49001114313E+01  0.51100000000E-03 0.  1.
        -11    1    3    3    0    0  0.23800761683E+02 -0.12119645174E+02  0.52558845113E+01  0.27221064970E+02  0.51100000000E-03 0. -1.
        -12    1    3    3    0    0  0.11550879386E+02  0.13800643371E+02  0.38680882505E+01  0.18407679885E+02  0.00000000000E+00 0.  1.
</event>
<event>
 7    1  0.5121289E-013  0.5052884E+02  0.7816164E-02  0.1300439E+00
        -11   -1    0    0    0    0  0.00000000000E+00  0.00000000000E+00  0.45593999997E+02  0.45594000000E+02  0.51100000000E-03 0.  1.
         11   -1    0    0    0    0 -0.00000000000E+00 -0.00000000000E+00 -0.45593999997E+02  0.45594000000E+02  0.51100000000E-03 0. -1.
    9900012    2    1    2    0    0 -0.30561872291E+00 -0.38848818537E+02  0.11993453497E+02  0.50528843204E+02  0.29999949403E+02 0.  0.
         12    1    1    2    0    0  0.30561872291E+00  0.38848818537E+02 -0.11993453497E+02  0.40659156796E+02  0.00000000000E+00 0. -1.
         11    1    3    3    0    0  0.16570344673E+01 -0.49792404912E+01  0.69578383296E+01  0.87149362348E+01  0.51100000000E-03 0. -1.
        -11    1    3    3    0    0  0.42617310585E+01 -0.14538646692E+02  0.13035749945E+02  0.19986629935E+02  0.51100000000E-03 0.  1.
         12    1    3    3    0    0 -0.62243842487E+01 -0.19330931354E+02 -0.80001347775E+01  0.21827277035E+02  0.00000000000E+00 0. -1.
</event>
<event>
 7    1  0.5121289E-013  0.5052886E+02  0.7816164E-02  0.1300439E+00
        -11   -1    0    0    0    0  0.00000000000E+00  0.00000000000E+00  0.45593999997E+02  0.45594000000E+02  0.51100000000E-03 0.  1.
         11   -1    0    0    0    0 -0.00000000000E+00 -0.00000000000E+00 -0.45593999997E+02  0.45594000000E+02  0.51100000000E-03 0. -1.
    9900012    2    1    2    0    0 -0.50491203411E+01 -0.34583575917E+02 -0.20776148872E+02  0.50528859559E+02  0.29999999116E+02 0.  0.
         12    1    1    2    0    0  0.50491203411E+01  0.34583575917E+02  0.20776148872E+02  0.40659140441E+02  0.00000000000E+00 0. -1.
         11    1    3    3    0    0  0.23188029108E+01 -0.89417764982E+01 -0.94342875522E+01  0.13203711439E+02  0.51100000000E-03 0. -1.
        -11    1    3    3    0    0 -0.41921129538E+01 -0.27622993320E+02 -0.15319175606E+02  0.31863469875E+02  0.51100000000E-03 0.  1.
        -12    1    3    3    0    0 -0.31758102981E+01  0.19811939008E+01  0.39773142863E+01  0.54616782452E+01  0.00000000000E+00 0.  1.
</event>
<event>
 7    1  0.5121289E-013  0.5052886E+02  0.7816164E-02  0.1300439E+00
        -11   -1    0    0    0    0  0.00000000000E+00  0.00000000000E+00  0.45593999997E+02  0.45594000000E+02  0.51100000000E-03 0.  1.
         11   -1    0    0    0    0 -0.00000000000E+00 -0.00000000000E+00 -0.45593999997E+02  0.45594000000E+02  0.51100000000E-03 0. -1.
    9900012    2    1    2    0    0  0.36577587354E+02 -0.17472045445E+02  0.31580558848E+01  0.50528860982E+02  0.30000003441E+02 0.  0.
         12    1    1    2    0    0 -0.36577587354E+02  0.17472045445E+02 -0.31580558848E+01  0.40659139018E+02  0.00000000000E+00 0. -1.
         11    1    3    3    0    0  0.50771490484E+01  0.70764597540E+01  0.37008201299E+01  0.94630753460E+01  0.51100000000E-03 0. -1.
        -11    1    3    3    0    0  0.25971039704E+01 -0.32543162266E+01  0.27884329370E+01  0.50110758966E+01  0.51100000000E-03 0.  1.
         12    1    3    3    0    0  0.28903334336E+02 -0.21294188973E+02 -0.33311971821E+01  0.36054709739E+02  0.00000000000E+00 0. -1.
</event>
<event>
 7    1  0.5121289E-013  0.5052886E+02  0.7816164E-02  0.1300439E+00
        -11   -1    0    0    0    0  0.00000000000E+00  0.00000000000E+00  0.45593999997E+02  0.45594000000E+02  0.51100000000E-03 0.  1.
         11   -1    0    0    0    0 -0.00000000000E+00 -0.00000000000E+00 -0.45593999997E+02  0.45594000000E+02  0.51100000000E-03 0. -1.
    9900012    2    1    2    0    0 -0.18578454848E+01 -0.39217160626E+02  0.10570154094E+02  0.50528862835E+02  0.30000009073E+02 0.  0.
         12    1    1    2    0    0  0.18578454848E+01  0.39217160626E+02 -0.10570154094E+02  0.40659137165E+02  0.00000000000E+00 0. -1.
         11    1    3    3    0    0  0.36454321706E+01 -0.11837893520E+02  0.15848925235E+02  0.20115002612E+02  0.51100000000E-03 0. -1.
        -11    1    3    3    0    0 -0.23284446541E+01 -0.48483029408E+01  0.30509731253E+01  0.61835372712E+01  0.51100000000E-03 0.  1.
         12    1    3    3    0    0 -0.31748330013E+01 -0.22530964166E+02 -0.83297442660E+01  0.24230322952E+02  0.00000000000E+00 0. -1.
</event>
<event>
 7    1  0.5121289E-013  0.5052886E+02  0.7816164E-02  0.1300439E+00
        -11   -1    0    0    0    0  0.00000000000E+00  0.00000000000E+00  0.45593999997E+02  0.45594000000E+02  0.51100000000E-03 0.  1.
         11   -1    0    0    0    0 -0.00000000000E+00 -0.00000000000E+00 -0.45593999997E+02  0.45594000000E+02  0.51100000000E-03 0. -1.
    9900012    2    1    2    0    0  0.14558425842E+02  0.21214382237E+02  0.31482820904E+02  0.50528858484E+02  0.29999995848E+02 0.  0.
         12    1    1    2    0    0 -0.14558425842E+02 -0.21214382237E+02 -0.31482820904E+02  0.40659141516E+02  0.00000000000E+00 0. -1.
         11    1    3    3    0    0  0.96311910935E+01  0.13774023627E+02  0.14358245165E+02  0.22105265735E+02  0.51100000000E-03 0. -1.
        -11    1    3    3    0    0  0.11251437534E+02  0.87766554233E+01  0.16670542105E+02  0.21943826042E+02  0.51100000000E-03 0.  1.
         12    1    3    3    0    0 -0.63242027852E+01 -0.13362968126E+01  0.45403363435E+00  0.64797667073E+01  0.00000000000E+00 0. -1.
</event>
<event>
 7    1  0.5121289E-013  0.5052885E+02  0.7816164E-02  0.1300439E+00
        -11   -1    0    0    0    0  0.00000000000E+00  0.00000000000E+00  0.45593999997E+02  0.45594000000E+02  0.51100000000E-03 0.  1.
         11   -1    0    0    0    0 -0.00000000000E+00 -0.00000000000E+00 -0.45593999997E+02  0.45594000000E+02  0.51100000000E-03 0. -1.
    9900012    2    1    2    0    0 -0.42088810424E+01 -0.31106829558E+02  0.25842152434E+02  0.50528851372E+02  0.29999974230E+02 0.  0.
         12    1    1    2    0    0  0.42088810424E+01  0.31106829558E+02 -0.25842152434E+02  0.40659148628E+02  0.00000000000E+00 0. -1.
         11    1    3    3    0    0  0.21392363380E+01 -0.44907132249E+01 -0.42134028998E+01  0.65188650573E+01  0.51100000000E-03 0. -1.
        -11    1    3    3    0    0 -0.10095717631E+02 -0.21174757181E+02  0.29030722336E+02  0.37323942662E+02  0.51100000000E-03 0.  1.
         12    1    3    3    0    0  0.37476002510E+01 -0.54413591516E+01  0.10248329973E+01  0.66860436531E+01  0.00000000000E+00 0. -1.
</event>
<event>
 7    1  0.5121289E-013  0.5052888E+02  0.7816164E-02  0.1300439E+00
        -11   -1    0    0    0    0  0.00000000000E+00  0.00000000000E+00  0.45593999997E+02  0.45594000000E+02  0.51100000000E-03 0.  1.
         11   -1    0    0    0    0 -0.00000000000E+00 -0.00000000000E+00 -0.45593999997E+02  0.45594000000E+02  0.51100000000E-03 0. -1.
    9900012    2    1    2    0    0 -0.34152553599E+02 -0.20345360295E+02 -0.85342591452E+01  0.50528878243E+02  0.30000055909E+02 0.  0.
         12    1    1    2    0    0  0.34152553599E+02  0.20345360295E+02  0.85342591452E+01  0.40659121757E+02  0.00000000000E+00 0. -1.
         11    1    3    3    0    0 -0.27444257057E+02 -0.15696873975E+02 -0.15927726269E+02  0.35401575705E+02  0.51100000000E-03 0. -1.
        -11    1    3    3    0    0 -0.88544327573E+00 -0.62766201773E+01  0.11614345867E+01  0.64442921415E+01  0.51100000000E-03 0.  1.
        -12    1    3    3    0    0 -0.58228532661E+01  0.16281338580E+01  0.62320325368E+01  0.86830103972E+01  0.00000000000E+00 0.  1.
</event>
<event>
 7    1  0.5121289E-013  0.5052887E+02  0.7816164E-02  0.1300439E+00
        -11   -1    0    0    0    0  0.00000000000E+00  0.00000000000E+00  0.45593999997E+02  0.45594000000E+02  0.51100000000E-03 0. -1.
         11   -1    0    0    0    0 -0.00000000000E+00 -0.00000000000E+00 -0.45593999997E+02  0.45594000000E+02  0.51100000000E-03 0.  1.
    9900012    2    1    2    0    0 -0.28870743274E+02  0.28619166594E+02  0.76704814059E+00  0.50528869702E+02  0.30000029947E+02 0.  0.
         12    1    1    2    0    0  0.28870743274E+02 -0.28619166594E+02 -0.76704814059E+00  0.40659130298E+02  0.00000000000E+00 0. -1.
         11    1    3    3    0    0 -0.10350274869E+00  0.52573234372E+00  0.45818710161E+01  0.46130954450E+01  0.51100000000E-03 0. -1.
        -11    1    3    3    0    0 -0.33433009082E+01 -0.35507898229E+01 -0.20346736077E+01  0.52844740779E+01  0.51100000000E-03 0.  1.
        -12    1    3    3    0    0 -0.25423939617E+02  0.31644224073E+02 -0.17801492678E+01  0.40631300179E+02  0.00000000000E+00 0.  1.
</event>
<event>
 7    1  0.5121289E-013  0.5052887E+02  0.7816164E-02  0.1300439E+00
        -11   -1    0    0    0    0  0.00000000000E+00  0.00000000000E+00  0.45593999997E+02  0.45594000000E+02  0.51100000000E-03 0.  1.
         11   -1    0    0    0    0 -0.00000000000E+00 -0.00000000000E+00 -0.45593999997E+02  0.45594000000E+02  0.51100000000E-03 0. -1.
    9900012    2    1    2    0    0 -0.25173049574E+02 -0.51097165410E+01  0.31517828635E+02  0.50528866341E+02  0.30000019731E+02 0.  0.
         12    1    1    2    0    0  0.25173049574E+02  0.51097165410E+01 -0.31517828635E+02  0.40659133659E+02  0.00000000000E+00 0. -1.
         11    1    3    3    0    0 -0.31947902703E+01  0.61105361992E+01  0.76418730841E+01  0.10292888905E+02  0.51100000000E-03 0. -1.
        -11    1    3    3    0    0 -0.92512449311E+01 -0.11038625687E+02  0.23426448454E+02  0.27499732312E+02  0.51100000000E-03 0.  1.
         12    1    3    3    0    0 -0.12727014373E+02 -0.18162705323E+00  0.44950709732E+00  0.12736245124E+02  0.00000000000E+00 0. -1.
</event>
<event>
 7    1  0.5121289E-013  0.5052886E+02  0.7816164E-02  0.1300439E+00
        -11   -1    0    0    0    0  0.00000000000E+00  0.00000000000E+00  0.45593999997E+02  0.45594000000E+02  0.51100000000E-03 0.  1.
         11   -1    0    0    0    0 -0.00000000000E+00 -0.00000000000E+00 -0.45593999997E+02  0.45594000000E+02  0.51100000000E-03 0. -1.
    9900012    2    1    2    0    0 -0.25464415661E+02 -0.26525610406E+02  0.17352852366E+02  0.50528856408E+02  0.29999989538E+02 0.  0.
         12    1    1    2    0    0  0.25464415661E+02  0.26525610406E+02 -0.17352852366E+02  0.40659143592E+02  0.00000000000E+00 0. -1.
         11    1    3    3    0    0 -0.21327057172E+02 -0.95236896054E+01  0.10393551282E+02  0.25565013981E+02  0.51100000000E-03 0. -1.
        -11    1    3    3    0    0 -0.10410416436E+02 -0.12306517302E+02  0.51513314039E+01  0.16922273900E+02  0.51100000000E-03 0.  1.
        -12    1    3    3    0    0  0.62730579463E+01 -0.46954034987E+01  0.18079696806E+01  0.80415685273E+01  0.00000000000E+00 0.  1.
</event>
<event>
 7    1  0.5121289E-013  0.5052885E+02  0.7816164E-02  0.1300439E+00
        -11   -1    0    0    0    0  0.00000000000E+00  0.00000000000E+00  0.45593999997E+02  0.45594000000E+02  0.51100000000E-03 0. -1.
         11   -1    0    0    0    0 -0.00000000000E+00 -0.00000000000E+00 -0.45593999997E+02  0.45594000000E+02  0.51100000000E-03 0.  1.
    9900012    2    1    2    0    0  0.37911536036E+02  0.14682243062E+02 -0.55981585914E+00  0.50528853184E+02  0.29999979740E+02 0.  0.
         12    1    1    2    0    0 -0.37911536036E+02 -0.14682243062E+02  0.55981585914E+00  0.40659146816E+02  0.00000000000E+00 0. -1.
         11    1    3    3    0    0  0.15423679812E+02  0.43449886480E+01  0.55369449385E+01  0.16953659924E+02  0.51100000000E-03 0. -1.
        -11    1    3    3    0    0  0.74276818876E+01 -0.66169235072E+01  0.49363632091E+00  0.99598098376E+01  0.51100000000E-03 0.  1.
        -12    1    3    3    0    0  0.15060174337E+02  0.16954177922E+02 -0.65903971185E+01  0.23615383423E+02  0.00000000000E+00 0.  1.
</event>
<event>
 7    1  0.5121289E-013  0.5052886E+02  0.7816164E-02  0.1300439E+00
        -11   -1    0    0    0    0  0.00000000000E+00  0.00000000000E+00  0.45593999997E+02  0.45594000000E+02  0.51100000000E-03 0.  1.
         11   -1    0    0    0    0 -0.00000000000E+00 -0.00000000000E+00 -0.45593999997E+02  0.45594000000E+02  0.51100000000E-03 0. -1.
    9900012    2    1    2    0    0  0.20063367049E+02  0.30540191862E+02  0.17830412147E+02  0.50528860638E+02  0.30000002396E+02 0.  0.
         12    1    1    2    0    0 -0.20063367049E+02 -0.30540191862E+02 -0.17830412147E+02  0.40659139362E+02  0.00000000000E+00 0. -1.
         11    1    3    3    0    0  0.15191634685E+01  0.85639809020E+01  0.46798321548E+01  0.98767634270E+01  0.51100000000E-03 0. -1.
        -11    1    3    3    0    0  0.13396263221E+02  0.23829319863E+02  0.10326135542E+01  0.27356217656E+02  0.51100000000E-03 0.  1.
        -12    1    3    3    0    0  0.51479403603E+01 -0.18531089036E+01  0.12117966438E+02  0.13295879556E+02  0.00000000000E+00 0.  1.
</event>
<event>
 7    1  0.5121289E-013  0.5052886E+02  0.7816164E-02  0.1300439E+00
        -11   -1    0    0    0    0  0.00000000000E+00  0.00000000000E+00  0.45593999997E+02  0.45594000000E+02  0.51100000000E-03 0.  1.
         11   -1    0    0    0    0 -0.00000000000E+00 -0.00000000000E+00 -0.45593999997E+02  0.45594000000E+02  0.51100000000E-03 0. -1.
    9900012    2    1    2    0    0  0.28900045464E+02  0.50300371364E+01  0.28154071387E+02  0.50528860350E+02  0.30000001520E+02 0.  0.
         12    1    1    2    0    0 -0.28900045464E+02 -0.50300371364E+01 -0.28154071387E+02  0.40659139650E+02  0.00000000000E+00 0. -1.
         11    1    3    3    0    0  0.38416889118E+01  0.43593762974E+01  0.96826091661E+01  0.11292283025E+02  0.51100000000E-03 0. -1.
        -11    1    3    3    0    0  0.10292991588E+02  0.91819022651E+01  0.17339086161E+02  0.22156193586E+02  0.51100000000E-03 0.  1.
         12    1    3    3    0    0  0.14765364964E+02 -0.85112414261E+01  0.11323760593E+01  0.17080383739E+02  0.00000000000E+00 0. -1.
</event>
<event>
 7    1  0.5121289E-013  0.5052886E+02  0.7816164E-02  0.1300439E+00
        -11   -1    0    0    0    0  0.00000000000E+00  0.00000000000E+00  0.45593999997E+02  0.45594000000E+02  0.51100000000E-03 0. -1.
         11   -1    0    0    0    0 -0.00000000000E+00 -0.00000000000E+00 -0.45593999997E+02  0.45594000000E+02  0.51100000000E-03 0.  1.
    9900012    2    1    2    0    0  0.13898676337E+01  0.18583976318E+02 -0.36136823183E+02  0.50528857146E+02  0.29999991782E+02 0.  0.
         12    1    1    2    0    0 -0.13898676337E+01 -0.18583976318E+02  0.36136823183E+02  0.40659142854E+02  0.00000000000E+00 0. -1.
         11    1    3    3    0    0 -0.84105624229E+01  0.99256179288E+00 -0.96541902297E+01  0.12842356810E+02  0.51100000000E-03 0. -1.
        -11    1    3    3    0    0 -0.20327587856E+01 -0.78112193357E+00 -0.10210850067E+02  0.10440484620E+02  0.51100000000E-03 0.  1.
         12    1    3    3    0    0  0.11833188842E+02  0.18372536458E+02 -0.16271782887E+02  0.27246015716E+02  0.00000000000E+00 0. -1.
</event>
<event>
 7    1  0.5121289E-013  0.5052888E+02  0.7816164E-02  0.1300439E+00
        -11   -1    0    0    0    0  0.00000000000E+00  0.00000000000E+00  0.45593999997E+02  0.45594000000E+02  0.51100000000E-03 0.  1.
         11   -1    0    0    0    0 -0.00000000000E+00 -0.00000000000E+00 -0.45593999997E+02  0.45594000000E+02  0.51100000000E-03 0. -1.
    9900012    2    1    2    0    0 -0.24245993029E+02  0.24578285478E+01  0.32546200306E+02  0.50528877365E+02  0.30000053237E+02 0.  0.
         12    1    1    2    0    0  0.24245993029E+02 -0.24578285478E+01 -0.32546200306E+02  0.40659122635E+02  0.00000000000E+00 0. -1.
         11    1    3    3    0    0 -0.90976711882E+01  0.83503467608E+01  0.12738707658E+02  0.17741775140E+02  0.51100000000E-03 0. -1.
        -11    1    3    3    0    0 -0.90169969628E+01  0.67759095846E+01  0.12814612216E+02  0.17071422654E+02  0.51100000000E-03 0.  1.
         12    1    3    3    0    0 -0.61313248781E+01 -0.12668427798E+02  0.69928804319E+01  0.15715679570E+02  0.00000000000E+00 0. -1.
</event>
<event>
 7    1  0.5121289E-013  0.5052886E+02  0.7816164E-02  0.1300439E+00
        -11   -1    0    0    0    0  0.00000000000E+00  0.00000000000E+00  0.45593999997E+02  0.45594000000E+02  0.51100000000E-03 0.  1.
         11   -1    0    0    0    0 -0.00000000000E+00 -0.00000000000E+00 -0.45593999997E+02  0.45594000000E+02  0.51100000000E-03 0. -1.
    9900012    2    1    2    0    0 -0.14648889987E+02 -0.37413980467E+02 -0.62265150926E+01  0.50528863236E+02  0.30000010292E+02 0.  0.
         12    1    1    2    0    0  0.14648889987E+02  0.37413980467E+02  0.62265150926E+01  0.40659136764E+02  0.00000000000E+00 0. -1.
         11    1    3    3    0    0 -0.93094846467E+01 -0.53486126321E+01 -0.46236601509E+01  0.11689841527E+02  0.51100000000E-03 0. -1.
        -11    1    3    3    0    0 -0.10845602123E+02 -0.64832018384E+01 -0.71954715321E+00  0.12656094968E+02  0.51100000000E-03 0.  1.
        -12    1    3    3    0    0  0.55061967821E+01 -0.25582165996E+02 -0.88330778846E+00  0.26182926741E+02  0.00000000000E+00 0.  1.
</event>
<event>
 7    1  0.5121289E-013  0.5052886E+02  0.7816164E-02  0.1300439E+00
        -11   -1    0    0    0    0  0.00000000000E+00  0.00000000000E+00  0.45593999997E+02  0.45594000000E+02  0.51100000000E-03 0.  1.
         11   -1    0    0    0    0 -0.00000000000E+00 -0.00000000000E+00 -0.45593999997E+02  0.45594000000E+02  0.51100000000E-03 0. -1.
    9900012    2    1    2    0    0 -0.19253505744E+02 -0.34049759487E+02  0.11094245839E+02  0.50528857175E+02  0.29999991869E+02 0.  0.
         12    1    1    2    0    0  0.19253505744E+02  0.34049759487E+02 -0.11094245839E+02  0.40659142825E+02  0.00000000000E+00 0. -1.
         11    1    3    3    0    0 -0.29162827685E+01  0.38732105973E+00 -0.79954412791E+00  0.30486052323E+01  0.51100000000E-03 0.  1.
        -11    1    3    3    0    0  0.60873924599E+01 -0.19307860958E+01  0.64574483149E+00  0.64188214305E+01  0.51100000000E-03 0. -1.
        -12    1    3    3    0    0 -0.22424615435E+02 -0.32506294451E+02  0.11248045135E+02  0.41061430512E+02  0.00000000000E+00 0.  1.
</event>
<event>
 7    1  0.5121289E-013  0.5052885E+02  0.7816164E-02  0.1300439E+00
        -11   -1    0    0    0    0  0.00000000000E+00  0.00000000000E+00  0.45593999997E+02  0.45594000000E+02  0.51100000000E-03 0.  1.
         11   -1    0    0    0    0 -0.00000000000E+00 -0.00000000000E+00 -0.45593999997E+02  0.45594000000E+02  0.51100000000E-03 0. -1.
    9900012    2    1    2    0    0 -0.25321612372E+02 -0.53466651170E+01  0.31359132563E+02  0.50528854951E+02  0.29999985109E+02 0.  0.
         12    1    1    2    0    0  0.25321612372E+02  0.53466651170E+01 -0.31359132563E+02  0.40659145049E+02  0.00000000000E+00 0. -1.
         11    1    3    3    0    0 -0.57604905598E+01 -0.36760354500E+01 -0.20232012896E+01  0.71266985231E+01  0.51100000000E-03 0. -1.
        -11    1    3    3    0    0 -0.10543950896E+02 -0.88327690326E+01  0.90006892099E+01  0.16437917015E+02  0.51100000000E-03 0.  1.
        -12    1    3    3    0    0 -0.90171709170E+01  0.71621393656E+01  0.24381644643E+02  0.26964239413E+02  0.00000000000E+00 0.  1.
</event>
<event>
 7    1  0.5121289E-013  0.5052887E+02  0.7816164E-02  0.1300439E+00
        -11   -1    0    0    0    0  0.00000000000E+00  0.00000000000E+00  0.45593999997E+02  0.45594000000E+02  0.51100000000E-03 0.  1.
         11   -1    0    0    0    0 -0.00000000000E+00 -0.00000000000E+00 -0.45593999997E+02  0.45594000000E+02  0.51100000000E-03 0. -1.
    9900012    2    1    2    0    0 -0.82264537690E+01 -0.18067445777E+02  0.35483208735E+02  0.50528865225E+02  0.30000016339E+02 0.  0.
         12    1    1    2    0    0  0.82264537690E+01  0.18067445777E+02 -0.35483208735E+02  0.40659134775E+02  0.00000000000E+00 0. -1.
         11    1    3    3    0    0 -0.24578752741E+01  0.50630299015E+01  0.13159427547E+02  0.14312440612E+02  0.51100000000E-03 0. -1.
        -11    1    3    3    0    0 -0.28454386681E+01 -0.10757409082E+02  0.20563993685E+02  0.23381535619E+02  0.51100000000E-03 0.  1.
         12    1    3    3    0    0 -0.29231398268E+01 -0.12373066597E+02  0.17597875031E+01  0.12834888995E+02  0.00000000000E+00 0. -1.
</event>
<event>
 7    1  0.5121289E-013  0.5052879E+02  0.7816164E-02  0.1300439E+00
        -11   -1    0    0    0    0  0.00000000000E+00  0.00000000000E+00  0.45593999997E+02  0.45594000000E+02  0.51100000000E-03 0.  1.
         11   -1    0    0    0    0 -0.00000000000E+00 -0.00000000000E+00 -0.45593999997E+02  0.45594000000E+02  0.51100000000E-03 0. -1.
    9900012    2    1    2    0    0  0.19946834569E+02  0.65460269273E+01  0.34820173310E+02  0.50528792591E+02  0.29999795558E+02 0.  0.
         12    1    1    2    0    0 -0.19946834569E+02 -0.65460269273E+01 -0.34820173310E+02  0.40659207409E+02  0.00000000000E+00 0. -1.
         11    1    3    3    0    0 -0.13612775221E+01  0.19829947267E+01  0.84921621904E+01  0.88262202277E+01  0.51100000000E-03 0. -1.
        -11    1    3    3    0    0 -0.11173483637E+01  0.91579685132E+01  0.54209209310E+01  0.10700618611E+02  0.51100000000E-03 0.  1.
        -12    1    3    3    0    0  0.22425460454E+02 -0.45949363126E+01  0.20907090188E+02  0.31001953752E+02  0.00000000000E+00 0.  1.
</event>
<event>
 7    1  0.5121289E-013  0.5052886E+02  0.7816164E-02  0.1300439E+00
        -11   -1    0    0    0    0  0.00000000000E+00  0.00000000000E+00  0.45593999997E+02  0.45594000000E+02  0.51100000000E-03 0.  1.
         11   -1    0    0    0    0 -0.00000000000E+00 -0.00000000000E+00 -0.45593999997E+02  0.45594000000E+02  0.51100000000E-03 0. -1.
    9900012    2    1    2    0    0 -0.39281989904E+02  0.65481322811E+01  0.81983488033E+01  0.50528859695E+02  0.29999999530E+02 0.  0.
         12    1    1    2    0    0  0.39281989904E+02 -0.65481322811E+01 -0.81983488033E+01  0.40659140305E+02  0.00000000000E+00 0. -1.
         11    1    3    3    0    0  0.81727973645E-01 -0.63985976288E+00 -0.90658656143E+00  0.11126542286E+01  0.51100000000E-03 0. -1.
        -11    1    3    3    0    0 -0.30034418831E+02 -0.53134349564E+01  0.13282901153E+02  0.33267617421E+02  0.51100000000E-03 0.  1.
        -12    1    3    3    0    0 -0.93292990472E+01  0.12501427000E+02 -0.41779657881E+01  0.16148588046E+02  0.00000000000E+00 0.  1.
</event>
<event>
 7    1  0.5121289E-013  0.5052886E+02  0.7816164E-02  0.1300439E+00
        -11   -1    0    0    0    0  0.00000000000E+00  0.00000000000E+00  0.45593999997E+02  0.45594000000E+02  0.51100000000E-03 0. -1.
         11   -1    0    0    0    0 -0.00000000000E+00 -0.00000000000E+00 -0.45593999997E+02  0.45594000000E+02  0.51100000000E-03 0.  1.
    9900012    2    1    2    0    0  0.40289211801E+02  0.45305704229E+01 -0.30690600236E+01  0.50528858527E+02  0.29999995979E+02 0.  0.
         12    1    1    2    0    0 -0.40289211801E+02 -0.45305704229E+01  0.30690600236E+01  0.40659141473E+02  0.00000000000E+00 0. -1.
         11    1    3    3    0    0  0.32581544168E+02  0.97647580650E+01  0.65482777352E+01  0.34637948294E+02  0.51100000000E-03 0. -1.
        -11    1    3    3    0    0  0.25936956067E+01  0.37262141434E+00  0.10303791760E+01  0.28156322782E+01  0.51100000000E-03 0.  1.
        -12    1    3    3    0    0  0.51139720262E+01 -0.56068090565E+01 -0.10647716935E+02  0.13075277955E+02  0.00000000000E+00 0.  1.
</event>
<event>
 7    1  0.5121289E-013  0.5052885E+02  0.7816164E-02  0.1300439E+00
        -11   -1    0    0    0    0  0.00000000000E+00  0.00000000000E+00  0.45593999997E+02  0.45594000000E+02  0.51100000000E-03 0. -1.
         11   -1    0    0    0    0 -0.00000000000E+00 -0.00000000000E+00 -0.45593999997E+02  0.45594000000E+02  0.51100000000E-03 0.  1.
    9900012    2    1    2    0    0 -0.11754412811E+02 -0.37893932730E+02 -0.88910330608E+01  0.50528845715E+02  0.29999957037E+02 0.  0.
         12    1    1    2    0    0  0.11754412811E+02  0.37893932730E+02  0.88910330608E+01  0.40659154285E+02  0.00000000000E+00 0. -1.
         11    1    3    3    0    0 -0.17773317114E+01 -0.20937023791E+02  0.32737150640E+01  0.21265819613E+02  0.51100000000E-03 0. -1.
        -11    1    3    3    0    0 -0.79506259933E+01 -0.13844420241E+02  0.59266930323E+00  0.15975972041E+02  0.51100000000E-03 0.  1.
        -12    1    3    3    0    0 -0.20264551060E+01 -0.31124886975E+01 -0.12757417428E+02  0.13287054061E+02  0.00000000000E+00 0.  1.
</event>
<event>
 7    1  0.5121289E-013  0.5052891E+02  0.7816164E-02  0.1300439E+00
        -11   -1    0    0    0    0  0.00000000000E+00  0.00000000000E+00  0.45593999997E+02  0.45594000000E+02  0.51100000000E-03 0. -1.
         11   -1    0    0    0    0 -0.00000000000E+00 -0.00000000000E+00 -0.45593999997E+02  0.45594000000E+02  0.51100000000E-03 0.  1.
    9900012    2    1    2    0    0  0.10372799369E+02  0.26110751476E+02 -0.29390397519E+02  0.50528907835E+02  0.30000145853E+02 0.  0.
         12    1    1    2    0    0 -0.10372799369E+02 -0.26110751476E+02  0.29390397519E+02  0.40659092165E+02  0.00000000000E+00 0. -1.
         11    1    3    3    0    0 -0.20043125878E+01 -0.22718235552E+01  0.28962234289E+01  0.41912482182E+01  0.51100000000E-03 0. -1.
        -11    1    3    3    0    0  0.16345343950E+01 -0.90984292243E+00 -0.30610997318E+01  0.35874571302E+01  0.51100000000E-03 0.  1.
        -12    1    3    3    0    0  0.10742577562E+02  0.29292417954E+02 -0.29225521216E+02  0.42750202486E+02  0.00000000000E+00 0.  1.
</event>
<event>
 7    1  0.5121289E-013  0.5052886E+02  0.7816164E-02  0.1300439E+00
        -11   -1    0    0    0    0  0.00000000000E+00  0.00000000000E+00  0.45593999997E+02  0.45594000000E+02  0.51100000000E-03 0.  1.
         11   -1    0    0    0    0 -0.00000000000E+00 -0.00000000000E+00 -0.45593999997E+02  0.45594000000E+02  0.51100000000E-03 0. -1.
    9900012    2    1    2    0    0 -0.10108172751E+02  0.33554662529E+02  0.20617358621E+02  0.50528855760E+02  0.29999987569E+02 0.  0.
         12    1    1    2    0    0  0.10108172751E+02 -0.33554662529E+02 -0.20617358621E+02  0.40659144240E+02  0.00000000000E+00 0. -1.
         11    1    3    3    0    0 -0.25959580525E+01  0.22273954395E+02  0.10133337772E+02  0.24607977919E+02  0.51100000000E-03 0. -1.
        -11    1    3    3    0    0 -0.67012243757E+01  0.15546959758E+02  0.28924647977E+01  0.17175002728E+02  0.51100000000E-03 0.  1.
         12    1    3    3    0    0 -0.81099032288E+00 -0.42662516236E+01  0.75915560514E+01  0.87458751135E+01  0.00000000000E+00 0. -1.
</event>
<event>
 7    1  0.5121289E-013  0.5052891E+02  0.7816164E-02  0.1300439E+00
        -11   -1    0    0    0    0  0.00000000000E+00  0.00000000000E+00  0.45593999997E+02  0.45594000000E+02  0.51100000000E-03 0. -1.
         11   -1    0    0    0    0 -0.00000000000E+00 -0.00000000000E+00 -0.45593999997E+02  0.45594000000E+02  0.51100000000E-03 0.  1.
    9900012    2    1    2    0    0 -0.24518278908E+02 -0.27775501035E+02  0.16749240841E+02  0.50528910892E+02  0.30000155146E+02 0.  0.
         12    1    1    2    0    0  0.24518278908E+02  0.27775501035E+02 -0.16749240841E+02  0.40659089108E+02  0.00000000000E+00 0. -1.
         11    1    3    3    0    0 -0.15148794565E+00  0.22859154880E+01  0.48448987197E+01  0.53592352142E+01  0.51100000000E-03 0. -1.
        -11    1    3    3    0    0 -0.12137565039E+02 -0.12891317390E+01  0.47545352744E+01  0.13099158433E+02  0.51100000000E-03 0.  1.
        -12    1    3    3    0    0 -0.12229225923E+02 -0.28772284784E+02  0.71498068470E+01  0.32070517245E+02  0.00000000000E+00 0.  1.
</event>
<event>
 7    1  0.5121289E-013  0.5052886E+02  0.7816164E-02  0.1300439E+00
        -11   -1    0    0    0    0  0.00000000000E+00  0.00000000000E+00  0.45593999997E+02  0.45594000000E+02  0.51100000000E-03 0.  1.
         11   -1    0    0    0    0 -0.00000000000E+00 -0.00000000000E+00 -0.45593999997E+02  0.45594000000E+02  0.51100000000E-03 0. -1.
    9900012    2    1    2    0    0  0.22078190376E+02  0.86395325785E+01  0.33031462812E+02  0.50528861433E+02  0.30000004813E+02 0.  0.
         12    1    1    2    0    0 -0.22078190376E+02 -0.86395325785E+01 -0.33031462812E+02  0.40659138567E+02  0.00000000000E+00 0. -1.
         11    1    3    3    0    0 -0.18520662823E+01  0.32471246139E+01 -0.57390842364E+00  0.37819755303E+01  0.51100000000E-03 0. -1.
        -11    1    3    3    0    0  0.34463380790E+01  0.88460071500E+00  0.22944828460E+02  0.23219063674E+02  0.51100000000E-03 0.  1.
         12    1    3    3    0    0  0.20483918579E+02  0.45078072496E+01  0.10660542776E+02  0.23527822229E+02  0.00000000000E+00 0. -1.
</event>
<event>
 7    1  0.5121289E-013  0.5052885E+02  0.7816164E-02  0.1300439E+00
        -11   -1    0    0    0    0  0.00000000000E+00  0.00000000000E+00  0.45593999997E+02  0.45594000000E+02  0.51100000000E-03 0.  1.
         11   -1    0    0    0    0 -0.00000000000E+00 -0.00000000000E+00 -0.45593999997E+02  0.45594000000E+02  0.51100000000E-03 0. -1.
    9900012    2    1    2    0    0 -0.17748250660E+02 -0.17169414012E+02  0.32301346563E+02  0.50528853812E+02  0.29999981646E+02 0.  0.
         12    1    1    2    0    0  0.17748250660E+02  0.17169414012E+02 -0.32301346563E+02  0.40659146188E+02  0.00000000000E+00 0. -1.
         11    1    3    3    0    0  0.17586050208E+01 -0.46025194280E+00  0.14892409833E+00  0.18239249212E+01  0.51100000000E-03 0. -1.
        -11    1    3    3    0    0  0.51843153060E+01 -0.95590548220E+01  0.98901442889E+01  0.14699238368E+02  0.51100000000E-03 0.  1.
        -12    1    3    3    0    0 -0.24691170987E+02 -0.71501072469E+01  0.22262278175E+02  0.34005690522E+02  0.00000000000E+00 0.  1.
</event>
<event>
 7    1  0.5121289E-013  0.5052886E+02  0.7816164E-02  0.1300439E+00
        -11   -1    0    0    0    0  0.00000000000E+00  0.00000000000E+00  0.45593999997E+02  0.45594000000E+02  0.51100000000E-03 0.  1.
         11   -1    0    0    0    0 -0.00000000000E+00 -0.00000000000E+00 -0.45593999997E+02  0.45594000000E+02  0.51100000000E-03 0. -1.
    9900012    2    1    2    0    0 -0.99691772096E+01  0.38096471692E+02 -0.10121255872E+02  0.50528862404E+02  0.30000007763E+02 0.  0.
         12    1    1    2    0    0  0.99691772096E+01 -0.38096471692E+02  0.10121255872E+02  0.40659137596E+02  0.00000000000E+00 0. -1.
         11    1    3    3    0    0  0.42882688220E+01  0.34068406092E+01 -0.77285306186E+00  0.55311042787E+01  0.51100000000E-03 0. -1.
        -11    1    3    3    0    0  0.58020347486E+01  0.59819912901E+01 -0.49713247139E+01  0.97037053073E+01  0.51100000000E-03 0.  1.
        -12    1    3    3    0    0 -0.20059480780E+02  0.28707639793E+02 -0.43770780959E+01  0.35294052818E+02  0.00000000000E+00 0.  1.
</event>
<event>
 7    1  0.5121289E-013  0.5052887E+02  0.7816164E-02  0.1300439E+00
        -11   -1    0    0    0    0  0.00000000000E+00  0.00000000000E+00  0.45593999997E+02  0.45594000000E+02  0.51100000000E-03 0.  1.
         11   -1    0    0    0    0 -0.00000000000E+00 -0.00000000000E+00 -0.45593999997E+02  0.45594000000E+02  0.51100000000E-03 0. -1.
    9900012    2    1    2    0    0  0.16419210963E+01 -0.34223056506E+02  0.21891815105E+02  0.50528867323E+02  0.30000022714E+02 0.  0.
         12    1    1    2    0    0 -0.16419210963E+01  0.34223056506E+02 -0.21891815105E+02  0.40659132677E+02  0.00000000000E+00 0. -1.
         11    1    3    3    0    0  0.82754487990E+00  0.10863340236E+01 -0.38306620814E+01  0.40668076402E+01  0.51100000000E-03 0. -1.
        -11    1    3    3    0    0 -0.44076297060E+01 -0.19665797999E+02  0.65926900317E+01  0.21204583766E+02  0.51100000000E-03 0.  1.
        -12    1    3    3    0    0  0.52220059224E+01 -0.15643592531E+02  0.19129787154E+02  0.25257475917E+02  0.00000000000E+00 0.  1.
</event>
<event>
 7    1  0.5121289E-013  0.5052887E+02  0.7816164E-02  0.1300439E+00
        -11   -1    0    0    0    0  0.00000000000E+00  0.00000000000E+00  0.45593999997E+02  0.45594000000E+02  0.51100000000E-03 0.  1.
         11   -1    0    0    0    0 -0.00000000000E+00 -0.00000000000E+00 -0.45593999997E+02  0.45594000000E+02  0.51100000000E-03 0. -1.
    9900012    2    1    2    0    0  0.23958774649E+02  0.22685116579E+02  0.23759783253E+02  0.50528871909E+02  0.30000036655E+02 0.  0.
         12    1    1    2    0    0 -0.23958774649E+02 -0.22685116579E+02 -0.23759783253E+02  0.40659128091E+02  0.00000000000E+00 0. -1.
         11    1    3    3    0    0 -0.78648698863E+00  0.81922005015E+01 -0.23954123417E+01  0.85713891166E+01  0.51100000000E-03 0. -1.
        -11    1    3    3    0    0  0.15220219422E+02  0.13988607422E+02  0.94693312819E+01  0.22737731902E+02  0.51100000000E-03 0.  1.
         12    1    3    3    0    0  0.95250422160E+01  0.50430865497E+00  0.16685864313E+02  0.19219750891E+02  0.00000000000E+00 0. -1.
</event>
<event>
 7    1  0.5121289E-013  0.5052883E+02  0.7816164E-02  0.1300439E+00
        -11   -1    0    0    0    0  0.00000000000E+00  0.00000000000E+00  0.45593999997E+02  0.45594000000E+02  0.51100000000E-03 0. -1.
         11   -1    0    0    0    0 -0.00000000000E+00 -0.00000000000E+00 -0.45593999997E+02  0.45594000000E+02  0.51100000000E-03 0.  1.
    9900012    2    1    2    0    0 -0.25567589240E+01  0.51188425807E+01 -0.40254543540E+02  0.50528833246E+02  0.29999919133E+02 0.  0.
         12    1    1    2    0    0  0.25567589240E+01 -0.51188425807E+01  0.40254543540E+02  0.40659166754E+02  0.00000000000E+00 0. -1.
         11    1    3    3    0    0 -0.36850201243E-01  0.81017390626E+01 -0.14658404170E+02  0.16748383410E+02  0.51100000000E-03 0.  1.
        -11    1    3    3    0    0 -0.60943654152E+01 -0.10309095550E+02 -0.80405398960E+01  0.14424597844E+02  0.51100000000E-03 0. -1.
         12    1    3    3    0    0  0.35744566925E+01  0.73261990683E+01 -0.17555599474E+02  0.19355851992E+02  0.00000000000E+00 0. -1.
</event>
<event>
 7    1  0.5121289E-013  0.5052887E+02  0.7816164E-02  0.1300439E+00
        -11   -1    0    0    0    0  0.00000000000E+00  0.00000000000E+00  0.45593999997E+02  0.45594000000E+02  0.51100000000E-03 0.  1.
         11   -1    0    0    0    0 -0.00000000000E+00 -0.00000000000E+00 -0.45593999997E+02  0.45594000000E+02  0.51100000000E-03 0. -1.
    9900012    2    1    2    0    0 -0.37688144350E+02  0.38749383917E+00  0.15251840153E+02  0.50528868134E+02  0.30000025182E+02 0.  0.
         12    1    1    2    0    0  0.37688144350E+02 -0.38749383917E+00 -0.15251840153E+02  0.40659131866E+02  0.00000000000E+00 0. -1.
         11    1    3    3    0    0 -0.33900655219E+01  0.46971796283E+01  0.87581869055E+00  0.58585919250E+01  0.51100000000E-03 0. -1.
        -11    1    3    3    0    0 -0.43247775296E+01  0.43004605369E+00  0.13639944937E+02  0.14315611703E+02  0.51100000000E-03 0.  1.
        -12    1    3    3    0    0 -0.29973301298E+02 -0.47397318429E+01  0.73607652579E+00  0.30354664507E+02  0.00000000000E+00 0.  1.
</event>
<event>
 7    1  0.5121289E-013  0.5052886E+02  0.7816164E-02  0.1300439E+00
        -11   -1    0    0    0    0  0.00000000000E+00  0.00000000000E+00  0.45593999997E+02  0.45594000000E+02  0.51100000000E-03 0.  1.
         11   -1    0    0    0    0 -0.00000000000E+00 -0.00000000000E+00 -0.45593999997E+02  0.45594000000E+02  0.51100000000E-03 0. -1.
    9900012    2    1    2    0    0  0.26650138622E+02 -0.22035621102E+02  0.21386149764E+02  0.50528857269E+02  0.29999992154E+02 0.  0.
         12    1    1    2    0    0 -0.26650138622E+02  0.22035621102E+02 -0.21386149764E+02  0.40659142731E+02  0.00000000000E+00 0. -1.
         11    1    3    3    0    0  0.17431927541E+02 -0.53747177970E+01 -0.69389101663E+00  0.18254894527E+02  0.51100000000E-03 0. -1.
        -11    1    3    3    0    0  0.81684258463E+01 -0.53849371272E+01  0.32658547489E+01  0.10314384915E+02  0.51100000000E-03 0.  1.
         12    1    3    3    0    0  0.10497852342E+01 -0.11275966178E+02  0.18814186031E+02  0.21959577826E+02  0.00000000000E+00 0. -1.
</event>
<event>
 7    1  0.5121289E-013  0.5052885E+02  0.7816164E-02  0.1300439E+00
        -11   -1    0    0    0    0  0.00000000000E+00  0.00000000000E+00  0.45593999997E+02  0.45594000000E+02  0.51100000000E-03 0. -1.
         11   -1    0    0    0    0 -0.00000000000E+00 -0.00000000000E+00 -0.45593999997E+02  0.45594000000E+02  0.51100000000E-03 0.  1.
    9900012    2    1    2    0    0  0.96292874885E+01  0.20126211335E+02 -0.33990859790E+02  0.50528854541E+02  0.29999983862E+02 0.  0.
         12    1    1    2    0    0 -0.96292874885E+01 -0.20126211335E+02  0.33990859790E+02  0.40659145459E+02  0.00000000000E+00 0. -1.
         11    1    3    3    0    0  0.30137677972E+00 -0.24318345073E+01  0.28467240541E+00  0.24669182544E+01  0.51100000000E-03 0. -1.
        -11    1    3    3    0    0  0.16382345599E+02  0.98895847802E+01 -0.18124206523E+02  0.26356630984E+02  0.51100000000E-03 0.  1.
         12    1    3    3    0    0 -0.70544348904E+01  0.12668461062E+02 -0.16151325672E+02  0.21705305303E+02  0.00000000000E+00 0. -1.
</event>
<event>
 7    1  0.5121289E-013  0.5052886E+02  0.7816164E-02  0.1300439E+00
        -11   -1    0    0    0    0  0.00000000000E+00  0.00000000000E+00  0.45593999997E+02  0.45594000000E+02  0.51100000000E-03 0.  1.
         11   -1    0    0    0    0 -0.00000000000E+00 -0.00000000000E+00 -0.45593999997E+02  0.45594000000E+02  0.51100000000E-03 0. -1.
    9900012    2    1    2    0    0 -0.27606992997E+02 -0.29678626474E+02 -0.31935539529E+01  0.50528859348E+02  0.29999998474E+02 0.  0.
         12    1    1    2    0    0  0.27606992997E+02  0.29678626474E+02  0.31935539529E+01  0.40659140652E+02  0.00000000000E+00 0. -1.
         11    1    3    3    0    0 -0.24709901817E+01 -0.34387042582E+01  0.97455291946E+01  0.10625714988E+02  0.51100000000E-03 0. -1.
        -11    1    3    3    0    0 -0.13532938862E+02 -0.69617718965E+01 -0.59737334561E+01  0.16349073180E+02  0.51100000000E-03 0.  1.
        -12    1    3    3    0    0 -0.11603063952E+02 -0.19278150320E+02 -0.69653496914E+01  0.23554071180E+02  0.00000000000E+00 0.  1.
</event>
<event>
 7    1  0.5121289E-013  0.5052886E+02  0.7816164E-02  0.1300439E+00
        -11   -1    0    0    0    0  0.00000000000E+00  0.00000000000E+00  0.45593999997E+02  0.45594000000E+02  0.51100000000E-03 0. -1.
         11   -1    0    0    0    0 -0.00000000000E+00 -0.00000000000E+00 -0.45593999997E+02  0.45594000000E+02  0.51100000000E-03 0.  1.
    9900012    2    1    2    0    0 -0.16286134315E+01  0.11600861655E+02 -0.38934985677E+02  0.50528862250E+02  0.30000007296E+02 0.  0.
         12    1    1    2    0    0  0.16286134315E+01 -0.11600861655E+02  0.38934985677E+02  0.40659137750E+02  0.00000000000E+00 0. -1.
         11    1    3    3    0    0 -0.48212385359E+00 -0.21991415364E+01  0.11141488970E+00  0.22541252064E+01  0.51100000000E-03 0. -1.
        -11    1    3    3    0    0  0.61844399146E+01 -0.44734202721E+01 -0.17472833693E+02  0.19067215411E+02  0.51100000000E-03 0.  1.
        -12    1    3    3    0    0 -0.73309294924E+01  0.18273423464E+02 -0.21573566874E+02  0.29207521633E+02  0.00000000000E+00 0.  1.
</event>
<event>
 7    1  0.5121289E-013  0.5052886E+02  0.7816164E-02  0.1300439E+00
        -11   -1    0    0    0    0  0.00000000000E+00  0.00000000000E+00  0.45593999997E+02  0.45594000000E+02  0.51100000000E-03 0.  1.
         11   -1    0    0    0    0 -0.00000000000E+00 -0.00000000000E+00 -0.45593999997E+02  0.45594000000E+02  0.51100000000E-03 0. -1.
    9900012    2    1    2    0    0 -0.26643071047E+02  0.30213132972E+02  0.55207670792E+01  0.50528861938E+02  0.30000006346E+02 0.  0.
         12    1    1    2    0    0  0.26643071047E+02 -0.30213132972E+02 -0.55207670792E+01  0.40659138062E+02  0.00000000000E+00 0. -1.
         11    1    3    3    0    0 -0.28312638729E+01  0.63623885818E+01 -0.15643037009E+01  0.71374428133E+01  0.51100000000E-03 0. -1.
        -11    1    3    3    0    0 -0.11025158297E+02  0.25728448122E+02  0.10707955999E+02  0.29969442440E+02  0.51100000000E-03 0.  1.
        -12    1    3    3    0    0 -0.12786648877E+02 -0.18777037314E+01 -0.36228852188E+01  0.13421976685E+02  0.00000000000E+00 0.  1.
</event>
<event>
 7    1  0.5121289E-013  0.5052886E+02  0.7816164E-02  0.1300439E+00
        -11   -1    0    0    0    0  0.00000000000E+00  0.00000000000E+00  0.45593999997E+02  0.45594000000E+02  0.51100000000E-03 0. -1.
         11   -1    0    0    0    0 -0.00000000000E+00 -0.00000000000E+00 -0.45593999997E+02  0.45594000000E+02  0.51100000000E-03 0.  1.
    9900012    2    1    2    0    0 -0.17204076576E+02  0.12821463302E+02 -0.34536865870E+02  0.50528864788E+02  0.30000015010E+02 0.  0.
         12    1    1    2    0    0  0.17204076576E+02 -0.12821463302E+02  0.34536865870E+02  0.40659135212E+02  0.00000000000E+00 0. -1.
         11    1    3    3    0    0 -0.67413046308E+01  0.27118810470E+01 -0.66106869880E+01  0.98234754365E+01  0.51100000000E-03 0. -1.
        -11    1    3    3    0    0 -0.14032324871E+02  0.14123494440E+02 -0.29049936908E+02  0.35217581846E+02  0.51100000000E-03 0.  1.
         12    1    3    3    0    0  0.35695529252E+01 -0.40139121850E+01  0.11237580261E+01  0.54878075054E+01  0.00000000000E+00 0. -1.
</event>
<event>
 7    1  0.5121289E-013  0.5052885E+02  0.7816164E-02  0.1300439E+00
        -11   -1    0    0    0    0  0.00000000000E+00  0.00000000000E+00  0.45593999997E+02  0.45594000000E+02  0.51100000000E-03 0.  1.
         11   -1    0    0    0    0 -0.00000000000E+00 -0.00000000000E+00 -0.45593999997E+02  0.45594000000E+02  0.51100000000E-03 0. -1.
    9900012    2    1    2    0    0 -0.38303434017E+02 -0.12758678297E+02 -0.48196630087E+01  0.50528854892E+02  0.29999984929E+02 0.  0.
         12    1    1    2    0    0  0.38303434017E+02  0.12758678297E+02  0.48196630087E+01  0.40659145108E+02  0.00000000000E+00 0. -1.
         11    1    3    3    0    0 -0.12520351893E+02 -0.11498151413E+02  0.95753691754E+01  0.19510366284E+02  0.51100000000E-03 0. -1.
        -11    1    3    3    0    0 -0.31212531900E+01  0.85823451218E+00  0.11728508807E+01  0.34430171948E+01  0.51100000000E-03 0.  1.
        -12    1    3    3    0    0 -0.22661828935E+02 -0.21187613958E+01 -0.15567883065E+02  0.27575471413E+02  0.00000000000E+00 0.  1.
</event>
<event>
 7    1  0.5121289E-013  0.5052886E+02  0.7816164E-02  0.1300439E+00
        -11   -1    0    0    0    0  0.00000000000E+00  0.00000000000E+00  0.45593999997E+02  0.45594000000E+02  0.51100000000E-03 0. -1.
         11   -1    0    0    0    0 -0.00000000000E+00 -0.00000000000E+00 -0.45593999997E+02  0.45594000000E+02  0.51100000000E-03 0.  1.
    9900012    2    1    2    0    0  0.13498790319E+02 -0.18567567448E+02 -0.33558810841E+02  0.50528859748E+02  0.29999999690E+02 0.  0.
         12    1    1    2    0    0 -0.13498790319E+02  0.18567567448E+02  0.33558810841E+02  0.40659140252E+02  0.00000000000E+00 0. -1.
         11    1    3    3    0    0 -0.92502833234E+00 -0.42648525131E+01 -0.10288668593E+02  0.11175927078E+02  0.51100000000E-03 0. -1.
        -11    1    3    3    0    0 -0.30460316967E+01  0.36941236799E+01 -0.97436026028E+01  0.10856456641E+02  0.51100000000E-03 0.  1.
        -12    1    3    3    0    0  0.17469850348E+02 -0.17996838614E+02 -0.13526539645E+02  0.28496476029E+02  0.00000000000E+00 0.  1.
</event>
<event>
 7    1  0.5121289E-013  0.5052888E+02  0.7816164E-02  0.1300439E+00
        -11   -1    0    0    0    0  0.00000000000E+00  0.00000000000E+00  0.45593999997E+02  0.45594000000E+02  0.51100000000E-03 0.  1.
         11   -1    0    0    0    0 -0.00000000000E+00 -0.00000000000E+00 -0.45593999997E+02  0.45594000000E+02  0.51100000000E-03 0. -1.
    9900012    2    1    2    0    0 -0.41680742805E+00  0.39204807680E+02  0.10769085796E+02  0.50528881926E+02  0.30000067103E+02 0.  0.
         12    1    1    2    0    0  0.41680742805E+00 -0.39204807680E+02 -0.10769085796E+02  0.40659118074E+02  0.00000000000E+00 0. -1.
         11    1    3    3    0    0 -0.45904998602E+01  0.80144237168E+00 -0.13948555552E+01  0.48642184493E+01  0.51100000000E-03 0. -1.
        -11    1    3    3    0    0  0.60865512571E+01  0.12196164256E+02 -0.47272590809E+01  0.14427040842E+02  0.51100000000E-03 0.  1.
        -12    1    3    3    0    0 -0.19128588250E+01  0.26207201052E+02  0.16891200433E+02  0.31237622636E+02  0.00000000000E+00 0.  1.
</event>
<event>
 7    1  0.5121289E-013  0.5052886E+02  0.7816164E-02  0.1300439E+00
        -11   -1    0    0    0    0  0.00000000000E+00  0.00000000000E+00  0.45593999997E+02  0.45594000000E+02  0.51100000000E-03 0.  1.
         11   -1    0    0    0    0 -0.00000000000E+00 -0.00000000000E+00 -0.45593999997E+02  0.45594000000E+02  0.51100000000E-03 0. -1.
    9900012    2    1    2    0    0 -0.10339138119E+02  0.82534857341E+01  0.38446692364E+02  0.50528856409E+02  0.29999989540E+02 0.  0.
         12    1    1    2    0    0  0.10339138119E+02 -0.82534857341E+01 -0.38446692364E+02  0.40659143591E+02  0.00000000000E+00 0. -1.
         11    1    3    3    0    0 -0.12014668637E+02  0.37900908452E+01  0.11729531306E+02  0.17213336573E+02  0.51100000000E-03 0. -1.
        -11    1    3    3    0    0 -0.81326528442E+01 -0.11826338512E+00  0.66155507941E+01  0.10484252052E+02  0.51100000000E-03 0.  1.
        -12    1    3    3    0    0  0.98081833619E+01  0.45816582740E+01  0.20101610265E+02  0.22831267784E+02  0.00000000000E+00 0.  1.
</event>
<event>
 7    1  0.5121289E-013  0.5052883E+02  0.7816164E-02  0.1300439E+00
        -11   -1    0    0    0    0  0.00000000000E+00  0.00000000000E+00  0.45593999997E+02  0.45594000000E+02  0.51100000000E-03 0.  1.
         11   -1    0    0    0    0 -0.00000000000E+00 -0.00000000000E+00 -0.45593999997E+02  0.45594000000E+02  0.51100000000E-03 0. -1.
    9900012    2    1    2    0    0  0.13784870449E+02  0.26495085315E+02  0.27589060384E+02  0.50528825734E+02  0.29999896300E+02 0.  0.
         12    1    1    2    0    0 -0.13784870449E+02 -0.26495085315E+02 -0.27589060384E+02  0.40659174266E+02  0.00000000000E+00 0. -1.
         11    1    3    3    0    0 -0.40770444423E+01  0.28111727714E+01  0.86734753448E+01  0.99877003636E+01  0.51100000000E-03 0. -1.
        -11    1    3    3    0    0 -0.13362085874E+01 -0.23767639476E+01 -0.53416418820E+00  0.27784513479E+01  0.51100000000E-03 0.  1.
        -12    1    3    3    0    0  0.19198123479E+02  0.26060676491E+02  0.19449749228E+02  0.37762674022E+02  0.00000000000E+00 0.  1.
</event>
<event>
 7    1  0.5121289E-013  0.5052886E+02  0.7816164E-02  0.1300439E+00
        -11   -1    0    0    0    0  0.00000000000E+00  0.00000000000E+00  0.45593999997E+02  0.45594000000E+02  0.51100000000E-03 0.  1.
         11   -1    0    0    0    0 -0.00000000000E+00 -0.00000000000E+00 -0.45593999997E+02  0.45594000000E+02  0.51100000000E-03 0. -1.
    9900012    2    1    2    0    0 -0.28447302457E+02  0.11719754325E+02  0.26581272861E+02  0.50528859263E+02  0.29999998217E+02 0.  0.
         12    1    1    2    0    0  0.28447302457E+02 -0.11719754325E+02 -0.26581272861E+02  0.40659140737E+02  0.00000000000E+00 0. -1.
         11    1    3    3    0    0  0.35242763113E+01  0.15832766297E+01  0.30173187668E+01  0.49021935097E+01  0.51100000000E-03 0. -1.
        -11    1    3    3    0    0  0.69531973372E+00  0.22365661092E+01  0.84635040128E+01  0.87816056578E+01  0.51100000000E-03 0.  1.
        -12    1    3    3    0    0 -0.32666898502E+02  0.78999115856E+01  0.15100450081E+02  0.36845060096E+02  0.00000000000E+00 0.  1.
</event>
<event>
 7    1  0.5121289E-013  0.5052886E+02  0.7816164E-02  0.1300439E+00
        -11   -1    0    0    0    0  0.00000000000E+00  0.00000000000E+00  0.45593999997E+02  0.45594000000E+02  0.51100000000E-03 0. -1.
         11   -1    0    0    0    0 -0.00000000000E+00 -0.00000000000E+00 -0.45593999997E+02  0.45594000000E+02  0.51100000000E-03 0.  1.
    9900012    2    1    2    0    0 -0.30971753013E+02  0.24898677901E+02 -0.86006824513E+01  0.50528863455E+02  0.30000010959E+02 0.  0.
         12    1    1    2    0    0  0.30971753013E+02 -0.24898677901E+02  0.86006824513E+01  0.40659136545E+02  0.00000000000E+00 0. -1.
         11    1    3    3    0    0 -0.16907121729E+02  0.90669436367E+01  0.47331402018E+01  0.19760132806E+02  0.51100000000E-03 0.  1.
        -11    1    3    3    0    0  0.84679466492E+00 -0.28217147817E+01  0.75540159258E+00  0.30413430160E+01  0.51100000000E-03 0. -1.
        -12    1    3    3    0    0 -0.14911425949E+02  0.18653449046E+02 -0.14089224246E+02  0.27727387633E+02  0.00000000000E+00 0.  1.
</event>
<event>
 7    1  0.5121289E-013  0.5052885E+02  0.7816164E-02  0.1300439E+00
        -11   -1    0    0    0    0  0.00000000000E+00  0.00000000000E+00  0.45593999997E+02  0.45594000000E+02  0.51100000000E-03 0.  1.
         11   -1    0    0    0    0 -0.00000000000E+00 -0.00000000000E+00 -0.45593999997E+02  0.45594000000E+02  0.51100000000E-03 0. -1.
    9900012    2    1    2    0    0 -0.38592258637E+02  0.35804613357E+01  0.12287574948E+02  0.50528848162E+02  0.29999964474E+02 0.  0.
         12    1    1    2    0    0  0.38592258637E+02 -0.35804613357E+01 -0.12287574948E+02  0.40659151838E+02  0.00000000000E+00 0. -1.
         11    1    3    3    0    0 -0.18727369035E+02  0.70376468746E+01 -0.27461782453E+01  0.20193670289E+02  0.51100000000E-03 0. -1.
        -11    1    3    3    0    0 -0.51194511583E+01  0.58865616116E+01  0.85919441682E+00  0.78484777554E+01  0.51100000000E-03 0.  1.
        -12    1    3    3    0    0 -0.14745438443E+02 -0.93437471506E+01  0.14174558777E+02  0.22486700118E+02  0.00000000000E+00 0.  1.
</event>
<event>
 7    1  0.5121289E-013  0.5052876E+02  0.7816164E-02  0.1300439E+00
        -11   -1    0    0    0    0  0.00000000000E+00  0.00000000000E+00  0.45593999997E+02  0.45594000000E+02  0.51100000000E-03 0.  1.
         11   -1    0    0    0    0 -0.00000000000E+00 -0.00000000000E+00 -0.45593999997E+02  0.45594000000E+02  0.51100000000E-03 0. -1.
    9900012    2    1    2    0    0  0.56942928220E+01 -0.38975567453E+02  0.10082367221E+02  0.50528758027E+02  0.29999690497E+02 0.  0.
         12    1    1    2    0    0 -0.56942928220E+01  0.38975567453E+02 -0.10082367221E+02  0.40659241973E+02  0.00000000000E+00 0. -1.
         11    1    3    3    0    0 -0.11536576393E+01  0.38901721322E+00 -0.15503771335E+01  0.19712762003E+01  0.51100000000E-03 0. -1.
        -11    1    3    3    0    0 -0.38612455804E+01  0.16976915590E+00  0.61070037969E+01  0.72272771245E+01  0.51100000000E-03 0.  1.
        -12    1    3    3    0    0  0.10709196042E+02 -0.39534353822E+02  0.55257405572E+01  0.41330204702E+02  0.00000000000E+00 0.  1.
</event>
<event>
 7    1  0.5121289E-013  0.5052889E+02  0.7816164E-02  0.1300439E+00
        -11   -1    0    0    0    0  0.00000000000E+00  0.00000000000E+00  0.45593999997E+02  0.45594000000E+02  0.51100000000E-03 0.  1.
         11   -1    0    0    0    0 -0.00000000000E+00 -0.00000000000E+00 -0.45593999997E+02  0.45594000000E+02  0.51100000000E-03 0. -1.
    9900012    2    1    2    0    0 -0.27778777152E+02  0.27845930220E+02  0.10300831915E+02  0.50528887515E+02  0.30000084091E+02 0.  0.
         12    1    1    2    0    0  0.27778777152E+02 -0.27845930220E+02 -0.10300831915E+02  0.40659112485E+02  0.00000000000E+00 0. -1.
         11    1    3    3    0    0 -0.29165188805E+02  0.19393544622E+02  0.45947902603E+01  0.35324636004E+02  0.51100000000E-03 0. -1.
        -11    1    3    3    0    0 -0.17242097057E+01  0.84304306701E+01  0.76686267186E+01  0.11526183080E+02  0.51100000000E-03 0.  1.
        -12    1    3    3    0    0  0.31106213578E+01  0.21954927993E-01 -0.19625850638E+01  0.36780684310E+01  0.00000000000E+00 0.  1.
</event>
<event>
 7    1  0.5121289E-013  0.5052884E+02  0.7816164E-02  0.1300439E+00
        -11   -1    0    0    0    0  0.00000000000E+00  0.00000000000E+00  0.45593999997E+02  0.45594000000E+02  0.51100000000E-03 0. -1.
         11   -1    0    0    0    0 -0.00000000000E+00 -0.00000000000E+00 -0.45593999997E+02  0.45594000000E+02  0.51100000000E-03 0.  1.
    9900012    2    1    2    0    0  0.20388967871E+02 -0.28487657835E+02  0.20637592891E+02  0.50528844818E+02  0.29999954310E+02 0.  0.
         12    1    1    2    0    0 -0.20388967871E+02  0.28487657835E+02 -0.20637592891E+02  0.40659155182E+02  0.00000000000E+00 0. -1.
         11    1    3    3    0    0  0.34558074392E+01 -0.88952702284E+01  0.94986577667E+01  0.13464506568E+02  0.51100000000E-03 0. -1.
        -11    1    3    3    0    0  0.66107904229E+01 -0.23362673999E+02  0.88246328515E+01  0.25833916304E+02  0.51100000000E-03 0.  1.
         12    1    3    3    0    0  0.10322370009E+02  0.37702863923E+01  0.23143022732E+01  0.11230421946E+02  0.00000000000E+00 0. -1.
</event>
<event>
 7    1  0.5121289E-013  0.5052886E+02  0.7816164E-02  0.1300439E+00
        -11   -1    0    0    0    0  0.00000000000E+00  0.00000000000E+00  0.45593999997E+02  0.45594000000E+02  0.51100000000E-03 0. -1.
         11   -1    0    0    0    0 -0.00000000000E+00 -0.00000000000E+00 -0.45593999997E+02  0.45594000000E+02  0.51100000000E-03 0.  1.
    9900012    2    1    2    0    0  0.28710870581E+02 -0.14921621329E+02 -0.24621057886E+02  0.50528863708E+02  0.30000011728E+02 0.  0.
         12    1    1    2    0    0 -0.28710870581E+02  0.14921621329E+02  0.24621057886E+02  0.40659136292E+02  0.00000000000E+00 0. -1.
         11    1    3    3    0    0  0.18010956117E+02  0.30996405299E+01 -0.18536821388E+01  0.18369497799E+02  0.51100000000E-03 0. -1.
        -11    1    3    3    0    0  0.26124460003E+01 -0.27894742734E+01 -0.29617964156E+00  0.38332445092E+01  0.51100000000E-03 0.  1.
        -12    1    3    3    0    0  0.80874684638E+01 -0.15231787585E+02 -0.22471196105E+02  0.28326121400E+02  0.00000000000E+00 0.  1.
</event>
<event>
 7    1  0.5121289E-013  0.5052886E+02  0.7816164E-02  0.1300439E+00
        -11   -1    0    0    0    0  0.00000000000E+00  0.00000000000E+00  0.45593999997E+02  0.45594000000E+02  0.51100000000E-03 0. -1.
         11   -1    0    0    0    0 -0.00000000000E+00 -0.00000000000E+00 -0.45593999997E+02  0.45594000000E+02  0.51100000000E-03 0.  1.
    9900012    2    1    2    0    0  0.19514862129E+02 -0.39920364984E+01 -0.35445720399E+02  0.50528864570E+02  0.30000014347E+02 0.  0.
         12    1    1    2    0    0 -0.19514862129E+02  0.39920364984E+01  0.35445720399E+02  0.40659135430E+02  0.00000000000E+00 0. -1.
         11    1    3    3    0    0  0.11177792612E+02 -0.21437216449E+01  0.11058298723E+00  0.11382039318E+02  0.51100000000E-03 0. -1.
        -11    1    3    3    0    0  0.37066203551E+01  0.43074186363E+01 -0.47938513097E+01  0.74346419151E+01  0.51100000000E-03 0.  1.
         12    1    3    3    0    0  0.46304491615E+01 -0.61557334898E+01 -0.30762452076E+02  0.31712183337E+02  0.00000000000E+00 0. -1.
</event>
<event>
 7    1  0.5121289E-013  0.5052889E+02  0.7816164E-02  0.1300439E+00
        -11   -1    0    0    0    0  0.00000000000E+00  0.00000000000E+00  0.45593999997E+02  0.45594000000E+02  0.51100000000E-03 0.  1.
         11   -1    0    0    0    0 -0.00000000000E+00 -0.00000000000E+00 -0.45593999997E+02  0.45594000000E+02  0.51100000000E-03 0. -1.
    9900012    2    1    2    0    0  0.48497818071E-01  0.40554176347E+02  0.29188427764E+01  0.50528890143E+02  0.30000092078E+02 0.  0.
         12    1    1    2    0    0 -0.48497818071E-01 -0.40554176347E+02 -0.29188427764E+01  0.40659109857E+02  0.00000000000E+00 0. -1.
         11    1    3    3    0    0  0.70103243422E+01  0.19137113558E+02  0.21474355908E+01  0.20493541485E+02  0.51100000000E-03 0. -1.
        -11    1    3    3    0    0 -0.81708411618E+01  0.23899246367E+02 -0.29200002178E+01  0.25425637135E+02  0.51100000000E-03 0.  1.
         12    1    3    3    0    0  0.12090146377E+01 -0.24821835777E+01  0.36914074034E+01  0.46097115230E+01  0.00000000000E+00 0. -1.
</event>
<event>
 7    1  0.5121289E-013  0.5052888E+02  0.7816164E-02  0.1300439E+00
        -11   -1    0    0    0    0  0.00000000000E+00  0.00000000000E+00  0.45593999997E+02  0.45594000000E+02  0.51100000000E-03 0.  1.
         11   -1    0    0    0    0 -0.00000000000E+00 -0.00000000000E+00 -0.45593999997E+02  0.45594000000E+02  0.51100000000E-03 0. -1.
    9900012    2    1    2    0    0 -0.18927104867E+02 -0.23477751586E+02  0.27271295114E+02  0.50528884720E+02  0.30000075595E+02 0.  0.
         12    1    1    2    0    0  0.18927104867E+02  0.23477751586E+02 -0.27271295114E+02  0.40659115280E+02  0.00000000000E+00 0. -1.
         11    1    3    3    0    0 -0.44211288293E+01  0.93971756487E+00  0.46985750227E+01  0.65196669188E+01  0.51100000000E-03 0. -1.
        -11    1    3    3    0    0  0.17294281068E+01  0.10361492254E+01 -0.35522113330E+01  0.40844500742E+01  0.51100000000E-03 0.  1.
        -12    1    3    3    0    0 -0.16235404144E+02 -0.25453618376E+02  0.26124931424E+02  0.39924767727E+02  0.00000000000E+00 0.  1.
</event>
<event>
 7    1  0.5121289E-013  0.5052886E+02  0.7816164E-02  0.1300439E+00
        -11   -1    0    0    0    0  0.00000000000E+00  0.00000000000E+00  0.45593999997E+02  0.45594000000E+02  0.51100000000E-03 0.  1.
         11   -1    0    0    0    0 -0.00000000000E+00 -0.00000000000E+00 -0.45593999997E+02  0.45594000000E+02  0.51100000000E-03 0. -1.
    9900012    2    1    2    0    0  0.33859353545E+02  0.10767974337E+02  0.19767668964E+02  0.50528857976E+02  0.29999994304E+02 0.  0.
         12    1    1    2    0    0 -0.33859353545E+02 -0.10767974337E+02 -0.19767668964E+02  0.40659142024E+02  0.00000000000E+00 0. -1.
         11    1    3    3    0    0  0.30074959648E+01  0.24894934338E+00 -0.36638386944E+01  0.47466537680E+01  0.51100000000E-03 0. -1.
        -11    1    3    3    0    0 -0.19787971305E+01  0.53636343032E+01  0.13260518489E+01  0.58687839276E+01  0.51100000000E-03 0.  1.
        -12    1    3    3    0    0  0.32830654711E+02  0.51553906907E+01  0.22105455810E+02  0.39913420280E+02  0.00000000000E+00 0.  1.
</event>
<event>
 7    1  0.5121289E-013  0.5052886E+02  0.7816164E-02  0.1300439E+00
        -11   -1    0    0    0    0  0.00000000000E+00  0.00000000000E+00  0.45593999997E+02  0.45594000000E+02  0.51100000000E-03 0. -1.
         11   -1    0    0    0    0 -0.00000000000E+00 -0.00000000000E+00 -0.45593999997E+02  0.45594000000E+02  0.51100000000E-03 0.  1.
    9900012    2    1    2    0    0  0.99071909138E+01 -0.36874131149E+02  0.13975406150E+02  0.50528856417E+02  0.29999989567E+02 0.  0.
         12    1    1    2    0    0 -0.99071909138E+01  0.36874131149E+02 -0.13975406150E+02  0.40659143583E+02  0.00000000000E+00 0. -1.
         11    1    3    3    0    0  0.13123975276E+01  0.82785872254E+00 -0.35804857337E+01  0.39022577677E+01  0.51100000000E-03 0. -1.
        -11    1    3    3    0    0  0.64712099391E+01 -0.13096831653E+01  0.40799947085E+01  0.77613262496E+01  0.51100000000E-03 0.  1.
        -12    1    3    3    0    0  0.21235834471E+01 -0.36392306706E+02  0.13475897175E+02  0.38865272400E+02  0.00000000000E+00 0.  1.
</event>
<event>
 7    1  0.5121289E-013  0.5052879E+02  0.7816164E-02  0.1300439E+00
        -11   -1    0    0    0    0  0.00000000000E+00  0.00000000000E+00  0.45593999997E+02  0.45594000000E+02  0.51100000000E-03 0.  1.
         11   -1    0    0    0    0 -0.00000000000E+00 -0.00000000000E+00 -0.45593999997E+02  0.45594000000E+02  0.51100000000E-03 0. -1.
    9900012    2    1    2    0    0 -0.23549180226E+02 -0.21832592743E+02  0.24938825911E+02  0.50528793994E+02  0.29999799824E+02 0.  0.
         12    1    1    2    0    0  0.23549180226E+02  0.21832592743E+02 -0.24938825911E+02  0.40659206006E+02  0.00000000000E+00 0. -1.
         11    1    3    3    0    0 -0.99098951982E+00 -0.66057365659E+01  0.19630234661E+01  0.69621316560E+01  0.51100000000E-03 0. -1.
        -11    1    3    3    0    0 -0.17689728218E+02 -0.14801149791E+02  0.33084298631E+01  0.23301206578E+02  0.51100000000E-03 0.  1.
        -12    1    3    3    0    0 -0.48684624882E+01 -0.42570638663E+00  0.19667372581E+02  0.20265455760E+02  0.00000000000E+00 0.  1.
</event>
<event>
 7    1  0.5121289E-013  0.5052886E+02  0.7816164E-02  0.1300439E+00
        -11   -1    0    0    0    0  0.00000000000E+00  0.00000000000E+00  0.45593999997E+02  0.45594000000E+02  0.51100000000E-03 0.  1.
         11   -1    0    0    0    0 -0.00000000000E+00 -0.00000000000E+00 -0.45593999997E+02  0.45594000000E+02  0.51100000000E-03 0. -1.
    9900012    2    1    2    0    0 -0.24191261162E+02  0.18227125308E+02  0.27124165319E+02  0.50528861324E+02  0.30000004480E+02 0.  0.
         12    1    1    2    0    0  0.24191261162E+02 -0.18227125308E+02 -0.27124165319E+02  0.40659138676E+02  0.00000000000E+00 0. -1.
         11    1    3    3    0    0 -0.87997113722E+01  0.22383066833E+00  0.17354537233E+01  0.89720020223E+01  0.51100000000E-03 0. -1.
        -11    1    3    3    0    0 -0.19595665731E+02  0.73604658805E+01  0.19834585149E+02  0.28837082753E+02  0.51100000000E-03 0.  1.
        -12    1    3    3    0    0  0.42041159410E+01  0.10642828760E+02  0.55541264472E+01  0.12719776549E+02  0.00000000000E+00 0.  1.
</event>
<event>
 7    1  0.5121289E-013  0.5052886E+02  0.7816164E-02  0.1300439E+00
        -11   -1    0    0    0    0  0.00000000000E+00  0.00000000000E+00  0.45593999997E+02  0.45594000000E+02  0.51100000000E-03 0.  1.
         11   -1    0    0    0    0 -0.00000000000E+00 -0.00000000000E+00 -0.45593999997E+02  0.45594000000E+02  0.51100000000E-03 0. -1.
    9900012    2    1    2    0    0 -0.34693149304E+01 -0.13847838650E+02  0.38070555606E+02  0.50528856065E+02  0.29999988495E+02 0.  0.
         12    1    1    2    0    0  0.34693149304E+01  0.13847838650E+02 -0.38070555606E+02  0.40659143935E+02  0.00000000000E+00 0. -1.
         11    1    3    3    0    0 -0.60901116019E+01  0.20271834084E+01  0.31375317415E+01  0.71444410268E+01  0.51100000000E-03 0. -1.
        -11    1    3    3    0    0 -0.50745330046E+01 -0.13324364516E+02  0.10685953669E+02  0.17817945478E+02  0.51100000000E-03 0.  1.
         12    1    3    3    0    0  0.76953296761E+01 -0.25506575429E+01  0.24247070196E+02  0.25566469561E+02  0.00000000000E+00 0. -1.
</event>
<event>
 7    1  0.5121289E-013  0.5052885E+02  0.7816164E-02  0.1300439E+00
        -11   -1    0    0    0    0  0.00000000000E+00  0.00000000000E+00  0.45593999997E+02  0.45594000000E+02  0.51100000000E-03 0.  1.
         11   -1    0    0    0    0 -0.00000000000E+00 -0.00000000000E+00 -0.45593999997E+02  0.45594000000E+02  0.51100000000E-03 0. -1.
    9900012    2    1    2    0    0 -0.22843367576E+02 -0.37643817716E+01  0.33424184331E+02  0.50528854528E+02  0.29999983824E+02 0.  0.
         12    1    1    2    0    0  0.22843367576E+02  0.37643817716E+01 -0.33424184331E+02  0.40659145472E+02  0.00000000000E+00 0. -1.
         11    1    3    3    0    0 -0.42196687076E+01 -0.11820528913E+02  0.50090966984E+01  0.13513754392E+02  0.51100000000E-03 0. -1.
        -11    1    3    3    0    0 -0.33486324106E+01 -0.31210016430E+01  0.37063953396E+01  0.58899369225E+01  0.51100000000E-03 0.  1.
        -12    1    3    3    0    0 -0.15275066457E+02  0.11177148784E+02  0.24708692293E+02  0.31125163213E+02  0.00000000000E+00 0.  1.
</event>
<event>
 7    1  0.5121289E-013  0.5052886E+02  0.7816164E-02  0.1300439E+00
        -11   -1    0    0    0    0  0.00000000000E+00  0.00000000000E+00  0.45593999997E+02  0.45594000000E+02  0.51100000000E-03 0.  1.
         11   -1    0    0    0    0 -0.00000000000E+00 -0.00000000000E+00 -0.45593999997E+02  0.45594000000E+02  0.51100000000E-03 0. -1.
    9900012    2    1    2    0    0 -0.25642353265E+02  0.31107888635E+02  0.52852910760E+01  0.50528864272E+02  0.30000013443E+02 0.  0.
         12    1    1    2    0    0  0.25642353265E+02 -0.31107888635E+02 -0.52852910760E+01  0.40659135728E+02  0.00000000000E+00 0. -1.
         11    1    3    3    0    0 -0.96802063313E+01  0.10679280255E+02  0.74827868437E+01  0.16240243859E+02  0.51100000000E-03 0. -1.
        -11    1    3    3    0    0 -0.15443931646E+02  0.23197983140E+02  0.33474253677E+01  0.28068963346E+02  0.51100000000E-03 0.  1.
         12    1    3    3    0    0 -0.51821528862E+00 -0.27693747599E+01 -0.55449211355E+01  0.62196570681E+01  0.00000000000E+00 0. -1.
</event>
<event>
 7    1  0.5121289E-013  0.5052887E+02  0.7816164E-02  0.1300439E+00
        -11   -1    0    0    0    0  0.00000000000E+00  0.00000000000E+00  0.45593999997E+02  0.45594000000E+02  0.51100000000E-03 0.  1.
         11   -1    0    0    0    0 -0.00000000000E+00 -0.00000000000E+00 -0.45593999997E+02  0.45594000000E+02  0.51100000000E-03 0. -1.
    9900012    2    1    2    0    0 -0.16880197768E+02  0.25885229191E+02  0.26423075339E+02  0.50528867233E+02  0.30000022442E+02 0.  0.
         12    1    1    2    0    0  0.16880197768E+02 -0.25885229191E+02 -0.26423075339E+02  0.40659132767E+02  0.00000000000E+00 0. -1.
         11    1    3    3    0    0 -0.10693904166E+01  0.36285985224E+01 -0.46808423971E+00  0.38117484461E+01  0.51100000000E-03 0. -1.
        -11    1    3    3    0    0 -0.12491109127E+02  0.19827896717E+02  0.43887567183E+01  0.23841864048E+02  0.51100000000E-03 0.  1.
         12    1    3    3    0    0 -0.33196982243E+01  0.24287339517E+01  0.22502402860E+02  0.22875254739E+02  0.00000000000E+00 0. -1.
</event>
<event>
 7    1  0.5121289E-013  0.5052886E+02  0.7816164E-02  0.1300439E+00
        -11   -1    0    0    0    0  0.00000000000E+00  0.00000000000E+00  0.45593999997E+02  0.45594000000E+02  0.51100000000E-03 0.  1.
         11   -1    0    0    0    0 -0.00000000000E+00 -0.00000000000E+00 -0.45593999997E+02  0.45594000000E+02  0.51100000000E-03 0. -1.
    9900012    2    1    2    0    0 -0.21147134332E+02  0.27227133397E+02  0.21555677543E+02  0.50528864276E+02  0.30000013454E+02 0.  0.
         12    1    1    2    0    0  0.21147134332E+02 -0.27227133397E+02 -0.21555677543E+02  0.40659135724E+02  0.00000000000E+00 0. -1.
         11    1    3    3    0    0 -0.10497251431E+02  0.49538722585E+01 -0.87025052356E+00  0.11640037551E+02  0.51100000000E-03 0. -1.
        -11    1    3    3    0    0 -0.91665061750E+01 -0.67713180342E-01  0.45269207767E+01  0.10223621301E+02  0.51100000000E-03 0.  1.
         12    1    3    3    0    0 -0.14833767265E+01  0.22340974318E+02  0.17899007290E+02  0.28665205424E+02  0.00000000000E+00 0. -1.
</event>
<event>
 7    1  0.5121289E-013  0.5052886E+02  0.7816164E-02  0.1300439E+00
        -11   -1    0    0    0    0  0.00000000000E+00  0.00000000000E+00  0.45593999997E+02  0.45594000000E+02  0.51100000000E-03 0.  1.
         11   -1    0    0    0    0 -0.00000000000E+00 -0.00000000000E+00 -0.45593999997E+02  0.45594000000E+02  0.51100000000E-03 0. -1.
    9900012    2    1    2    0    0  0.28279692261E+02  0.28805251008E+02  0.48664421321E+01  0.50528859096E+02  0.29999997708E+02 0.  0.
         12    1    1    2    0    0 -0.28279692261E+02 -0.28805251008E+02 -0.48664421321E+01  0.40659140904E+02  0.00000000000E+00 0. -1.
         11    1    3    3    0    0  0.60804135541E+01  0.11406136622E+02 -0.26198051565E+01  0.13188432847E+02  0.51100000000E-03 0. -1.
        -11    1    3    3    0    0  0.18983997488E+02  0.10572503327E+02 -0.54153685116E+01  0.22394110914E+02  0.51100000000E-03 0.  1.
         12    1    3    3    0    0  0.32152812188E+01  0.68266110588E+01  0.12901615800E+02  0.14946315336E+02  0.00000000000E+00 0. -1.
</event>
<event>
 7    1  0.5121289E-013  0.5052886E+02  0.7816164E-02  0.1300439E+00
        -11   -1    0    0    0    0  0.00000000000E+00  0.00000000000E+00  0.45593999997E+02  0.45594000000E+02  0.51100000000E-03 0.  1.
         11   -1    0    0    0    0 -0.00000000000E+00 -0.00000000000E+00 -0.45593999997E+02  0.45594000000E+02  0.51100000000E-03 0. -1.
    9900012    2    1    2    0    0  0.36322571112E+02 -0.16964341493E+02  0.67858385278E+01  0.50528860081E+02  0.30000000701E+02 0.  0.
         12    1    1    2    0    0 -0.36322571112E+02  0.16964341493E+02 -0.67858385278E+01  0.40659139919E+02  0.00000000000E+00 0. -1.
         11    1    3    3    0    0  0.14554992782E+01  0.33905965362E+01 -0.12358952395E+01  0.38912800368E+01  0.51100000000E-03 0. -1.
        -11    1    3    3    0    0  0.27561149230E+02 -0.67687643610E+01 -0.16538628677E+01  0.28428302456E+02  0.51100000000E-03 0.  1.
        -12    1    3    3    0    0  0.73059226029E+01 -0.13586173669E+02  0.96755966350E+01  0.18209277588E+02  0.00000000000E+00 0.  1.
</event>
<event>
 7    1  0.5121289E-013  0.5052886E+02  0.7816164E-02  0.1300439E+00
        -11   -1    0    0    0    0  0.00000000000E+00  0.00000000000E+00  0.45593999997E+02  0.45594000000E+02  0.51100000000E-03 0. -1.
         11   -1    0    0    0    0 -0.00000000000E+00 -0.00000000000E+00 -0.45593999997E+02  0.45594000000E+02  0.51100000000E-03 0.  1.
    9900012    2    1    2    0    0 -0.27176299341E+02 -0.19718408082E+02 -0.22930302954E+02  0.50528860109E+02  0.30000000786E+02 0.  0.
         12    1    1    2    0    0  0.27176299341E+02  0.19718408082E+02  0.22930302954E+02  0.40659139891E+02  0.00000000000E+00 0. -1.
         11    1    3    3    0    0 -0.46958897928E+01 -0.24129807257E+01 -0.10050761598E+02  0.11353046547E+02  0.51100000000E-03 0. -1.
        -11    1    3    3    0    0 -0.12170624787E+02 -0.14700208091E+02 -0.18980452819E+02  0.26916125559E+02  0.51100000000E-03 0.  1.
        -12    1    3    3    0    0 -0.10309784762E+02 -0.26052192648E+01  0.61009114632E+01  0.12259688003E+02  0.00000000000E+00 0.  1.
</event>
<event>
 7    1  0.5121289E-013  0.5052878E+02  0.7816164E-02  0.1300439E+00
        -11   -1    0    0    0    0  0.00000000000E+00  0.00000000000E+00  0.45593999997E+02  0.45594000000E+02  0.51100000000E-03 0.  1.
         11   -1    0    0    0    0 -0.00000000000E+00 -0.00000000000E+00 -0.45593999997E+02  0.45594000000E+02  0.51100000000E-03 0. -1.
    9900012    2    1    2    0    0 -0.11642977873E+02  0.12832655223E+02  0.36782284952E+02  0.50528776445E+02  0.29999746480E+02 0.  0.
         12    1    1    2    0    0  0.11642977873E+02 -0.12832655223E+02 -0.36782284952E+02  0.40659223555E+02  0.00000000000E+00 0. -1.
         11    1    3    3    0    0  0.26652106129E+01  0.11145427654E+01  0.95511567197E+01  0.99784842603E+01  0.51100000000E-03 0. -1.
        -11    1    3    3    0    0 -0.24096432277E+01  0.90771351088E+01  0.26752174251E+02  0.28352770406E+02  0.51100000000E-03 0.  1.
         12    1    3    3    0    0 -0.11898545258E+02  0.26409773487E+01  0.47895398161E+00  0.12197521779E+02  0.00000000000E+00 0. -1.
</event>
<event>
 7    1  0.5121289E-013  0.5052887E+02  0.7816164E-02  0.1300439E+00
        -11   -1    0    0    0    0  0.00000000000E+00  0.00000000000E+00  0.45593999997E+02  0.45594000000E+02  0.51100000000E-03 0. -1.
         11   -1    0    0    0    0 -0.00000000000E+00 -0.00000000000E+00 -0.45593999997E+02  0.45594000000E+02  0.51100000000E-03 0.  1.
    9900012    2    1    2    0    0  0.15705547140E+02  0.37502327964E+02 -0.27605231580E+00  0.50528867957E+02  0.30000024641E+02 0.  0.
         12    1    1    2    0    0 -0.15705547140E+02 -0.37502327964E+02  0.27605231580E+00  0.40659132043E+02  0.00000000000E+00 0. -1.
         11    1    3    3    0    0  0.25893822767E+00  0.31872264169E+01  0.68494178677E+01  0.75590995910E+01  0.51100000000E-03 0. -1.
        -11    1    3    3    0    0  0.33845405635E+01  0.28364323888E+01  0.54282639331E+01  0.69976076705E+01  0.51100000000E-03 0.  1.
        -12    1    3    3    0    0  0.12062068349E+02  0.31478669158E+02 -0.12553734117E+02  0.35972160695E+02  0.00000000000E+00 0.  1.
</event>
<event>
 7    1  0.5121289E-013  0.5052885E+02  0.7816164E-02  0.1300439E+00
        -11   -1    0    0    0    0  0.00000000000E+00  0.00000000000E+00  0.45593999997E+02  0.45594000000E+02  0.51100000000E-03 0.  1.
         11   -1    0    0    0    0 -0.00000000000E+00 -0.00000000000E+00 -0.45593999997E+02  0.45594000000E+02  0.51100000000E-03 0. -1.
    9900012    2    1    2    0    0  0.10926710338E+02  0.31345452066E+02  0.23478410779E+02  0.50528854205E+02  0.29999982843E+02 0.  0.
         12    1    1    2    0    0 -0.10926710338E+02 -0.31345452066E+02 -0.23478410779E+02  0.40659145795E+02  0.00000000000E+00 0. -1.
         11    1    3    3    0    0 -0.12982970951E+01 -0.22723842287E+01  0.28792339994E+01  0.38909245835E+01  0.51100000000E-03 0. -1.
        -11    1    3    3    0    0 -0.62434102861E+00  0.19219108009E+02  0.19379947740E+02  0.27301030916E+02  0.51100000000E-03 0.  1.
        -12    1    3    3    0    0  0.12849348462E+02  0.14398728285E+02  0.12192290404E+01  0.19336898706E+02  0.00000000000E+00 0.  1.
</event>
<event>
 7    1  0.5121289E-013  0.5052884E+02  0.7816164E-02  0.1300439E+00
        -11   -1    0    0    0    0  0.00000000000E+00  0.00000000000E+00  0.45593999997E+02  0.45594000000E+02  0.51100000000E-03 0. -1.
         11   -1    0    0    0    0 -0.00000000000E+00 -0.00000000000E+00 -0.45593999997E+02  0.45594000000E+02  0.51100000000E-03 0.  1.
    9900012    2    1    2    0    0  0.20030941413E+02 -0.18509968229E+02 -0.30154763285E+02  0.50528840066E+02  0.29999939866E+02 0.  0.
         12    1    1    2    0    0 -0.20030941413E+02  0.18509968229E+02  0.30154763285E+02  0.40659159934E+02  0.00000000000E+00 0. -1.
         11    1    3    3    0    0 -0.25283731488E+01  0.32296242235E+01 -0.36510592476E+01  0.54912090923E+01  0.51100000000E-03 0. -1.
        -11    1    3    3    0    0  0.33185187094E+01 -0.90392255382E+01 -0.18095081630E+02  0.20497613134E+02  0.51100000000E-03 0.  1.
        -12    1    3    3    0    0  0.19240795852E+02 -0.12700366914E+02 -0.84086224081E+01  0.24540017840E+02  0.00000000000E+00 0.  1.
</event>
<event>
 7    1  0.5121289E-013  0.5052886E+02  0.7816164E-02  0.1300439E+00
        -11   -1    0    0    0    0  0.00000000000E+00  0.00000000000E+00  0.45593999997E+02  0.45594000000E+02  0.51100000000E-03 0.  1.
         11   -1    0    0    0    0 -0.00000000000E+00 -0.00000000000E+00 -0.45593999997E+02  0.45594000000E+02  0.51100000000E-03 0. -1.
    9900012    2    1    2    0    0  0.52548892139E+01  0.29247890304E+02  0.27750906782E+02  0.50528858653E+02  0.29999996362E+02 0.  0.
         12    1    1    2    0    0 -0.52548892139E+01 -0.29247890304E+02 -0.27750906782E+02  0.40659141347E+02  0.00000000000E+00 0. -1.
         11    1    3    3    0    0  0.73554078498E+01  0.19924217392E+02  0.14559790875E+02  0.25750028620E+02  0.51100000000E-03 0.  1.
        -11    1    3    3    0    0 -0.59599182773E+01 -0.38366601703E+01  0.30217087444E+01  0.77052781346E+01  0.51100000000E-03 0. -1.
         12    1    3    3    0    0  0.38593996414E+01  0.13160333082E+02  0.10169407162E+02  0.17073551899E+02  0.00000000000E+00 0. -1.
</event>
<event>
 7    1  0.5121289E-013  0.5052886E+02  0.7816164E-02  0.1300439E+00
        -11   -1    0    0    0    0  0.00000000000E+00  0.00000000000E+00  0.45593999997E+02  0.45594000000E+02  0.51100000000E-03 0.  1.
         11   -1    0    0    0    0 -0.00000000000E+00 -0.00000000000E+00 -0.45593999997E+02  0.45594000000E+02  0.51100000000E-03 0. -1.
    9900012    2    1    2    0    0  0.33163762369E+02  0.16583913662E+02  0.16682458659E+02  0.50528858915E+02  0.29999997159E+02 0.  0.
         12    1    1    2    0    0 -0.33163762369E+02 -0.16583913662E+02 -0.16682458659E+02  0.40659141085E+02  0.00000000000E+00 0. -1.
         11    1    3    3    0    0  0.11399997594E+01  0.22923873883E+01 -0.53989297739E+01  0.59752056328E+01  0.51100000000E-03 0. -1.
        -11    1    3    3    0    0  0.17153970931E+02  0.11859897034E+02  0.43830184118E+01  0.21310249342E+02  0.51100000000E-03 0.  1.
        -12    1    3    3    0    0  0.14869791679E+02  0.24316292394E+01  0.17698370021E+02  0.23243403940E+02  0.00000000000E+00 0.  1.
</event>
<event>
 7    1  0.5121289E-013  0.5052886E+02  0.7816164E-02  0.1300439E+00
        -11   -1    0    0    0    0  0.00000000000E+00  0.00000000000E+00  0.45593999997E+02  0.45594000000E+02  0.51100000000E-03 0.  1.
         11   -1    0    0    0    0 -0.00000000000E+00 -0.00000000000E+00 -0.45593999997E+02  0.45594000000E+02  0.51100000000E-03 0. -1.
    9900012    2    1    2    0    0 -0.69970471284E+00 -0.51215226495E+01  0.40329217974E+02  0.50528863225E+02  0.30000010257E+02 0.  0.
         12    1    1    2    0    0  0.69970471284E+00  0.51215226495E+01 -0.40329217974E+02  0.40659136775E+02  0.00000000000E+00 0. -1.
         11    1    3    3    0    0  0.63601971835E+01 -0.45227932875E+01  0.25473657227E+02  0.26642353127E+02  0.51100000000E-03 0. -1.
        -11    1    3    3    0    0 -0.85963089547E+00  0.25929578863E+01  0.16497616747E+02  0.16722253271E+02  0.51100000000E-03 0.  1.
         12    1    3    3    0    0 -0.62002710008E+01 -0.31916872483E+01 -0.16420560000E+01  0.71642568269E+01  0.00000000000E+00 0. -1.
</event>
<event>
 7    1  0.5121289E-013  0.5052886E+02  0.7816164E-02  0.1300439E+00
        -11   -1    0    0    0    0  0.00000000000E+00  0.00000000000E+00  0.45593999997E+02  0.45594000000E+02  0.51100000000E-03 0. -1.
         11   -1    0    0    0    0 -0.00000000000E+00 -0.00000000000E+00 -0.45593999997E+02  0.45594000000E+02  0.51100000000E-03 0.  1.
    9900012    2    1    2    0    0 -0.87067294092E+01 -0.16260320979E+02 -0.36234792385E+02  0.50528863825E+02  0.30000012082E+02 0.  0.
         12    1    1    2    0    0  0.87067294092E+01  0.16260320979E+02  0.36234792385E+02  0.40659136175E+02  0.00000000000E+00 0. -1.
         11    1    3    3    0    0 -0.29060952371E+01 -0.15573321292E+01  0.21746863119E+01  0.39496751391E+01  0.51100000000E-03 0. -1.
        -11    1    3    3    0    0 -0.11544647576E+02 -0.51085859190E+01 -0.10186581352E+02  0.16221682331E+02  0.51100000000E-03 0.  1.
         12    1    3    3    0    0  0.57440134038E+01 -0.95944029310E+01 -0.28222897344E+02  0.30357506355E+02  0.00000000000E+00 0. -1.
</event>
<event>
 7    1  0.5121289E-013  0.5052886E+02  0.7816164E-02  0.1300439E+00
        -11   -1    0    0    0    0  0.00000000000E+00  0.00000000000E+00  0.45593999997E+02  0.45594000000E+02  0.51100000000E-03 0. -1.
         11   -1    0    0    0    0 -0.00000000000E+00 -0.00000000000E+00 -0.45593999997E+02  0.45594000000E+02  0.51100000000E-03 0.  1.
    9900012    2    1    2    0    0  0.84410302410E+00  0.20754448312E+02 -0.34952908023E+02  0.50528863095E+02  0.30000009862E+02 0.  0.
         12    1    1    2    0    0 -0.84410302410E+00 -0.20754448312E+02  0.34952908023E+02  0.40659136905E+02  0.00000000000E+00 0. -1.
         11    1    3    3    0    0 -0.25843985469E+01  0.10740718564E+02 -0.17486410475E+02  0.20683730386E+02  0.51100000000E-03 0. -1.
        -11    1    3    3    0    0 -0.93786337969E+00  0.11769235603E+02 -0.52725092711E-01  0.11806662297E+02  0.51100000000E-03 0.  1.
         12    1    3    3    0    0  0.43663649506E+01 -0.17555058546E+01 -0.17413772455E+02  0.18038470412E+02  0.00000000000E+00 0. -1.
</event>
<event>
 7    1  0.5121289E-013  0.5052886E+02  0.7816164E-02  0.1300439E+00
        -11   -1    0    0    0    0  0.00000000000E+00  0.00000000000E+00  0.45593999997E+02  0.45594000000E+02  0.51100000000E-03 0. -1.
         11   -1    0    0    0    0 -0.00000000000E+00 -0.00000000000E+00 -0.45593999997E+02  0.45594000000E+02  0.51100000000E-03 0.  1.
    9900012    2    1    2    0    0  0.39652576202E+02  0.88227928001E+01 -0.17313566229E+01  0.50528855051E+02  0.29999985412E+02 0.  0.
         12    1    1    2    0    0 -0.39652576202E+02 -0.88227928001E+01  0.17313566229E+01  0.40659144949E+02  0.00000000000E+00 0. -1.
         11    1    3    3    0    0  0.27324275700E+02 -0.50845313708E+01 -0.62597109131E+00  0.27800365858E+02  0.51100000000E-03 0. -1.
        -11    1    3    3    0    0  0.90445931801E+01  0.13072466950E+01 -0.28926758413E+01  0.95854646992E+01  0.51100000000E-03 0.  1.
         12    1    3    3    0    0  0.32837073219E+01  0.12600077476E+02  0.17872903097E+01  0.13143024493E+02  0.00000000000E+00 0. -1.
</event>
<event>
 7    1  0.5121289E-013  0.5052882E+02  0.7816164E-02  0.1300439E+00
        -11   -1    0    0    0    0  0.00000000000E+00  0.00000000000E+00  0.45593999997E+02  0.45594000000E+02  0.51100000000E-03 0.  1.
         11   -1    0    0    0    0 -0.00000000000E+00 -0.00000000000E+00 -0.45593999997E+02  0.45594000000E+02  0.51100000000E-03 0. -1.
    9900012    2    1    2    0    0  0.34583612971E+00 -0.14879884045E+02  0.37836999894E+02  0.50528817607E+02  0.29999871599E+02 0.  0.
         12    1    1    2    0    0 -0.34583612971E+00  0.14879884045E+02 -0.37836999894E+02  0.40659182393E+02  0.00000000000E+00 0. -1.
         11    1    3    3    0    0  0.17398909648E+01  0.88355694031E+00 -0.41370184247E+01  0.45741463841E+01  0.51100000000E-03 0. -1.
        -11    1    3    3    0    0 -0.22026591714E+01  0.29628878931E+00  0.89780763028E+01  0.92490728634E+01  0.51100000000E-03 0.  1.
        -12    1    3    3    0    0  0.80860433633E+00 -0.16059729775E+02  0.32995942016E+02  0.36705598360E+02  0.00000000000E+00 0.  1.
</event>
<event>
 7    1  0.5121289E-013  0.5052886E+02  0.7816164E-02  0.1300439E+00
        -11   -1    0    0    0    0  0.00000000000E+00  0.00000000000E+00  0.45593999997E+02  0.45594000000E+02  0.51100000000E-03 0.  1.
         11   -1    0    0    0    0 -0.00000000000E+00 -0.00000000000E+00 -0.45593999997E+02  0.45594000000E+02  0.51100000000E-03 0. -1.
    9900012    2    1    2    0    0 -0.53957597653E+01 -0.22549730937E+01  0.40236384744E+02  0.50528858539E+02  0.29999996016E+02 0.  0.
         12    1    1    2    0    0  0.53957597653E+01  0.22549730937E+01 -0.40236384744E+02  0.40659141461E+02  0.00000000000E+00 0. -1.
         11    1    3    3    0    0  0.13974393290E+01 -0.54489601023E+01 -0.16811127875E+01  0.58711279444E+01  0.51100000000E-03 0. -1.
        -11    1    3    3    0    0  0.36082684537E+01 -0.14186462486E+01  0.81611133871E+01  0.90352603942E+01  0.51100000000E-03 0.  1.
         12    1    3    3    0    0 -0.10401467548E+02  0.46126332572E+01  0.33756384144E+02  0.35622470201E+02  0.00000000000E+00 0. -1.
</event>
<event>
 7    1  0.5121289E-013  0.5052885E+02  0.7816164E-02  0.1300439E+00
        -11   -1    0    0    0    0  0.00000000000E+00  0.00000000000E+00  0.45593999997E+02  0.45594000000E+02  0.51100000000E-03 0. -1.
         11   -1    0    0    0    0 -0.00000000000E+00 -0.00000000000E+00 -0.45593999997E+02  0.45594000000E+02  0.51100000000E-03 0.  1.
    9900012    2    1    2    0    0 -0.30438903955E+02  0.12074173738E+02 -0.24100917151E+02  0.50528846627E+02  0.29999959808E+02 0.  0.
         12    1    1    2    0    0  0.30438903955E+02 -0.12074173738E+02  0.24100917151E+02  0.40659153373E+02  0.00000000000E+00 0. -1.
         11    1    3    3    0    0  0.16234332175E+01  0.66401447647E+01 -0.13004594947E+01  0.69583225756E+01  0.51100000000E-03 0. -1.
        -11    1    3    3    0    0 -0.35083841245E+01  0.77209263842E+01 -0.54221581320E+01  0.10065846336E+02  0.51100000000E-03 0.  1.
         12    1    3    3    0    0 -0.28553953048E+02 -0.22868974113E+01 -0.17378299525E+02  0.33504677716E+02  0.00000000000E+00 0. -1.
</event>
<event>
 7    1  0.5121289E-013  0.5052887E+02  0.7816164E-02  0.1300439E+00
        -11   -1    0    0    0    0  0.00000000000E+00  0.00000000000E+00  0.45593999997E+02  0.45594000000E+02  0.51100000000E-03 0.  1.
         11   -1    0    0    0    0 -0.00000000000E+00 -0.00000000000E+00 -0.45593999997E+02  0.45594000000E+02  0.51100000000E-03 0. -1.
    9900012    2    1    2    0    0 -0.24477829484E+02 -0.27423335112E+02  0.17377029961E+02  0.50528872917E+02  0.30000039718E+02 0.  0.
         12    1    1    2    0    0  0.24477829484E+02  0.27423335112E+02 -0.17377029961E+02  0.40659127083E+02  0.00000000000E+00 0. -1.
         11    1    3    3    0    0 -0.21192367204E+01 -0.35661679175E+01 -0.16721867161E+01  0.44726867280E+01  0.51100000000E-03 0. -1.
        -11    1    3    3    0    0 -0.14440912446E+02 -0.24011464816E+01 -0.22413536505E+01  0.14809764452E+02  0.51100000000E-03 0.  1.
        -12    1    3    3    0    0 -0.79176803179E+01 -0.21456020713E+02  0.21290570328E+02  0.31246421736E+02  0.00000000000E+00 0.  1.
</event>
<event>
 7    1  0.5121289E-013  0.5052887E+02  0.7816164E-02  0.1300439E+00
        -11   -1    0    0    0    0  0.00000000000E+00  0.00000000000E+00  0.45593999997E+02  0.45594000000E+02  0.51100000000E-03 0.  1.
         11   -1    0    0    0    0 -0.00000000000E+00 -0.00000000000E+00 -0.45593999997E+02  0.45594000000E+02  0.51100000000E-03 0. -1.
    9900012    2    1    2    0    0 -0.21969166140E+02 -0.34200924783E+02  0.90384513377E+00  0.50528874912E+02  0.30000045783E+02 0.  0.
         12    1    1    2    0    0  0.21969166140E+02  0.34200924783E+02 -0.90384513377E+00  0.40659125088E+02  0.00000000000E+00 0. -1.
         11    1    3    3    0    0 -0.70338968356E+00 -0.96094602799E+01  0.69857489616E+01  0.11901141657E+02  0.51100000000E-03 0.  1.
        -11    1    3    3    0    0 -0.12836369873E+02 -0.24832472051E+02  0.45546527688E+00  0.27957673518E+02  0.51100000000E-03 0. -1.
         12    1    3    3    0    0 -0.84294065832E+01  0.24100754807E+00 -0.65373691047E+01  0.10670059737E+02  0.00000000000E+00 0. -1.
</event>
<event>
 7    1  0.5121289E-013  0.5052887E+02  0.7816164E-02  0.1300439E+00
        -11   -1    0    0    0    0  0.00000000000E+00  0.00000000000E+00  0.45593999997E+02  0.45594000000E+02  0.51100000000E-03 0.  1.
         11   -1    0    0    0    0 -0.00000000000E+00 -0.00000000000E+00 -0.45593999997E+02  0.45594000000E+02  0.51100000000E-03 0. -1.
    9900012    2    1    2    0    0 -0.25040485304E+02 -0.18136651426E+02  0.26404567130E+02  0.50528865792E+02  0.30000018062E+02 0.  0.
         12    1    1    2    0    0  0.25040485304E+02  0.18136651426E+02 -0.26404567130E+02  0.40659134208E+02  0.00000000000E+00 0. -1.
         11    1    3    3    0    0  0.49017418107E+00 -0.12361419924E+02  0.55173410659E+01  0.13545701383E+02  0.51100000000E-03 0. -1.
        -11    1    3    3    0    0 -0.40086961920E+01  0.43629427996E+01  0.79120013206E+01  0.98845677796E+01  0.51100000000E-03 0.  1.
        -12    1    3    3    0    0 -0.21521963293E+02 -0.10138174302E+02  0.12975224744E+02  0.27098596630E+02  0.00000000000E+00 0.  1.
</event>
<event>
 7    1  0.5121289E-013  0.5052889E+02  0.7816164E-02  0.1300439E+00
        -11   -1    0    0    0    0  0.00000000000E+00  0.00000000000E+00  0.45593999997E+02  0.45594000000E+02  0.51100000000E-03 0.  1.
         11   -1    0    0    0    0 -0.00000000000E+00 -0.00000000000E+00 -0.45593999997E+02  0.45594000000E+02  0.51100000000E-03 0. -1.
    9900012    2    1    2    0    0  0.52525507073E+01 -0.52243817973E+01  0.39978491081E+02  0.50528890280E+02  0.30000092495E+02 0.  0.
         12    1    1    2    0    0 -0.52525507073E+01  0.52243817973E+01 -0.39978491081E+02  0.40659109720E+02  0.00000000000E+00 0. -1.
         11    1    3    3    0    0  0.95658639318E+00  0.19634769504E+01  0.15459363139E+02  0.15612885966E+02  0.51100000000E-03 0. -1.
        -11    1    3    3    0    0 -0.63510889559E+00 -0.12792421850E+02  0.24275258551E+02  0.27446996157E+02  0.51100000000E-03 0.  1.
        -12    1    3    3    0    0  0.49310732097E+01  0.56045631022E+01  0.24386939173E+00  0.74690081568E+01  0.00000000000E+00 0.  1.
</event>
<event>
 7    1  0.5121289E-013  0.5052885E+02  0.7816164E-02  0.1300439E+00
        -11   -1    0    0    0    0  0.00000000000E+00  0.00000000000E+00  0.45593999997E+02  0.45594000000E+02  0.51100000000E-03 0.  1.
         11   -1    0    0    0    0 -0.00000000000E+00 -0.00000000000E+00 -0.45593999997E+02  0.45594000000E+02  0.51100000000E-03 0. -1.
    9900012    2    1    2    0    0 -0.25363660149E+02 -0.28080444507E+02  0.14877497203E+02  0.50528849211E+02  0.29999967661E+02 0.  0.
         12    1    1    2    0    0  0.25363660149E+02  0.28080444507E+02 -0.14877497203E+02  0.40659150789E+02  0.00000000000E+00 0. -1.
         11    1    3    3    0    0 -0.10127783628E+02 -0.80354751394E+01  0.13218829139E+02  0.18489951487E+02  0.51100000000E-03 0. -1.
        -11    1    3    3    0    0 -0.10391291922E+01 -0.82751011609E+00  0.73571412245E+01  0.74761012385E+01  0.51100000000E-03 0.  1.
         12    1    3    3    0    0 -0.14196747329E+02 -0.19217459251E+02 -0.56984731603E+01  0.24562796485E+02  0.00000000000E+00 0. -1.
</event>
<event>
 7    1  0.5121289E-013  0.5052886E+02  0.7816164E-02  0.1300439E+00
        -11   -1    0    0    0    0  0.00000000000E+00  0.00000000000E+00  0.45593999997E+02  0.45594000000E+02  0.51100000000E-03 0.  1.
         11   -1    0    0    0    0 -0.00000000000E+00 -0.00000000000E+00 -0.45593999997E+02  0.45594000000E+02  0.51100000000E-03 0. -1.
    9900012    2    1    2    0    0  0.27685407305E+02  0.22619965481E+02  0.19365458424E+02  0.50528860855E+02  0.30000003055E+02 0.  0.
         12    1    1    2    0    0 -0.27685407305E+02 -0.22619965481E+02 -0.19365458424E+02  0.40659139145E+02  0.00000000000E+00 0. -1.
         11    1    3    3    0    0  0.40643388595E+01 -0.18439651549E+01  0.10918798544E+01  0.45946990908E+01  0.51100000000E-03 0. -1.
        -11    1    3    3    0    0 -0.25704994477E+01 -0.15854665271E+01  0.64931090311E+01  0.71611197916E+01  0.51100000000E-03 0.  1.
        -12    1    3    3    0    0  0.26191567893E+02  0.26049397163E+02  0.11780469539E+02  0.38773041973E+02  0.00000000000E+00 0.  1.
</event>
<event>
 7    1  0.5121289E-013  0.5052887E+02  0.7816164E-02  0.1300439E+00
        -11   -1    0    0    0    0  0.00000000000E+00  0.00000000000E+00  0.45593999997E+02  0.45594000000E+02  0.51100000000E-03 0. -1.
         11   -1    0    0    0    0 -0.00000000000E+00 -0.00000000000E+00 -0.45593999997E+02  0.45594000000E+02  0.51100000000E-03 0.  1.
    9900012    2    1    2    0    0  0.55884581590E+00 -0.11435263970E+02 -0.39013934598E+02  0.50528872322E+02  0.30000037910E+02 0.  0.
         12    1    1    2    0    0 -0.55884581590E+00  0.11435263970E+02  0.39013934598E+02  0.40659127678E+02  0.00000000000E+00 0. -1.
         11    1    3    3    0    0 -0.41632226087E+01 -0.10681232530E+01 -0.59064157832E+01  0.73047284302E+01  0.51100000000E-03 0. -1.
        -11    1    3    3    0    0 -0.52383653740E+01 -0.10123357763E+02 -0.31015221809E+02  0.33043408243E+02  0.51100000000E-03 0.  1.
        -12    1    3    3    0    0  0.99604337986E+01 -0.24378295338E+00 -0.20922970056E+01  0.10180735648E+02  0.00000000000E+00 0.  1.
</event>
<event>
 7    1  0.5121289E-013  0.5052886E+02  0.7816164E-02  0.1300439E+00
        -11   -1    0    0    0    0  0.00000000000E+00  0.00000000000E+00  0.45593999997E+02  0.45594000000E+02  0.51100000000E-03 0.  1.
         11   -1    0    0    0    0 -0.00000000000E+00 -0.00000000000E+00 -0.45593999997E+02  0.45594000000E+02  0.51100000000E-03 0. -1.
    9900012    2    1    2    0    0 -0.35849514525E+01  0.27089009316E+02  0.30108129809E+02  0.50528858553E+02  0.29999996057E+02 0.  0.
         12    1    1    2    0    0  0.35849514525E+01 -0.27089009316E+02 -0.30108129809E+02  0.40659141447E+02  0.00000000000E+00 0. -1.
         11    1    3    3    0    0  0.45508834526E+01  0.33512316959E+00  0.33542788279E+01  0.56633942521E+01  0.51100000000E-03 0. -1.
        -11    1    3    3    0    0 -0.12990920578E+00  0.15417165217E+01  0.16377439092E+02  0.16450357981E+02  0.51100000000E-03 0.  1.
        -12    1    3    3    0    0 -0.80059256993E+01  0.25212169625E+02  0.10376411889E+02  0.28415106320E+02  0.00000000000E+00 0.  1.
</event>
<event>
 7    1  0.5121289E-013  0.5052886E+02  0.7816164E-02  0.1300439E+00
        -11   -1    0    0    0    0  0.00000000000E+00  0.00000000000E+00  0.45593999997E+02  0.45594000000E+02  0.51100000000E-03 0. -1.
         11   -1    0    0    0    0 -0.00000000000E+00 -0.00000000000E+00 -0.45593999997E+02  0.45594000000E+02  0.51100000000E-03 0.  1.
    9900012    2    1    2    0    0 -0.35305181572E+02 -0.72934353214E+01  0.18802021386E+02  0.50528855237E+02  0.29999985980E+02 0.  0.
         12    1    1    2    0    0  0.35305181572E+02  0.72934353214E+01 -0.18802021386E+02  0.40659144763E+02  0.00000000000E+00 0. -1.
         11    1    3    3    0    0 -0.40545673774E+01  0.33364683812E+01 -0.28989184652E-01  0.52509407262E+01  0.51100000000E-03 0. -1.
        -11    1    3    3    0    0 -0.29180353314E+02 -0.82722599156E+00  0.74747883296E+01  0.30133864392E+02  0.51100000000E-03 0.  1.
         12    1    3    3    0    0 -0.20702608808E+01 -0.98026777110E+01  0.11356222241E+02  0.15144050119E+02  0.00000000000E+00 0. -1.
</event>
<event>
 7    1  0.5121289E-013  0.5052895E+02  0.7816164E-02  0.1300438E+00
        -11   -1    0    0    0    0  0.00000000000E+00  0.00000000000E+00  0.45593999997E+02  0.45594000000E+02  0.51100000000E-03 0. -1.
         11   -1    0    0    0    0 -0.00000000000E+00 -0.00000000000E+00 -0.45593999997E+02  0.45594000000E+02  0.51100000000E-03 0.  1.
    9900012    2    1    2    0    0 -0.10407147560E+02 -0.28146503667E+02 -0.27433994232E+02  0.50528948996E+02  0.30000270967E+02 0.  0.
         12    1    1    2    0    0  0.10407147560E+02  0.28146503667E+02  0.27433994232E+02  0.40659051004E+02  0.00000000000E+00 0. -1.
         11    1    3    3    0    0 -0.92064946433E+01 -0.10816698184E+02 -0.88028819298E+01  0.16710811882E+02  0.51100000000E-03 0. -1.
        -11    1    3    3    0    0 -0.42727502614E+01 -0.19471435317E+02 -0.62628710357E+01  0.20895376090E+02  0.51100000000E-03 0.  1.
         12    1    3    3    0    0  0.30720973449E+01  0.21416298337E+01 -0.12368241267E+02  0.12922761023E+02  0.00000000000E+00 0. -1.
</event>
<event>
 7    1  0.5121289E-013  0.5052886E+02  0.7816164E-02  0.1300439E+00
        -11   -1    0    0    0    0  0.00000000000E+00  0.00000000000E+00  0.45593999997E+02  0.45594000000E+02  0.51100000000E-03 0. -1.
         11   -1    0    0    0    0 -0.00000000000E+00 -0.00000000000E+00 -0.45593999997E+02  0.45594000000E+02  0.51100000000E-03 0.  1.
    9900012    2    1    2    0    0 -0.32168431992E+02  0.80481208004E+00 -0.24853764293E+02  0.50528864018E+02  0.30000012669E+02 0.  0.
         12    1    1    2    0    0  0.32168431992E+02 -0.80481208004E+00  0.24853764293E+02  0.40659135982E+02  0.00000000000E+00 0. -1.
         11    1    3    3    0    0 -0.85780664249E+01  0.70839866618E+01 -0.11572557174E+02  0.16052730934E+02  0.51100000000E-03 0. -1.
        -11    1    3    3    0    0 -0.12350511549E+02  0.18145074753E+01 -0.16068673078E+02  0.20347722910E+02  0.51100000000E-03 0.  1.
         12    1    3    3    0    0 -0.11239854018E+02 -0.80936820570E+01  0.27874659588E+01  0.14128410174E+02  0.00000000000E+00 0. -1.
</event>
<event>
 7    1  0.5121289E-013  0.5052886E+02  0.7816164E-02  0.1300439E+00
        -11   -1    0    0    0    0  0.00000000000E+00  0.00000000000E+00  0.45593999997E+02  0.45594000000E+02  0.51100000000E-03 0. -1.
         11   -1    0    0    0    0 -0.00000000000E+00 -0.00000000000E+00 -0.45593999997E+02  0.45594000000E+02  0.51100000000E-03 0.  1.
    9900012    2    1    2    0    0 -0.16310366581E+02 -0.79743398382E+01 -0.36380596252E+02  0.50528856656E+02  0.29999990292E+02 0.  0.
         12    1    1    2    0    0  0.16310366581E+02  0.79743398382E+01  0.36380596252E+02  0.40659143344E+02  0.00000000000E+00 0. -1.
         11    1    3    3    0    0  0.34650085201E+01  0.47213458372E+00 -0.15141263326E+02  0.15539853618E+02  0.51100000000E-03 0. -1.
        -11    1    3    3    0    0  0.20068762161E+01  0.70641935641E+00  0.11673059939E+01  0.24267641003E+01  0.51100000000E-03 0.  1.
        -12    1    3    3    0    0 -0.21782251317E+02 -0.91528937783E+01 -0.22406638919E+02  0.32562238937E+02  0.00000000000E+00 0.  1.
</event>
<event>
 7    1  0.5121289E-013  0.5052886E+02  0.7816164E-02  0.1300439E+00
        -11   -1    0    0    0    0  0.00000000000E+00  0.00000000000E+00  0.45593999997E+02  0.45594000000E+02  0.51100000000E-03 0.  1.
         11   -1    0    0    0    0 -0.00000000000E+00 -0.00000000000E+00 -0.45593999997E+02  0.45594000000E+02  0.51100000000E-03 0. -1.
    9900012    2    1    2    0    0  0.14444751746E+01 -0.31401799376E+02  0.25787713992E+02  0.50528859509E+02  0.29999998962E+02 0.  0.
         12    1    1    2    0    0 -0.14444751746E+01  0.31401799376E+02 -0.25787713992E+02  0.40659140491E+02  0.00000000000E+00 0. -1.
         11    1    3    3    0    0  0.14032213383E+01 -0.13634287288E+02 -0.56915086121E-01  0.13706424025E+02  0.51100000000E-03 0. -1.
        -11    1    3    3    0    0  0.46527497988E+01 -0.20396503161E+02  0.20639931237E+02  0.29388300114E+02  0.51100000000E-03 0.  1.
        -12    1    3    3    0    0 -0.46114959624E+01  0.26289910725E+01  0.52046978414E+01  0.74341353694E+01  0.00000000000E+00 0.  1.
</event>
<event>
 7    1  0.5121289E-013  0.5052884E+02  0.7816164E-02  0.1300439E+00
        -11   -1    0    0    0    0  0.00000000000E+00  0.00000000000E+00  0.45593999997E+02  0.45594000000E+02  0.51100000000E-03 0.  1.
         11   -1    0    0    0    0 -0.00000000000E+00 -0.00000000000E+00 -0.45593999997E+02  0.45594000000E+02  0.51100000000E-03 0. -1.
    9900012    2    1    2    0    0  0.37470054531E+02  0.12820305390E+02 -0.92087965707E+01  0.50528841731E+02  0.29999944926E+02 0.  0.
         12    1    1    2    0    0 -0.37470054531E+02 -0.12820305390E+02  0.92087965707E+01  0.40659158269E+02  0.00000000000E+00 0. -1.
         11    1    3    3    0    0  0.25942667387E+01  0.25468932583E+00 -0.12413537462E+01  0.28872211464E+01  0.51100000000E-03 0. -1.
        -11    1    3    3    0    0  0.38824705373E+02  0.92437791861E+01 -0.22989978930E+01  0.39976125282E+02  0.51100000000E-03 0.  1.
         12    1    3    3    0    0 -0.39489175809E+01  0.33218368780E+01 -0.56684449315E+01  0.76654953034E+01  0.00000000000E+00 0. -1.
</event>
<event>
 7    1  0.5121289E-013  0.5052886E+02  0.7816164E-02  0.1300439E+00
        -11   -1    0    0    0    0  0.00000000000E+00  0.00000000000E+00  0.45593999997E+02  0.45594000000E+02  0.51100000000E-03 0.  1.
         11   -1    0    0    0    0 -0.00000000000E+00 -0.00000000000E+00 -0.45593999997E+02  0.45594000000E+02  0.51100000000E-03 0. -1.
    9900012    2    1    2    0    0 -0.37817760670E+01 -0.38614313204E+02  0.12157261247E+02  0.50528855697E+02  0.29999987377E+02 0.  0.
         12    1    1    2    0    0  0.37817760670E+01  0.38614313204E+02 -0.12157261247E+02  0.40659144303E+02  0.00000000000E+00 0. -1.
         11    1    3    3    0    0  0.13702808430E+01 -0.72043051182E+01 -0.59245076387E+00  0.73573555027E+01  0.51100000000E-03 0. -1.
        -11    1    3    3    0    0 -0.11160053102E+02 -0.30578935028E+02  0.43946654477E+01  0.32847087197E+02  0.51100000000E-03 0.  1.
         12    1    3    3    0    0  0.60079961915E+01 -0.83107305759E+00  0.83550465634E+01  0.10324412997E+02  0.00000000000E+00 0. -1.
</event>
<event>
 7    1  0.5121289E-013  0.5052887E+02  0.7816164E-02  0.1300439E+00
        -11   -1    0    0    0    0  0.00000000000E+00  0.00000000000E+00  0.45593999997E+02  0.45594000000E+02  0.51100000000E-03 0. -1.
         11   -1    0    0    0    0 -0.00000000000E+00 -0.00000000000E+00 -0.45593999997E+02  0.45594000000E+02  0.51100000000E-03 0.  1.
    9900012    2    1    2    0    0 -0.26064935477E+01 -0.24594243244E+02 -0.32272188959E+02  0.50528870772E+02  0.30000033198E+02 0.  0.
         12    1    1    2    0    0  0.26064935477E+01  0.24594243244E+02  0.32272188959E+02  0.40659129228E+02  0.00000000000E+00 0. -1.
         11    1    3    3    0    0  0.31960244792E+01  0.28423126787E+01 -0.54010859918E+01  0.68894879336E+01  0.51100000000E-03 0. -1.
        -11    1    3    3    0    0  0.72136552482E+01 -0.13480875658E+02 -0.12527738249E+02  0.19766513512E+02  0.51100000000E-03 0.  1.
         12    1    3    3    0    0 -0.13016173275E+02 -0.13955680265E+02 -0.14343364719E+02  0.23872869326E+02  0.00000000000E+00 0. -1.
</event>
<event>
 7    1  0.5121289E-013  0.5052885E+02  0.7816164E-02  0.1300439E+00
        -11   -1    0    0    0    0  0.00000000000E+00  0.00000000000E+00  0.45593999997E+02  0.45594000000E+02  0.51100000000E-03 0.  1.
         11   -1    0    0    0    0 -0.00000000000E+00 -0.00000000000E+00 -0.45593999997E+02  0.45594000000E+02  0.51100000000E-03 0. -1.
    9900012    2    1    2    0    0 -0.33500530926E+02  0.65989851384E+01  0.22075642290E+02  0.50528853924E+02  0.29999981987E+02 0.  0.
         12    1    1    2    0    0  0.33500530926E+02 -0.65989851384E+01 -0.22075642290E+02  0.40659146076E+02  0.00000000000E+00 0. -1.
         11    1    3    3    0    0 -0.29527291277E+02 -0.93090320645E+00  0.74778388338E+01  0.30473686761E+02  0.51100000000E-03 0. -1.
        -11    1    3    3    0    0 -0.30225639204E+01 -0.50925988776E+00 -0.32065437322E+00  0.30818919148E+01  0.51100000000E-03 0.  1.
         12    1    3    3    0    0 -0.95067572808E+00  0.80391482326E+01  0.14918457829E+02  0.16973275248E+02  0.00000000000E+00 0. -1.
</event>
<event>
 7    1  0.5121289E-013  0.5052883E+02  0.7816164E-02  0.1300439E+00
        -11   -1    0    0    0    0  0.00000000000E+00  0.00000000000E+00  0.45593999997E+02  0.45594000000E+02  0.51100000000E-03 0.  1.
         11   -1    0    0    0    0 -0.00000000000E+00 -0.00000000000E+00 -0.45593999997E+02  0.45594000000E+02  0.51100000000E-03 0. -1.
    9900012    2    1    2    0    0  0.11659121688E+02 -0.17398645985E+02  0.34849960195E+02  0.50528834659E+02  0.29999923429E+02 0.  0.
         12    1    1    2    0    0 -0.11659121688E+02  0.17398645985E+02 -0.34849960195E+02  0.40659165341E+02  0.00000000000E+00 0. -1.
         11    1    3    3    0    0  0.10225592434E+02 -0.53840314201E+01  0.15599419536E+01  0.11661215808E+02  0.51100000000E-03 0. -1.
        -11    1    3    3    0    0 -0.46272854667E+01 -0.12867397856E+02  0.19901714356E+02  0.24146633988E+02  0.51100000000E-03 0.  1.
         12    1    3    3    0    0  0.60608147212E+01  0.85278329098E+00  0.13388303885E+02  0.14720984863E+02  0.00000000000E+00 0. -1.
</event>
<event>
 7    1  0.5121289E-013  0.5052886E+02  0.7816164E-02  0.1300439E+00
        -11   -1    0    0    0    0  0.00000000000E+00  0.00000000000E+00  0.45593999997E+02  0.45594000000E+02  0.51100000000E-03 0.  1.
         11   -1    0    0    0    0 -0.00000000000E+00 -0.00000000000E+00 -0.45593999997E+02  0.45594000000E+02  0.51100000000E-03 0. -1.
    9900012    2    1    2    0    0 -0.45097972645E+01  0.36546907578E+02  0.17238071306E+02  0.50528858011E+02  0.29999994411E+02 0.  0.
         12    1    1    2    0    0  0.45097972645E+01 -0.36546907578E+02 -0.17238071306E+02  0.40659141989E+02  0.00000000000E+00 0. -1.
         11    1    3    3    0    0  0.57256168262E+01 -0.23621368158E+00  0.11177997869E+01  0.58384896651E+01  0.51100000000E-03 0. -1.
        -11    1    3    3    0    0  0.45828025056E+01  0.97040572956E+01  0.29502506408E+01  0.11129905027E+02  0.51100000000E-03 0.  1.
        -12    1    3    3    0    0 -0.14818216596E+02  0.27079063964E+02  0.13170020879E+02  0.33560463319E+02  0.00000000000E+00 0.  1.
</event>
<event>
 7    1  0.5121289E-013  0.5052885E+02  0.7816164E-02  0.1300439E+00
        -11   -1    0    0    0    0  0.00000000000E+00  0.00000000000E+00  0.45593999997E+02  0.45594000000E+02  0.51100000000E-03 0.  1.
         11   -1    0    0    0    0 -0.00000000000E+00 -0.00000000000E+00 -0.45593999997E+02  0.45594000000E+02  0.51100000000E-03 0. -1.
    9900012    2    1    2    0    0 -0.56786839905E+01  0.13828604278E+02  0.37811224376E+02  0.50528850514E+02  0.29999971621E+02 0.  0.
         12    1    1    2    0    0  0.56786839905E+01 -0.13828604278E+02 -0.37811224376E+02  0.40659149486E+02  0.00000000000E+00 0. -1.
         11    1    3    3    0    0  0.36268848106E+01  0.79391488390E+01  0.19813160774E+02  0.21650536202E+02  0.51100000000E-03 0. -1.
        -11    1    3    3    0    0 -0.65834218256E+01  0.13186138779E+02  0.10780779543E+02  0.18260364362E+02  0.51100000000E-03 0.  1.
         12    1    3    3    0    0 -0.27221469754E+01 -0.72966833405E+01  0.72172840597E+01  0.10617949949E+02  0.00000000000E+00 0. -1.
</event>
<event>
 7    1  0.5121289E-013  0.5052885E+02  0.7816164E-02  0.1300439E+00
        -11   -1    0    0    0    0  0.00000000000E+00  0.00000000000E+00  0.45593999997E+02  0.45594000000E+02  0.51100000000E-03 0.  1.
         11   -1    0    0    0    0 -0.00000000000E+00 -0.00000000000E+00 -0.45593999997E+02  0.45594000000E+02  0.51100000000E-03 0. -1.
    9900012    2    1    2    0    0  0.19548440726E+02 -0.19712144482E+02  0.29706160370E+02  0.50528854180E+02  0.29999982765E+02 0.  0.
         12    1    1    2    0    0 -0.19548440726E+02  0.19712144482E+02 -0.29706160370E+02  0.40659145820E+02  0.00000000000E+00 0. -1.
         11    1    3    3    0    0 -0.38918862014E+01 -0.45500887925E+01  0.33398051463E+01  0.68559743947E+01  0.51100000000E-03 0. -1.
        -11    1    3    3    0    0  0.92034318270E+00  0.36555158708E+01 -0.60079178696E+00  0.38171689625E+01  0.51100000000E-03 0.  1.
        -12    1    3    3    0    0  0.22519983745E+02 -0.18817571560E+02  0.26967147011E+02  0.39855710823E+02  0.00000000000E+00 0.  1.
</event>
<event>
 7    1  0.5121289E-013  0.5052885E+02  0.7816164E-02  0.1300439E+00
        -11   -1    0    0    0    0  0.00000000000E+00  0.00000000000E+00  0.45593999997E+02  0.45594000000E+02  0.51100000000E-03 0.  1.
         11   -1    0    0    0    0 -0.00000000000E+00 -0.00000000000E+00 -0.45593999997E+02  0.45594000000E+02  0.51100000000E-03 0. -1.
    9900012    2    1    2    0    0 -0.15823849680E+02  0.21022396801E+02  0.30997277051E+02  0.50528848871E+02  0.29999966628E+02 0.  0.
         12    1    1    2    0    0  0.15823849680E+02 -0.21022396801E+02 -0.30997277051E+02  0.40659151129E+02  0.00000000000E+00 0. -1.
         11    1    3    3    0    0 -0.28693952478E+00  0.79321061905E+00  0.13076206043E+02  0.13103384377E+02  0.51100000000E-03 0. -1.
        -11    1    3    3    0    0 -0.74768424328E+01  0.71658718953E+01  0.19413724640E+02  0.22003308784E+02  0.51100000000E-03 0.  1.
        -12    1    3    3    0    0 -0.80600677229E+01  0.13063314287E+02 -0.14926536331E+01  0.15422155710E+02  0.00000000000E+00 0.  1.
</event>
<event>
 7    1  0.5121289E-013  0.5052886E+02  0.7816164E-02  0.1300439E+00
        -11   -1    0    0    0    0  0.00000000000E+00  0.00000000000E+00  0.45593999997E+02  0.45594000000E+02  0.51100000000E-03 0.  1.
         11   -1    0    0    0    0 -0.00000000000E+00 -0.00000000000E+00 -0.45593999997E+02  0.45594000000E+02  0.51100000000E-03 0. -1.
    9900012    2    1    2    0    0 -0.35416754121E+02  0.19567055993E+02  0.39936937813E+01  0.50528859051E+02  0.29999997572E+02 0.  0.
         12    1    1    2    0    0  0.35416754121E+02 -0.19567055993E+02 -0.39936937813E+01  0.40659140949E+02  0.00000000000E+00 0. -1.
         11    1    3    3    0    0 -0.10913225215E+02 -0.10120709662E+01  0.17908329443E+01  0.11105397567E+02  0.51100000000E-03 0.  1.
        -11    1    3    3    0    0 -0.12512405782E+02  0.25977117893E+01 -0.84575500229E+01  0.15324443143E+02  0.51100000000E-03 0. -1.
         12    1    3    3    0    0 -0.11991123124E+02  0.17981415170E+02  0.10660410860E+02  0.24099018341E+02  0.00000000000E+00 0. -1.
</event>
<event>
 7    1  0.5121289E-013  0.5052886E+02  0.7816164E-02  0.1300439E+00
        -11   -1    0    0    0    0  0.00000000000E+00  0.00000000000E+00  0.45593999997E+02  0.45594000000E+02  0.51100000000E-03 0.  1.
         11   -1    0    0    0    0 -0.00000000000E+00 -0.00000000000E+00 -0.45593999997E+02  0.45594000000E+02  0.51100000000E-03 0. -1.
    9900012    2    1    2    0    0 -0.10263458636E+02  0.27466630929E+01  0.39246441472E+02  0.50528857000E+02  0.29999991336E+02 0.  0.
         12    1    1    2    0    0  0.10263458636E+02 -0.27466630929E+01 -0.39246441472E+02  0.40659143000E+02  0.00000000000E+00 0. -1.
         11    1    3    3    0    0  0.14456230006E+01 -0.34544934376E+01  0.14025252746E+02  0.14516578992E+02  0.51100000000E-03 0.  1.
        -11    1    3    3    0    0  0.59654493004E+01  0.52002745742E+01  0.92079230071E+01  0.12141469737E+02  0.51100000000E-03 0. -1.
        -12    1    3    3    0    0 -0.17674530937E+02  0.10008819563E+01  0.16013265718E+02  0.23870808271E+02  0.00000000000E+00 0.  1.
</event>
<event>
 7    1  0.5121289E-013  0.5052885E+02  0.7816164E-02  0.1300439E+00
        -11   -1    0    0    0    0  0.00000000000E+00  0.00000000000E+00  0.45593999997E+02  0.45594000000E+02  0.51100000000E-03 0.  1.
         11   -1    0    0    0    0 -0.00000000000E+00 -0.00000000000E+00 -0.45593999997E+02  0.45594000000E+02  0.51100000000E-03 0. -1.
    9900012    2    1    2    0    0 -0.13307334585E+02 -0.16984082277E+02  0.34461894962E+02  0.50528850858E+02  0.29999972669E+02 0.  0.
         12    1    1    2    0    0  0.13307334585E+02  0.16984082277E+02 -0.34461894962E+02  0.40659149142E+02  0.00000000000E+00 0. -1.
         11    1    3    3    0    0 -0.14714795464E+02 -0.15520418182E+02  0.13782147566E+02  0.25443195119E+02  0.51100000000E-03 0.  1.
        -11    1    3    3    0    0 -0.61806516581E+01 -0.21545438881E+01  0.10437493151E+02  0.12320055918E+02  0.51100000000E-03 0. -1.
         12    1    3    3    0    0  0.75881125373E+01  0.69087979337E+00  0.10242254245E+02  0.12765599821E+02  0.00000000000E+00 0. -1.
</event>
<event>
 7    1  0.5121289E-013  0.5052886E+02  0.7816164E-02  0.1300439E+00
        -11   -1    0    0    0    0  0.00000000000E+00  0.00000000000E+00  0.45593999997E+02  0.45594000000E+02  0.51100000000E-03 0. -1.
         11   -1    0    0    0    0 -0.00000000000E+00 -0.00000000000E+00 -0.45593999997E+02  0.45594000000E+02  0.51100000000E-03 0.  1.
    9900012    2    1    2    0    0 -0.51656141873E+01  0.40007439296E+02 -0.50879146844E+01  0.50528860255E+02  0.30000001230E+02 0.  0.
         12    1    1    2    0    0  0.51656141873E+01 -0.40007439296E+02  0.50879146844E+01  0.40659139745E+02  0.00000000000E+00 0. -1.
         11    1    3    3    0    0 -0.30340544488E+01  0.16200565722E+02  0.77477579870E+01  0.18212401550E+02  0.51100000000E-03 0.  1.
        -11    1    3    3    0    0  0.10194219264E+01  0.27638566026E+01  0.41508895137E+01  0.50899910020E+01  0.51100000000E-03 0. -1.
        -12    1    3    3    0    0 -0.31509816649E+01  0.21043016972E+02 -0.16986562185E+02  0.27226467703E+02  0.00000000000E+00 0.  1.
</event>
<event>
 7    1  0.5121289E-013  0.5052886E+02  0.7816164E-02  0.1300439E+00
        -11   -1    0    0    0    0  0.00000000000E+00  0.00000000000E+00  0.45593999997E+02  0.45594000000E+02  0.51100000000E-03 0. -1.
         11   -1    0    0    0    0 -0.00000000000E+00 -0.00000000000E+00 -0.45593999997E+02  0.45594000000E+02  0.51100000000E-03 0.  1.
    9900012    2    1    2    0    0  0.16950555290E+02 -0.38601790646E+00 -0.36955311206E+02  0.50528863747E+02  0.30000011846E+02 0.  0.
         12    1    1    2    0    0 -0.16950555290E+02  0.38601790646E+00  0.36955311206E+02  0.40659136253E+02  0.00000000000E+00 0. -1.
         11    1    3    3    0    0  0.18215111668E+02 -0.16209663431E+01 -0.24434014360E+02  0.30519483661E+02  0.51100000000E-03 0. -1.
        -11    1    3    3    0    0  0.30761499670E+01  0.16978524906E+01 -0.14711613885E+02  0.15125375534E+02  0.51100000000E-03 0.  1.
         12    1    3    3    0    0 -0.43407063442E+01 -0.46290405391E+00  0.21903170385E+01  0.48840045515E+01  0.00000000000E+00 0. -1.
</event>
<event>
 7    1  0.5121289E-013  0.5052885E+02  0.7816164E-02  0.1300439E+00
        -11   -1    0    0    0    0  0.00000000000E+00  0.00000000000E+00  0.45593999997E+02  0.45594000000E+02  0.51100000000E-03 0.  1.
         11   -1    0    0    0    0 -0.00000000000E+00 -0.00000000000E+00 -0.45593999997E+02  0.45594000000E+02  0.51100000000E-03 0. -1.
    9900012    2    1    2    0    0 -0.49598170855E+01  0.11127476815E+02  0.38791057117E+02  0.50528848041E+02  0.29999964104E+02 0.  0.
         12    1    1    2    0    0  0.49598170855E+01 -0.11127476815E+02 -0.38791057117E+02  0.40659151959E+02  0.00000000000E+00 0. -1.
         11    1    3    3    0    0 -0.29723406351E+00 -0.41014222775E+01  0.66356694431E+00  0.41653732291E+01  0.51100000000E-03 0. -1.
        -11    1    3    3    0    0  0.18150669267E+01  0.33713842830E-01 -0.21597474560E+01  0.28213673824E+01  0.51100000000E-03 0.  1.
        -12    1    3    3    0    0 -0.64776499487E+01  0.15195185249E+02  0.40287237629E+02  0.43542107429E+02  0.00000000000E+00 0.  1.
</event>
<event>
 7    1  0.5121289E-013  0.5052883E+02  0.7816164E-02  0.1300439E+00
        -11   -1    0    0    0    0  0.00000000000E+00  0.00000000000E+00  0.45593999997E+02  0.45594000000E+02  0.51100000000E-03 0. -1.
         11   -1    0    0    0    0 -0.00000000000E+00 -0.00000000000E+00 -0.45593999997E+02  0.45594000000E+02  0.51100000000E-03 0.  1.
    9900012    2    1    2    0    0  0.29706508907E+02  0.21658405179E+02  0.17366774951E+02  0.50528830573E+02  0.29999911008E+02 0.  0.
         12    1    1    2    0    0 -0.29706508907E+02 -0.21658405179E+02 -0.17366774951E+02  0.40659169427E+02  0.00000000000E+00 0. -1.
         11    1    3    3    0    0 -0.15123489462E+01  0.43532105413E+01  0.12234292000E+02  0.13073467113E+02  0.51100000000E-03 0. -1.
        -11    1    3    3    0    0  0.11959001187E+01 -0.12556709389E+01  0.74257123945E+00  0.18863453839E+01  0.51100000000E-03 0.  1.
        -12    1    3    3    0    0  0.30022957734E+02  0.18560865576E+02  0.43899117122E+01  0.35569018076E+02  0.00000000000E+00 0.  1.
</event>
<event>
 7    1  0.5121289E-013  0.5052885E+02  0.7816164E-02  0.1300439E+00
        -11   -1    0    0    0    0  0.00000000000E+00  0.00000000000E+00  0.45593999997E+02  0.45594000000E+02  0.51100000000E-03 0.  1.
         11   -1    0    0    0    0 -0.00000000000E+00 -0.00000000000E+00 -0.45593999997E+02  0.45594000000E+02  0.51100000000E-03 0. -1.
    9900012    2    1    2    0    0  0.26153424056E+02  0.24537734702E+02  0.19158927939E+02  0.50528849321E+02  0.29999967997E+02 0.  0.
         12    1    1    2    0    0 -0.26153424056E+02 -0.24537734702E+02 -0.19158927939E+02  0.40659150679E+02  0.00000000000E+00 0. -1.
         11    1    3    3    0    0  0.12143867461E+02  0.71875569693E+01  0.10635862291E+02  0.17670768490E+02  0.51100000000E-03 0. -1.
        -11    1    3    3    0    0  0.93902572267E+01  0.55832924122E+01  0.15077020118E+02  0.18618985495E+02  0.51100000000E-03 0.  1.
         12    1    3    3    0    0  0.46192993676E+01  0.11766885321E+02 -0.65539544701E+01  0.14239095336E+02  0.00000000000E+00 0. -1.
</event>
<event>
 7    1  0.5121289E-013  0.5052886E+02  0.7816164E-02  0.1300439E+00
        -11   -1    0    0    0    0  0.00000000000E+00  0.00000000000E+00  0.45593999997E+02  0.45594000000E+02  0.51100000000E-03 0. -1.
         11   -1    0    0    0    0 -0.00000000000E+00 -0.00000000000E+00 -0.45593999997E+02  0.45594000000E+02  0.51100000000E-03 0.  1.
    9900012    2    1    2    0    0  0.63285045193E+01 -0.30754068778E+02  0.25832214991E+02  0.50528855307E+02  0.29999986191E+02 0.  0.
         12    1    1    2    0    0 -0.63285045193E+01  0.30754068778E+02 -0.25832214991E+02  0.40659144693E+02  0.00000000000E+00 0. -1.
         11    1    3    3    0    0  0.12775478706E+02 -0.75513154980E+01  0.12150509036E+02  0.19179939833E+02  0.51100000000E-03 0. -1.
        -11    1    3    3    0    0 -0.53969521128E+00  0.10523522552E+01  0.46551203123E+01  0.48030054730E+01  0.51100000000E-03 0.  1.
        -12    1    3    3    0    0 -0.59072789755E+01 -0.24255105535E+02  0.90265856422E+01  0.26545910001E+02  0.00000000000E+00 0.  1.
</event>
<event>
 7    1  0.5121289E-013  0.5052887E+02  0.7816164E-02  0.1300439E+00
        -11   -1    0    0    0    0  0.00000000000E+00  0.00000000000E+00  0.45593999997E+02  0.45594000000E+02  0.51100000000E-03 0. -1.
         11   -1    0    0    0    0 -0.00000000000E+00 -0.00000000000E+00 -0.45593999997E+02  0.45594000000E+02  0.51100000000E-03 0.  1.
    9900012    2    1    2    0    0  0.40369849756E+02 -0.38397164951E+01 -0.29490411067E+01  0.50528867747E+02  0.30000024004E+02 0.  0.
         12    1    1    2    0    0 -0.40369849756E+02  0.38397164951E+01  0.29490411067E+01  0.40659132253E+02  0.00000000000E+00 0. -1.
         11    1    3    3    0    0  0.13186907465E+02 -0.10416254363E+02  0.43848756697E+01  0.17367211013E+02  0.51100000000E-03 0. -1.
        -11    1    3    3    0    0  0.13230658682E+02 -0.42486536214E+01  0.35603047847E+00  0.13900652672E+02  0.51100000000E-03 0.  1.
         12    1    3    3    0    0  0.13952283609E+02  0.10825191489E+02 -0.76899472549E+01  0.19261004062E+02  0.00000000000E+00 0. -1.
</event>
<event>
 7    1  0.5121289E-013  0.5052886E+02  0.7816164E-02  0.1300439E+00
        -11   -1    0    0    0    0  0.00000000000E+00  0.00000000000E+00  0.45593999997E+02  0.45594000000E+02  0.51100000000E-03 0.  1.
         11   -1    0    0    0    0 -0.00000000000E+00 -0.00000000000E+00 -0.45593999997E+02  0.45594000000E+02  0.51100000000E-03 0. -1.
    9900012    2    1    2    0    0 -0.60607619182E+01 -0.23451961135E+02  0.32656372581E+02  0.50528856056E+02  0.29999988468E+02 0.  0.
         12    1    1    2    0    0  0.60607619182E+01  0.23451961135E+02 -0.32656372581E+02  0.40659143944E+02  0.00000000000E+00 0. -1.
         11    1    3    3    0    0 -0.16731126270E+01  0.34904570768E+01  0.12562437792E+01  0.40694895456E+01  0.51100000000E-03 0. -1.
        -11    1    3    3    0    0 -0.89811612869E+01 -0.14407283586E+02  0.27897360592E+02  0.32657216762E+02  0.51100000000E-03 0.  1.
         12    1    3    3    0    0  0.45935119957E+01 -0.12535134626E+02  0.35027682095E+01  0.13802149748E+02  0.00000000000E+00 0. -1.
</event>
<event>
 7    1  0.5121289E-013  0.5052888E+02  0.7816164E-02  0.1300439E+00
        -11   -1    0    0    0    0  0.00000000000E+00  0.00000000000E+00  0.45593999997E+02  0.45594000000E+02  0.51100000000E-03 0.  1.
         11   -1    0    0    0    0 -0.00000000000E+00 -0.00000000000E+00 -0.45593999997E+02  0.45594000000E+02  0.51100000000E-03 0. -1.
    9900012    2    1    2    0    0  0.35737226122E+02 -0.22529003934E+01  0.19259781393E+02  0.50528879617E+02  0.30000060082E+02 0.  0.
         12    1    1    2    0    0 -0.35737226122E+02  0.22529003934E+01 -0.19259781393E+02  0.40659120383E+02  0.00000000000E+00 0. -1.
         11    1    3    3    0    0  0.17749363737E+02 -0.48349370131E+01  0.17281801601E+02  0.25240388187E+02  0.51100000000E-03 0.  1.
        -11    1    3    3    0    0  0.12331817455E+01 -0.50727337157E+01  0.42456152939E+01  0.67289385532E+01  0.51100000000E-03 0. -1.
        -12    1    3    3    0    0  0.16754680639E+02  0.76547703354E+01 -0.22676355017E+01  0.18559552876E+02  0.00000000000E+00 0.  1.
</event>
<event>
 7    1  0.5121289E-013  0.5052886E+02  0.7816164E-02  0.1300439E+00
        -11   -1    0    0    0    0  0.00000000000E+00  0.00000000000E+00  0.45593999997E+02  0.45594000000E+02  0.51100000000E-03 0.  1.
         11   -1    0    0    0    0 -0.00000000000E+00 -0.00000000000E+00 -0.45593999997E+02  0.45594000000E+02  0.51100000000E-03 0. -1.
    9900012    2    1    2    0    0 -0.13907393068E+01  0.89880961844E+01  0.39628845271E+02  0.50528863188E+02  0.30000010145E+02 0.  0.
         12    1    1    2    0    0  0.13907393068E+01 -0.89880961844E+01 -0.39628845271E+02  0.40659136812E+02  0.00000000000E+00 0. -1.
         11    1    3    3    0    0  0.58038711794E+01  0.11823381500E+02  0.46262716324E+01  0.13959930524E+02  0.51100000000E-03 0. -1.
        -11    1    3    3    0    0 -0.21453193043E+01 -0.45785689524E+01  0.13590457340E+02  0.14500559284E+02  0.51100000000E-03 0.  1.
        -12    1    3    3    0    0 -0.50492911819E+01  0.17432836371E+01  0.21412116298E+02  0.22068373380E+02  0.00000000000E+00 0.  1.
</event>
<event>
 7    1  0.5121289E-013  0.5052872E+02  0.7816164E-02  0.1300439E+00
        -11   -1    0    0    0    0  0.00000000000E+00  0.00000000000E+00  0.45593999997E+02  0.45594000000E+02  0.51100000000E-03 0.  1.
         11   -1    0    0    0    0 -0.00000000000E+00 -0.00000000000E+00 -0.45593999997E+02  0.45594000000E+02  0.51100000000E-03 0. -1.
    9900012    2    1    2    0    0  0.15395628611E+02 -0.28429815478E+02  0.24655572258E+02  0.50528720225E+02  0.29999575594E+02 0.  0.
         12    1    1    2    0    0 -0.15395628611E+02  0.28429815478E+02 -0.24655572258E+02  0.40659279775E+02  0.00000000000E+00 0. -1.
         11    1    3    3    0    0  0.99676353617E+01 -0.48692561429E+01  0.32683750440E+01  0.11564846985E+02  0.51100000000E-03 0. -1.
        -11    1    3    3    0    0  0.69167234358E+01 -0.42428119752E+01  0.17377008448E+02  0.19178189159E+02  0.51100000000E-03 0.  1.
        -12    1    3    3    0    0 -0.14887301869E+01 -0.19317747360E+02  0.40101887654E+01  0.19785684081E+02  0.00000000000E+00 0.  1.
</event>
<event>
 7    1  0.5121289E-013  0.5052886E+02  0.7816164E-02  0.1300439E+00
        -11   -1    0    0    0    0  0.00000000000E+00  0.00000000000E+00  0.45593999997E+02  0.45594000000E+02  0.51100000000E-03 0. -1.
         11   -1    0    0    0    0 -0.00000000000E+00 -0.00000000000E+00 -0.45593999997E+02  0.45594000000E+02  0.51100000000E-03 0.  1.
    9900012    2    1    2    0    0  0.56702182760E+01 -0.36012141929E+02 -0.18003882924E+02  0.50528861520E+02  0.30000005075E+02 0.  0.
         12    1    1    2    0    0 -0.56702182760E+01  0.36012141929E+02  0.18003882924E+02  0.40659138480E+02  0.00000000000E+00 0. -1.
         11    1    3    3    0    0  0.51090929625E+00 -0.47341451395E+01 -0.34471379693E+01  0.58784282722E+01  0.51100000000E-03 0. -1.
        -11    1    3    3    0    0  0.86249727312E+00 -0.35300179504E+02 -0.15718525471E+02  0.38651243419E+02  0.51100000000E-03 0.  1.
         12    1    3    3    0    0  0.42968117066E+01  0.40221827144E+01  0.11617805164E+01  0.59991898285E+01  0.00000000000E+00 0. -1.
</event>
<event>
 7    1  0.5121289E-013  0.5052886E+02  0.7816164E-02  0.1300439E+00
        -11   -1    0    0    0    0  0.00000000000E+00  0.00000000000E+00  0.45593999997E+02  0.45594000000E+02  0.51100000000E-03 0. -1.
         11   -1    0    0    0    0 -0.00000000000E+00 -0.00000000000E+00 -0.45593999997E+02  0.45594000000E+02  0.51100000000E-03 0.  1.
    9900012    2    1    2    0    0  0.26612801655E+02 -0.91933640471E+01 -0.29332692783E+02  0.50528855637E+02  0.29999987193E+02 0.  0.
         12    1    1    2    0    0 -0.26612801655E+02  0.91933640471E+01  0.29332692783E+02  0.40659144363E+02  0.00000000000E+00 0. -1.
         11    1    3    3    0    0 -0.19714597410E+01 -0.19867356791E+01 -0.63656485303E+01  0.69537941903E+01  0.51100000000E-03 0. -1.
        -11    1    3    3    0    0  0.64980200814E+00  0.56971542854E+01 -0.65264672209E+01  0.86876109632E+01  0.51100000000E-03 0.  1.
         12    1    3    3    0    0  0.27934459388E+02 -0.12903782653E+02 -0.16440577032E+02  0.34887450483E+02  0.00000000000E+00 0. -1.
</event>
<event>
 7    1  0.5121289E-013  0.5052887E+02  0.7816164E-02  0.1300439E+00
        -11   -1    0    0    0    0  0.00000000000E+00  0.00000000000E+00  0.45593999997E+02  0.45594000000E+02  0.51100000000E-03 0.  1.
         11   -1    0    0    0    0 -0.00000000000E+00 -0.00000000000E+00 -0.45593999997E+02  0.45594000000E+02  0.51100000000E-03 0. -1.
    9900012    2    1    2    0    0  0.29643756553E+02  0.10247241366E+02  0.25872898497E+02  0.50528866526E+02  0.30000020293E+02 0.  0.
         12    1    1    2    0    0 -0.29643756553E+02 -0.10247241366E+02 -0.25872898497E+02  0.40659133474E+02  0.00000000000E+00 0. -1.
         11    1    3    3    0    0  0.98291339549E+01 -0.63166529087E+01  0.11199901160E+02  0.16184862203E+02  0.51100000000E-03 0. -1.
        -11    1    3    3    0    0  0.15357866847E+02  0.25481720102E+01  0.11349998097E+02  0.19266024804E+02  0.51100000000E-03 0.  1.
        -12    1    3    3    0    0  0.44567557510E+01  0.14015722265E+02  0.33229992401E+01  0.15077979519E+02  0.00000000000E+00 0.  1.
</event>
<event>
 7    1  0.5121289E-013  0.5052887E+02  0.7816164E-02  0.1300439E+00
        -11   -1    0    0    0    0  0.00000000000E+00  0.00000000000E+00  0.45593999997E+02  0.45594000000E+02  0.51100000000E-03 0.  1.
         11   -1    0    0    0    0 -0.00000000000E+00 -0.00000000000E+00 -0.45593999997E+02  0.45594000000E+02  0.51100000000E-03 0. -1.
    9900012    2    1    2    0    0  0.14097630650E+02 -0.25542608386E+02  0.28319541685E+02  0.50528874649E+02  0.30000044983E+02 0.  0.
         12    1    1    2    0    0 -0.14097630650E+02  0.25542608386E+02 -0.28319541685E+02  0.40659125351E+02  0.00000000000E+00 0. -1.
         11    1    3    3    0    0 -0.67481233301E+01 -0.26389791332E+01  0.12504154027E+02  0.14451825059E+02  0.51100000000E-03 0. -1.
        -11    1    3    3    0    0  0.38141437466E+01 -0.59268862297E+00  0.11633393531E-02  0.38599189030E+01  0.51100000000E-03 0.  1.
        -12    1    3    3    0    0  0.17031610233E+02 -0.22310940630E+02  0.15814224318E+02  0.32217130687E+02  0.00000000000E+00 0.  1.
</event>
<event>
 7    1  0.5121289E-013  0.5052886E+02  0.7816164E-02  0.1300439E+00
        -11   -1    0    0    0    0  0.00000000000E+00  0.00000000000E+00  0.45593999997E+02  0.45594000000E+02  0.51100000000E-03 0.  1.
         11   -1    0    0    0    0 -0.00000000000E+00 -0.00000000000E+00 -0.45593999997E+02  0.45594000000E+02  0.51100000000E-03 0. -1.
    9900012    2    1    2    0    0  0.11562339171E+01 -0.20481172643E+02  0.35104844573E+02  0.50528862993E+02  0.30000009553E+02 0.  0.
         12    1    1    2    0    0 -0.11562339171E+01  0.20481172643E+02 -0.35104844573E+02  0.40659137007E+02  0.00000000000E+00 0. -1.
         11    1    3    3    0    0  0.26499181543E+01 -0.87724716154E+01  0.15320064409E+02  0.17851686145E+02  0.51100000000E-03 0.  1.
        -11    1    3    3    0    0  0.99440614743E+00 -0.10217306683E+02 -0.22026371243E+01  0.10499229020E+02  0.51100000000E-03 0. -1.
         12    1    3    3    0    0 -0.24880903847E+01 -0.14913943445E+01  0.21987417288E+02  0.22177947828E+02  0.00000000000E+00 0. -1.
</event>
<event>
 7    1  0.5121289E-013  0.5052886E+02  0.7816164E-02  0.1300439E+00
        -11   -1    0    0    0    0  0.00000000000E+00  0.00000000000E+00  0.45593999997E+02  0.45594000000E+02  0.51100000000E-03 0. -1.
         11   -1    0    0    0    0 -0.00000000000E+00 -0.00000000000E+00 -0.45593999997E+02  0.45594000000E+02  0.51100000000E-03 0.  1.
    9900012    2    1    2    0    0  0.19430232976E+02  0.30421051663E+02 -0.18713392867E+02  0.50528863138E+02  0.30000009995E+02 0.  0.
         12    1    1    2    0    0 -0.19430232976E+02 -0.30421051663E+02  0.18713392867E+02  0.40659136862E+02  0.00000000000E+00 0. -1.
         11    1    3    3    0    0  0.63742045621E+01 -0.81917756401E+00  0.20708916713E+01  0.67520462274E+01  0.51100000000E-03 0. -1.
        -11    1    3    3    0    0 -0.14341288081E+01 -0.18016542800E+01 -0.40041840686E+00  0.23373101515E+01  0.51100000000E-03 0.  1.
        -12    1    3    3    0    0  0.14490157222E+02  0.33041883507E+02 -0.20383866131E+02  0.41439506759E+02  0.00000000000E+00 0.  1.
</event>
<event>
 7    1  0.5121289E-013  0.5052884E+02  0.7816164E-02  0.1300439E+00
        -11   -1    0    0    0    0  0.00000000000E+00  0.00000000000E+00  0.45593999997E+02  0.45594000000E+02  0.51100000000E-03 0.  1.
         11   -1    0    0    0    0 -0.00000000000E+00 -0.00000000000E+00 -0.45593999997E+02  0.45594000000E+02  0.51100000000E-03 0. -1.
    9900012    2    1    2    0    0  0.15890321505E+02  0.35846776543E+02  0.10755179475E+02  0.50528836314E+02  0.29999928460E+02 0.  0.
         12    1    1    2    0    0 -0.15890321505E+02 -0.35846776543E+02 -0.10755179475E+02  0.40659163686E+02  0.00000000000E+00 0. -1.
         11    1    3    3    0    0  0.30122926912E+01  0.83902864533E+01  0.10008365615E+02  0.13402917465E+02  0.51100000000E-03 0. -1.
        -11    1    3    3    0    0  0.32602466702E+01  0.11821586567E+02  0.10673594586E+02  0.16257451798E+02  0.51100000000E-03 0.  1.
         12    1    3    3    0    0  0.96177821436E+01  0.15634903523E+02 -0.99267807249E+01  0.20868467052E+02  0.00000000000E+00 0. -1.
</event>
<event>
 7    1  0.5121289E-013  0.5052890E+02  0.7816164E-02  0.1300439E+00
        -11   -1    0    0    0    0  0.00000000000E+00  0.00000000000E+00  0.45593999997E+02  0.45594000000E+02  0.51100000000E-03 0.  1.
         11   -1    0    0    0    0 -0.00000000000E+00 -0.00000000000E+00 -0.45593999997E+02  0.45594000000E+02  0.51100000000E-03 0. -1.
    9900012    2    1    2    0    0  0.26396821168E+02 -0.58614209432E+01  0.30364685964E+02  0.50528897981E+02  0.30000115904E+02 0.  0.
         12    1    1    2    0    0 -0.26396821168E+02  0.58614209432E+01 -0.30364685964E+02  0.40659102019E+02  0.00000000000E+00 0. -1.
         11    1    3    3    0    0  0.37034137987E+01 -0.23834821101E+01  0.12065254480E+02  0.12843933457E+02  0.51100000000E-03 0. -1.
        -11    1    3    3    0    0  0.13642485073E+02 -0.12703323148E+02  0.15983253565E+02  0.24555166722E+02  0.51100000000E-03 0.  1.
         12    1    3    3    0    0  0.90509222968E+01  0.92253843147E+01  0.23161779198E+01  0.13129797802E+02  0.00000000000E+00 0. -1.
</event>
<event>
 7    1  0.5121289E-013  0.5052886E+02  0.7816164E-02  0.1300439E+00
        -11   -1    0    0    0    0  0.00000000000E+00  0.00000000000E+00  0.45593999997E+02  0.45594000000E+02  0.51100000000E-03 0.  1.
         11   -1    0    0    0    0 -0.00000000000E+00 -0.00000000000E+00 -0.45593999997E+02  0.45594000000E+02  0.51100000000E-03 0. -1.
    9900012    2    1    2    0    0 -0.33640167728E+02  0.10842973910E+02  0.20098123281E+02  0.50528861699E+02  0.30000005619E+02 0.  0.
         12    1    1    2    0    0  0.33640167728E+02 -0.10842973910E+02 -0.20098123281E+02  0.40659138301E+02  0.00000000000E+00 0. -1.
         11    1    3    3    0    0  0.96669152713E+00  0.31548084226E+00 -0.15102774091E+00  0.10280225241E+01  0.51100000000E-03 0. -1.
        -11    1    3    3    0    0  0.32742314429E+01 -0.30599958038E+01  0.72738709674E-01  0.44821263974E+01  0.51100000000E-03 0.  1.
        -12    1    3    3    0    0 -0.37881090698E+02  0.13587488871E+02  0.20176412312E+02  0.45018712777E+02  0.00000000000E+00 0.  1.
</event>
<event>
 7    1  0.5121289E-013  0.5052886E+02  0.7816164E-02  0.1300439E+00
        -11   -1    0    0    0    0  0.00000000000E+00  0.00000000000E+00  0.45593999997E+02  0.45594000000E+02  0.51100000000E-03 0.  1.
         11   -1    0    0    0    0 -0.00000000000E+00 -0.00000000000E+00 -0.45593999997E+02  0.45594000000E+02  0.51100000000E-03 0. -1.
    9900012    2    1    2    0    0 -0.67084739898E+01 -0.38833645400E+02 -0.10005482697E+02  0.50528864220E+02  0.30000013284E+02 0.  0.
         12    1    1    2    0    0  0.67084739898E+01  0.38833645400E+02  0.10005482697E+02  0.40659135780E+02  0.00000000000E+00 0. -1.
         11    1    3    3    0    0 -0.17264528419E+01 -0.19128885972E+02 -0.45972421510E+01  0.19749165896E+02  0.51100000000E-03 0. -1.
        -11    1    3    3    0    0  0.49546240215E+01 -0.19752134909E+02 -0.36489661987E+01  0.20688404657E+02  0.51100000000E-03 0.  1.
         12    1    3    3    0    0 -0.99366451694E+01  0.47375480458E-01 -0.17592743471E+01  0.10091293668E+02  0.00000000000E+00 0. -1.
</event>
<event>
 7    1  0.5121289E-013  0.5052885E+02  0.7816164E-02  0.1300439E+00
        -11   -1    0    0    0    0  0.00000000000E+00  0.00000000000E+00  0.45593999997E+02  0.45594000000E+02  0.51100000000E-03 0.  1.
         11   -1    0    0    0    0 -0.00000000000E+00 -0.00000000000E+00 -0.45593999997E+02  0.45594000000E+02  0.51100000000E-03 0. -1.
    9900012    2    1    2    0    0  0.22386640070E+02  0.33858453309E+02 -0.23684800083E+01  0.50528853284E+02  0.29999980043E+02 0.  0.
         12    1    1    2    0    0 -0.22386640070E+02 -0.33858453309E+02  0.23684800083E+01  0.40659146716E+02  0.00000000000E+00 0. -1.
         11    1    3    3    0    0  0.83471631001E+01  0.17745772228E+01  0.48603917517E+01  0.98207771781E+01  0.51100000000E-03 0. -1.
        -11    1    3    3    0    0  0.35175759980E+01  0.94216628164E+01  0.67170859700E+01  0.12093813101E+02  0.51100000000E-03 0.  1.
         12    1    3    3    0    0  0.10521900972E+02  0.22662213269E+02 -0.13945957730E+02  0.28614263006E+02  0.00000000000E+00 0. -1.
</event>
<event>
 7    1  0.5121289E-013  0.5052886E+02  0.7816164E-02  0.1300439E+00
        -11   -1    0    0    0    0  0.00000000000E+00  0.00000000000E+00  0.45593999997E+02  0.45594000000E+02  0.51100000000E-03 0. -1.
         11   -1    0    0    0    0 -0.00000000000E+00 -0.00000000000E+00 -0.45593999997E+02  0.45594000000E+02  0.51100000000E-03 0.  1.
    9900012    2    1    2    0    0 -0.83980352210E+01  0.67946727042E+01 -0.39197846191E+02  0.50528859346E+02  0.29999998469E+02 0.  0.
         12    1    1    2    0    0  0.83980352210E+01 -0.67946727042E+01  0.39197846191E+02  0.40659140654E+02  0.00000000000E+00 0. -1.
         11    1    3    3    0    0 -0.61510783866E+01 -0.10826123771E+00 -0.22280868651E+02  0.23114596988E+02  0.51100000000E-03 0. -1.
        -11    1    3    3    0    0 -0.18389733341E+01  0.14135767403E+02 -0.12263112605E+02  0.18803873910E+02  0.51100000000E-03 0.  1.
         12    1    3    3    0    0 -0.40798350029E+00 -0.72328334608E+01 -0.46538649351E+01  0.86103884490E+01  0.00000000000E+00 0. -1.
</event>
<event>
 7    1  0.5121289E-013  0.5052886E+02  0.7816164E-02  0.1300439E+00
        -11   -1    0    0    0    0  0.00000000000E+00  0.00000000000E+00  0.45593999997E+02  0.45594000000E+02  0.51100000000E-03 0.  1.
         11   -1    0    0    0    0 -0.00000000000E+00 -0.00000000000E+00 -0.45593999997E+02  0.45594000000E+02  0.51100000000E-03 0. -1.
    9900012    2    1    2    0    0 -0.34612870210E+02 -0.70554472109E+01  0.20132948207E+02  0.50528859293E+02  0.29999998307E+02 0.  0.
         12    1    1    2    0    0  0.34612870210E+02  0.70554472109E+01 -0.20132948207E+02  0.40659140707E+02  0.00000000000E+00 0. -1.
         11    1    3    3    0    0  0.73228758981E+00 -0.12682868571E+01  0.89002273049E+01  0.90199136917E+01  0.51100000000E-03 0. -1.
        -11    1    3    3    0    0 -0.20345637289E+02 -0.93157498293E+01  0.13191716189E+02  0.25975941328E+02  0.51100000000E-03 0.  1.
        -12    1    3    3    0    0 -0.14999520511E+02  0.35285894755E+01 -0.19589952868E+01  0.15533004274E+02  0.00000000000E+00 0.  1.
</event>
<event>
 7    1  0.5121289E-013  0.5052881E+02  0.7816164E-02  0.1300439E+00
        -11   -1    0    0    0    0  0.00000000000E+00  0.00000000000E+00  0.45593999997E+02  0.45594000000E+02  0.51100000000E-03 0.  1.
         11   -1    0    0    0    0 -0.00000000000E+00 -0.00000000000E+00 -0.45593999997E+02  0.45594000000E+02  0.51100000000E-03 0. -1.
    9900012    2    1    2    0    0 -0.16296689959E+02  0.19591226006E+02  0.31682356979E+02  0.50528806897E+02  0.29999839043E+02 0.  0.
         12    1    1    2    0    0  0.16296689959E+02 -0.19591226006E+02 -0.31682356979E+02  0.40659193103E+02  0.00000000000E+00 0. -1.
         11    1    3    3    0    0 -0.20491388464E+01  0.54565706316E+01  0.12908363722E+02  0.14163297191E+02  0.51100000000E-03 0.  1.
        -11    1    3    3    0    0  0.60891194801E+01  0.54392219695E+01  0.90966298275E+01  0.12223386853E+02  0.51100000000E-03 0. -1.
        -12    1    3    3    0    0 -0.20336670593E+02  0.86954334045E+01  0.96773634293E+01  0.24142122853E+02  0.00000000000E+00 0.  1.
</event>
<event>
 7    1  0.5121289E-013  0.5052886E+02  0.7816164E-02  0.1300439E+00
        -11   -1    0    0    0    0  0.00000000000E+00  0.00000000000E+00  0.45593999997E+02  0.45594000000E+02  0.51100000000E-03 0. -1.
         11   -1    0    0    0    0 -0.00000000000E+00 -0.00000000000E+00 -0.45593999997E+02  0.45594000000E+02  0.51100000000E-03 0.  1.
    9900012    2    1    2    0    0  0.87541087601E+01  0.30611291699E+02 -0.25287940154E+02  0.50528861828E+02  0.30000006012E+02 0.  0.
         12    1    1    2    0    0 -0.87541087601E+01 -0.30611291699E+02  0.25287940154E+02  0.40659138172E+02  0.00000000000E+00 0. -1.
         11    1    3    3    0    0 -0.11116591781E+01 -0.57455978650E+00  0.39554009085E+01  0.41486264817E+01  0.51100000000E-03 0. -1.
        -11    1    3    3    0    0  0.88578900414E+01  0.62709540344E+01 -0.66275985867E+01  0.12716608973E+02  0.51100000000E-03 0.  1.
        -12    1    3    3    0    0  0.10078778968E+01  0.24914897451E+02 -0.22615742476E+02  0.33663626373E+02  0.00000000000E+00 0.  1.
</event>
<event>
 7    1  0.5121289E-013  0.5052886E+02  0.7816164E-02  0.1300439E+00
        -11   -1    0    0    0    0  0.00000000000E+00  0.00000000000E+00  0.45593999997E+02  0.45594000000E+02  0.51100000000E-03 0.  1.
         11   -1    0    0    0    0 -0.00000000000E+00 -0.00000000000E+00 -0.45593999997E+02  0.45594000000E+02  0.51100000000E-03 0. -1.
    9900012    2    1    2    0    0 -0.29529907955E+02 -0.15186682792E+02  0.23463050164E+02  0.50528861777E+02  0.30000005857E+02 0.  0.
         12    1    1    2    0    0  0.29529907955E+02  0.15186682792E+02 -0.23463050164E+02  0.40659138223E+02  0.00000000000E+00 0. -1.
         11    1    3    3    0    0  0.91563676118E+00  0.20154184439E+00  0.19940107747E+01  0.22034266551E+01  0.51100000000E-03 0. -1.
        -11    1    3    3    0    0 -0.77871719458E+01 -0.17484016332E+02  0.15940324682E+02  0.24908328431E+02  0.51100000000E-03 0.  1.
        -12    1    3    3    0    0 -0.22658372771E+02  0.20957916960E+01  0.55287147074E+01  0.23417106691E+02  0.00000000000E+00 0.  1.
</event>
<event>
 7    1  0.5121289E-013  0.5052886E+02  0.7816164E-02  0.1300439E+00
        -11   -1    0    0    0    0  0.00000000000E+00  0.00000000000E+00  0.45593999997E+02  0.45594000000E+02  0.51100000000E-03 0.  1.
         11   -1    0    0    0    0 -0.00000000000E+00 -0.00000000000E+00 -0.45593999997E+02  0.45594000000E+02  0.51100000000E-03 0. -1.
    9900012    2    1    2    0    0 -0.75497202509E+01 -0.22586231465E+02  0.32954960263E+02  0.50528861623E+02  0.30000005388E+02 0.  0.
         12    1    1    2    0    0  0.75497202509E+01  0.22586231465E+02 -0.32954960263E+02  0.40659138377E+02  0.00000000000E+00 0. -1.
         11    1    3    3    0    0  0.54251514528E+01 -0.16257176334E+02  0.15483236123E+02  0.23096723832E+02  0.51100000000E-03 0. -1.
        -11    1    3    3    0    0 -0.32903292918E+00  0.82031694006E+00  0.11806686691E+02  0.11839722692E+02  0.51100000000E-03 0.  1.
         12    1    3    3    0    0 -0.12645838775E+02 -0.71493720704E+01  0.56650374497E+01  0.15592415099E+02  0.00000000000E+00 0. -1.
</event>
<event>
 7    1  0.5121289E-013  0.5052886E+02  0.7816164E-02  0.1300439E+00
        -11   -1    0    0    0    0  0.00000000000E+00  0.00000000000E+00  0.45593999997E+02  0.45594000000E+02  0.51100000000E-03 0.  1.
         11   -1    0    0    0    0 -0.00000000000E+00 -0.00000000000E+00 -0.45593999997E+02  0.45594000000E+02  0.51100000000E-03 0. -1.
    9900012    2    1    2    0    0  0.38821050342E+02 -0.11521151983E+02  0.36544581326E+01  0.50528856417E+02  0.29999989565E+02 0.  0.
         12    1    1    2    0    0 -0.38821050342E+02  0.11521151983E+02 -0.36544581326E+01  0.40659143583E+02  0.00000000000E+00 0. -1.
         11    1    3    3    0    0  0.21372941283E+01  0.50378902881E+01  0.41453426528E+01  0.68652917430E+01  0.51100000000E-03 0. -1.
        -11    1    3    3    0    0  0.24682145780E+02 -0.43611559292E+01  0.52607861822E+01  0.25610620314E+02  0.51100000000E-03 0.  1.
        -12    1    3    3    0    0  0.12001610434E+02 -0.12197886342E+02 -0.57516707023E+01  0.18052944360E+02  0.00000000000E+00 0.  1.
</event>
<event>
 7    1  0.5121289E-013  0.5052886E+02  0.7816164E-02  0.1300439E+00
        -11   -1    0    0    0    0  0.00000000000E+00  0.00000000000E+00  0.45593999997E+02  0.45594000000E+02  0.51100000000E-03 0.  1.
         11   -1    0    0    0    0 -0.00000000000E+00 -0.00000000000E+00 -0.45593999997E+02  0.45594000000E+02  0.51100000000E-03 0. -1.
    9900012    2    1    2    0    0  0.20125331305E+02  0.41019275996E+01  0.35090035426E+02  0.50528863802E+02  0.30000012013E+02 0.  0.
         12    1    1    2    0    0 -0.20125331305E+02 -0.41019275996E+01 -0.35090035426E+02  0.40659136198E+02  0.00000000000E+00 0. -1.
         11    1    3    3    0    0 -0.28517906809E+01  0.33585898306E+01 -0.11679970236E+01  0.45581852800E+01  0.51100000000E-03 0. -1.
        -11    1    3    3    0    0  0.37270233241E+01 -0.55190872593E+01  0.16006448089E+02  0.17336591583E+02  0.51100000000E-03 0.  1.
        -12    1    3    3    0    0  0.19250098662E+02  0.62624250282E+01  0.20251584360E+02  0.28634086939E+02  0.00000000000E+00 0.  1.
</event>
<event>
 7    1  0.5121289E-013  0.5052877E+02  0.7816164E-02  0.1300439E+00
        -11   -1    0    0    0    0  0.00000000000E+00  0.00000000000E+00  0.45593999997E+02  0.45594000000E+02  0.51100000000E-03 0.  1.
         11   -1    0    0    0    0 -0.00000000000E+00 -0.00000000000E+00 -0.45593999997E+02  0.45594000000E+02  0.51100000000E-03 0. -1.
    9900012    2    1    2    0    0  0.26145465448E+02  0.25689455442E+02  0.17596571683E+02  0.50528772026E+02  0.29999733050E+02 0.  0.
         12    1    1    2    0    0 -0.26145465448E+02 -0.25689455442E+02 -0.17596571683E+02  0.40659227974E+02  0.00000000000E+00 0. -1.
         11    1    3    3    0    0 -0.22898567058E+01 -0.10819558708E+01  0.42525431629E+01  0.49495652186E+01  0.51100000000E-03 0. -1.
        -11    1    3    3    0    0  0.38334278565E+01 -0.26353609654E+01 -0.78555702713E+00  0.47177745445E+01  0.51100000000E-03 0.  1.
        -12    1    3    3    0    0  0.24601894297E+02  0.29406772279E+02  0.14129585547E+02  0.40861432263E+02  0.00000000000E+00 0.  1.
</event>
<event>
 7    1  0.5121289E-013  0.5052886E+02  0.7816164E-02  0.1300439E+00
        -11   -1    0    0    0    0  0.00000000000E+00  0.00000000000E+00  0.45593999997E+02  0.45594000000E+02  0.51100000000E-03 0.  1.
         11   -1    0    0    0    0 -0.00000000000E+00 -0.00000000000E+00 -0.45593999997E+02  0.45594000000E+02  0.51100000000E-03 0. -1.
    9900012    2    1    2    0    0 -0.13428235390E+01  0.13519432097E+02  0.38322157171E+02  0.50528856508E+02  0.29999989842E+02 0.  0.
         12    1    1    2    0    0  0.13428235390E+01 -0.13519432097E+02 -0.38322157171E+02  0.40659143492E+02  0.00000000000E+00 0. -1.
         11    1    3    3    0    0 -0.45123883648E+00  0.15445569854E+02  0.18771866331E+02  0.24313621910E+02  0.51100000000E-03 0. -1.
        -11    1    3    3    0    0  0.42219047650E+01  0.47260785930E+01  0.15802420332E+02  0.17025768333E+02  0.51100000000E-03 0.  1.
         12    1    3    3    0    0 -0.51134894676E+01 -0.66522163494E+01  0.37478705085E+01  0.91894662654E+01  0.00000000000E+00 0. -1.
</event>
<event>
 7    1  0.5121289E-013  0.5052886E+02  0.7816164E-02  0.1300439E+00
        -11   -1    0    0    0    0  0.00000000000E+00  0.00000000000E+00  0.45593999997E+02  0.45594000000E+02  0.51100000000E-03 0. -1.
         11   -1    0    0    0    0 -0.00000000000E+00 -0.00000000000E+00 -0.45593999997E+02  0.45594000000E+02  0.51100000000E-03 0.  1.
    9900012    2    1    2    0    0 -0.70055188252E+01  0.37631635754E+02 -0.13709424381E+02  0.50528860555E+02  0.30000002143E+02 0.  0.
         12    1    1    2    0    0  0.70055188252E+01 -0.37631635754E+02  0.13709424381E+02  0.40659139445E+02  0.00000000000E+00 0. -1.
         11    1    3    3    0    0 -0.95849456784E+01  0.19826441226E+02 -0.16226399598E+02  0.27354250118E+02  0.51100000000E-03 0. -1.
        -11    1    3    3    0    0  0.19212908335E+01  0.11735682999E+02 -0.54963026482E+01  0.13100647197E+02  0.51100000000E-03 0.  1.
         12    1    3    3    0    0  0.65813601964E+00  0.60695115291E+01  0.80132778651E+01  0.10073963240E+02  0.00000000000E+00 0. -1.
</event>
<event>
 7    1  0.5121289E-013  0.5052886E+02  0.7816164E-02  0.1300439E+00
        -11   -1    0    0    0    0  0.00000000000E+00  0.00000000000E+00  0.45593999997E+02  0.45594000000E+02  0.51100000000E-03 0. -1.
         11   -1    0    0    0    0 -0.00000000000E+00 -0.00000000000E+00 -0.45593999997E+02  0.45594000000E+02  0.51100000000E-03 0.  1.
    9900012    2    1    2    0    0  0.12066516303E+02 -0.12742373312E+02 -0.36676928680E+02  0.50528856001E+02  0.29999988301E+02 0.  0.
         12    1    1    2    0    0 -0.12066516303E+02  0.12742373312E+02  0.36676928680E+02  0.40659143999E+02  0.00000000000E+00 0. -1.
         11    1    3    3    0    0 -0.16453593105E+01  0.20317600966E+01 -0.23961295930E+01  0.35463634386E+01  0.51100000000E-03 0. -1.
        -11    1    3    3    0    0  0.94951013507E+00  0.85853246008E+00 -0.24541093315E+02  0.24574456430E+02  0.51100000000E-03 0.  1.
         12    1    3    3    0    0  0.12762365479E+02 -0.15632665869E+02 -0.97397057719E+01  0.22408036132E+02  0.00000000000E+00 0. -1.
</event>
<event>
 7    1  0.5121289E-013  0.5052886E+02  0.7816164E-02  0.1300439E+00
        -11   -1    0    0    0    0  0.00000000000E+00  0.00000000000E+00  0.45593999997E+02  0.45594000000E+02  0.51100000000E-03 0. -1.
         11   -1    0    0    0    0 -0.00000000000E+00 -0.00000000000E+00 -0.45593999997E+02  0.45594000000E+02  0.51100000000E-03 0.  1.
    9900012    2    1    2    0    0 -0.39454004886E+01  0.40454611665E+02 -0.10120056761E+01  0.50528856557E+02  0.29999989991E+02 0.  0.
         12    1    1    2    0    0  0.39454004886E+01 -0.40454611665E+02  0.10120056761E+01  0.40659143443E+02  0.00000000000E+00 0. -1.
         11    1    3    3    0    0  0.73811351796E+01  0.17139737904E+02 -0.92150191120E+00  0.18684243041E+02  0.51100000000E-03 0. -1.
        -11    1    3    3    0    0  0.27628191332E+01  0.14070153448E+02  0.31588012466E+01  0.14682656884E+02  0.51100000000E-03 0.  1.
        -12    1    3    3    0    0 -0.14089354801E+02  0.92447203134E+01 -0.32493050115E+01  0.17161956632E+02  0.00000000000E+00 0.  1.
</event>
<event>
 7    1  0.5121289E-013  0.5052888E+02  0.7816164E-02  0.1300439E+00
        -11   -1    0    0    0    0  0.00000000000E+00  0.00000000000E+00  0.45593999997E+02  0.45594000000E+02  0.51100000000E-03 0.  1.
         11   -1    0    0    0    0 -0.00000000000E+00 -0.00000000000E+00 -0.45593999997E+02  0.45594000000E+02  0.51100000000E-03 0. -1.
    9900012    2    1    2    0    0  0.45360341987E+01  0.86200575394E+01  0.39475090273E+02  0.50528883553E+02  0.30000072047E+02 0.  0.
         12    1    1    2    0    0 -0.45360341987E+01 -0.86200575394E+01 -0.39475090273E+02  0.40659116447E+02  0.00000000000E+00 0. -1.
         11    1    3    3    0    0  0.10017135683E+02  0.30728643847E+00  0.44771577421E+01  0.10976446327E+02  0.51100000000E-03 0.  1.
        -11    1    3    3    0    0 -0.20869965906E+01  0.10882920616E+02  0.12713456939E+02  0.16864919316E+02  0.51100000000E-03 0. -1.
        -12    1    3    3    0    0 -0.33941048942E+01 -0.25701495154E+01  0.22284475591E+02  0.22687517910E+02  0.00000000000E+00 0.  1.
</event>
<event>
 7    1  0.5121289E-013  0.5052887E+02  0.7816164E-02  0.1300439E+00
        -11   -1    0    0    0    0  0.00000000000E+00  0.00000000000E+00  0.45593999997E+02  0.45594000000E+02  0.51100000000E-03 0.  1.
         11   -1    0    0    0    0 -0.00000000000E+00 -0.00000000000E+00 -0.45593999997E+02  0.45594000000E+02  0.51100000000E-03 0. -1.
    9900012    2    1    2    0    0  0.89116226889E+01 -0.36195616822E+02  0.16236546856E+02  0.50528866341E+02  0.30000019731E+02 0.  0.
         12    1    1    2    0    0 -0.89116226889E+01  0.36195616822E+02 -0.16236546856E+02  0.40659133659E+02  0.00000000000E+00 0. -1.
         11    1    3    3    0    0  0.62237412320E+01 -0.22482933438E+02  0.27784299919E+01  0.23493337873E+02  0.51100000000E-03 0. -1.
        -11    1    3    3    0    0  0.10319468028E+02 -0.10212746135E+02  0.56791671797E+01  0.15589885956E+02  0.51100000000E-03 0.  1.
         12    1    3    3    0    0 -0.76315865711E+01 -0.34999372485E+01  0.77789496840E+01  0.11445642512E+02  0.00000000000E+00 0. -1.
</event>
<event>
 7    1  0.5121289E-013  0.5052887E+02  0.7816164E-02  0.1300439E+00
        -11   -1    0    0    0    0  0.00000000000E+00  0.00000000000E+00  0.45593999997E+02  0.45594000000E+02  0.51100000000E-03 0.  1.
         11   -1    0    0    0    0 -0.00000000000E+00 -0.00000000000E+00 -0.45593999997E+02  0.45594000000E+02  0.51100000000E-03 0. -1.
    9900012    2    1    2    0    0  0.15553738803E+02 -0.27496680520E+02  0.25596459182E+02  0.50528868762E+02  0.30000027089E+02 0.  0.
         12    1    1    2    0    0 -0.15553738803E+02  0.27496680520E+02 -0.25596459182E+02  0.40659131238E+02  0.00000000000E+00 0. -1.
         11    1    3    3    0    0 -0.15774476948E+00  0.52245063621E+00 -0.90262840953E+00  0.10547873655E+01  0.51100000000E-03 0. -1.
        -11    1    3    3    0    0 -0.47916994122E+01 -0.77516158487E+01  0.16699765692E+02  0.19024460727E+02  0.51100000000E-03 0.  1.
        -12    1    3    3    0    0  0.20503182985E+02 -0.20267515308E+02  0.97993219000E+01  0.30449620670E+02  0.00000000000E+00 0.  1.
</event>
<event>
 7    1  0.5121289E-013  0.5052886E+02  0.7816164E-02  0.1300439E+00
        -11   -1    0    0    0    0  0.00000000000E+00  0.00000000000E+00  0.45593999997E+02  0.45594000000E+02  0.51100000000E-03 0. -1.
         11   -1    0    0    0    0 -0.00000000000E+00 -0.00000000000E+00 -0.45593999997E+02  0.45594000000E+02  0.51100000000E-03 0.  1.
    9900012    2    1    2    0    0 -0.70064075155E+01  0.31889023480E+02  0.24231511221E+02  0.50528859566E+02  0.29999999137E+02 0.  0.
         12    1    1    2    0    0  0.70064075155E+01 -0.31889023480E+02 -0.24231511221E+02  0.40659140434E+02  0.00000000000E+00 0. -1.
         11    1    3    3    0    0  0.30563249167E+01  0.18399959858E+02  0.65206954946E+00  0.18663462694E+02  0.51100000000E-03 0. -1.
        -11    1    3    3    0    0 -0.17039190428E+01  0.85358935638E+01  0.31741978347E+01  0.92650068101E+01  0.51100000000E-03 0.  1.
         12    1    3    3    0    0 -0.83588133893E+01  0.49531700583E+01  0.20405243837E+02  0.22600390062E+02  0.00000000000E+00 0. -1.
</event>
<event>
 7    1  0.5121289E-013  0.5052883E+02  0.7816164E-02  0.1300439E+00
        -11   -1    0    0    0    0  0.00000000000E+00  0.00000000000E+00  0.45593999997E+02  0.45594000000E+02  0.51100000000E-03 0. -1.
         11   -1    0    0    0    0 -0.00000000000E+00 -0.00000000000E+00 -0.45593999997E+02  0.45594000000E+02  0.51100000000E-03 0.  1.
    9900012    2    1    2    0    0 -0.72005964519E+01  0.23148843367E+02 -0.32641235497E+02  0.50528833834E+02  0.29999920922E+02 0.  0.
         12    1    1    2    0    0  0.72005964519E+01 -0.23148843367E+02  0.32641235497E+02  0.40659166166E+02  0.00000000000E+00 0. -1.
         11    1    3    3    0    0 -0.72634693529E+00  0.13706460881E+02 -0.11716945201E+02  0.18046646637E+02  0.51100000000E-03 0. -1.
        -11    1    3    3    0    0 -0.69894339633E+01  0.12512668087E+02 -0.34621193153E+01  0.14744670909E+02  0.51100000000E-03 0.  1.
         12    1    3    3    0    0  0.51518444662E+00 -0.30702856007E+01 -0.17462170982E+02  0.17737516288E+02  0.00000000000E+00 0. -1.
</event>
<event>
 7    1  0.5121289E-013  0.5052886E+02  0.7816164E-02  0.1300439E+00
        -11   -1    0    0    0    0  0.00000000000E+00  0.00000000000E+00  0.45593999997E+02  0.45594000000E+02  0.51100000000E-03 0.  1.
         11   -1    0    0    0    0 -0.00000000000E+00 -0.00000000000E+00 -0.45593999997E+02  0.45594000000E+02  0.51100000000E-03 0. -1.
    9900012    2    1    2    0    0  0.11542902756E+02  0.97344066842E+01  0.37751401744E+02  0.50528860668E+02  0.30000002488E+02 0.  0.
         12    1    1    2    0    0 -0.11542902756E+02 -0.97344066842E+01 -0.37751401744E+02  0.40659139332E+02  0.00000000000E+00 0. -1.
         11    1    3    3    0    0  0.43883536732E+01 -0.16522850857E+01  0.73697800629E+01  0.87350645334E+01  0.51100000000E-03 0. -1.
        -11    1    3    3    0    0  0.16213211304E+02  0.33456788674E+01  0.16560216942E+02  0.23415861575E+02  0.51100000000E-03 0.  1.
         12    1    3    3    0    0 -0.90586622208E+01  0.80410129025E+01  0.13821404739E+02  0.18377934560E+02  0.00000000000E+00 0. -1.
</event>
<event>
 7    1  0.5121289E-013  0.5052889E+02  0.7816164E-02  0.1300439E+00
        -11   -1    0    0    0    0  0.00000000000E+00  0.00000000000E+00  0.45593999997E+02  0.45594000000E+02  0.51100000000E-03 0. -1.
         11   -1    0    0    0    0 -0.00000000000E+00 -0.00000000000E+00 -0.45593999997E+02  0.45594000000E+02  0.51100000000E-03 0.  1.
    9900012    2    1    2    0    0 -0.95019288357E+01 -0.38169057607E+02 -0.10295628821E+02  0.50528885609E+02  0.30000078297E+02 0.  0.
         12    1    1    2    0    0  0.95019288357E+01  0.38169057607E+02  0.10295628821E+02  0.40659114391E+02  0.00000000000E+00 0. -1.
         11    1    3    3    0    0 -0.69324368282E+01 -0.23500617684E+02 -0.28015094675E+01  0.24661430767E+02  0.51100000000E-03 0. -1.
        -11    1    3    3    0    0  0.37865128088E+01 -0.91271409854E+01  0.47792518060E+01  0.10976503537E+02  0.51100000000E-03 0.  1.
         12    1    3    3    0    0 -0.63560048164E+01 -0.55412989379E+01 -0.12273371159E+02  0.14890951305E+02  0.00000000000E+00 0. -1.
</event>
<event>
 7    1  0.5121289E-013  0.5052886E+02  0.7816164E-02  0.1300439E+00
        -11   -1    0    0    0    0  0.00000000000E+00  0.00000000000E+00  0.45593999997E+02  0.45594000000E+02  0.51100000000E-03 0.  1.
         11   -1    0    0    0    0 -0.00000000000E+00 -0.00000000000E+00 -0.45593999997E+02  0.45594000000E+02  0.51100000000E-03 0. -1.
    9900012    2    1    2    0    0  0.21306174224E+02 -0.24210766642E+02  0.24759878422E+02  0.50528857598E+02  0.29999993154E+02 0.  0.
         12    1    1    2    0    0 -0.21306174224E+02  0.24210766642E+02 -0.24759878422E+02  0.40659142402E+02  0.00000000000E+00 0. -1.
         11    1    3    3    0    0  0.11390490439E+02 -0.16746371267E+02  0.64481367476E+01  0.21254709850E+02  0.51100000000E-03 0. -1.
        -11    1    3    3    0    0  0.66706162255E+01 -0.14004637760E+02  0.11784826044E+02  0.19480993937E+02  0.51100000000E-03 0.  1.
         12    1    3    3    0    0  0.32450675598E+01  0.65402423848E+01  0.65269156298E+01  0.97931538106E+01  0.00000000000E+00 0. -1.
</event>
<event>
 7    1  0.5121289E-013  0.5052887E+02  0.7816164E-02  0.1300439E+00
        -11   -1    0    0    0    0  0.00000000000E+00  0.00000000000E+00  0.45593999997E+02  0.45594000000E+02  0.51100000000E-03 0. -1.
         11   -1    0    0    0    0 -0.00000000000E+00 -0.00000000000E+00 -0.45593999997E+02  0.45594000000E+02  0.51100000000E-03 0.  1.
    9900012    2    1    2    0    0 -0.28886510910E+02  0.62691084682E+01 -0.27918322158E+02  0.50528868853E+02  0.30000027365E+02 0.  0.
         12    1    1    2    0    0  0.28886510910E+02 -0.62691084682E+01  0.27918322158E+02  0.40659131147E+02  0.00000000000E+00 0. -1.
         11    1    3    3    0    0 -0.15306175999E+02 -0.59239851686E+01 -0.31639423932E+01  0.16714758620E+02  0.51100000000E-03 0. -1.
        -11    1    3    3    0    0 -0.14887958265E+02  0.49752552029E+01 -0.17100444051E+02  0.23212704552E+02  0.51100000000E-03 0.  1.
        -12    1    3    3    0    0  0.13076233544E+01  0.72178384339E+01 -0.76539357140E+01  0.10601405681E+02  0.00000000000E+00 0.  1.
</event>
<event>
 7    1  0.5121289E-013  0.5052886E+02  0.7816164E-02  0.1300439E+00
        -11   -1    0    0    0    0  0.00000000000E+00  0.00000000000E+00  0.45593999997E+02  0.45594000000E+02  0.51100000000E-03 0.  1.
         11   -1    0    0    0    0 -0.00000000000E+00 -0.00000000000E+00 -0.45593999997E+02  0.45594000000E+02  0.51100000000E-03 0. -1.
    9900012    2    1    2    0    0  0.27409887308E+02 -0.31139663067E+01  0.29869161391E+02  0.50528861906E+02  0.30000006249E+02 0.  0.
         12    1    1    2    0    0 -0.27409887308E+02  0.31139663067E+01 -0.29869161391E+02  0.40659138094E+02  0.00000000000E+00 0. -1.
         11    1    3    3    0    0  0.32950993468E+01 -0.21951950297E+01  0.10294344361E+02  0.11029509826E+02  0.51100000000E-03 0. -1.
        -11    1    3    3    0    0  0.19115859438E+02 -0.96469038294E+01  0.20179841703E+02  0.29422862657E+02  0.51100000000E-03 0.  1.
        -12    1    3    3    0    0  0.49989285226E+01  0.87281325523E+01 -0.60502467228E+00  0.10076489422E+02  0.00000000000E+00 0.  1.
</event>
<event>
 7    1  0.5121289E-013  0.5052886E+02  0.7816164E-02  0.1300439E+00
        -11   -1    0    0    0    0  0.00000000000E+00  0.00000000000E+00  0.45593999997E+02  0.45594000000E+02  0.51100000000E-03 0. -1.
         11   -1    0    0    0    0 -0.00000000000E+00 -0.00000000000E+00 -0.45593999997E+02  0.45594000000E+02  0.51100000000E-03 0.  1.
    9900012    2    1    2    0    0  0.37868320981E+02  0.93536952177E+01  0.11474517688E+02  0.50528857064E+02  0.29999991530E+02 0.  0.
         12    1    1    2    0    0 -0.37868320981E+02 -0.93536952177E+01 -0.11474517688E+02  0.40659142936E+02  0.00000000000E+00 0. -1.
         11    1    3    3    0    0  0.24892438627E+01 -0.60563560480E+00  0.28730699372E+01  0.38493714577E+01  0.51100000000E-03 0. -1.
        -11    1    3    3    0    0  0.17223101261E+02 -0.36942276697E+01 -0.71766730206E+01  0.19020703747E+02  0.51100000000E-03 0.  1.
        -12    1    3    3    0    0  0.18155975857E+02  0.13653558492E+02  0.15778120772E+02  0.27658781859E+02  0.00000000000E+00 0.  1.
</event>
<event>
 7    1  0.5121289E-013  0.5052886E+02  0.7816164E-02  0.1300439E+00
        -11   -1    0    0    0    0  0.00000000000E+00  0.00000000000E+00  0.45593999997E+02  0.45594000000E+02  0.51100000000E-03 0. -1.
         11   -1    0    0    0    0 -0.00000000000E+00 -0.00000000000E+00 -0.45593999997E+02  0.45594000000E+02  0.51100000000E-03 0.  1.
    9900012    2    1    2    0    0  0.31380520006E+02 -0.18636891129E+01 -0.25786733976E+02  0.50528855615E+02  0.29999987129E+02 0.  0.
         12    1    1    2    0    0 -0.31380520006E+02  0.18636891129E+01  0.25786733976E+02  0.40659144385E+02  0.00000000000E+00 0. -1.
         11    1    3    3    0    0 -0.24968013147E+01 -0.37439338347E+00 -0.24736777612E+01  0.35345818901E+01  0.51100000000E-03 0. -1.
        -11    1    3    3    0    0  0.64739169834E+01 -0.56820064398E+01 -0.16241426108E+02  0.18384251972E+02  0.51100000000E-03 0.  1.
         12    1    3    3    0    0  0.27403404337E+02  0.41927107103E+01 -0.70716301068E+01  0.28610021753E+02  0.00000000000E+00 0. -1.
</event>
<event>
 7    1  0.5121289E-013  0.5052887E+02  0.7816164E-02  0.1300439E+00
        -11   -1    0    0    0    0  0.00000000000E+00  0.00000000000E+00  0.45593999997E+02  0.45594000000E+02  0.51100000000E-03 0.  1.
         11   -1    0    0    0    0 -0.00000000000E+00 -0.00000000000E+00 -0.45593999997E+02  0.45594000000E+02  0.51100000000E-03 0. -1.
    9900012    2    1    2    0    0 -0.17847793464E+02 -0.33898260287E+02  0.13620919239E+02  0.50528865443E+02  0.30000017001E+02 0.  0.
         12    1    1    2    0    0  0.17847793464E+02  0.33898260287E+02 -0.13620919239E+02  0.40659134557E+02  0.00000000000E+00 0. -1.
         11    1    3    3    0    0  0.85081382160E+00  0.48375732551E+00  0.61742557215E+00  0.11572034857E+01  0.51100000000E-03 0. -1.
        -11    1    3    3    0    0  0.34251099386E+01  0.27465865224E+01  0.15943160797E+01  0.46708628367E+01  0.51100000000E-03 0.  1.
         12    1    3    3    0    0 -0.22123717225E+02 -0.37128604135E+02  0.11409177587E+02  0.44700799121E+02  0.00000000000E+00 0. -1.
</event>
<event>
 7    1  0.5121289E-013  0.5052883E+02  0.7816164E-02  0.1300439E+00
        -11   -1    0    0    0    0  0.00000000000E+00  0.00000000000E+00  0.45593999997E+02  0.45594000000E+02  0.51100000000E-03 0.  1.
         11   -1    0    0    0    0 -0.00000000000E+00 -0.00000000000E+00 -0.45593999997E+02  0.45594000000E+02  0.51100000000E-03 0. -1.
    9900012    2    1    2    0    0 -0.22396363278E+02  0.85527768343E+00  0.33924020136E+02  0.50528834610E+02  0.29999923282E+02 0.  0.
         12    1    1    2    0    0  0.22396363278E+02 -0.85527768343E+00 -0.33924020136E+02  0.40659165390E+02  0.00000000000E+00 0. -1.
         11    1    3    3    0    0  0.78973762718E+00 -0.30903510269E+01  0.79317234602E+01  0.85490462801E+01  0.51100000000E-03 0. -1.
        -11    1    3    3    0    0 -0.13862915204E+00 -0.40243007283E+01 -0.22925661154E+01  0.46335811257E+01  0.51100000000E-03 0.  1.
        -12    1    3    3    0    0 -0.23047471753E+02  0.79699294386E+01  0.28284862791E+02  0.37346207205E+02  0.00000000000E+00 0.  1.
</event>
<event>
 7    1  0.5121289E-013  0.5052886E+02  0.7816164E-02  0.1300439E+00
        -11   -1    0    0    0    0  0.00000000000E+00  0.00000000000E+00  0.45593999997E+02  0.45594000000E+02  0.51100000000E-03 0.  1.
         11   -1    0    0    0    0 -0.00000000000E+00 -0.00000000000E+00 -0.45593999997E+02  0.45594000000E+02  0.51100000000E-03 0. -1.
    9900012    2    1    2    0    0 -0.21371752158E+01  0.72240836663E+00  0.40596505407E+02  0.50528860277E+02  0.30000001299E+02 0.  0.
         12    1    1    2    0    0  0.21371752158E+01 -0.72240836663E+00 -0.40596505407E+02  0.40659139723E+02  0.00000000000E+00 0. -1.
         11    1    3    3    0    0 -0.12580465362E+00 -0.46742657957E+01  0.23776853233E+02  0.24232278833E+02  0.51100000000E-03 0. -1.
        -11    1    3    3    0    0  0.83191168897E+01 -0.49730714945E-01  0.89200210321E+01  0.12197415892E+02  0.51100000000E-03 0.  1.
         12    1    3    3    0    0 -0.10330487452E+02  0.54464048772E+01  0.78996311421E+01  0.14099165552E+02  0.00000000000E+00 0. -1.
</event>
<event>
 7    1  0.5121289E-013  0.5052887E+02  0.7816164E-02  0.1300439E+00
        -11   -1    0    0    0    0  0.00000000000E+00  0.00000000000E+00  0.45593999997E+02  0.45594000000E+02  0.51100000000E-03 0.  1.
         11   -1    0    0    0    0 -0.00000000000E+00 -0.00000000000E+00 -0.45593999997E+02  0.45594000000E+02  0.51100000000E-03 0. -1.
    9900012    2    1    2    0    0  0.32359769656E+01  0.38508156725E+02  0.12641816961E+02  0.50528865512E+02  0.30000017209E+02 0.  0.
         12    1    1    2    0    0 -0.32359769656E+01 -0.38508156725E+02 -0.12641816961E+02  0.40659134488E+02  0.00000000000E+00 0. -1.
         11    1    3    3    0    0  0.46547837903E+01  0.23934916896E+02  0.18042224197E+02  0.30332641052E+02  0.51100000000E-03 0.  1.
        -11    1    3    3    0    0  0.38623283675E+01  0.26237201530E+01  0.21132640736E+01  0.51251705499E+01  0.51100000000E-03 0. -1.
         12    1    3    3    0    0 -0.52811351921E+01  0.11949519676E+02 -0.75136713096E+01  0.15071053910E+02  0.00000000000E+00 0. -1.
</event>
<event>
 7    1  0.5121289E-013  0.5052887E+02  0.7816164E-02  0.1300439E+00
        -11   -1    0    0    0    0  0.00000000000E+00  0.00000000000E+00  0.45593999997E+02  0.45594000000E+02  0.51100000000E-03 0.  1.
         11   -1    0    0    0    0 -0.00000000000E+00 -0.00000000000E+00 -0.45593999997E+02  0.45594000000E+02  0.51100000000E-03 0. -1.
    9900012    2    1    2    0    0  0.23526736643E+02 -0.23207051715E+02  0.23687350938E+02  0.50528865961E+02  0.30000018575E+02 0.  0.
         12    1    1    2    0    0 -0.23526736643E+02  0.23207051715E+02 -0.23687350938E+02  0.40659134039E+02  0.00000000000E+00 0. -1.
         11    1    3    3    0    0 -0.12787575863E+01 -0.24219205959E+01 -0.61112658303E+00  0.28061354741E+01  0.51100000000E-03 0. -1.
        -11    1    3    3    0    0  0.11440072077E+01  0.14683632299E+01 -0.41472630115E+01  0.45458369762E+01  0.51100000000E-03 0.  1.
        -12    1    3    3    0    0  0.23661487021E+02 -0.22253494349E+02  0.28445740533E+02  0.43176893511E+02  0.00000000000E+00 0.  1.
</event>
<event>
 7    1  0.5121289E-013  0.5052885E+02  0.7816164E-02  0.1300439E+00
        -11   -1    0    0    0    0  0.00000000000E+00  0.00000000000E+00  0.45593999997E+02  0.45594000000E+02  0.51100000000E-03 0.  1.
         11   -1    0    0    0    0 -0.00000000000E+00 -0.00000000000E+00 -0.45593999997E+02  0.45594000000E+02  0.51100000000E-03 0. -1.
    9900012    2    1    2    0    0 -0.20732542576E+02 -0.14390719212E+02  0.31878440254E+02  0.50528854975E+02  0.29999985183E+02 0.  0.
         12    1    1    2    0    0  0.20732542576E+02  0.14390719212E+02 -0.31878440254E+02  0.40659145025E+02  0.00000000000E+00 0. -1.
         11    1    3    3    0    0 -0.10311098049E+02  0.34207264661E+01  0.18816257751E+02  0.21727210326E+02  0.51100000000E-03 0. -1.
        -11    1    3    3    0    0 -0.57986268429E+01 -0.13940668950E+02  0.16081454780E+02  0.22058547372E+02  0.51100000000E-03 0.  1.
        -12    1    3    3    0    0 -0.46228176838E+01 -0.38707767274E+01 -0.30192722768E+01  0.67430972774E+01  0.00000000000E+00 0.  1.
</event>
<event>
 7    1  0.5121289E-013  0.5052886E+02  0.7816164E-02  0.1300439E+00
        -11   -1    0    0    0    0  0.00000000000E+00  0.00000000000E+00  0.45593999997E+02  0.45594000000E+02  0.51100000000E-03 0. -1.
         11   -1    0    0    0    0 -0.00000000000E+00 -0.00000000000E+00 -0.45593999997E+02  0.45594000000E+02  0.51100000000E-03 0.  1.
    9900012    2    1    2    0    0 -0.68389633561E+01  0.32137576755E+02 -0.23949326176E+02  0.50528862235E+02  0.30000007251E+02 0.  0.
         12    1    1    2    0    0  0.68389633561E+01 -0.32137576755E+02  0.23949326176E+02  0.40659137765E+02  0.00000000000E+00 0. -1.
         11    1    3    3    0    0  0.38728135165E+01 -0.39456569980E+01 -0.44172198070E+01  0.70766323039E+01  0.51100000000E-03 0. -1.
        -11    1    3    3    0    0 -0.26381604833E+01  0.10175329997E+01 -0.12601552315E+01  0.30956833833E+01  0.51100000000E-03 0.  1.
         12    1    3    3    0    0 -0.80736163893E+01  0.35065700754E+02 -0.18271951137E+02  0.40356546548E+02  0.00000000000E+00 0. -1.
</event>
<event>
 7    1  0.5121289E-013  0.5052886E+02  0.7816164E-02  0.1300439E+00
        -11   -1    0    0    0    0  0.00000000000E+00  0.00000000000E+00  0.45593999997E+02  0.45594000000E+02  0.51100000000E-03 0.  1.
         11   -1    0    0    0    0 -0.00000000000E+00 -0.00000000000E+00 -0.45593999997E+02  0.45594000000E+02  0.51100000000E-03 0. -1.
    9900012    2    1    2    0    0 -0.25631038962E+01  0.37574465766E+01  0.40403934476E+02  0.50528858008E+02  0.29999994402E+02 0.  0.
         12    1    1    2    0    0  0.25631038962E+01 -0.37574465766E+01 -0.40403934476E+02  0.40659141992E+02  0.00000000000E+00 0. -1.
         11    1    3    3    0    0  0.11430371881E+01 -0.64355044776E+01  0.24207022981E+02  0.25073934948E+02  0.51100000000E-03 0. -1.
        -11    1    3    3    0    0 -0.58679795440E+01  0.12290292998E+02  0.17498316122E+02  0.22173758213E+02  0.51100000000E-03 0.  1.
         12    1    3    3    0    0  0.21618384598E+01 -0.20973419435E+01 -0.13014046276E+01  0.32811648479E+01  0.00000000000E+00 0. -1.
</event>
<event>
 7    1  0.5121289E-013  0.5052884E+02  0.7816164E-02  0.1300439E+00
        -11   -1    0    0    0    0  0.00000000000E+00  0.00000000000E+00  0.45593999997E+02  0.45594000000E+02  0.51100000000E-03 0.  1.
         11   -1    0    0    0    0 -0.00000000000E+00 -0.00000000000E+00 -0.45593999997E+02  0.45594000000E+02  0.51100000000E-03 0. -1.
    9900012    2    1    2    0    0  0.33740065116E+02  0.51529682195E+01  0.22095752328E+02  0.50528839329E+02  0.29999937624E+02 0.  0.
         12    1    1    2    0    0 -0.33740065116E+02 -0.51529682195E+01 -0.22095752328E+02  0.40659160671E+02  0.00000000000E+00 0. -1.
         11    1    3    3    0    0  0.12044636332E+02  0.21523520113E+01  0.10853655241E+02  0.16355663114E+02  0.51100000000E-03 0.  1.
        -11    1    3    3    0    0  0.28262243405E+01 -0.92940924529E+01  0.41282363444E+01  0.10555095173E+02  0.51100000000E-03 0. -1.
         12    1    3    3    0    0  0.18869204444E+02  0.12294708661E+02  0.71138607433E+01  0.23618081042E+02  0.00000000000E+00 0. -1.
</event>
<event>
 7    1  0.5121289E-013  0.5052886E+02  0.7816164E-02  0.1300439E+00
        -11   -1    0    0    0    0  0.00000000000E+00  0.00000000000E+00  0.45593999997E+02  0.45594000000E+02  0.51100000000E-03 0. -1.
         11   -1    0    0    0    0 -0.00000000000E+00 -0.00000000000E+00 -0.45593999997E+02  0.45594000000E+02  0.51100000000E-03 0.  1.
    9900012    2    1    2    0    0  0.20708372421E+02 -0.11787095104E+02 -0.32945311172E+02  0.50528858008E+02  0.29999994402E+02 0.  0.
         12    1    1    2    0    0 -0.20708372421E+02  0.11787095104E+02  0.32945311172E+02  0.40659141992E+02  0.00000000000E+00 0. -1.
         11    1    3    3    0    0  0.12436987319E+00 -0.72667373773E+01 -0.18180285286E+02  0.19579165287E+02  0.51100000000E-03 0. -1.
        -11    1    3    3    0    0 -0.29708616681E+01  0.74721412127E+00 -0.15966424432E+01  0.34545065273E+01  0.51100000000E-03 0.  1.
        -12    1    3    3    0    0  0.23554864216E+02 -0.52675718479E+01 -0.13168383442E+02  0.27495186194E+02  0.00000000000E+00 0.  1.
</event>
<event>
 7    1  0.5121289E-013  0.5052886E+02  0.7816164E-02  0.1300439E+00
        -11   -1    0    0    0    0  0.00000000000E+00  0.00000000000E+00  0.45593999997E+02  0.45594000000E+02  0.51100000000E-03 0. -1.
         11   -1    0    0    0    0 -0.00000000000E+00 -0.00000000000E+00 -0.45593999997E+02  0.45594000000E+02  0.51100000000E-03 0.  1.
    9900012    2    1    2    0    0 -0.10409792994E+02 -0.10316597445E+00 -0.39303828944E+02  0.50528863228E+02  0.30000010269E+02 0.  0.
         12    1    1    2    0    0  0.10409792994E+02  0.10316597445E+00  0.39303828944E+02  0.40659136772E+02  0.00000000000E+00 0. -1.
         11    1    3    3    0    0  0.19649753471E+01 -0.47768153912E+00  0.78925602645E+00  0.21707678604E+01  0.51100000000E-03 0. -1.
        -11    1    3    3    0    0  0.72737685334E+00  0.96428973824E+01 -0.82995133677E+01  0.12743487333E+02  0.51100000000E-03 0.  1.
        -12    1    3    3    0    0 -0.13102145194E+02 -0.92683818178E+01 -0.31793571602E+02  0.35614608034E+02  0.00000000000E+00 0.  1.
</event>
<event>
 7    1  0.5121289E-013  0.5052884E+02  0.7816164E-02  0.1300439E+00
        -11   -1    0    0    0    0  0.00000000000E+00  0.00000000000E+00  0.45593999997E+02  0.45594000000E+02  0.51100000000E-03 0. -1.
         11   -1    0    0    0    0 -0.00000000000E+00 -0.00000000000E+00 -0.45593999997E+02  0.45594000000E+02  0.51100000000E-03 0.  1.
    9900012    2    1    2    0    0  0.49721855267E+01 -0.25073076517E+02 -0.31619380050E+02  0.50528843716E+02  0.29999950960E+02 0.  0.
         12    1    1    2    0    0 -0.49721855267E+01  0.25073076517E+02  0.31619380050E+02  0.40659156284E+02  0.00000000000E+00 0. -1.
         11    1    3    3    0    0  0.39230911225E+01  0.21706839718E+01 -0.10017195120E+01  0.45941217989E+01  0.51100000000E-03 0. -1.
        -11    1    3    3    0    0 -0.54122040455E+01  0.75237614905E+00 -0.40445485620E+01  0.67982641778E+01  0.51100000000E-03 0.  1.
        -12    1    3    3    0    0  0.64612984496E+01 -0.27996136638E+02 -0.26573111976E+02  0.39136457740E+02  0.00000000000E+00 0.  1.
</event>
<event>
 7    1  0.5121289E-013  0.5052886E+02  0.7816164E-02  0.1300439E+00
        -11   -1    0    0    0    0  0.00000000000E+00  0.00000000000E+00  0.45593999997E+02  0.45594000000E+02  0.51100000000E-03 0.  1.
         11   -1    0    0    0    0 -0.00000000000E+00 -0.00000000000E+00 -0.45593999997E+02  0.45594000000E+02  0.51100000000E-03 0. -1.
    9900012    2    1    2    0    0  0.29628871567E+02 -0.19387723826E+02  0.19985286955E+02  0.50528861296E+02  0.30000004395E+02 0.  0.
         12    1    1    2    0    0 -0.29628871567E+02  0.19387723826E+02 -0.19985286955E+02  0.40659138704E+02  0.00000000000E+00 0. -1.
         11    1    3    3    0    0  0.64991593985E+01 -0.56084475525E+01 -0.52621297777E+00  0.86006195821E+01  0.51100000000E-03 0. -1.
        -11    1    3    3    0    0  0.26745104875E+02 -0.16759433249E+02  0.15848315858E+02  0.35317819205E+02  0.51100000000E-03 0.  1.
         12    1    3    3    0    0 -0.36153927071E+01  0.29801569754E+01  0.46631840748E+01  0.66104225085E+01  0.00000000000E+00 0. -1.
</event>
<event>
 7    1  0.5121289E-013  0.5052886E+02  0.7816164E-02  0.1300439E+00
        -11   -1    0    0    0    0  0.00000000000E+00  0.00000000000E+00  0.45593999997E+02  0.45594000000E+02  0.51100000000E-03 0. -1.
         11   -1    0    0    0    0 -0.00000000000E+00 -0.00000000000E+00 -0.45593999997E+02  0.45594000000E+02  0.51100000000E-03 0.  1.
    9900012    2    1    2    0    0  0.32555056157E+02 -0.79646877851E+01 -0.23019509591E+02  0.50528858904E+02  0.29999997124E+02 0.  0.
         12    1    1    2    0    0 -0.32555056157E+02  0.79646877851E+01  0.23019509591E+02  0.40659141096E+02  0.00000000000E+00 0. -1.
         11    1    3    3    0    0  0.95226894678E+01  0.79077296782E+01 -0.13635781506E+02  0.18415980585E+02  0.51100000000E-03 0. -1.
        -11    1    3    3    0    0  0.13227212540E+02 -0.65297673898E+01 -0.11100158617E+02  0.18461054556E+02  0.51100000000E-03 0.  1.
        -12    1    3    3    0    0  0.98051541486E+01 -0.93426500735E+01  0.17164305318E+01  0.13651823763E+02  0.00000000000E+00 0.  1.
</event>
<event>
 7    1  0.5121289E-013  0.5052886E+02  0.7816164E-02  0.1300439E+00
        -11   -1    0    0    0    0  0.00000000000E+00  0.00000000000E+00  0.45593999997E+02  0.45594000000E+02  0.51100000000E-03 0.  1.
         11   -1    0    0    0    0 -0.00000000000E+00 -0.00000000000E+00 -0.45593999997E+02  0.45594000000E+02  0.51100000000E-03 0. -1.
    9900012    2    1    2    0    0  0.16998894077E+02  0.16317936843E+02  0.33134998013E+02  0.50528861348E+02  0.30000004552E+02 0.  0.
         12    1    1    2    0    0 -0.16998894077E+02 -0.16317936843E+02 -0.33134998013E+02  0.40659138652E+02  0.00000000000E+00 0. -1.
         11    1    3    3    0    0 -0.80767719766E+00  0.22596934206E+00  0.20569376937E+01  0.22213503857E+01  0.51100000000E-03 0. -1.
        -11    1    3    3    0    0  0.10070193114E+02  0.21865611194E+02  0.11937356253E+02  0.26870322231E+02  0.51100000000E-03 0.  1.
         12    1    3    3    0    0  0.77363781608E+01 -0.57736436931E+01  0.19140704066E+02  0.21437188731E+02  0.00000000000E+00 0. -1.
</event>
<event>
 7    1  0.5121289E-013  0.5052886E+02  0.7816164E-02  0.1300439E+00
        -11   -1    0    0    0    0  0.00000000000E+00  0.00000000000E+00  0.45593999997E+02  0.45594000000E+02  0.51100000000E-03 0.  1.
         11   -1    0    0    0    0 -0.00000000000E+00 -0.00000000000E+00 -0.45593999997E+02  0.45594000000E+02  0.51100000000E-03 0. -1.
    9900012    2    1    2    0    0  0.99750725840E+01 -0.26301665734E+01  0.39328693225E+02  0.50528856379E+02  0.29999989449E+02 0.  0.
         12    1    1    2    0    0 -0.99750725840E+01  0.26301665734E+01 -0.39328693225E+02  0.40659143621E+02  0.00000000000E+00 0. -1.
         11    1    3    3    0    0 -0.20247053576E+01  0.41423471165E+01  0.59816602368E+01  0.75523990141E+01  0.51100000000E-03 0. -1.
        -11    1    3    3    0    0 -0.16835794099E+01  0.25165691670E+01  0.23571030966E+02  0.23764701998E+02  0.51100000000E-03 0.  1.
        -12    1    3    3    0    0  0.13683357352E+02 -0.92890828569E+01  0.97760020216E+01  0.19211755366E+02  0.00000000000E+00 0.  1.
</event>
<event>
 7    1  0.5121289E-013  0.5052886E+02  0.7816164E-02  0.1300439E+00
        -11   -1    0    0    0    0  0.00000000000E+00  0.00000000000E+00  0.45593999997E+02  0.45594000000E+02  0.51100000000E-03 0.  1.
         11   -1    0    0    0    0 -0.00000000000E+00 -0.00000000000E+00 -0.45593999997E+02  0.45594000000E+02  0.51100000000E-03 0. -1.
    9900012    2    1    2    0    0 -0.34634904123E+02 -0.15698981526E+02  0.14392040618E+02  0.50528862802E+02  0.30000008972E+02 0.  0.
         12    1    1    2    0    0  0.34634904123E+02  0.15698981526E+02 -0.14392040618E+02  0.40659137198E+02  0.00000000000E+00 0. -1.
         11    1    3    3    0    0 -0.51445825441E+01 -0.37036390293E+01  0.16724180154E+01  0.65559632315E+01  0.51100000000E-03 0. -1.
        -11    1    3    3    0    0 -0.28299935635E+02 -0.19089773920E+02  0.71553126181E+01  0.34878422042E+02  0.51100000000E-03 0.  1.
         12    1    3    3    0    0 -0.11903859443E+01  0.70944314227E+01  0.55643099840E+01  0.90944775279E+01  0.00000000000E+00 0. -1.
</event>
<event>
 7    1  0.5121289E-013  0.5052883E+02  0.7816164E-02  0.1300439E+00
        -11   -1    0    0    0    0  0.00000000000E+00  0.00000000000E+00  0.45593999997E+02  0.45594000000E+02  0.51100000000E-03 0. -1.
         11   -1    0    0    0    0 -0.00000000000E+00 -0.00000000000E+00 -0.45593999997E+02  0.45594000000E+02  0.51100000000E-03 0.  1.
    9900012    2    1    2    0    0 -0.19664916032E+01  0.19600215859E+02 -0.35568696761E+02  0.50528834487E+02  0.29999922908E+02 0.  0.
         12    1    1    2    0    0  0.19664916032E+01 -0.19600215859E+02  0.35568696761E+02  0.40659165513E+02  0.00000000000E+00 0. -1.
         11    1    3    3    0    0 -0.42148926305E+01  0.21819001044E+02 -0.33723682173E+02  0.40387137383E+02  0.51100000000E-03 0.  1.
        -11    1    3    3    0    0  0.50968730041E+01  0.14373953697E+01 -0.14471063741E+01  0.54898394319E+01  0.51100000000E-03 0. -1.
        -12    1    3    3    0    0 -0.28484719769E+01 -0.36561805555E+01 -0.39790821406E+00  0.46518576724E+01  0.00000000000E+00 0.  1.
</event>
<event>
 7    1  0.5121289E-013  0.5052886E+02  0.7816164E-02  0.1300439E+00
        -11   -1    0    0    0    0  0.00000000000E+00  0.00000000000E+00  0.45593999997E+02  0.45594000000E+02  0.51100000000E-03 0. -1.
         11   -1    0    0    0    0 -0.00000000000E+00 -0.00000000000E+00 -0.45593999997E+02  0.45594000000E+02  0.51100000000E-03 0.  1.
    9900012    2    1    2    0    0  0.51974652329E+01 -0.38713261770E+02 -0.11288731355E+02  0.50528859117E+02  0.29999997772E+02 0.  0.
         12    1    1    2    0    0 -0.51974652329E+01  0.38713261770E+02  0.11288731355E+02  0.40659140883E+02  0.00000000000E+00 0. -1.
         11    1    3    3    0    0 -0.17272790265E+01  0.21556727580E+01 -0.49261995850E+01  0.56478190913E+01  0.51100000000E-03 0. -1.
        -11    1    3    3    0    0 -0.51399255019E+01 -0.15556288591E+02 -0.20736873643E+01  0.16514149341E+02  0.51100000000E-03 0.  1.
        -12    1    3    3    0    0  0.12064669761E+02 -0.25312645937E+02 -0.42888444054E+01  0.28366890685E+02  0.00000000000E+00 0.  1.
</event>
<event>
 7    1  0.5121289E-013  0.5052887E+02  0.7816164E-02  0.1300439E+00
        -11   -1    0    0    0    0  0.00000000000E+00  0.00000000000E+00  0.45593999997E+02  0.45594000000E+02  0.51100000000E-03 0.  1.
         11   -1    0    0    0    0 -0.00000000000E+00 -0.00000000000E+00 -0.45593999997E+02  0.45594000000E+02  0.51100000000E-03 0. -1.
    9900012    2    1    2    0    0  0.37347623986E+02 -0.16062477385E+02 -0.56270032079E+00  0.50528870290E+02  0.30000031732E+02 0.  0.
         12    1    1    2    0    0 -0.37347623986E+02  0.16062477385E+02  0.56270032079E+00  0.40659129710E+02  0.00000000000E+00 0. -1.
         11    1    3    3    0    0  0.18335777073E+02 -0.10325457147E+02  0.60095196301E+01  0.21884471952E+02  0.51100000000E-03 0. -1.
        -11    1    3    3    0    0  0.11885309218E+02 -0.93105586467E+01  0.37937673443E+01  0.15567265285E+02  0.51100000000E-03 0.  1.
         12    1    3    3    0    0  0.71265376950E+01  0.35735384088E+01 -0.10365987295E+02  0.13077133053E+02  0.00000000000E+00 0. -1.
</event>
<event>
 7    1  0.5121289E-013  0.5052887E+02  0.7816164E-02  0.1300439E+00
        -11   -1    0    0    0    0  0.00000000000E+00  0.00000000000E+00  0.45593999997E+02  0.45594000000E+02  0.51100000000E-03 0.  1.
         11   -1    0    0    0    0 -0.00000000000E+00 -0.00000000000E+00 -0.45593999997E+02  0.45594000000E+02  0.51100000000E-03 0. -1.
    9900012    2    1    2    0    0 -0.42437590209E+01  0.34891070608E+02  0.20439393025E+02  0.50528867127E+02  0.30000022118E+02 0.  0.
         12    1    1    2    0    0  0.42437590209E+01 -0.34891070608E+02 -0.20439393025E+02  0.40659132873E+02  0.00000000000E+00 0. -1.
         11    1    3    3    0    0  0.27862255193E+01 -0.10521438036E+01 -0.36443467009E+01  0.47065191347E+01  0.51100000000E-03 0. -1.
        -11    1    3    3    0    0  0.37345948390E+01  0.52567177830E+01  0.35227711702E+01  0.73478022184E+01  0.51100000000E-03 0.  1.
         12    1    3    3    0    0 -0.10764579379E+02  0.30686496628E+02  0.20560968556E+02  0.38474545774E+02  0.00000000000E+00 0. -1.
</event>
<event>
 7    1  0.5121289E-013  0.5052888E+02  0.7816164E-02  0.1300439E+00
        -11   -1    0    0    0    0  0.00000000000E+00  0.00000000000E+00  0.45593999997E+02  0.45594000000E+02  0.51100000000E-03 0.  1.
         11   -1    0    0    0    0 -0.00000000000E+00 -0.00000000000E+00 -0.45593999997E+02  0.45594000000E+02  0.51100000000E-03 0. -1.
    9900012    2    1    2    0    0  0.35893479198E+02 -0.58957656431E+01  0.18167609030E+02  0.50528881474E+02  0.30000065728E+02 0.  0.
         12    1    1    2    0    0 -0.35893479198E+02  0.58957656431E+01 -0.18167609030E+02  0.40659118526E+02  0.00000000000E+00 0. -1.
         11    1    3    3    0    0  0.94318055070E+01 -0.48878522334E+01 -0.18945924626E+01  0.10790715242E+02  0.51100000000E-03 0. -1.
        -11    1    3    3    0    0  0.20852356661E+02 -0.88176443127E+01  0.73586353462E+01  0.23805905653E+02  0.51100000000E-03 0.  1.
         12    1    3    3    0    0  0.56093170303E+01  0.78097309029E+01  0.12703566146E+02  0.15932260579E+02  0.00000000000E+00 0. -1.
</event>
<event>
 7    1  0.5121289E-013  0.5052885E+02  0.7816164E-02  0.1300439E+00
        -11   -1    0    0    0    0  0.00000000000E+00  0.00000000000E+00  0.45593999997E+02  0.45594000000E+02  0.51100000000E-03 0.  1.
         11   -1    0    0    0    0 -0.00000000000E+00 -0.00000000000E+00 -0.45593999997E+02  0.45594000000E+02  0.51100000000E-03 0. -1.
    9900012    2    1    2    0    0 -0.25273869886E+02 -0.29970093745E+02  0.10779195681E+02  0.50528854933E+02  0.29999985054E+02 0.  0.
         12    1    1    2    0    0  0.25273869886E+02  0.29970093745E+02 -0.10779195681E+02  0.40659145067E+02  0.00000000000E+00 0. -1.
         11    1    3    3    0    0 -0.14740583080E+02 -0.26325483012E+02 -0.74713869871E+00  0.30180690215E+02  0.51100000000E-03 0. -1.
        -11    1    3    3    0    0 -0.82028287345E+01 -0.43724511342E+01  0.78011619881E+00  0.93280925013E+01  0.51100000000E-03 0.  1.
        -12    1    3    3    0    0 -0.23304580712E+01  0.72784040133E+00  0.10746218181E+02  0.11020072217E+02  0.00000000000E+00 0.  1.
</event>
<event>
 7    1  0.5121289E-013  0.5052885E+02  0.7816164E-02  0.1300439E+00
        -11   -1    0    0    0    0  0.00000000000E+00  0.00000000000E+00  0.45593999997E+02  0.45594000000E+02  0.51100000000E-03 0. -1.
         11   -1    0    0    0    0 -0.00000000000E+00 -0.00000000000E+00 -0.45593999997E+02  0.45594000000E+02  0.51100000000E-03 0.  1.
    9900012    2    1    2    0    0 -0.20020356365E+02  0.31910299139E+02  0.15299818296E+02  0.50528852198E+02  0.29999976740E+02 0.  0.
         12    1    1    2    0    0  0.20020356365E+02 -0.31910299139E+02 -0.15299818296E+02  0.40659147802E+02  0.00000000000E+00 0. -1.
         11    1    3    3    0    0 -0.94275965678E+00  0.17014772065E+02  0.15897070266E+02  0.23304679948E+02  0.51100000000E-03 0.  1.
        -11    1    3    3    0    0  0.13224445923E+01 -0.46143016064E+00  0.86822431612E+00  0.16479050995E+01  0.51100000000E-03 0. -1.
         12    1    3    3    0    0 -0.20400041301E+02  0.15356957235E+02 -0.14654762864E+01  0.25576267150E+02  0.00000000000E+00 0. -1.
</event>
<event>
 7    1  0.5121289E-013  0.5052885E+02  0.7816164E-02  0.1300439E+00
        -11   -1    0    0    0    0  0.00000000000E+00  0.00000000000E+00  0.45593999997E+02  0.45594000000E+02  0.51100000000E-03 0.  1.
         11   -1    0    0    0    0 -0.00000000000E+00 -0.00000000000E+00 -0.45593999997E+02  0.45594000000E+02  0.51100000000E-03 0. -1.
    9900012    2    1    2    0    0 -0.20651996959E+02  0.80499642935E+01  0.34086056053E+02  0.50528854402E+02  0.29999983441E+02 0.  0.
         12    1    1    2    0    0  0.20651996959E+02 -0.80499642935E+01 -0.34086056053E+02  0.40659145598E+02  0.00000000000E+00 0. -1.
         11    1    3    3    0    0 -0.30722554242E+01  0.21887031461E+01  0.13892342820E+01  0.40198441519E+01  0.51100000000E-03 0. -1.
        -11    1    3    3    0    0 -0.21627096598E+02  0.12604802729E+02  0.26851007764E+02  0.36709521617E+02  0.51100000000E-03 0.  1.
        -12    1    3    3    0    0  0.40473550637E+01 -0.67435415820E+01  0.58458140066E+01  0.97994886336E+01  0.00000000000E+00 0.  1.
</event>
<event>
 7    1  0.5121289E-013  0.5052886E+02  0.7816164E-02  0.1300439E+00
        -11   -1    0    0    0    0  0.00000000000E+00  0.00000000000E+00  0.45593999997E+02  0.45594000000E+02  0.51100000000E-03 0.  1.
         11   -1    0    0    0    0 -0.00000000000E+00 -0.00000000000E+00 -0.45593999997E+02  0.45594000000E+02  0.51100000000E-03 0. -1.
    9900012    2    1    2    0    0 -0.20697639623E+02  0.30996235422E+02  0.16248275424E+02  0.50528863874E+02  0.30000012231E+02 0.  0.
         12    1    1    2    0    0  0.20697639623E+02 -0.30996235422E+02 -0.16248275424E+02  0.40659136126E+02  0.00000000000E+00 0. -1.
         11    1    3    3    0    0 -0.57352743355E+01  0.23132374361E+02  0.17643193952E+02  0.29652696477E+02  0.51100000000E-03 0. -1.
        -11    1    3    3    0    0 -0.46554110892E+01  0.69499871432E+01  0.39262841104E+01  0.92407186342E+01  0.51100000000E-03 0.  1.
         12    1    3    3    0    0 -0.10306954198E+02  0.91387391754E+00 -0.53212026391E+01  0.11635448762E+02  0.00000000000E+00 0. -1.
</event>
<event>
 7    1  0.5121289E-013  0.5052886E+02  0.7816164E-02  0.1300439E+00
        -11   -1    0    0    0    0  0.00000000000E+00  0.00000000000E+00  0.45593999997E+02  0.45594000000E+02  0.51100000000E-03 0.  1.
         11   -1    0    0    0    0 -0.00000000000E+00 -0.00000000000E+00 -0.45593999997E+02  0.45594000000E+02  0.51100000000E-03 0. -1.
    9900012    2    1    2    0    0 -0.23774728502E+02 -0.24128954047E+02  0.22488245548E+02  0.50528864168E+02  0.30000013124E+02 0.  0.
         12    1    1    2    0    0  0.23774728502E+02  0.24128954047E+02 -0.22488245548E+02  0.40659135832E+02  0.00000000000E+00 0. -1.
         11    1    3    3    0    0 -0.91318984423E+01 -0.71202723601E+01  0.11576214601E+01  0.11637436803E+02  0.51100000000E-03 0. -1.
        -11    1    3    3    0    0 -0.94068061415E+01 -0.19841621104E+02  0.23856988929E+02  0.32424278725E+02  0.51100000000E-03 0.  1.
         12    1    3    3    0    0 -0.52360239185E+01  0.28329394170E+01 -0.25263648406E+01  0.64671486394E+01  0.00000000000E+00 0. -1.
</event>
<event>
 7    1  0.5121289E-013  0.5052886E+02  0.7816164E-02  0.1300439E+00
        -11   -1    0    0    0    0  0.00000000000E+00  0.00000000000E+00  0.45593999997E+02  0.45594000000E+02  0.51100000000E-03 0. -1.
         11   -1    0    0    0    0 -0.00000000000E+00 -0.00000000000E+00 -0.45593999997E+02  0.45594000000E+02  0.51100000000E-03 0.  1.
    9900012    2    1    2    0    0 -0.78207645190E+01  0.39623029274E+02 -0.46922106177E+01  0.50528860228E+02  0.30000001149E+02 0.  0.
         12    1    1    2    0    0  0.78207645190E+01 -0.39623029274E+02  0.46922106177E+01  0.40659139772E+02  0.00000000000E+00 0. -1.
         11    1    3    3    0    0 -0.51803361959E+01  0.28556761785E+02 -0.16432622107E+02  0.33351995387E+02  0.51100000000E-03 0.  1.
        -11    1    3    3    0    0  0.16064885146E+01  0.36573570972E+01  0.35457042100E+01  0.53412624809E+01  0.51100000000E-03 0. -1.
        -12    1    3    3    0    0 -0.42469168377E+01  0.74089103920E+01  0.81947072796E+01  0.11835602360E+02  0.00000000000E+00 0.  1.
</event>
<event>
 7    1  0.5121289E-013  0.5052886E+02  0.7816164E-02  0.1300439E+00
        -11   -1    0    0    0    0  0.00000000000E+00  0.00000000000E+00  0.45593999997E+02  0.45594000000E+02  0.51100000000E-03 0.  1.
         11   -1    0    0    0    0 -0.00000000000E+00 -0.00000000000E+00 -0.45593999997E+02  0.45594000000E+02  0.51100000000E-03 0. -1.
    9900012    2    1    2    0    0  0.34026306475E+02  0.22219512113E+02  0.12919953658E+01  0.50528862000E+02  0.30000006535E+02 0.  0.
         12    1    1    2    0    0 -0.34026306475E+02 -0.22219512113E+02 -0.12919953658E+01  0.40659138000E+02  0.00000000000E+00 0. -1.
         11    1    3    3    0    0 -0.10127591730E+01  0.97985357648E+00 -0.55652825646E+01  0.57409201753E+01  0.51100000000E-03 0. -1.
        -11    1    3    3    0    0  0.18872130715E+02  0.20597239744E+02  0.60794234293E+01  0.28589560897E+02  0.51100000000E-03 0.  1.
         12    1    3    3    0    0  0.16166934934E+02  0.64241879194E+00  0.77785450114E+00  0.16198380928E+02  0.00000000000E+00 0. -1.
</event>
<event>
 7    1  0.5121289E-013  0.5052886E+02  0.7816164E-02  0.1300439E+00
        -11   -1    0    0    0    0  0.00000000000E+00  0.00000000000E+00  0.45593999997E+02  0.45594000000E+02  0.51100000000E-03 0. -1.
         11   -1    0    0    0    0 -0.00000000000E+00 -0.00000000000E+00 -0.45593999997E+02  0.45594000000E+02  0.51100000000E-03 0.  1.
    9900012    2    1    2    0    0  0.10639388067E+02 -0.37584560794E+02 -0.11285814919E+02  0.50528863180E+02  0.30000010123E+02 0.  0.
         12    1    1    2    0    0 -0.10639388067E+02  0.37584560794E+02  0.11285814919E+02  0.40659136820E+02  0.00000000000E+00 0. -1.
         11    1    3    3    0    0  0.33847614935E+01 -0.13140470802E+02  0.21376981805E+01  0.13736751328E+02  0.51100000000E-03 0. -1.
        -11    1    3    3    0    0  0.65173685792E+01 -0.28791126656E+02 -0.98591727075E+01  0.31122473457E+02  0.51100000000E-03 0.  1.
        -12    1    3    3    0    0  0.73725799466E+00  0.43470366640E+01 -0.35643403919E+01  0.56696383958E+01  0.00000000000E+00 0.  1.
</event>
<event>
 7    1  0.5121289E-013  0.5052888E+02  0.7816164E-02  0.1300439E+00
        -11   -1    0    0    0    0  0.00000000000E+00  0.00000000000E+00  0.45593999997E+02  0.45594000000E+02  0.51100000000E-03 0.  1.
         11   -1    0    0    0    0 -0.00000000000E+00 -0.00000000000E+00 -0.45593999997E+02  0.45594000000E+02  0.51100000000E-03 0. -1.
    9900012    2    1    2    0    0  0.61847022533E+00 -0.26520364002E+02  0.30813171148E+02  0.50528883821E+02  0.30000072863E+02 0.  0.
         12    1    1    2    0    0 -0.61847022533E+00  0.26520364002E+02 -0.30813171148E+02  0.40659116179E+02  0.00000000000E+00 0. -1.
         11    1    3    3    0    0  0.35892562671E+01 -0.12607527099E+00  0.81931612623E+01  0.89457558236E+01  0.51100000000E-03 0.  1.
        -11    1    3    3    0    0 -0.91614618872E+01 -0.24140982908E+01  0.28499668045E+01  0.98935618215E+01  0.51100000000E-03 0. -1.
         12    1    3    3    0    0  0.61906758454E+01 -0.23980190440E+02  0.19770043082E+02  0.31689566176E+02  0.00000000000E+00 0. -1.
</event>
<event>
 7    1  0.5121289E-013  0.5052886E+02  0.7816164E-02  0.1300439E+00
        -11   -1    0    0    0    0  0.00000000000E+00  0.00000000000E+00  0.45593999997E+02  0.45594000000E+02  0.51100000000E-03 0. -1.
         11   -1    0    0    0    0 -0.00000000000E+00 -0.00000000000E+00 -0.45593999997E+02  0.45594000000E+02  0.51100000000E-03 0.  1.
    9900012    2    1    2    0    0  0.33492105394E+02 -0.22899044949E+02 -0.26605243905E+01  0.50528858674E+02  0.29999996427E+02 0.  0.
         12    1    1    2    0    0 -0.33492105394E+02  0.22899044949E+02  0.26605243905E+01  0.40659141326E+02  0.00000000000E+00 0. -1.
         11    1    3    3    0    0  0.66485609477E+01 -0.40012980877E+01  0.19956510814E+01  0.80122638849E+01  0.51100000000E-03 0. -1.
        -11    1    3    3    0    0 -0.89508362508E+00  0.18536838763E+01  0.59431524315E+01  0.62895452693E+01  0.51100000000E-03 0.  1.
        -12    1    3    3    0    0  0.27738628071E+02 -0.20751430738E+02 -0.10599327903E+02  0.36227049520E+02  0.00000000000E+00 0.  1.
</event>
<event>
 7    1  0.5121289E-013  0.5052886E+02  0.7816164E-02  0.1300439E+00
        -11   -1    0    0    0    0  0.00000000000E+00  0.00000000000E+00  0.45593999997E+02  0.45594000000E+02  0.51100000000E-03 0.  1.
         11   -1    0    0    0    0 -0.00000000000E+00 -0.00000000000E+00 -0.45593999997E+02  0.45594000000E+02  0.51100000000E-03 0. -1.
    9900012    2    1    2    0    0  0.90273758061E+01  0.39603835072E+02 -0.17911687387E+01  0.50528861398E+02  0.30000004707E+02 0.  0.
         12    1    1    2    0    0 -0.90273758061E+01 -0.39603835072E+02  0.17911687387E+01  0.40659138602E+02  0.00000000000E+00 0. -1.
         11    1    3    3    0    0  0.62453071272E-01 -0.10811882688E+01  0.15227587162E+01  0.18685991619E+01  0.51100000000E-03 0. -1.
        -11    1    3    3    0    0  0.10308012534E+02  0.34013954146E+01  0.18021774783E+01  0.11003293011E+02  0.51100000000E-03 0.  1.
        -12    1    3    3    0    0 -0.13430897990E+01  0.37283627926E+02 -0.51161049332E+01  0.37656969226E+02  0.00000000000E+00 0.  1.
</event>
<event>
 7    1  0.5121289E-013  0.5052891E+02  0.7816164E-02  0.1300439E+00
        -11   -1    0    0    0    0  0.00000000000E+00  0.00000000000E+00  0.45593999997E+02  0.45594000000E+02  0.51100000000E-03 0.  1.
         11   -1    0    0    0    0 -0.00000000000E+00 -0.00000000000E+00 -0.45593999997E+02  0.45594000000E+02  0.51100000000E-03 0. -1.
    9900012    2    1    2    0    0  0.20692183418E+02 -0.26410429322E+02  0.22967026895E+02  0.50528910537E+02  0.30000154069E+02 0.  0.
         12    1    1    2    0    0 -0.20692183418E+02  0.26410429322E+02 -0.22967026895E+02  0.40659089463E+02  0.00000000000E+00 0. -1.
         11    1    3    3    0    0 -0.53387680145E+01 -0.50606385586E+01  0.11190419216E+01  0.74407500708E+01  0.51100000000E-03 0. -1.
        -11    1    3    3    0    0  0.12466398219E+02 -0.40893590164E+01  0.15887460879E+01  0.13215825972E+02  0.51100000000E-03 0.  1.
         12    1    3    3    0    0  0.13564553213E+02 -0.17260431747E+02  0.20259238885E+02  0.29872334494E+02  0.00000000000E+00 0. -1.
</event>
<event>
 7    1  0.5121289E-013  0.5052885E+02  0.7816164E-02  0.1300439E+00
        -11   -1    0    0    0    0  0.00000000000E+00  0.00000000000E+00  0.45593999997E+02  0.45594000000E+02  0.51100000000E-03 0.  1.
         11   -1    0    0    0    0 -0.00000000000E+00 -0.00000000000E+00 -0.45593999997E+02  0.45594000000E+02  0.51100000000E-03 0. -1.
    9900012    2    1    2    0    0  0.33620784371E+01 -0.40070240370E+02 -0.60198867793E+01  0.50528846399E+02  0.29999959115E+02 0.  0.
         12    1    1    2    0    0 -0.33620784371E+01  0.40070240370E+02  0.60198867793E+01  0.40659153601E+02  0.00000000000E+00 0. -1.
         11    1    3    3    0    0 -0.79682834733E+01 -0.29644418686E+01  0.80705294884E-01  0.85022332778E+01  0.51100000000E-03 0. -1.
        -11    1    3    3    0    0  0.10151954957E+02 -0.10968765977E+02 -0.52772060769E+01  0.15850076364E+02  0.51100000000E-03 0.  1.
        -12    1    3    3    0    0  0.11784069535E+01 -0.26137032524E+02 -0.82338599722E+00  0.26176536758E+02  0.00000000000E+00 0.  1.
</event>
<event>
 7    1  0.5121289E-013  0.5052884E+02  0.7816164E-02  0.1300439E+00
        -11   -1    0    0    0    0  0.00000000000E+00  0.00000000000E+00  0.45593999997E+02  0.45594000000E+02  0.51100000000E-03 0. -1.
         11   -1    0    0    0    0 -0.00000000000E+00 -0.00000000000E+00 -0.45593999997E+02  0.45594000000E+02  0.51100000000E-03 0.  1.
    9900012    2    1    2    0    0 -0.19715506542E+02 -0.17414680640E+02 -0.31003139346E+02  0.50528844213E+02  0.29999952470E+02 0.  0.
         12    1    1    2    0    0  0.19715506542E+02  0.17414680640E+02  0.31003139346E+02  0.40659155787E+02  0.00000000000E+00 0. -1.
         11    1    3    3    0    0  0.48352290889E+01  0.14038131646E+01 -0.88275935923E+01  0.10162506612E+02  0.51100000000E-03 0. -1.
        -11    1    3    3    0    0 -0.60431977299E+01 -0.39042720022E+01  0.88521725493E+00  0.72489439590E+01  0.51100000000E-03 0.  1.
        -12    1    3    3    0    0 -0.18507537901E+02 -0.14914221802E+02 -0.23060763008E+02  0.33117393642E+02  0.00000000000E+00 0.  1.
</event>
<event>
 7    1  0.5121289E-013  0.5052875E+02  0.7816164E-02  0.1300439E+00
        -11   -1    0    0    0    0  0.00000000000E+00  0.00000000000E+00  0.45593999997E+02  0.45594000000E+02  0.51100000000E-03 0.  1.
         11   -1    0    0    0    0 -0.00000000000E+00 -0.00000000000E+00 -0.45593999997E+02  0.45594000000E+02  0.51100000000E-03 0. -1.
    9900012    2    1    2    0    0 -0.28464114026E+02 -0.28891234086E+02  0.28749233203E+01  0.50528752855E+02  0.29999674777E+02 0.  0.
         12    1    1    2    0    0  0.28464114026E+02  0.28891234086E+02 -0.28749233203E+01  0.40659247145E+02  0.00000000000E+00 0. -1.
         11    1    3    3    0    0 -0.16482460072E+02 -0.26509329405E+01 -0.64325884947E+01  0.17890699552E+02  0.51100000000E-03 0. -1.
        -11    1    3    3    0    0 -0.29015947648E+01 -0.41020614961E+01  0.69754369074E+01  0.85966784869E+01  0.51100000000E-03 0.  1.
        -12    1    3    3    0    0 -0.90800591894E+01 -0.22138239649E+02  0.23320749076E+01  0.24041374816E+02  0.00000000000E+00 0.  1.
</event>
<event>
 7    1  0.5121289E-013  0.5052886E+02  0.7816164E-02  0.1300439E+00
        -11   -1    0    0    0    0  0.00000000000E+00  0.00000000000E+00  0.45593999997E+02  0.45594000000E+02  0.51100000000E-03 0. -1.
         11   -1    0    0    0    0 -0.00000000000E+00 -0.00000000000E+00 -0.45593999997E+02  0.45594000000E+02  0.51100000000E-03 0.  1.
    9900012    2    1    2    0    0  0.28265171012E+02  0.28916503316E+02  0.42522674956E+01  0.50528857913E+02  0.29999994113E+02 0.  0.
         12    1    1    2    0    0 -0.28265171012E+02 -0.28916503316E+02 -0.42522674956E+01  0.40659142087E+02  0.00000000000E+00 0. -1.
         11    1    3    3    0    0 -0.67582336784E+00  0.11783928262E+01 -0.12203840044E+01  0.18261117865E+01  0.51100000000E-03 0. -1.
        -11    1    3    3    0    0 -0.21958805520E+01  0.14012863938E+02  0.35464995823E+01  0.14620530315E+02  0.51100000000E-03 0.  1.
        -12    1    3    3    0    0  0.31136874932E+02  0.13725246552E+02  0.19261519177E+01  0.34082215812E+02  0.00000000000E+00 0.  1.
</event>
<event>
 7    1  0.5121289E-013  0.5052886E+02  0.7816164E-02  0.1300439E+00
        -11   -1    0    0    0    0  0.00000000000E+00  0.00000000000E+00  0.45593999997E+02  0.45594000000E+02  0.51100000000E-03 0.  1.
         11   -1    0    0    0    0 -0.00000000000E+00 -0.00000000000E+00 -0.45593999997E+02  0.45594000000E+02  0.51100000000E-03 0. -1.
    9900012    2    1    2    0    0 -0.94485608402E+01 -0.11186346257E+02  0.37930935623E+02  0.50528861768E+02  0.30000005829E+02 0.  0.
         12    1    1    2    0    0  0.94485608402E+01  0.11186346257E+02 -0.37930935623E+02  0.40659138232E+02  0.00000000000E+00 0. -1.
         11    1    3    3    0    0  0.27455688913E+01 -0.23368262858E+01  0.77674190425E+01  0.85633932801E+01  0.51100000000E-03 0. -1.
        -11    1    3    3    0    0  0.10620398395E+00 -0.57253507575E+01  0.28612804010E+02  0.29180189755E+02  0.51100000000E-03 0.  1.
         12    1    3    3    0    0 -0.12300333715E+02 -0.31241692140E+01  0.15507125713E+01  0.12785278733E+02  0.00000000000E+00 0. -1.
</event>
<event>
 7    1  0.5121289E-013  0.5052886E+02  0.7816164E-02  0.1300439E+00
        -11   -1    0    0    0    0  0.00000000000E+00  0.00000000000E+00  0.45593999997E+02  0.45594000000E+02  0.51100000000E-03 0. -1.
         11   -1    0    0    0    0 -0.00000000000E+00 -0.00000000000E+00 -0.45593999997E+02  0.45594000000E+02  0.51100000000E-03 0.  1.
    9900012    2    1    2    0    0  0.38271751951E+02  0.97564039931E+01 -0.96566798338E+01  0.50528857342E+02  0.29999992376E+02 0.  0.
         12    1    1    2    0    0 -0.38271751951E+02 -0.97564039931E+01  0.96566798338E+01  0.40659142658E+02  0.00000000000E+00 0. -1.
         11    1    3    3    0    0  0.66515509575E+01 -0.63300520344E+01 -0.31346500191E+01  0.97025110102E+01  0.51100000000E-03 0. -1.
        -11    1    3    3    0    0  0.22953786026E+02  0.39300006553E+01  0.24372850280E+01  0.23414985728E+02  0.51100000000E-03 0.  1.
         12    1    3    3    0    0  0.86664149678E+01  0.12156455372E+02 -0.89593148427E+01  0.17411360603E+02  0.00000000000E+00 0. -1.
</event>
<event>
 7    1  0.5121289E-013  0.5052887E+02  0.7816164E-02  0.1300439E+00
        -11   -1    0    0    0    0  0.00000000000E+00  0.00000000000E+00  0.45593999997E+02  0.45594000000E+02  0.51100000000E-03 0.  1.
         11   -1    0    0    0    0 -0.00000000000E+00 -0.00000000000E+00 -0.45593999997E+02  0.45594000000E+02  0.51100000000E-03 0. -1.
    9900012    2    1    2    0    0  0.22463334829E+02  0.16431875252E+02  0.29640459647E+02  0.50528870841E+02  0.30000033407E+02 0.  0.
         12    1    1    2    0    0 -0.22463334829E+02 -0.16431875252E+02 -0.29640459647E+02  0.40659129159E+02  0.00000000000E+00 0. -1.
         11    1    3    3    0    0  0.16889537211E+02  0.13315161774E+02  0.73181727518E+01  0.22717958821E+02  0.51100000000E-03 0.  1.
        -11    1    3    3    0    0  0.21996805569E+00  0.87752104081E+01  0.12509657805E+02  0.15282154374E+02  0.51100000000E-03 0. -1.
        -12    1    3    3    0    0  0.53538295622E+01 -0.56584969309E+01  0.98126290895E+01  0.12528757646E+02  0.00000000000E+00 0.  1.
</event>
<event>
 7    1  0.5121289E-013  0.5052887E+02  0.7816164E-02  0.1300439E+00
        -11   -1    0    0    0    0  0.00000000000E+00  0.00000000000E+00  0.45593999997E+02  0.45594000000E+02  0.51100000000E-03 0.  1.
         11   -1    0    0    0    0 -0.00000000000E+00 -0.00000000000E+00 -0.45593999997E+02  0.45594000000E+02  0.51100000000E-03 0. -1.
    9900012    2    1    2    0    0  0.39171933085E+01  0.37110799260E+02 -0.16143382677E+02  0.50528872742E+02  0.30000039187E+02 0.  0.
         12    1    1    2    0    0 -0.39171933085E+01 -0.37110799260E+02  0.16143382677E+02  0.40659127258E+02  0.00000000000E+00 0. -1.
         11    1    3    3    0    0  0.32838305154E+01  0.83341902265E+01  0.25575033195E+01  0.93157443650E+01  0.51100000000E-03 0. -1.
        -11    1    3    3    0    0  0.11076452872E+01  0.28852520907E+02 -0.72737039669E+01  0.29775856166E+02  0.51100000000E-03 0.  1.
         12    1    3    3    0    0 -0.47428249411E+00 -0.75911873172E-01 -0.11427182029E+02  0.11437272211E+02  0.00000000000E+00 0. -1.
</event>
<event>
 7    1  0.5121289E-013  0.5052887E+02  0.7816164E-02  0.1300439E+00
        -11   -1    0    0    0    0  0.00000000000E+00  0.00000000000E+00  0.45593999997E+02  0.45594000000E+02  0.51100000000E-03 0.  1.
         11   -1    0    0    0    0 -0.00000000000E+00 -0.00000000000E+00 -0.45593999997E+02  0.45594000000E+02  0.51100000000E-03 0. -1.
    9900012    2    1    2    0    0  0.14626768097E+01 -0.39880485197E+02  0.77828419735E+01  0.50528866312E+02  0.30000019643E+02 0.  0.
         12    1    1    2    0    0 -0.14626768097E+01  0.39880485197E+02 -0.77828419735E+01  0.40659133688E+02  0.00000000000E+00 0. -1.
         11    1    3    3    0    0  0.46521773290E+01  0.25649726391E+01  0.86825142344E+00  0.53829080742E+01  0.51100000000E-03 0. -1.
        -11    1    3    3    0    0  0.31722550220E+01 -0.22508835656E+01  0.10643976656E+01  0.40326940625E+01  0.51100000000E-03 0.  1.
        -12    1    3    3    0    0 -0.63617555414E+01 -0.40194574271E+02  0.58501928845E+01  0.41113264176E+02  0.00000000000E+00 0.  1.
</event>
<event>
 7    1  0.5121289E-013  0.5052886E+02  0.7816164E-02  0.1300439E+00
        -11   -1    0    0    0    0  0.00000000000E+00  0.00000000000E+00  0.45593999997E+02  0.45594000000E+02  0.51100000000E-03 0. -1.
         11   -1    0    0    0    0 -0.00000000000E+00 -0.00000000000E+00 -0.45593999997E+02  0.45594000000E+02  0.51100000000E-03 0.  1.
    9900012    2    1    2    0    0 -0.11311139597E+02  0.37362105521E+02 -0.11370885492E+02  0.50528857795E+02  0.29999993755E+02 0.  0.
         12    1    1    2    0    0  0.11311139597E+02 -0.37362105521E+02  0.11370885492E+02  0.40659142205E+02  0.00000000000E+00 0. -1.
         11    1    3    3    0    0 -0.32826369290E+01  0.34445184401E+01  0.67721100151E+01  0.82765866641E+01  0.51100000000E-03 0. -1.
        -11    1    3    3    0    0 -0.17956555352E+01  0.12826254455E+02  0.11419677614E+01  0.13001587317E+02  0.51100000000E-03 0.  1.
        -12    1    3    3    0    0 -0.62328471328E+01  0.21091332626E+02 -0.19284963268E+02  0.29250683814E+02  0.00000000000E+00 0.  1.
</event>
<event>
 7    1  0.5121289E-013  0.5052887E+02  0.7816164E-02  0.1300439E+00
        -11   -1    0    0    0    0  0.00000000000E+00  0.00000000000E+00  0.45593999997E+02  0.45594000000E+02  0.51100000000E-03 0.  1.
         11   -1    0    0    0    0 -0.00000000000E+00 -0.00000000000E+00 -0.45593999997E+02  0.45594000000E+02  0.51100000000E-03 0. -1.
    9900012    2    1    2    0    0 -0.14868688212E+01  0.26366516203E+02  0.30915384208E+02  0.50528868968E+02  0.30000027716E+02 0.  0.
         12    1    1    2    0    0  0.14868688212E+01 -0.26366516203E+02 -0.30915384208E+02  0.40659131032E+02  0.00000000000E+00 0. -1.
         11    1    3    3    0    0  0.19306836385E+01  0.11679570248E+01 -0.42997568061E+00  0.22970725436E+01  0.51100000000E-03 0. -1.
        -11    1    3    3    0    0 -0.67321911179E+01 -0.16299993744E+01  0.11602090088E+00  0.69276804429E+01  0.51100000000E-03 0.  1.
        -12    1    3    3    0    0  0.33146386583E+01  0.26828558552E+02  0.31229338987E+02  0.41304115982E+02  0.00000000000E+00 0.  1.
</event>
<event>
 7    1  0.5121289E-013  0.5052886E+02  0.7816164E-02  0.1300439E+00
        -11   -1    0    0    0    0  0.00000000000E+00  0.00000000000E+00  0.45593999997E+02  0.45594000000E+02  0.51100000000E-03 0.  1.
         11   -1    0    0    0    0 -0.00000000000E+00 -0.00000000000E+00 -0.45593999997E+02  0.45594000000E+02  0.51100000000E-03 0. -1.
    9900012    2    1    2    0    0  0.98996438641E+01  0.30582994597E+02  0.24896651066E+02  0.50528859066E+02  0.29999997618E+02 0.  0.
         12    1    1    2    0    0 -0.98996438641E+01 -0.30582994597E+02 -0.24896651066E+02  0.40659140934E+02  0.00000000000E+00 0. -1.
         11    1    3    3    0    0 -0.93648495837E+00  0.79712965923E+01 -0.74127106212E+00  0.80602764523E+01  0.51100000000E-03 0.  1.
        -11    1    3    3    0    0  0.93780578655E+01  0.71184740020E+01 -0.78909771783E+00  0.11800140546E+02  0.51100000000E-03 0. -1.
         12    1    3    3    0    0  0.14580709570E+01  0.15493224003E+02  0.26427019846E+02  0.30668442068E+02  0.00000000000E+00 0. -1.
</event>
<event>
 7    1  0.5121289E-013  0.5052892E+02  0.7816164E-02  0.1300439E+00
        -11   -1    0    0    0    0  0.00000000000E+00  0.00000000000E+00  0.45593999997E+02  0.45594000000E+02  0.51100000000E-03 0.  1.
         11   -1    0    0    0    0 -0.00000000000E+00 -0.00000000000E+00 -0.45593999997E+02  0.45594000000E+02  0.51100000000E-03 0. -1.
    9900012    2    1    2    0    0 -0.36420175523E+02  0.39210349006E+01  0.17645302789E+02  0.50528924626E+02  0.30000196892E+02 0.  0.
         12    1    1    2    0    0  0.36420175523E+02 -0.39210349006E+01 -0.17645302789E+02  0.40659075374E+02  0.00000000000E+00 0. -1.
         11    1    3    3    0    0 -0.82334261629E+01  0.50128568019E+01  0.12147456392E+01  0.97156392957E+01  0.51100000000E-03 0.  1.
        -11    1    3    3    0    0 -0.36287217153E+01 -0.40193711034E+01  0.15104518233E+02  0.16045854189E+02  0.51100000000E-03 0. -1.
         12    1    3    3    0    0 -0.24558027644E+02  0.29275492020E+01  0.13260389168E+01  0.24767431141E+02  0.00000000000E+00 0. -1.
</event>
<event>
 7    1  0.5121289E-013  0.5052886E+02  0.7816164E-02  0.1300439E+00
        -11   -1    0    0    0    0  0.00000000000E+00  0.00000000000E+00  0.45593999997E+02  0.45594000000E+02  0.51100000000E-03 0.  1.
         11   -1    0    0    0    0 -0.00000000000E+00 -0.00000000000E+00 -0.45593999997E+02  0.45594000000E+02  0.51100000000E-03 0. -1.
    9900012    2    1    2    0    0  0.34558428349E+02  0.20035258023E+02  0.75808472812E+01  0.50528858599E+02  0.29999996197E+02 0.  0.
         12    1    1    2    0    0 -0.34558428349E+02 -0.20035258023E+02 -0.75808472812E+01  0.40659141401E+02  0.00000000000E+00 0. -1.
         11    1    3    3    0    0  0.61650598990E+01 -0.56085140507E+01  0.40824920115E+01  0.92806322360E+01  0.51100000000E-03 0. -1.
        -11    1    3    3    0    0  0.12700493402E+01  0.80005436399E+01  0.36646139310E+01  0.88910696423E+01  0.51100000000E-03 0.  1.
         12    1    3    3    0    0  0.27123319110E+02  0.17643228434E+02 -0.16625866130E+00  0.32357156720E+02  0.00000000000E+00 0. -1.
</event>
<event>
 7    1  0.5121289E-013  0.5052886E+02  0.7816164E-02  0.1300439E+00
        -11   -1    0    0    0    0  0.00000000000E+00  0.00000000000E+00  0.45593999997E+02  0.45594000000E+02  0.51100000000E-03 0.  1.
         11   -1    0    0    0    0 -0.00000000000E+00 -0.00000000000E+00 -0.45593999997E+02  0.45594000000E+02  0.51100000000E-03 0. -1.
    9900012    2    1    2    0    0  0.19306440974E+02 -0.10169515967E+02  0.34307550613E+02  0.50528858996E+02  0.29999997405E+02 0.  0.
         12    1    1    2    0    0 -0.19306440974E+02  0.10169515967E+02 -0.34307550613E+02  0.40659141004E+02  0.00000000000E+00 0. -1.
         11    1    3    3    0    0  0.12751166011E+01  0.46921095585E+00 -0.18180025909E+01  0.22696288131E+01  0.51100000000E-03 0. -1.
        -11    1    3    3    0    0 -0.11271758506E+01 -0.11041893644E+02  0.61704315806E+01  0.12699140396E+02  0.51100000000E-03 0.  1.
        -12    1    3    3    0    0  0.19158500224E+02  0.40316672051E+00  0.29955121623E+02  0.35560089788E+02  0.00000000000E+00 0.  1.
</event>
<event>
 7    1  0.5121289E-013  0.5052886E+02  0.7816164E-02  0.1300439E+00
        -11   -1    0    0    0    0  0.00000000000E+00  0.00000000000E+00  0.45593999997E+02  0.45594000000E+02  0.51100000000E-03 0. -1.
         11   -1    0    0    0    0 -0.00000000000E+00 -0.00000000000E+00 -0.45593999997E+02  0.45594000000E+02  0.51100000000E-03 0.  1.
    9900012    2    1    2    0    0 -0.34480755956E+02  0.21536457779E+02  0.65098601245E+00  0.50528864154E+02  0.30000013083E+02 0.  0.
         12    1    1    2    0    0  0.34480755956E+02 -0.21536457779E+02 -0.65098601245E+00  0.40659135846E+02  0.00000000000E+00 0. -1.
         11    1    3    3    0    0 -0.10491836239E+02  0.36969384227E+01 -0.10654514530E+02  0.15403397726E+02  0.51100000000E-03 0. -1.
        -11    1    3    3    0    0 -0.11657759112E+02  0.36074585491E+01 -0.15840324238E+01  0.12305537927E+02  0.51100000000E-03 0.  1.
         12    1    3    3    0    0 -0.12331160605E+02  0.14232060807E+02  0.12889532967E+02  0.22819928501E+02  0.00000000000E+00 0. -1.
</event>
<event>
 7    1  0.5121289E-013  0.5052886E+02  0.7816164E-02  0.1300439E+00
        -11   -1    0    0    0    0  0.00000000000E+00  0.00000000000E+00  0.45593999997E+02  0.45594000000E+02  0.51100000000E-03 0. -1.
         11   -1    0    0    0    0 -0.00000000000E+00 -0.00000000000E+00 -0.45593999997E+02  0.45594000000E+02  0.51100000000E-03 0.  1.
    9900012    2    1    2    0    0 -0.24518930037E+02 -0.29289786357E+02 -0.13931827402E+02  0.50528864129E+02  0.30000013007E+02 0.  0.
         12    1    1    2    0    0  0.24518930037E+02  0.29289786357E+02  0.13931827402E+02  0.40659135871E+02  0.00000000000E+00 0. -1.
         11    1    3    3    0    0 -0.12180439091E+02 -0.76969542694E+01 -0.47433087393E+01  0.15169218159E+02  0.51100000000E-03 0. -1.
        -11    1    3    3    0    0 -0.15833743305E+02 -0.24753724413E+02 -0.85556933574E+01  0.30604806623E+02  0.51100000000E-03 0.  1.
         12    1    3    3    0    0  0.34952523592E+01  0.31608923257E+01 -0.63282530563E+00  0.47548393471E+01  0.00000000000E+00 0. -1.
</event>
<event>
 7    1  0.5121289E-013  0.5052886E+02  0.7816164E-02  0.1300439E+00
        -11   -1    0    0    0    0  0.00000000000E+00  0.00000000000E+00  0.45593999997E+02  0.45594000000E+02  0.51100000000E-03 0.  1.
         11   -1    0    0    0    0 -0.00000000000E+00 -0.00000000000E+00 -0.45593999997E+02  0.45594000000E+02  0.51100000000E-03 0. -1.
    9900012    2    1    2    0    0  0.20047686430E+02  0.31543438048E+02 -0.16008365790E+02  0.50528856005E+02  0.29999988313E+02 0.  0.
         12    1    1    2    0    0 -0.20047686430E+02 -0.31543438048E+02  0.16008365790E+02  0.40659143995E+02  0.00000000000E+00 0. -1.
         11    1    3    3    0    0  0.16582030148E+02  0.11972260592E+02 -0.15321901164E+01  0.20509664900E+02  0.51100000000E-03 0. -1.
        -11    1    3    3    0    0  0.54468036633E+01  0.34786198857E+01  0.21351776052E+01  0.68064271187E+01  0.51100000000E-03 0.  1.
         12    1    3    3    0    0 -0.19811473810E+01  0.16092557571E+02 -0.16611353279E+02  0.23212763986E+02  0.00000000000E+00 0. -1.
</event>
<event>
 7    1  0.5121289E-013  0.5052886E+02  0.7816164E-02  0.1300439E+00
        -11   -1    0    0    0    0  0.00000000000E+00  0.00000000000E+00  0.45593999997E+02  0.45594000000E+02  0.51100000000E-03 0.  1.
         11   -1    0    0    0    0 -0.00000000000E+00 -0.00000000000E+00 -0.45593999997E+02  0.45594000000E+02  0.51100000000E-03 0. -1.
    9900012    2    1    2    0    0 -0.62857958175E+01  0.25431579835E+02  0.31094841757E+02  0.50528859996E+02  0.30000000443E+02 0.  0.
         12    1    1    2    0    0  0.62857958175E+01 -0.25431579835E+02 -0.31094841757E+02  0.40659140004E+02  0.00000000000E+00 0. -1.
         11    1    3    3    0    0 -0.11319849220E+02  0.69329810674E+01  0.38931354154E+01  0.13833355214E+02  0.51100000000E-03 0.  1.
        -11    1    3    3    0    0 -0.55490510248E+01  0.63860582874E+01  0.10853550137E+02  0.13761295672E+02  0.51100000000E-03 0. -1.
        -12    1    3    3    0    0  0.10583104427E+02  0.12112540480E+02  0.16348156205E+02  0.22934209110E+02  0.00000000000E+00 0.  1.
</event>
<event>
 7    1  0.5121289E-013  0.5052887E+02  0.7816164E-02  0.1300439E+00
        -11   -1    0    0    0    0  0.00000000000E+00  0.00000000000E+00  0.45593999997E+02  0.45594000000E+02  0.51100000000E-03 0.  1.
         11   -1    0    0    0    0 -0.00000000000E+00 -0.00000000000E+00 -0.45593999997E+02  0.45594000000E+02  0.51100000000E-03 0. -1.
    9900012    2    1    2    0    0 -0.38460019015E+02  0.55585981249E+01  0.11962181871E+02  0.50528869773E+02  0.30000030161E+02 0.  0.
         12    1    1    2    0    0  0.38460019015E+02 -0.55585981249E+01 -0.11962181871E+02  0.40659130227E+02  0.00000000000E+00 0. -1.
         11    1    3    3    0    0 -0.14174476835E+02  0.17560995640E+01  0.59107852919E+01  0.15457589147E+02  0.51100000000E-03 0.  1.
        -11    1    3    3    0    0 -0.23930422083E+02 -0.39955036572E+00  0.12778685887E+02  0.27131523268E+02  0.51100000000E-03 0. -1.
         12    1    3    3    0    0 -0.35512009697E+00  0.42020489267E+01 -0.67272893081E+01  0.79397573578E+01  0.00000000000E+00 0. -1.
</event>
<event>
 7    1  0.5121289E-013  0.5052892E+02  0.7816164E-02  0.1300439E+00
        -11   -1    0    0    0    0  0.00000000000E+00  0.00000000000E+00  0.45593999997E+02  0.45594000000E+02  0.51100000000E-03 0. -1.
         11   -1    0    0    0    0 -0.00000000000E+00 -0.00000000000E+00 -0.45593999997E+02  0.45594000000E+02  0.51100000000E-03 0.  1.
    9900012    2    1    2    0    0 -0.70562074864E+01 -0.70118972615E+01 -0.39423389518E+02  0.50528924649E+02  0.30000196962E+02 0.  0.
         12    1    1    2    0    0  0.70562074864E+01  0.70118972615E+01  0.39423389518E+02  0.40659075351E+02  0.00000000000E+00 0. -1.
         11    1    3    3    0    0  0.62546588792E+01 -0.74779838576E+01 -0.11809634452E+02  0.15313669267E+02  0.51100000000E-03 0. -1.
        -11    1    3    3    0    0  0.38212178477E+00 -0.50633396158E+01 -0.14857721589E+02  0.15701443125E+02  0.51100000000E-03 0.  1.
        -12    1    3    3    0    0 -0.13692988150E+02  0.55294262119E+01 -0.12756033477E+02  0.19513812257E+02  0.00000000000E+00 0.  1.
</event>
<event>
 7    1  0.5121289E-013  0.5052886E+02  0.7816164E-02  0.1300439E+00
        -11   -1    0    0    0    0  0.00000000000E+00  0.00000000000E+00  0.45593999997E+02  0.45594000000E+02  0.51100000000E-03 0. -1.
         11   -1    0    0    0    0 -0.00000000000E+00 -0.00000000000E+00 -0.45593999997E+02  0.45594000000E+02  0.51100000000E-03 0.  1.
    9900012    2    1    2    0    0 -0.15004260761E+01  0.40561436758E+02  0.23842008617E+01  0.50528857805E+02  0.29999993783E+02 0.  0.
         12    1    1    2    0    0  0.15004260761E+01 -0.40561436758E+02 -0.23842008617E+01  0.40659142195E+02  0.00000000000E+00 0. -1.
         11    1    3    3    0    0 -0.50814041423E+00  0.35546180852E+01 -0.68127935522E+01  0.77011474898E+01  0.51100000000E-03 0. -1.
        -11    1    3    3    0    0  0.18498275444E+01  0.14175457506E+02 -0.57309382258E+01  0.15401594419E+02  0.51100000000E-03 0.  1.
         12    1    3    3    0    0 -0.28421132062E+01  0.22831361167E+02  0.14927932640E+02  0.27426115896E+02  0.00000000000E+00 0. -1.
</event>
<event>
 7    1  0.5121289E-013  0.5052889E+02  0.7816164E-02  0.1300439E+00
        -11   -1    0    0    0    0  0.00000000000E+00  0.00000000000E+00  0.45593999997E+02  0.45594000000E+02  0.51100000000E-03 0.  1.
         11   -1    0    0    0    0 -0.00000000000E+00 -0.00000000000E+00 -0.45593999997E+02  0.45594000000E+02  0.51100000000E-03 0. -1.
    9900012    2    1    2    0    0  0.21048446121E+01  0.18827748056E+02  0.35975673014E+02  0.50528886427E+02  0.30000080784E+02 0.  0.
         12    1    1    2    0    0 -0.21048446121E+01 -0.18827748056E+02 -0.35975673014E+02  0.40659113573E+02  0.00000000000E+00 0. -1.
         11    1    3    3    0    0  0.82702810782E+00 -0.39948924258E+01  0.15821108955E+02  0.16338623865E+02  0.51100000000E-03 0. -1.
        -11    1    3    3    0    0  0.23620210162E-02  0.19311449133E+02  0.22598773256E+02  0.29726026073E+02  0.51100000000E-03 0.  1.
        -12    1    3    3    0    0  0.12754544833E+01  0.35111913490E+01 -0.24442091968E+01  0.44642364886E+01  0.00000000000E+00 0.  1.
</event>
<event>
 7    1  0.5121289E-013  0.5052885E+02  0.7816164E-02  0.1300439E+00
        -11   -1    0    0    0    0  0.00000000000E+00  0.00000000000E+00  0.45593999997E+02  0.45594000000E+02  0.51100000000E-03 0. -1.
         11   -1    0    0    0    0 -0.00000000000E+00 -0.00000000000E+00 -0.45593999997E+02  0.45594000000E+02  0.51100000000E-03 0.  1.
    9900012    2    1    2    0    0  0.97453288818E+00 -0.15847458580E+02 -0.37430928746E+02  0.50528854847E+02  0.29999984794E+02 0.  0.
         12    1    1    2    0    0 -0.97453288818E+00  0.15847458580E+02  0.37430928746E+02  0.40659145153E+02  0.00000000000E+00 0. -1.
         11    1    3    3    0    0 -0.10783933278E+01  0.52490663201E+01 -0.60503065828E+01  0.80821927352E+01  0.51100000000E-03 0. -1.
        -11    1    3    3    0    0  0.55791315180E+01  0.61896157420E+00 -0.11490733922E+02  0.12788541287E+02  0.51100000000E-03 0.  1.
        -12    1    3    3    0    0 -0.35262053020E+01 -0.21715486474E+02 -0.19889888241E+02  0.29658120825E+02  0.00000000000E+00 0.  1.
</event>
<event>
 7    1  0.5121289E-013  0.5052886E+02  0.7816164E-02  0.1300439E+00
        -11   -1    0    0    0    0  0.00000000000E+00  0.00000000000E+00  0.45593999997E+02  0.45594000000E+02  0.51100000000E-03 0.  1.
         11   -1    0    0    0    0 -0.00000000000E+00 -0.00000000000E+00 -0.45593999997E+02  0.45594000000E+02  0.51100000000E-03 0. -1.
    9900012    2    1    2    0    0  0.35389867633E+02 -0.19354868970E+02  0.51099913962E+01  0.50528859626E+02  0.29999999318E+02 0.  0.
         12    1    1    2    0    0 -0.35389867633E+02  0.19354868970E+02 -0.51099913962E+01  0.40659140374E+02  0.00000000000E+00 0. -1.
         11    1    3    3    0    0  0.11177822421E+01 -0.49277385457E+01 -0.45242007703E+01  0.67823622129E+01  0.51100000000E-03 0. -1.
        -11    1    3    3    0    0  0.95309218356E+01 -0.14387968970E+02  0.17665095866E+00  0.17259296855E+02  0.51100000000E-03 0.  1.
         12    1    3    3    0    0  0.24741163555E+02 -0.39161454574E-01  0.94575412078E+01  0.26487200558E+02  0.00000000000E+00 0. -1.
</event>
<event>
 7    1  0.5121289E-013  0.5052886E+02  0.7816164E-02  0.1300439E+00
        -11   -1    0    0    0    0  0.00000000000E+00  0.00000000000E+00  0.45593999997E+02  0.45594000000E+02  0.51100000000E-03 0. -1.
         11   -1    0    0    0    0 -0.00000000000E+00 -0.00000000000E+00 -0.45593999997E+02  0.45594000000E+02  0.51100000000E-03 0.  1.
    9900012    2    1    2    0    0  0.10382160283E+02  0.23083031324E+02 -0.31820594512E+02  0.50528858072E+02  0.29999994595E+02 0.  0.
         12    1    1    2    0    0 -0.10382160283E+02 -0.23083031324E+02  0.31820594512E+02  0.40659141928E+02  0.00000000000E+00 0. -1.
         11    1    3    3    0    0  0.83447229469E-01  0.15411378790E+02 -0.24025760717E+02  0.28543908946E+02  0.51100000000E-03 0. -1.
        -11    1    3    3    0    0 -0.84659255880E+00  0.89826515893E+01 -0.53839903168E+01  0.10506764513E+02  0.51100000000E-03 0.  1.
         12    1    3    3    0    0  0.11145305613E+02 -0.13109990547E+01 -0.24108434778E+01  0.11478184613E+02  0.00000000000E+00 0. -1.
</event>
<event>
 7    1  0.5121289E-013  0.5052886E+02  0.7816164E-02  0.1300439E+00
        -11   -1    0    0    0    0  0.00000000000E+00  0.00000000000E+00  0.45593999997E+02  0.45594000000E+02  0.51100000000E-03 0.  1.
         11   -1    0    0    0    0 -0.00000000000E+00 -0.00000000000E+00 -0.45593999997E+02  0.45594000000E+02  0.51100000000E-03 0. -1.
    9900012    2    1    2    0    0  0.22867630007E+02 -0.27808903704E+02  0.18891845693E+02  0.50528862515E+02  0.30000008101E+02 0.  0.
         12    1    1    2    0    0 -0.22867630007E+02  0.27808903704E+02 -0.18891845693E+02  0.40659137485E+02  0.00000000000E+00 0. -1.
         11    1    3    3    0    0  0.14276038675E+02  0.26578891336E+00  0.49188362462E+01  0.15102015570E+02  0.51100000000E-03 0. -1.
        -11    1    3    3    0    0  0.76531082538E+01 -0.67290971185E+01  0.57406884232E+00  0.10206878527E+02  0.51100000000E-03 0.  1.
        -12    1    3    3    0    0  0.93848307792E+00 -0.21345595498E+02  0.13398940604E+02  0.25219968417E+02  0.00000000000E+00 0.  1.
</event>
<event>
 7    1  0.5121289E-013  0.5052886E+02  0.7816164E-02  0.1300439E+00
        -11   -1    0    0    0    0  0.00000000000E+00  0.00000000000E+00  0.45593999997E+02  0.45594000000E+02  0.51100000000E-03 0.  1.
         11   -1    0    0    0    0 -0.00000000000E+00 -0.00000000000E+00 -0.45593999997E+02  0.45594000000E+02  0.51100000000E-03 0. -1.
    9900012    2    1    2    0    0  0.10227492613E+02 -0.30362865880E+02  0.25033189587E+02  0.50528858218E+02  0.29999995039E+02 0.  0.
         12    1    1    2    0    0 -0.10227492613E+02  0.30362865880E+02 -0.25033189587E+02  0.40659141782E+02  0.00000000000E+00 0. -1.
         11    1    3    3    0    0  0.97813091322E+01 -0.16175383945E+02  0.12059188030E+02  0.22421888196E+02  0.51100000000E-03 0. -1.
        -11    1    3    3    0    0 -0.57252986718E+01 -0.17057208021E+02  0.80766030018E+01  0.19722041138E+02  0.51100000000E-03 0.  1.
         12    1    3    3    0    0  0.61714821522E+01  0.28697260859E+01  0.48973985553E+01  0.83849288830E+01  0.00000000000E+00 0. -1.
</event>
<event>
 7    1  0.5121289E-013  0.5052882E+02  0.7816164E-02  0.1300439E+00
        -11   -1    0    0    0    0  0.00000000000E+00  0.00000000000E+00  0.45593999997E+02  0.45594000000E+02  0.51100000000E-03 0.  1.
         11   -1    0    0    0    0 -0.00000000000E+00 -0.00000000000E+00 -0.45593999997E+02  0.45594000000E+02  0.51100000000E-03 0. -1.
    9900012    2    1    2    0    0  0.20644322864E+02 -0.15167196564E+01  0.34995433452E+02  0.50528820624E+02  0.29999880769E+02 0.  0.
         12    1    1    2    0    0 -0.20644322864E+02  0.15167196564E+01 -0.34995433452E+02  0.40659179376E+02  0.00000000000E+00 0. -1.
         11    1    3    3    0    0  0.51136190214E+01  0.84834849901E+00  0.16806274657E+00  0.51862356310E+01  0.51100000000E-03 0. -1.
        -11    1    3    3    0    0  0.12658780841E+02  0.63949251958E+01  0.65903745761E+01  0.15638824699E+02  0.51100000000E-03 0.  1.
        -12    1    3    3    0    0  0.28719230021E+01 -0.87599933512E+01  0.28236996129E+02  0.29703760295E+02  0.00000000000E+00 0.  1.
</event>
<event>
 7    1  0.5121289E-013  0.5052885E+02  0.7816164E-02  0.1300439E+00
        -11   -1    0    0    0    0  0.00000000000E+00  0.00000000000E+00  0.45593999997E+02  0.45594000000E+02  0.51100000000E-03 0.  1.
         11   -1    0    0    0    0 -0.00000000000E+00 -0.00000000000E+00 -0.45593999997E+02  0.45594000000E+02  0.51100000000E-03 0. -1.
    9900012    2    1    2    0    0 -0.20977886601E+02  0.28471080915E+02  0.20062215734E+02  0.50528847588E+02  0.29999962729E+02 0.  0.
         12    1    1    2    0    0  0.20977886601E+02 -0.28471080915E+02 -0.20062215734E+02  0.40659152412E+02  0.00000000000E+00 0. -1.
         11    1    3    3    0    0 -0.18113522066E+02  0.23991911530E+02  0.98561515293E+00  0.30077947702E+02  0.51100000000E-03 0. -1.
        -11    1    3    3    0    0  0.49441379365E+00  0.18289288623E+01  0.16678588403E+01  0.25241194812E+01  0.51100000000E-03 0.  1.
        -12    1    3    3    0    0 -0.33587783289E+01  0.26502405227E+01  0.17408741741E+02  0.17926780405E+02  0.00000000000E+00 0.  1.
</event>
<event>
 7    1  0.5121289E-013  0.5052886E+02  0.7816164E-02  0.1300439E+00
        -11   -1    0    0    0    0  0.00000000000E+00  0.00000000000E+00  0.45593999997E+02  0.45594000000E+02  0.51100000000E-03 0.  1.
         11   -1    0    0    0    0 -0.00000000000E+00 -0.00000000000E+00 -0.45593999997E+02  0.45594000000E+02  0.51100000000E-03 0. -1.
    9900012    2    1    2    0    0 -0.37602909671E+02  0.44059025925E+01  0.14824800221E+02  0.50528862097E+02  0.30000006831E+02 0.  0.
         12    1    1    2    0    0  0.37602909671E+02 -0.44059025925E+01 -0.14824800221E+02  0.40659137903E+02  0.00000000000E+00 0. -1.
         11    1    3    3    0    0 -0.90910855430E+01 -0.36399486743E+01 -0.26681999127E+01  0.10149697224E+02  0.51100000000E-03 0. -1.
        -11    1    3    3    0    0 -0.13793571012E+02 -0.54417285657E+00 -0.25847227011E+01  0.14044198698E+02  0.51100000000E-03 0.  1.
         12    1    3    3    0    0 -0.14718253116E+02  0.85900241234E+01  0.20077722835E+02  0.26334966176E+02  0.00000000000E+00 0. -1.
</event>
<event>
 7    1  0.5121289E-013  0.5052886E+02  0.7816164E-02  0.1300439E+00
        -11   -1    0    0    0    0  0.00000000000E+00  0.00000000000E+00  0.45593999997E+02  0.45594000000E+02  0.51100000000E-03 0.  1.
         11   -1    0    0    0    0 -0.00000000000E+00 -0.00000000000E+00 -0.45593999997E+02  0.45594000000E+02  0.51100000000E-03 0. -1.
    9900012    2    1    2    0    0 -0.23975215959E+02  0.12902051317E+02  0.30197548791E+02  0.50528857590E+02  0.29999993132E+02 0.  0.
         12    1    1    2    0    0  0.23975215959E+02 -0.12902051317E+02 -0.30197548791E+02  0.40659142410E+02  0.00000000000E+00 0. -1.
         11    1    3    3    0    0 -0.80528798368E+01  0.91557252823E+01  0.31477077815E+01  0.12593023610E+02  0.51100000000E-03 0. -1.
        -11    1    3    3    0    0 -0.60008351418E+01  0.97219703589E+01  0.22973202459E+02  0.25657255534E+02  0.51100000000E-03 0.  1.
        -12    1    3    3    0    0 -0.99215009803E+01 -0.59756443238E+01  0.40766385513E+01  0.12278578446E+02  0.00000000000E+00 0.  1.
</event>
<event>
 7    1  0.5121289E-013  0.5052886E+02  0.7816164E-02  0.1300439E+00
        -11   -1    0    0    0    0  0.00000000000E+00  0.00000000000E+00  0.45593999997E+02  0.45594000000E+02  0.51100000000E-03 0.  1.
         11   -1    0    0    0    0 -0.00000000000E+00 -0.00000000000E+00 -0.45593999997E+02  0.45594000000E+02  0.51100000000E-03 0. -1.
    9900012    2    1    2    0    0  0.52943983606E+01 -0.23883936695E+02  0.32476029571E+02  0.50528861018E+02  0.30000003549E+02 0.  0.
         12    1    1    2    0    0 -0.52943983606E+01  0.23883936695E+02 -0.32476029571E+02  0.40659138982E+02  0.00000000000E+00 0. -1.
         11    1    3    3    0    0  0.10318356540E+02 -0.61545350439E+01  0.13247833827E+02  0.17884403391E+02  0.51100000000E-03 0. -1.
        -11    1    3    3    0    0 -0.42276184817E+01  0.31766932878E+01  0.24581352835E+01  0.58315150351E+01  0.51100000000E-03 0.  1.
        -12    1    3    3    0    0 -0.79633969816E+00 -0.20906094939E+02  0.16770060461E+02  0.26812942591E+02  0.00000000000E+00 0.  1.
</event>
<event>
 7    1  0.5121289E-013  0.5052886E+02  0.7816164E-02  0.1300439E+00
        -11   -1    0    0    0    0  0.00000000000E+00  0.00000000000E+00  0.45593999997E+02  0.45594000000E+02  0.51100000000E-03 0. -1.
         11   -1    0    0    0    0 -0.00000000000E+00 -0.00000000000E+00 -0.45593999997E+02  0.45594000000E+02  0.51100000000E-03 0.  1.
    9900012    2    1    2    0    0  0.23655753147E+02  0.29571790860E+02 -0.14801355477E+02  0.50528860861E+02  0.30000003072E+02 0.  0.
         12    1    1    2    0    0 -0.23655753147E+02 -0.29571790860E+02  0.14801355477E+02  0.40659139139E+02  0.00000000000E+00 0. -1.
         11    1    3    3    0    0  0.13624509881E+02  0.12091143155E+02  0.45395938889E+01  0.18773143722E+02  0.51100000000E-03 0. -1.
        -11    1    3    3    0    0  0.58106923649E+00 -0.20001280588E+01  0.75457424011E+00  0.22152959744E+01  0.51100000000E-03 0.  1.
        -12    1    3    3    0    0  0.94501740295E+01  0.19480775764E+02 -0.20095523606E+02  0.29540421164E+02  0.00000000000E+00 0.  1.
</event>
<event>
 7    1  0.5121289E-013  0.5052888E+02  0.7816164E-02  0.1300439E+00
        -11   -1    0    0    0    0  0.00000000000E+00  0.00000000000E+00  0.45593999997E+02  0.45594000000E+02  0.51100000000E-03 0.  1.
         11   -1    0    0    0    0 -0.00000000000E+00 -0.00000000000E+00 -0.45593999997E+02  0.45594000000E+02  0.51100000000E-03 0. -1.
    9900012    2    1    2    0    0  0.13982908239E+02 -0.27914323733E+02  0.26046739729E+02  0.50528882415E+02  0.30000068588E+02 0.  0.
         12    1    1    2    0    0 -0.13982908239E+02  0.27914323733E+02 -0.26046739729E+02  0.40659117585E+02  0.00000000000E+00 0. -1.
         11    1    3    3    0    0  0.46943027756E+01  0.18803852106E+00 -0.12706705510E+01  0.48668717823E+01  0.51100000000E-03 0. -1.
        -11    1    3    3    0    0  0.33054005287E+01  0.32683719323E+01  0.37166381981E+01  0.59515819325E+01  0.51100000000E-03 0.  1.
        -12    1    3    3    0    0  0.59832049342E+01 -0.31370734186E+02  0.23600772082E+02  0.39710428700E+02  0.00000000000E+00 0.  1.
</event>
<event>
 7    1  0.5121289E-013  0.5052886E+02  0.7816164E-02  0.1300439E+00
        -11   -1    0    0    0    0  0.00000000000E+00  0.00000000000E+00  0.45593999997E+02  0.45594000000E+02  0.51100000000E-03 0.  1.
         11   -1    0    0    0    0 -0.00000000000E+00 -0.00000000000E+00 -0.45593999997E+02  0.45594000000E+02  0.51100000000E-03 0. -1.
    9900012    2    1    2    0    0  0.32070027602E+02  0.18443941398E+01  0.24925435024E+02  0.50528858700E+02  0.29999996504E+02 0.  0.
         12    1    1    2    0    0 -0.32070027602E+02 -0.18443941398E+01 -0.24925435024E+02  0.40659141300E+02  0.00000000000E+00 0. -1.
         11    1    3    3    0    0  0.11665534321E+02  0.54002032765E+01  0.16665540860E+02  0.21047259652E+02  0.51100000000E-03 0. -1.
        -11    1    3    3    0    0  0.99964065922E+01  0.67245940203E+01  0.86757400720E+01  0.14846439828E+02  0.51100000000E-03 0.  1.
         12    1    3    3    0    0  0.10408086689E+02 -0.10280403157E+02 -0.41584590839E+00  0.14635159221E+02  0.00000000000E+00 0. -1.
</event>
<event>
 7    1  0.5121289E-013  0.5052886E+02  0.7816164E-02  0.1300439E+00
        -11   -1    0    0    0    0  0.00000000000E+00  0.00000000000E+00  0.45593999997E+02  0.45594000000E+02  0.51100000000E-03 0.  1.
         11   -1    0    0    0    0 -0.00000000000E+00 -0.00000000000E+00 -0.45593999997E+02  0.45594000000E+02  0.51100000000E-03 0. -1.
    9900012    2    1    2    0    0 -0.10825209747E+02 -0.36395862043E+02  0.14536917307E+02  0.50528857059E+02  0.29999991517E+02 0.  0.
         12    1    1    2    0    0  0.10825209747E+02  0.36395862043E+02 -0.14536917307E+02  0.40659142941E+02  0.00000000000E+00 0. -1.
         11    1    3    3    0    0 -0.75572110189E+00 -0.30459445306E+00 -0.43788588876E+00  0.92500620396E+00  0.51100000000E-03 0. -1.
        -11    1    3    3    0    0 -0.99774973415E+01 -0.41092919977E+02  0.13428675739E+02  0.44367869656E+02  0.51100000000E-03 0.  1.
        -12    1    3    3    0    0 -0.91991303659E-01  0.50016523875E+01  0.15461274561E+01  0.52359811990E+01  0.00000000000E+00 0.  1.
</event>
<event>
 7    1  0.5121289E-013  0.5052885E+02  0.7816164E-02  0.1300439E+00
        -11   -1    0    0    0    0  0.00000000000E+00  0.00000000000E+00  0.45593999997E+02  0.45594000000E+02  0.51100000000E-03 0.  1.
         11   -1    0    0    0    0 -0.00000000000E+00 -0.00000000000E+00 -0.45593999997E+02  0.45594000000E+02  0.51100000000E-03 0. -1.
    9900012    2    1    2    0    0  0.75244470088E+01 -0.37508444530E+02  0.13771929983E+02  0.50528846427E+02  0.29999959198E+02 0.  0.
         12    1    1    2    0    0 -0.75244470088E+01  0.37508444530E+02 -0.13771929983E+02  0.40659153573E+02  0.00000000000E+00 0. -1.
         11    1    3    3    0    0  0.63903254814E+01 -0.55686895287E+01 -0.22720901855E+01  0.87754747391E+01  0.51100000000E-03 0. -1.
        -11    1    3    3    0    0  0.90246629876E+01 -0.15359264204E+02  0.70674361235E+00  0.17828376979E+02  0.51100000000E-03 0.  1.
        -12    1    3    3    0    0 -0.78905414602E+01 -0.16580490797E+02  0.15337276556E+02  0.23924994708E+02  0.00000000000E+00 0.  1.
</event>
<event>
 7    1  0.5121289E-013  0.5052886E+02  0.7816164E-02  0.1300439E+00
        -11   -1    0    0    0    0  0.00000000000E+00  0.00000000000E+00  0.45593999997E+02  0.45594000000E+02  0.51100000000E-03 0.  1.
         11   -1    0    0    0    0 -0.00000000000E+00 -0.00000000000E+00 -0.45593999997E+02  0.45594000000E+02  0.51100000000E-03 0. -1.
    9900012    2    1    2    0    0 -0.38837074391E+02  0.11526460283E+02  0.34623184057E+01  0.50528864708E+02  0.30000014768E+02 0.  0.
         12    1    1    2    0    0  0.38837074391E+02 -0.11526460283E+02 -0.34623184057E+01  0.40659135292E+02  0.00000000000E+00 0. -1.
         11    1    3    3    0    0 -0.13875508495E+02  0.63165971766E+01  0.83304623304E+01  0.17373132671E+02  0.51100000000E-03 0. -1.
        -11    1    3    3    0    0 -0.28459699292E+01  0.37377200738E+01  0.66773884659E+01  0.81644113795E+01  0.51100000000E-03 0.  1.
         12    1    3    3    0    0 -0.22115595966E+02  0.14721430325E+01 -0.11545532391E+02  0.24991320658E+02  0.00000000000E+00 0. -1.
</event>
<event>
 7    1  0.5121289E-013  0.5052885E+02  0.7816164E-02  0.1300439E+00
        -11   -1    0    0    0    0  0.00000000000E+00  0.00000000000E+00  0.45593999997E+02  0.45594000000E+02  0.51100000000E-03 0.  1.
         11   -1    0    0    0    0 -0.00000000000E+00 -0.00000000000E+00 -0.45593999997E+02  0.45594000000E+02  0.51100000000E-03 0. -1.
    9900012    2    1    2    0    0 -0.33668894142E+02 -0.14580354148E+02  0.17521002878E+02  0.50528847259E+02  0.29999961727E+02 0.  0.
         12    1    1    2    0    0  0.33668894142E+02  0.14580354148E+02 -0.17521002878E+02  0.40659152741E+02  0.00000000000E+00 0. -1.
         11    1    3    3    0    0 -0.12624659920E+02 -0.10666468917E+02  0.17011840130E+02  0.23718311535E+02  0.51100000000E-03 0. -1.
        -11    1    3    3    0    0 -0.13618959649E+02 -0.45926345622E+01  0.78250581512E+01  0.16364592554E+02  0.51100000000E-03 0.  1.
        -12    1    3    3    0    0 -0.74252745734E+01  0.67874933106E+00 -0.73158954029E+01  0.10445943169E+02  0.00000000000E+00 0.  1.
</event>
<event>
 7    1  0.5121289E-013  0.5052888E+02  0.7816164E-02  0.1300439E+00
        -11   -1    0    0    0    0  0.00000000000E+00  0.00000000000E+00  0.45593999997E+02  0.45594000000E+02  0.51100000000E-03 0.  1.
         11   -1    0    0    0    0 -0.00000000000E+00 -0.00000000000E+00 -0.45593999997E+02  0.45594000000E+02  0.51100000000E-03 0. -1.
    9900012    2    1    2    0    0  0.28082440483E+02  0.16680257863E+02  0.24213823856E+02  0.50528883782E+02  0.30000072744E+02 0.  0.
         12    1    1    2    0    0 -0.28082440483E+02 -0.16680257863E+02 -0.24213823856E+02  0.40659116218E+02  0.00000000000E+00 0. -1.
         11    1    3    3    0    0  0.14458848379E+02 -0.44228474546E+01  0.68561360955E+01  0.16602002243E+02  0.51100000000E-03 0. -1.
        -11    1    3    3    0    0  0.41663614157E-01  0.26210638241E+01 -0.24751884973E+01  0.36053113298E+01  0.51100000000E-03 0.  1.
         12    1    3    3    0    0  0.13581928490E+02  0.18482041493E+02  0.19832876258E+02  0.30321570209E+02  0.00000000000E+00 0. -1.
</event>
<event>
 7    1  0.5121289E-013  0.5052885E+02  0.7816164E-02  0.1300439E+00
        -11   -1    0    0    0    0  0.00000000000E+00  0.00000000000E+00  0.45593999997E+02  0.45594000000E+02  0.51100000000E-03 0.  1.
         11   -1    0    0    0    0 -0.00000000000E+00 -0.00000000000E+00 -0.45593999997E+02  0.45594000000E+02  0.51100000000E-03 0. -1.
    9900012    2    1    2    0    0  0.15423841863E+02  0.35654149537E+02  0.12002206940E+02  0.50528852832E+02  0.29999978667E+02 0.  0.
         12    1    1    2    0    0 -0.15423841863E+02 -0.35654149537E+02 -0.12002206940E+02  0.40659147168E+02  0.00000000000E+00 0. -1.
         11    1    3    3    0    0  0.65365104997E+01  0.14833068138E+01  0.75349041340E+01  0.10084688849E+02  0.51100000000E-03 0. -1.
        -11    1    3    3    0    0 -0.32290063282E+01  0.20495749789E+01  0.47680036405E+01  0.61123725703E+01  0.51100000000E-03 0.  1.
        -12    1    3    3    0    0  0.12116337692E+02  0.32121267744E+02 -0.30070083434E+00  0.34331791412E+02  0.00000000000E+00 0.  1.
</event>
<event>
 7    1  0.5121289E-013  0.5052886E+02  0.7816164E-02  0.1300439E+00
        -11   -1    0    0    0    0  0.00000000000E+00  0.00000000000E+00  0.45593999997E+02  0.45594000000E+02  0.51100000000E-03 0.  1.
         11   -1    0    0    0    0 -0.00000000000E+00 -0.00000000000E+00 -0.45593999997E+02  0.45594000000E+02  0.51100000000E-03 0. -1.
    9900012    2    1    2    0    0 -0.95278849117E+01 -0.36372769718E+02  0.15472781470E+02  0.50528856696E+02  0.29999990412E+02 0.  0.
         12    1    1    2    0    0  0.95278849117E+01  0.36372769718E+02 -0.15472781470E+02  0.40659143304E+02  0.00000000000E+00 0. -1.
         11    1    3    3    0    0  0.38177704295E+01 -0.77990953381E+00 -0.41186586783E+01  0.56698306414E+01  0.51100000000E-03 0. -1.
        -11    1    3    3    0    0 -0.88394013494E+01 -0.17549603977E+02  0.17188710391E+02  0.26106998700E+02  0.51100000000E-03 0.  1.
         12    1    3    3    0    0 -0.45062539918E+01 -0.18043256207E+02  0.24027297573E+01  0.18752027354E+02  0.00000000000E+00 0. -1.
</event>
<event>
 7    1  0.5121289E-013  0.5052886E+02  0.7816164E-02  0.1300439E+00
        -11   -1    0    0    0    0  0.00000000000E+00  0.00000000000E+00  0.45593999997E+02  0.45594000000E+02  0.51100000000E-03 0.  1.
         11   -1    0    0    0    0 -0.00000000000E+00 -0.00000000000E+00 -0.45593999997E+02  0.45594000000E+02  0.51100000000E-03 0. -1.
    9900012    2    1    2    0    0 -0.75590157085E+01 -0.33067306188E+02  0.22418303968E+02  0.50528858226E+02  0.29999995064E+02 0.  0.
         12    1    1    2    0    0  0.75590157085E+01  0.33067306188E+02 -0.22418303968E+02  0.40659141774E+02  0.00000000000E+00 0. -1.
         11    1    3    3    0    0 -0.36498114434E+01 -0.95955904906E+01  0.60635774768E+01  0.11923231630E+02  0.51100000000E-03 0.  1.
        -11    1    3    3    0    0 -0.82468120352E+01 -0.20106017613E+02  0.21864638684E+02  0.30827330051E+02  0.51100000000E-03 0. -1.
         12    1    3    3    0    0  0.43376077701E+01 -0.33656980845E+01 -0.55099121931E+01  0.77782965449E+01  0.00000000000E+00 0. -1.
</event>
<event>
 7    1  0.5121289E-013  0.5052886E+02  0.7816164E-02  0.1300439E+00
        -11   -1    0    0    0    0  0.00000000000E+00  0.00000000000E+00  0.45593999997E+02  0.45594000000E+02  0.51100000000E-03 0.  1.
         11   -1    0    0    0    0 -0.00000000000E+00 -0.00000000000E+00 -0.45593999997E+02  0.45594000000E+02  0.51100000000E-03 0. -1.
    9900012    2    1    2    0    0  0.39073040477E+02  0.97990063646E+01  0.55174725935E+01  0.50528861769E+02  0.30000005834E+02 0.  0.
         12    1    1    2    0    0 -0.39073040477E+02 -0.97990063646E+01 -0.55174725935E+01  0.40659138231E+02  0.00000000000E+00 0. -1.
         11    1    3    3    0    0  0.14991255953E+02  0.80478671210E+01  0.35296498711E+01  0.17377121416E+02  0.51100000000E-03 0. -1.
        -11    1    3    3    0    0 -0.16689190363E+01 -0.25310800190E+01  0.60176099432E+01  0.67381960866E+01  0.51100000000E-03 0.  1.
         12    1    3    3    0    0  0.25750703560E+02  0.42822192626E+01 -0.40297872208E+01  0.26413544266E+02  0.00000000000E+00 0. -1.
</event>
<event>
 7    1  0.5121289E-013  0.5052886E+02  0.7816164E-02  0.1300439E+00
        -11   -1    0    0    0    0  0.00000000000E+00  0.00000000000E+00  0.45593999997E+02  0.45594000000E+02  0.51100000000E-03 0.  1.
         11   -1    0    0    0    0 -0.00000000000E+00 -0.00000000000E+00 -0.45593999997E+02  0.45594000000E+02  0.51100000000E-03 0. -1.
    9900012    2    1    2    0    0  0.85482038641E+01 -0.14743297192E+02  0.36915160489E+02  0.50528859879E+02  0.30000000089E+02 0.  0.
         12    1    1    2    0    0 -0.85482038641E+01  0.14743297192E+02 -0.36915160489E+02  0.40659140121E+02  0.00000000000E+00 0. -1.
         11    1    3    3    0    0  0.75694819847E+01 -0.69444469111E+01  0.26111872570E+02  0.28059798463E+02  0.51100000000E-03 0. -1.
        -11    1    3    3    0    0 -0.76123267792E+01  0.15575976846E+00  0.64468117528E+01  0.99766308009E+01  0.51100000000E-03 0.  1.
         12    1    3    3    0    0  0.85910486586E+01 -0.79546100495E+01  0.43564761669E+01  0.12492430616E+02  0.00000000000E+00 0. -1.
</event>
<event>
 7    1  0.5121289E-013  0.5052888E+02  0.7816164E-02  0.1300439E+00
        -11   -1    0    0    0    0  0.00000000000E+00  0.00000000000E+00  0.45593999997E+02  0.45594000000E+02  0.51100000000E-03 0.  1.
         11   -1    0    0    0    0 -0.00000000000E+00 -0.00000000000E+00 -0.45593999997E+02  0.45594000000E+02  0.51100000000E-03 0. -1.
    9900012    2    1    2    0    0 -0.11242589203E+02 -0.28595260605E+02  0.26628542602E+02  0.50528880209E+02  0.30000061883E+02 0.  0.
         12    1    1    2    0    0  0.11242589203E+02  0.28595260605E+02 -0.26628542602E+02  0.40659119791E+02  0.00000000000E+00 0. -1.
         11    1    3    3    0    0 -0.52716701647E+01 -0.12536963643E+02  0.15987545733E+02  0.20989701821E+02  0.51100000000E-03 0. -1.
        -11    1    3    3    0    0 -0.82784869952E+01 -0.12951513943E+02  0.16478877411E+02  0.22535049619E+02  0.51100000000E-03 0.  1.
         12    1    3    3    0    0  0.23075679566E+01 -0.31067830187E+01 -0.58378805414E+01  0.70041287692E+01  0.00000000000E+00 0. -1.
</event>
<event>
 7    1  0.5121289E-013  0.5052886E+02  0.7816164E-02  0.1300439E+00
        -11   -1    0    0    0    0  0.00000000000E+00  0.00000000000E+00  0.45593999997E+02  0.45594000000E+02  0.51100000000E-03 0.  1.
         11   -1    0    0    0    0 -0.00000000000E+00 -0.00000000000E+00 -0.45593999997E+02  0.45594000000E+02  0.51100000000E-03 0. -1.
    9900012    2    1    2    0    0 -0.86180661101E+01 -0.34280433869E+02  0.20093433257E+02  0.50528864867E+02  0.30000015249E+02 0.  0.
         12    1    1    2    0    0  0.86180661101E+01  0.34280433869E+02 -0.20093433257E+02  0.40659135133E+02  0.00000000000E+00 0. -1.
         11    1    3    3    0    0 -0.28195616358E+01 -0.11575451366E+02  0.35402102022E+01  0.12428760625E+02  0.51100000000E-03 0. -1.
        -11    1    3    3    0    0 -0.11415411402E+02 -0.24625747042E+02  0.17192164471E+02  0.32129574450E+02  0.51100000000E-03 0.  1.
         12    1    3    3    0    0  0.56169069281E+01  0.19207645391E+01 -0.63894141649E+00  0.59705297912E+01  0.00000000000E+00 0. -1.
</event>
<event>
 7    1  0.5121289E-013  0.5052885E+02  0.7816164E-02  0.1300439E+00
        -11   -1    0    0    0    0  0.00000000000E+00  0.00000000000E+00  0.45593999997E+02  0.45594000000E+02  0.51100000000E-03 0.  1.
         11   -1    0    0    0    0 -0.00000000000E+00 -0.00000000000E+00 -0.45593999997E+02  0.45594000000E+02  0.51100000000E-03 0. -1.
    9900012    2    1    2    0    0 -0.31364524627E+01 -0.31771533162E+02  0.25177343218E+02  0.50528852628E+02  0.29999978047E+02 0.  0.
         12    1    1    2    0    0  0.31364524627E+01  0.31771533162E+02 -0.25177343218E+02  0.40659147372E+02  0.00000000000E+00 0. -1.
         11    1    3    3    0    0 -0.18265192275E+01  0.36158097229E+01  0.50101691832E+01  0.64429843975E+01  0.51100000000E-03 0. -1.
        -11    1    3    3    0    0 -0.25587820005E+01 -0.74103049925E+00 -0.16405219824E+01  0.31285466534E+01  0.51100000000E-03 0.  1.
         12    1    3    3    0    0  0.12488487653E+01 -0.34646312386E+02  0.21807696017E+02  0.40957321577E+02  0.00000000000E+00 0. -1.
</event>
<event>
 7    1  0.5121289E-013  0.5052887E+02  0.7816164E-02  0.1300439E+00
        -11   -1    0    0    0    0  0.00000000000E+00  0.00000000000E+00  0.45593999997E+02  0.45594000000E+02  0.51100000000E-03 0. -1.
         11   -1    0    0    0    0 -0.00000000000E+00 -0.00000000000E+00 -0.45593999997E+02  0.45594000000E+02  0.51100000000E-03 0.  1.
    9900012    2    1    2    0    0 -0.73278328119E+01  0.32365793627E+02 -0.23493044986E+02  0.50528869493E+02  0.30000029312E+02 0.  0.
         12    1    1    2    0    0  0.73278328119E+01 -0.32365793627E+02  0.23493044986E+02  0.40659130507E+02  0.00000000000E+00 0. -1.
         11    1    3    3    0    0 -0.81303213777E+01  0.12812741307E+02 -0.37955656860E+01  0.15642083769E+02  0.51100000000E-03 0. -1.
        -11    1    3    3    0    0 -0.26979981495E+01  0.18549461056E+02 -0.45245317733E+01  0.19282974032E+02  0.51100000000E-03 0.  1.
        -12    1    3    3    0    0  0.35004867153E+01  0.10035912636E+01 -0.15172947527E+02  0.15603811692E+02  0.00000000000E+00 0.  1.
</event>
<event>
 7    1  0.5121289E-013  0.5052886E+02  0.7816164E-02  0.1300439E+00
        -11   -1    0    0    0    0  0.00000000000E+00  0.00000000000E+00  0.45593999997E+02  0.45594000000E+02  0.51100000000E-03 0.  1.
         11   -1    0    0    0    0 -0.00000000000E+00 -0.00000000000E+00 -0.45593999997E+02  0.45594000000E+02  0.51100000000E-03 0. -1.
    9900012    2    1    2    0    0 -0.11041592021E+02  0.38177472413E+02  0.85865928679E+01  0.50528859192E+02  0.29999997999E+02 0.  0.
         12    1    1    2    0    0  0.11041592021E+02 -0.38177472413E+02 -0.85865928679E+01  0.40659140808E+02  0.00000000000E+00 0. -1.
         11    1    3    3    0    0 -0.14082567516E+02  0.16823297202E+02  0.85163776512E+01  0.23534458251E+02  0.51100000000E-03 0. -1.
        -11    1    3    3    0    0 -0.11721190649E+01 -0.23419842585E+01 -0.12261175239E+01  0.28917326662E+01  0.51100000000E-03 0.  1.
        -12    1    3    3    0    0  0.42130945604E+01  0.23696159469E+02  0.12963327406E+01  0.24102668274E+02  0.00000000000E+00 0.  1.
</event>
<event>
 7    1  0.5121289E-013  0.5052881E+02  0.7816164E-02  0.1300439E+00
        -11   -1    0    0    0    0  0.00000000000E+00  0.00000000000E+00  0.45593999997E+02  0.45594000000E+02  0.51100000000E-03 0.  1.
         11   -1    0    0    0    0 -0.00000000000E+00 -0.00000000000E+00 -0.45593999997E+02  0.45594000000E+02  0.51100000000E-03 0. -1.
    9900012    2    1    2    0    0  0.30949552238E+02  0.67339883060E+01  0.25494084870E+02  0.50528809827E+02  0.29999847949E+02 0.  0.
         12    1    1    2    0    0 -0.30949552238E+02 -0.67339883060E+01 -0.25494084870E+02  0.40659190173E+02  0.00000000000E+00 0. -1.
         11    1    3    3    0    0 -0.14060984408E+01  0.48584200119E+00 -0.73147806079E+00  0.16577743181E+01  0.51100000000E-03 0. -1.
        -11    1    3    3    0    0  0.22220542931E+02  0.11623654591E+02  0.62641018649E+01  0.25847646830E+02  0.51100000000E-03 0.  1.
        -12    1    3    3    0    0  0.10135107747E+02 -0.53755082862E+01  0.19961461065E+02  0.23023388679E+02  0.00000000000E+00 0.  1.
</event>
<event>
 7    1  0.5121289E-013  0.5052887E+02  0.7816164E-02  0.1300439E+00
        -11   -1    0    0    0    0  0.00000000000E+00  0.00000000000E+00  0.45593999997E+02  0.45594000000E+02  0.51100000000E-03 0.  1.
         11   -1    0    0    0    0 -0.00000000000E+00 -0.00000000000E+00 -0.45593999997E+02  0.45594000000E+02  0.51100000000E-03 0. -1.
    9900012    2    1    2    0    0 -0.28245745922E+02  0.28695489002E+02 -0.56490507656E+01  0.50528867861E+02  0.30000024349E+02 0.  0.
         12    1    1    2    0    0  0.28245745922E+02 -0.28695489002E+02  0.56490507656E+01  0.40659132139E+02  0.00000000000E+00 0. -1.
         11    1    3    3    0    0 -0.77491100487E+01  0.13456890694E+02 -0.50305067454E+01  0.16323069934E+02  0.51100000000E-03 0. -1.
        -11    1    3    3    0    0  0.46538368764E+01 -0.61443258884E-01  0.84677017858E+00  0.47306440304E+01  0.51100000000E-03 0.  1.
        -12    1    3    3    0    0 -0.25150472750E+02  0.15300041567E+02 -0.14653141989E+01  0.29475153896E+02  0.00000000000E+00 0.  1.
</event>
<event>
 7    1  0.5121289E-013  0.5052886E+02  0.7816164E-02  0.1300439E+00
        -11   -1    0    0    0    0  0.00000000000E+00  0.00000000000E+00  0.45593999997E+02  0.45594000000E+02  0.51100000000E-03 0.  1.
         11   -1    0    0    0    0 -0.00000000000E+00 -0.00000000000E+00 -0.45593999997E+02  0.45594000000E+02  0.51100000000E-03 0. -1.
    9900012    2    1    2    0    0 -0.13313688133E+02  0.11475759007E+02  0.36663581092E+02  0.50528861852E+02  0.30000006085E+02 0.  0.
         12    1    1    2    0    0  0.13313688133E+02 -0.11475759007E+02 -0.36663581092E+02  0.40659138148E+02  0.00000000000E+00 0. -1.
         11    1    3    3    0    0  0.28077973157E+01 -0.78763445464E+00  0.74890423032E+01  0.80367809900E+01  0.51100000000E-03 0. -1.
        -11    1    3    3    0    0  0.75249099868E+00 -0.17573428303E+01 -0.29954066099E+01  0.35534430551E+01  0.51100000000E-03 0.  1.
        -12    1    3    3    0    0 -0.16873976448E+02  0.14020736292E+02  0.32169945398E+02  0.38938637807E+02  0.00000000000E+00 0.  1.
</event>
<event>
 7    1  0.5121289E-013  0.5052887E+02  0.7816164E-02  0.1300439E+00
        -11   -1    0    0    0    0  0.00000000000E+00  0.00000000000E+00  0.45593999997E+02  0.45594000000E+02  0.51100000000E-03 0.  1.
         11   -1    0    0    0    0 -0.00000000000E+00 -0.00000000000E+00 -0.45593999997E+02  0.45594000000E+02  0.51100000000E-03 0. -1.
    9900012    2    1    2    0    0 -0.12191244019E+02  0.13115579169E+02  0.36503700516E+02  0.50528868197E+02  0.30000025370E+02 0.  0.
         12    1    1    2    0    0  0.12191244019E+02 -0.13115579169E+02 -0.36503700516E+02  0.40659131803E+02  0.00000000000E+00 0. -1.
         11    1    3    3    0    0 -0.89842734934E+01 -0.15157725165E+01  0.15813394351E+02  0.18250429521E+02  0.51100000000E-03 0. -1.
        -11    1    3    3    0    0 -0.79360891043E+01  0.80769480964E+01  0.21352326095E+02  0.24168997306E+02  0.51100000000E-03 0.  1.
         12    1    3    3    0    0  0.47291185785E+01  0.65544035891E+01 -0.66201993126E+00  0.81094413697E+01  0.00000000000E+00 0. -1.
</event>
<event>
 7    1  0.5121289E-013  0.5052886E+02  0.7816164E-02  0.1300439E+00
        -11   -1    0    0    0    0  0.00000000000E+00  0.00000000000E+00  0.45593999997E+02  0.45594000000E+02  0.51100000000E-03 0. -1.
         11   -1    0    0    0    0 -0.00000000000E+00 -0.00000000000E+00 -0.45593999997E+02  0.45594000000E+02  0.51100000000E-03 0.  1.
    9900012    2    1    2    0    0  0.58494263194E+01  0.18467443113E+02 -0.35747776415E+02  0.50528858814E+02  0.29999996850E+02 0.  0.
         12    1    1    2    0    0 -0.58494263194E+01 -0.18467443113E+02  0.35747776415E+02  0.40659141186E+02  0.00000000000E+00 0. -1.
         11    1    3    3    0    0 -0.14258678486E+01  0.25776027708E+01  0.59359290182E+00  0.30049106409E+01  0.51100000000E-03 0. -1.
        -11    1    3    3    0    0 -0.81670708088E+01  0.11175741021E+02 -0.12027212505E+02  0.18337177369E+02  0.51100000000E-03 0.  1.
        -12    1    3    3    0    0  0.15442364977E+02  0.47140993216E+01 -0.24314156812E+02  0.29186770804E+02  0.00000000000E+00 0.  1.
</event>
<event>
 7    1  0.5121289E-013  0.5052886E+02  0.7816164E-02  0.1300439E+00
        -11   -1    0    0    0    0  0.00000000000E+00  0.00000000000E+00  0.45593999997E+02  0.45594000000E+02  0.51100000000E-03 0.  1.
         11   -1    0    0    0    0 -0.00000000000E+00 -0.00000000000E+00 -0.45593999997E+02  0.45594000000E+02  0.51100000000E-03 0. -1.
    9900012    2    1    2    0    0 -0.35790678380E+02 -0.80706602413E+01  0.17523046361E+02  0.50528863642E+02  0.30000011525E+02 0.  0.
         12    1    1    2    0    0  0.35790678380E+02  0.80706602413E+01 -0.17523046361E+02  0.40659136358E+02  0.00000000000E+00 0. -1.
         11    1    3    3    0    0 -0.15228398121E+02 -0.32451208291E+01  0.14597496446E+02  0.21342957182E+02  0.51100000000E-03 0.  1.
        -11    1    3    3    0    0 -0.15049216787E+02 -0.10405255858E+02  0.78664399591E+01  0.19915550539E+02  0.51100000000E-03 0. -1.
         12    1    3    3    0    0 -0.55130634726E+01  0.55797164459E+01 -0.49408900443E+01  0.92703559208E+01  0.00000000000E+00 0. -1.
</event>
<event>
 7    1  0.5121289E-013  0.5052886E+02  0.7816164E-02  0.1300439E+00
        -11   -1    0    0    0    0  0.00000000000E+00  0.00000000000E+00  0.45593999997E+02  0.45594000000E+02  0.51100000000E-03 0. -1.
         11   -1    0    0    0    0 -0.00000000000E+00 -0.00000000000E+00 -0.45593999997E+02  0.45594000000E+02  0.51100000000E-03 0.  1.
    9900012    2    1    2    0    0  0.16366064406E+02  0.37014976888E+02  0.38998768923E+01  0.50528860586E+02  0.30000002236E+02 0.  0.
         12    1    1    2    0    0 -0.16366064406E+02 -0.37014976888E+02 -0.38998768923E+01  0.40659139414E+02  0.00000000000E+00 0. -1.
         11    1    3    3    0    0 -0.30711977847E+00  0.11633323229E+02  0.62163282982E+01  0.13193607152E+02  0.51100000000E-03 0. -1.
        -11    1    3    3    0    0 -0.30601882691E+00  0.43897403350E+01  0.74262306446E+01  0.86320547715E+01  0.51100000000E-03 0.  1.
        -12    1    3    3    0    0  0.16979203012E+02  0.20991913324E+02 -0.97426820505E+01  0.28703198662E+02  0.00000000000E+00 0.  1.
</event>
<event>
 7    1  0.5121289E-013  0.5052886E+02  0.7816164E-02  0.1300439E+00
        -11   -1    0    0    0    0  0.00000000000E+00  0.00000000000E+00  0.45593999997E+02  0.45594000000E+02  0.51100000000E-03 0.  1.
         11   -1    0    0    0    0 -0.00000000000E+00 -0.00000000000E+00 -0.45593999997E+02  0.45594000000E+02  0.51100000000E-03 0. -1.
    9900012    2    1    2    0    0 -0.18692946971E+02  0.20435583869E+01  0.36049455230E+02  0.50528860563E+02  0.30000002169E+02 0.  0.
         12    1    1    2    0    0  0.18692946971E+02 -0.20435583869E+01 -0.36049455230E+02  0.40659139437E+02  0.00000000000E+00 0. -1.
         11    1    3    3    0    0  0.17533973771E+01 -0.30391481621E+00  0.64790615162E+01  0.67190032720E+01  0.51100000000E-03 0. -1.
        -11    1    3    3    0    0  0.12464468705E+01 -0.59899739387E+00  0.19780183649E+02  0.19828466736E+02  0.51100000000E-03 0.  1.
        -12    1    3    3    0    0 -0.21692791219E+02  0.29464705970E+01  0.97902100649E+01  0.23981390555E+02  0.00000000000E+00 0.  1.
</event>
<event>
 7    1  0.5121289E-013  0.5052887E+02  0.7816164E-02  0.1300439E+00
        -11   -1    0    0    0    0  0.00000000000E+00  0.00000000000E+00  0.45593999997E+02  0.45594000000E+02  0.51100000000E-03 0. -1.
         11   -1    0    0    0    0 -0.00000000000E+00 -0.00000000000E+00 -0.45593999997E+02  0.45594000000E+02  0.51100000000E-03 0.  1.
    9900012    2    1    2    0    0 -0.11278079420E+02  0.37176707278E+02  0.11994274259E+02  0.50528865056E+02  0.30000015823E+02 0.  0.
         12    1    1    2    0    0  0.11278079420E+02 -0.37176707278E+02 -0.11994274259E+02  0.40659134944E+02  0.00000000000E+00 0. -1.
         11    1    3    3    0    0 -0.59375762629E+01  0.18338801111E+02  0.14169750818E+02  0.23923801466E+02  0.51100000000E-03 0. -1.
        -11    1    3    3    0    0 -0.10581532561E+02  0.17415676700E+02 -0.42050580963E+01  0.20807622164E+02  0.51100000000E-03 0.  1.
        -12    1    3    3    0    0  0.52410294041E+01  0.14222294666E+01  0.20295815370E+01  0.57974414258E+01  0.00000000000E+00 0.  1.
</event>
<event>
 7    1  0.5121289E-013  0.5052886E+02  0.7816164E-02  0.1300439E+00
        -11   -1    0    0    0    0  0.00000000000E+00  0.00000000000E+00  0.45593999997E+02  0.45594000000E+02  0.51100000000E-03 0.  1.
         11   -1    0    0    0    0 -0.00000000000E+00 -0.00000000000E+00 -0.45593999997E+02  0.45594000000E+02  0.51100000000E-03 0. -1.
    9900012    2    1    2    0    0 -0.93527491339E+01  0.38373688447E+02  0.96515051938E+01  0.50528862849E+02  0.30000009116E+02 0.  0.
         12    1    1    2    0    0  0.93527491339E+01 -0.38373688447E+02 -0.96515051938E+01  0.40659137151E+02  0.00000000000E+00 0. -1.
         11    1    3    3    0    0  0.10109210263E+01 -0.20675660761E+01  0.10789933465E+00  0.23040037604E+01  0.51100000000E-03 0. -1.
        -11    1    3    3    0    0 -0.64120972418E+01  0.23248427581E+01 -0.36005560007E+01  0.77125798967E+01  0.51100000000E-03 0.  1.
        -12    1    3    3    0    0 -0.39515729185E+01  0.38116411765E+02  0.13144161860E+02  0.40512279192E+02  0.00000000000E+00 0.  1.
</event>
<event>
 7    1  0.5121289E-013  0.5052886E+02  0.7816164E-02  0.1300439E+00
        -11   -1    0    0    0    0  0.00000000000E+00  0.00000000000E+00  0.45593999997E+02  0.45594000000E+02  0.51100000000E-03 0.  1.
         11   -1    0    0    0    0 -0.00000000000E+00 -0.00000000000E+00 -0.45593999997E+02  0.45594000000E+02  0.51100000000E-03 0. -1.
    9900012    2    1    2    0    0 -0.21599958705E+02  0.15581600021E+02  0.30721676162E+02  0.50528857590E+02  0.29999993132E+02 0.  0.
         12    1    1    2    0    0  0.21599958705E+02 -0.15581600021E+02 -0.30721676162E+02  0.40659142410E+02  0.00000000000E+00 0. -1.
         11    1    3    3    0    0  0.26704212748E+01 -0.77192728145E-01 -0.18793099481E+01  0.32663304555E+01  0.51100000000E-03 0. -1.
        -11    1    3    3    0    0 -0.86709267750E+01  0.16435869956E+02  0.18455527754E+02  0.26190251952E+02  0.51100000000E-03 0.  1.
        -12    1    3    3    0    0 -0.15599453205E+02 -0.77707720752E+00  0.14145458356E+02  0.21072275183E+02  0.00000000000E+00 0.  1.
</event>
<event>
 7    1  0.5121289E-013  0.5052886E+02  0.7816164E-02  0.1300439E+00
        -11   -1    0    0    0    0  0.00000000000E+00  0.00000000000E+00  0.45593999997E+02  0.45594000000E+02  0.51100000000E-03 0. -1.
         11   -1    0    0    0    0 -0.00000000000E+00 -0.00000000000E+00 -0.45593999997E+02  0.45594000000E+02  0.51100000000E-03 0.  1.
    9900012    2    1    2    0    0 -0.17937948857E+02 -0.32359356254E+02  0.16860243484E+02  0.50528858879E+02  0.29999997048E+02 0.  0.
         12    1    1    2    0    0  0.17937948857E+02  0.32359356254E+02 -0.16860243484E+02  0.40659141121E+02  0.00000000000E+00 0. -1.
         11    1    3    3    0    0 -0.79541931654E+01 -0.24035426277E+01  0.98632820136E+01  0.12896919726E+02  0.51100000000E-03 0. -1.
        -11    1    3    3    0    0 -0.12656844744E+02 -0.13588349014E+02 -0.21475082917E+01  0.18693601578E+02  0.51100000000E-03 0.  1.
        -12    1    3    3    0    0  0.26730890522E+01 -0.16367464612E+02  0.91444697620E+01  0.18938337575E+02  0.00000000000E+00 0.  1.
</event>
<event>
 7    1  0.5121289E-013  0.5052883E+02  0.7816164E-02  0.1300439E+00
        -11   -1    0    0    0    0  0.00000000000E+00  0.00000000000E+00  0.45593999997E+02  0.45594000000E+02  0.51100000000E-03 0.  1.
         11   -1    0    0    0    0 -0.00000000000E+00 -0.00000000000E+00 -0.45593999997E+02  0.45594000000E+02  0.51100000000E-03 0. -1.
    9900012    2    1    2    0    0 -0.37968100548E+02  0.94416731183E+01  0.11065542615E+02  0.50528830261E+02  0.29999910062E+02 0.  0.
         12    1    1    2    0    0  0.37968100548E+02 -0.94416731183E+01 -0.11065542615E+02  0.40659169739E+02  0.00000000000E+00 0. -1.
         11    1    3    3    0    0 -0.86588143170E+01  0.29228865093E+00  0.16824971751E+02  0.18924591745E+02  0.51100000000E-03 0. -1.
        -11    1    3    3    0    0 -0.35406473775E+01  0.26527396380E+01 -0.57958572546E-01  0.44245418854E+01  0.51100000000E-03 0.  1.
        -12    1    3    3    0    0 -0.25768638853E+02  0.64966448294E+01 -0.57014705629E+01  0.27179696631E+02  0.00000000000E+00 0.  1.
</event>
<event>
 7    1  0.5121289E-013  0.5052887E+02  0.7816164E-02  0.1300439E+00
        -11   -1    0    0    0    0  0.00000000000E+00  0.00000000000E+00  0.45593999997E+02  0.45594000000E+02  0.51100000000E-03 0. -1.
         11   -1    0    0    0    0 -0.00000000000E+00 -0.00000000000E+00 -0.45593999997E+02  0.45594000000E+02  0.51100000000E-03 0.  1.
    9900012    2    1    2    0    0  0.10201544410E+02 -0.38305001936E+02 -0.90454705465E+01  0.50528865491E+02  0.30000017146E+02 0.  0.
         12    1    1    2    0    0 -0.10201544410E+02  0.38305001936E+02  0.90454705465E+01  0.40659134509E+02  0.00000000000E+00 0. -1.
         11    1    3    3    0    0  0.24213486905E+01 -0.92492790429E+01  0.83700558322E+01  0.12707081773E+02  0.51100000000E-03 0. -1.
        -11    1    3    3    0    0 -0.13360410745E+01 -0.26852039470E+01 -0.77221775089E+01  0.82841627054E+01  0.51100000000E-03 0.  1.
        -12    1    3    3    0    0  0.91162367942E+01 -0.26370518946E+02 -0.96933488698E+01  0.29537621012E+02  0.00000000000E+00 0.  1.
</event>
<event>
 7    1  0.5121289E-013  0.5052885E+02  0.7816164E-02  0.1300439E+00
        -11   -1    0    0    0    0  0.00000000000E+00  0.00000000000E+00  0.45593999997E+02  0.45594000000E+02  0.51100000000E-03 0. -1.
         11   -1    0    0    0    0 -0.00000000000E+00 -0.00000000000E+00 -0.45593999997E+02  0.45594000000E+02  0.51100000000E-03 0.  1.
    9900012    2    1    2    0    0 -0.33949295742E+02  0.22003472582E+02  0.40569303339E+01  0.50528853787E+02  0.29999981571E+02 0.  0.
         12    1    1    2    0    0  0.33949295742E+02 -0.22003472582E+02 -0.40569303339E+01  0.40659146213E+02  0.00000000000E+00 0. -1.
         11    1    3    3    0    0 -0.12619164405E+02  0.12555405123E+02  0.34114104002E+01  0.18125099427E+02  0.51100000000E-03 0. -1.
        -11    1    3    3    0    0 -0.10653307508E+02  0.15659645506E+02 -0.37220047996E+01  0.19302092587E+02  0.51100000000E-03 0.  1.
        -12    1    3    3    0    0 -0.10676823829E+02 -0.62115780469E+01  0.43675247333E+01  0.13101661773E+02  0.00000000000E+00 0.  1.
</event>
<event>
 7    1  0.5121289E-013  0.5052888E+02  0.7816164E-02  0.1300439E+00
        -11   -1    0    0    0    0  0.00000000000E+00  0.00000000000E+00  0.45593999997E+02  0.45594000000E+02  0.51100000000E-03 0.  1.
         11   -1    0    0    0    0 -0.00000000000E+00 -0.00000000000E+00 -0.45593999997E+02  0.45594000000E+02  0.51100000000E-03 0. -1.
    9900012    2    1    2    0    0 -0.68755288205E+01 -0.28475780718E+02  0.28196119400E+02  0.50528878843E+02  0.30000057732E+02 0.  0.
         12    1    1    2    0    0  0.68755288205E+01  0.28475780718E+02 -0.28196119400E+02  0.40659121157E+02  0.00000000000E+00 0. -1.
         11    1    3    3    0    0  0.59134327802E+01 -0.62398827438E+01  0.11508121237E+02  0.14364598100E+02  0.51100000000E-03 0. -1.
        -11    1    3    3    0    0  0.76209538546E+00 -0.35500756787E+01  0.12096607966E+02  0.12629796168E+02  0.51100000000E-03 0.  1.
         12    1    3    3    0    0 -0.13551056986E+02 -0.18685822295E+02  0.45913901969E+01  0.23534484576E+02  0.00000000000E+00 0. -1.
</event>
<event>
 7    1  0.5121289E-013  0.5052886E+02  0.7816164E-02  0.1300439E+00
        -11   -1    0    0    0    0  0.00000000000E+00  0.00000000000E+00  0.45593999997E+02  0.45594000000E+02  0.51100000000E-03 0. -1.
         11   -1    0    0    0    0 -0.00000000000E+00 -0.00000000000E+00 -0.45593999997E+02  0.45594000000E+02  0.51100000000E-03 0.  1.
    9900012    2    1    2    0    0 -0.39400529305E+02  0.95443456207E+01 -0.31095139622E+01  0.50528864251E+02  0.30000013376E+02 0.  0.
         12    1    1    2    0    0  0.39400529305E+02 -0.95443456207E+01  0.31095139622E+01  0.40659135749E+02  0.00000000000E+00 0. -1.
         11    1    3    3    0    0 -0.31739162269E+02  0.98473550121E+01  0.83103489824E+01  0.34255024781E+02  0.51100000000E-03 0.  1.
        -11    1    3    3    0    0 -0.27640495512E+01 -0.37030882868E+01 -0.18057271959E+01  0.49611978139E+01  0.51100000000E-03 0. -1.
        -12    1    3    3    0    0 -0.48973174842E+01  0.34000788954E+01 -0.96141357487E+01  0.11312641656E+02  0.00000000000E+00 0.  1.
</event>
<event>
 7    1  0.5121289E-013  0.5052885E+02  0.7816164E-02  0.1300439E+00
        -11   -1    0    0    0    0  0.00000000000E+00  0.00000000000E+00  0.45593999997E+02  0.45594000000E+02  0.51100000000E-03 0.  1.
         11   -1    0    0    0    0 -0.00000000000E+00 -0.00000000000E+00 -0.45593999997E+02  0.45594000000E+02  0.51100000000E-03 0. -1.
    9900012    2    1    2    0    0 -0.24273141275E+02 -0.82042509487E+01 -0.31570102014E+02  0.50528850204E+02  0.29999970679E+02 0.  0.
         12    1    1    2    0    0  0.24273141275E+02  0.82042509487E+01  0.31570102014E+02  0.40659149796E+02  0.00000000000E+00 0. -1.
         11    1    3    3    0    0 -0.70768398664E+01 -0.15443898676E+00  0.18856370776E+01  0.73253765326E+01  0.51100000000E-03 0. -1.
        -11    1    3    3    0    0 -0.10340728792E+02 -0.73241419040E+01 -0.45136158925E+01  0.13451633926E+02  0.51100000000E-03 0.  1.
         12    1    3    3    0    0 -0.68555726161E+01 -0.72567005797E+00 -0.28942123200E+02  0.29751839745E+02  0.00000000000E+00 0. -1.
</event>
<event>
 7    1  0.5121289E-013  0.5052886E+02  0.7816164E-02  0.1300439E+00
        -11   -1    0    0    0    0  0.00000000000E+00  0.00000000000E+00  0.45593999997E+02  0.45594000000E+02  0.51100000000E-03 0.  1.
         11   -1    0    0    0    0 -0.00000000000E+00 -0.00000000000E+00 -0.45593999997E+02  0.45594000000E+02  0.51100000000E-03 0. -1.
    9900012    2    1    2    0    0  0.11120620374E+02 -0.21631508725E+01  0.39048920791E+02  0.50528860386E+02  0.30000001629E+02 0.  0.
         12    1    1    2    0    0 -0.11120620374E+02  0.21631508725E+01 -0.39048920791E+02  0.40659139614E+02  0.00000000000E+00 0. -1.
         11    1    3    3    0    0 -0.14680502220E+01  0.52586471647E+01  0.29262708427E+01  0.61944816380E+01  0.51100000000E-03 0. -1.
        -11    1    3    3    0    0  0.18379591584E+02 -0.51324118668E+01  0.23607498548E+02  0.30355642413E+02  0.51100000000E-03 0.  1.
         12    1    3    3    0    0 -0.57909209882E+01 -0.22893861705E+01  0.12515151401E+02  0.13978736335E+02  0.00000000000E+00 0. -1.
</event>
<event>
 7    1  0.5121289E-013  0.5052885E+02  0.7816164E-02  0.1300439E+00
        -11   -1    0    0    0    0  0.00000000000E+00  0.00000000000E+00  0.45593999997E+02  0.45594000000E+02  0.51100000000E-03 0.  1.
         11   -1    0    0    0    0 -0.00000000000E+00 -0.00000000000E+00 -0.45593999997E+02  0.45594000000E+02  0.51100000000E-03 0. -1.
    9900012    2    1    2    0    0 -0.33831727293E+02  0.19630658065E+02  0.11100362376E+02  0.50528849092E+02  0.29999967300E+02 0.  0.
         12    1    1    2    0    0  0.33831727293E+02 -0.19630658065E+02 -0.11100362376E+02  0.40659150908E+02  0.00000000000E+00 0. -1.
         11    1    3    3    0    0 -0.10574585664E+02  0.99766447884E+01  0.80155938425E+01  0.16601356815E+02  0.51100000000E-03 0. -1.
        -11    1    3    3    0    0 -0.60441723536E+01  0.13398609079E+02  0.63501223339E+01  0.16011833080E+02  0.51100000000E-03 0.  1.
         12    1    3    3    0    0 -0.17212969275E+02 -0.37445958024E+01 -0.32653538000E+01  0.17915659196E+02  0.00000000000E+00 0. -1.
</event>
<event>
 7    1  0.5121289E-013  0.5052886E+02  0.7816164E-02  0.1300439E+00
        -11   -1    0    0    0    0  0.00000000000E+00  0.00000000000E+00  0.45593999997E+02  0.45594000000E+02  0.51100000000E-03 0. -1.
         11   -1    0    0    0    0 -0.00000000000E+00 -0.00000000000E+00 -0.45593999997E+02  0.45594000000E+02  0.51100000000E-03 0.  1.
    9900012    2    1    2    0    0 -0.25649366184E+02 -0.28001066559E+02 -0.14533267502E+02  0.50528861072E+02  0.30000003716E+02 0.  0.
         12    1    1    2    0    0  0.25649366184E+02  0.28001066559E+02  0.14533267502E+02  0.40659138928E+02  0.00000000000E+00 0. -1.
         11    1    3    3    0    0 -0.21389060711E+02 -0.60207431812E+01 -0.12304807989E+01  0.22254333281E+02  0.51100000000E-03 0. -1.
        -11    1    3    3    0    0 -0.77807754385E+01 -0.12984694577E+02 -0.65815596644E+01  0.16506352945E+02  0.51100000000E-03 0.  1.
        -12    1    3    3    0    0  0.35204699657E+01 -0.89956288012E+01 -0.67212270382E+01  0.11768174846E+02  0.00000000000E+00 0.  1.
</event>
<event>
 7    1  0.5121289E-013  0.5052886E+02  0.7816164E-02  0.1300439E+00
        -11   -1    0    0    0    0  0.00000000000E+00  0.00000000000E+00  0.45593999997E+02  0.45594000000E+02  0.51100000000E-03 0.  1.
         11   -1    0    0    0    0 -0.00000000000E+00 -0.00000000000E+00 -0.45593999997E+02  0.45594000000E+02  0.51100000000E-03 0. -1.
    9900012    2    1    2    0    0 -0.86793006077E+01  0.36903108952E+02  0.14696802526E+02  0.50528859406E+02  0.29999998650E+02 0.  0.
         12    1    1    2    0    0  0.86793006077E+01 -0.36903108952E+02 -0.14696802526E+02  0.40659140594E+02  0.00000000000E+00 0. -1.
         11    1    3    3    0    0 -0.34393698512E+01  0.14362356823E+01  0.58576495618E+01  0.69429170064E+01  0.51100000000E-03 0. -1.
        -11    1    3    3    0    0 -0.68222380364E+01  0.17029291080E+02  0.15399940408E+02  0.23951990550E+02  0.51100000000E-03 0.  1.
         12    1    3    3    0    0  0.15823072799E+01  0.18437582190E+02 -0.65607874434E+01  0.19633951849E+02  0.00000000000E+00 0. -1.
</event>
<event>
 7    1  0.5121289E-013  0.5052884E+02  0.7816164E-02  0.1300439E+00
        -11   -1    0    0    0    0  0.00000000000E+00  0.00000000000E+00  0.45593999997E+02  0.45594000000E+02  0.51100000000E-03 0.  1.
         11   -1    0    0    0    0 -0.00000000000E+00 -0.00000000000E+00 -0.45593999997E+02  0.45594000000E+02  0.51100000000E-03 0. -1.
    9900012    2    1    2    0    0 -0.20982869725E+01 -0.29171751192E+02  0.28244878361E+02  0.50528843227E+02  0.29999949473E+02 0.  0.
         12    1    1    2    0    0  0.20982869725E+01  0.29171751192E+02 -0.28244878361E+02  0.40659156773E+02  0.00000000000E+00 0. -1.
         11    1    3    3    0    0  0.10592754469E+01 -0.53443428171E+00 -0.23823743740E+00  0.12101412362E+01  0.51100000000E-03 0. -1.
        -11    1    3    3    0    0  0.11760665717E+02 -0.16687026400E+02  0.19374092918E+02  0.28144725702E+02  0.51100000000E-03 0.  1.
         12    1    3    3    0    0 -0.14918228137E+02 -0.11950290511E+02  0.91090228804E+01  0.21173976289E+02  0.00000000000E+00 0. -1.
</event>
<event>
 7    1  0.5121289E-013  0.5052886E+02  0.7816164E-02  0.1300439E+00
        -11   -1    0    0    0    0  0.00000000000E+00  0.00000000000E+00  0.45593999997E+02  0.45594000000E+02  0.51100000000E-03 0. -1.
         11   -1    0    0    0    0 -0.00000000000E+00 -0.00000000000E+00 -0.45593999997E+02  0.45594000000E+02  0.51100000000E-03 0.  1.
    9900012    2    1    2    0    0  0.37349696580E+02  0.36286063062E+01 -0.15652450885E+02  0.50528857891E+02  0.29999994047E+02 0.  0.
         12    1    1    2    0    0 -0.37349696580E+02 -0.36286063062E+01  0.15652450885E+02  0.40659142109E+02  0.00000000000E+00 0. -1.
         11    1    3    3    0    0  0.14150752448E+01  0.45752743510E+01 -0.12818270655E+01  0.49576863780E+01  0.51100000000E-03 0. -1.
        -11    1    3    3    0    0  0.40101439036E+01  0.47263195481E+01 -0.11443970485E+02  0.13014753602E+02  0.51100000000E-03 0.  1.
        -12    1    3    3    0    0  0.31924477431E+02 -0.56729875929E+01 -0.29266533339E+01  0.32556417911E+02  0.00000000000E+00 0.  1.
</event>
<event>
 7    1  0.5121289E-013  0.5052885E+02  0.7816164E-02  0.1300439E+00
        -11   -1    0    0    0    0  0.00000000000E+00  0.00000000000E+00  0.45593999997E+02  0.45594000000E+02  0.51100000000E-03 0. -1.
         11   -1    0    0    0    0 -0.00000000000E+00 -0.00000000000E+00 -0.45593999997E+02  0.45594000000E+02  0.51100000000E-03 0.  1.
    9900012    2    1    2    0    0 -0.34603914295E+02 -0.21315690204E+02 -0.11733805905E+01  0.50528851516E+02  0.29999974669E+02 0.  0.
         12    1    1    2    0    0  0.34603914295E+02  0.21315690204E+02  0.11733805905E+01  0.40659148484E+02  0.00000000000E+00 0. -1.
         11    1    3    3    0    0  0.29307239453E+01 -0.29189741804E-01 -0.37848776972E+01  0.47869922006E+01  0.51100000000E-03 0. -1.
        -11    1    3    3    0    0 -0.19717316186E+02 -0.18999562835E+02  0.42263870095E+01  0.27705925231E+02  0.51100000000E-03 0.  1.
        -12    1    3    3    0    0 -0.17817322054E+02 -0.22869376272E+01 -0.16148899028E+01  0.18035934084E+02  0.00000000000E+00 0.  1.
</event>
<event>
 7    1  0.5121289E-013  0.5052885E+02  0.7816164E-02  0.1300439E+00
        -11   -1    0    0    0    0  0.00000000000E+00  0.00000000000E+00  0.45593999997E+02  0.45594000000E+02  0.51100000000E-03 0. -1.
         11   -1    0    0    0    0 -0.00000000000E+00 -0.00000000000E+00 -0.45593999997E+02  0.45594000000E+02  0.51100000000E-03 0.  1.
    9900012    2    1    2    0    0 -0.29429528346E+02  0.93859186076E+01  0.26438107440E+02  0.50528854266E+02  0.29999983028E+02 0.  0.
         12    1    1    2    0    0  0.29429528346E+02 -0.93859186076E+01 -0.26438107440E+02  0.40659145734E+02  0.00000000000E+00 0. -1.
         11    1    3    3    0    0 -0.18407015886E+02 -0.80304810028E+01  0.18233431256E+02  0.27124986168E+02  0.51100000000E-03 0. -1.
        -11    1    3    3    0    0 -0.27850203408E+01  0.17323200230E+00  0.13707000223E+01  0.31088850794E+01  0.51100000000E-03 0.  1.
        -12    1    3    3    0    0 -0.82374921194E+01  0.17243167608E+02  0.68339761613E+01  0.20294983019E+02  0.00000000000E+00 0.  1.
</event>
<event>
 7    1  0.5121289E-013  0.5052886E+02  0.7816164E-02  0.1300439E+00
        -11   -1    0    0    0    0  0.00000000000E+00  0.00000000000E+00  0.45593999997E+02  0.45594000000E+02  0.51100000000E-03 0.  1.
         11   -1    0    0    0    0 -0.00000000000E+00 -0.00000000000E+00 -0.45593999997E+02  0.45594000000E+02  0.51100000000E-03 0. -1.
    9900012    2    1    2    0    0 -0.35727741597E+02 -0.35329452103E+01  0.19084350426E+02  0.50528860158E+02  0.30000000936E+02 0.  0.
         12    1    1    2    0    0  0.35727741597E+02  0.35329452103E+01 -0.19084350426E+02  0.40659139842E+02  0.00000000000E+00 0. -1.
         11    1    3    3    0    0 -0.25457490251E+02 -0.41037849641E+01  0.17467089417E+02  0.31145209485E+02  0.51100000000E-03 0. -1.
        -11    1    3    3    0    0 -0.13147441987E+02  0.49183463534E+01  0.18857861896E+01  0.14163387711E+02  0.51100000000E-03 0.  1.
         12    1    3    3    0    0  0.28771906405E+01 -0.43475065997E+01 -0.26852517978E+00  0.52202629616E+01  0.00000000000E+00 0. -1.
</event>
<event>
 7    1  0.5121289E-013  0.5052887E+02  0.7816164E-02  0.1300439E+00
        -11   -1    0    0    0    0  0.00000000000E+00  0.00000000000E+00  0.45593999997E+02  0.45594000000E+02  0.51100000000E-03 0. -1.
         11   -1    0    0    0    0 -0.00000000000E+00 -0.00000000000E+00 -0.45593999997E+02  0.45594000000E+02  0.51100000000E-03 0.  1.
    9900012    2    1    2    0    0  0.32861206711E+02  0.11654992607E+00 -0.23943530290E+02  0.50528866547E+02  0.30000020356E+02 0.  0.
         12    1    1    2    0    0 -0.32861206711E+02 -0.11654992607E+00  0.23943530290E+02  0.40659133453E+02  0.00000000000E+00 0. -1.
         11    1    3    3    0    0  0.14010402475E+02 -0.32425484879E+01 -0.16867197393E+02  0.22165465174E+02  0.51100000000E-03 0. -1.
        -11    1    3    3    0    0  0.18933598149E+02  0.94721569155E+01 -0.68283383042E+01  0.22244754432E+02  0.51100000000E-03 0.  1.
         12    1    3    3    0    0 -0.82793912070E-01 -0.61130585015E+01 -0.24799459245E+00  0.61186469413E+01  0.00000000000E+00 0. -1.
</event>
<event>
 7    1  0.5121289E-013  0.5052886E+02  0.7816164E-02  0.1300439E+00
        -11   -1    0    0    0    0  0.00000000000E+00  0.00000000000E+00  0.45593999997E+02  0.45594000000E+02  0.51100000000E-03 0.  1.
         11   -1    0    0    0    0 -0.00000000000E+00 -0.00000000000E+00 -0.45593999997E+02  0.45594000000E+02  0.51100000000E-03 0. -1.
    9900012    2    1    2    0    0 -0.17806878700E+02 -0.39350698102E+01  0.36340005921E+02  0.50528859160E+02  0.29999997904E+02 0.  0.
         12    1    1    2    0    0  0.17806878700E+02  0.39350698102E+01 -0.36340005921E+02  0.40659140840E+02  0.00000000000E+00 0. -1.
         11    1    3    3    0    0 -0.11091742107E+00 -0.57876708114E+01  0.76116635800E+01  0.95627850970E+01  0.51100000000E-03 0. -1.
        -11    1    3    3    0    0  0.40744281785E+01  0.12163054781E+01  0.14106455336E+02  0.14733378648E+02  0.51100000000E-03 0.  1.
        -12    1    3    3    0    0 -0.21770389458E+02  0.63629552309E+00  0.14621887005E+02  0.26232695415E+02  0.00000000000E+00 0.  1.
</event>
<event>
 7    1  0.5121289E-013  0.5052886E+02  0.7816164E-02  0.1300439E+00
        -11   -1    0    0    0    0  0.00000000000E+00  0.00000000000E+00  0.45593999997E+02  0.45594000000E+02  0.51100000000E-03 0. -1.
         11   -1    0    0    0    0 -0.00000000000E+00 -0.00000000000E+00 -0.45593999997E+02  0.45594000000E+02  0.51100000000E-03 0.  1.
    9900012    2    1    2    0    0  0.39705676037E+02  0.20361577771E+01 -0.85134616548E+01  0.50528859855E+02  0.30000000014E+02 0.  0.
         12    1    1    2    0    0 -0.39705676037E+02 -0.20361577771E+01  0.85134616548E+01  0.40659140145E+02  0.00000000000E+00 0. -1.
         11    1    3    3    0    0  0.17488555349E+02  0.11816896762E+02 -0.83916532248E+01  0.22713618412E+02  0.51100000000E-03 0. -1.
        -11    1    3    3    0    0  0.11018572351E+02 -0.10597044076E+01  0.57275352854E+01  0.12463409276E+02  0.51100000000E-03 0.  1.
         12    1    3    3    0    0  0.11198548337E+02 -0.87210345772E+01 -0.58493437155E+01  0.15351832166E+02  0.00000000000E+00 0. -1.
</event>
<event>
 7    1  0.5121289E-013  0.5052885E+02  0.7816164E-02  0.1300439E+00
        -11   -1    0    0    0    0  0.00000000000E+00  0.00000000000E+00  0.45593999997E+02  0.45594000000E+02  0.51100000000E-03 0. -1.
         11   -1    0    0    0    0 -0.00000000000E+00 -0.00000000000E+00 -0.45593999997E+02  0.45594000000E+02  0.51100000000E-03 0.  1.
    9900012    2    1    2    0    0 -0.19098926569E+02  0.68446581396E+01 -0.35235604620E+02  0.50528853747E+02  0.29999981448E+02 0.  0.
         12    1    1    2    0    0  0.19098926569E+02 -0.68446581396E+01  0.35235604620E+02  0.40659146253E+02  0.00000000000E+00 0. -1.
         11    1    3    3    0    0  0.10085830300E+01 -0.35624977676E-02  0.64867192441E+00  0.11991780295E+01  0.51100000000E-03 0. -1.
        -11    1    3    3    0    0 -0.84708619560E+00  0.10791004452E+02 -0.33751776942E+01  0.11338216651E+02  0.51100000000E-03 0.  1.
        -12    1    3    3    0    0 -0.19260423404E+02 -0.39427838147E+01 -0.32509098850E+02  0.37991459066E+02  0.00000000000E+00 0.  1.
</event>
<event>
 7    1  0.5121289E-013  0.5052886E+02  0.7816164E-02  0.1300439E+00
        -11   -1    0    0    0    0  0.00000000000E+00  0.00000000000E+00  0.45593999997E+02  0.45594000000E+02  0.51100000000E-03 0.  1.
         11   -1    0    0    0    0 -0.00000000000E+00 -0.00000000000E+00 -0.45593999997E+02  0.45594000000E+02  0.51100000000E-03 0. -1.
    9900012    2    1    2    0    0 -0.36505290427E+02  0.72332768509E+01  0.16377102870E+02  0.50528855622E+02  0.29999987148E+02 0.  0.
         12    1    1    2    0    0  0.36505290427E+02 -0.72332768509E+01 -0.16377102870E+02  0.40659144378E+02  0.00000000000E+00 0. -1.
         11    1    3    3    0    0 -0.20226898119E+02  0.60869567475E+01  0.34083659854E+01  0.21396154068E+02  0.51100000000E-03 0. -1.
        -11    1    3    3    0    0 -0.13775655289E+02  0.26537460551E+01 -0.17401570747E+01  0.14136449119E+02  0.51100000000E-03 0.  1.
        -12    1    3    3    0    0 -0.25027370185E+01 -0.15074259517E+01  0.14708893960E+02  0.14996252435E+02  0.00000000000E+00 0.  1.
</event>
<event>
 7    1  0.5121289E-013  0.5052887E+02  0.7816164E-02  0.1300439E+00
        -11   -1    0    0    0    0  0.00000000000E+00  0.00000000000E+00  0.45593999997E+02  0.45594000000E+02  0.51100000000E-03 0.  1.
         11   -1    0    0    0    0 -0.00000000000E+00 -0.00000000000E+00 -0.45593999997E+02  0.45594000000E+02  0.51100000000E-03 0. -1.
    9900012    2    1    2    0    0 -0.79120006404E+01  0.13826714244E+02  0.37408380701E+02  0.50528871534E+02  0.30000035516E+02 0.  0.
         12    1    1    2    0    0  0.79120006404E+01 -0.13826714244E+02 -0.37408380701E+02  0.40659128466E+02  0.00000000000E+00 0. -1.
         11    1    3    3    0    0  0.87797262878E+01  0.72552463252E+01  0.22415672917E+02  0.25143281120E+02  0.51100000000E-03 0. -1.
        -11    1    3    3    0    0 -0.18330531722E+00  0.35321736424E+01  0.14696060738E+01  0.38300905672E+01  0.51100000000E-03 0.  1.
        -12    1    3    3    0    0 -0.16508421611E+02  0.30392942762E+01  0.13523101711E+02  0.21555499847E+02  0.00000000000E+00 0.  1.
</event>
<event>
 7    1  0.5121289E-013  0.5052883E+02  0.7816164E-02  0.1300439E+00
        -11   -1    0    0    0    0  0.00000000000E+00  0.00000000000E+00  0.45593999997E+02  0.45594000000E+02  0.51100000000E-03 0. -1.
         11   -1    0    0    0    0 -0.00000000000E+00 -0.00000000000E+00 -0.45593999997E+02  0.45594000000E+02  0.51100000000E-03 0.  1.
    9900012    2    1    2    0    0 -0.10576844995E+01 -0.34781631193E+02 -0.21030639510E+02  0.50528826826E+02  0.29999899621E+02 0.  0.
         12    1    1    2    0    0  0.10576844995E+01  0.34781631193E+02  0.21030639510E+02  0.40659173174E+02  0.00000000000E+00 0. -1.
         11    1    3    3    0    0 -0.21711103006E+01  0.29828364303E+01  0.86042928177E-01  0.36903166197E+01  0.51100000000E-03 0. -1.
        -11    1    3    3    0    0  0.85387272047E+01 -0.13905886747E+02 -0.48531205304E+01  0.17024580102E+02  0.51100000000E-03 0.  1.
         12    1    3    3    0    0 -0.74253014036E+01 -0.23858580877E+02 -0.16263561907E+02  0.29813930105E+02  0.00000000000E+00 0. -1.
</event>
<event>
 7    1  0.5600806E-013  0.5052886E+02  0.7816164E-02  0.1300439E+00
        -11   -1    0    0    0    0  0.00000000000E+00  0.00000000000E+00  0.45593999997E+02  0.45594000000E+02  0.51100000000E-03 0.  1.
         11   -1    0    0    0    0 -0.00000000000E+00 -0.00000000000E+00 -0.45593999997E+02  0.45594000000E+02  0.51100000000E-03 0. -1.
    9900012    2    1    2    0    0 -0.30201130824E+02  0.20187647377E+02  0.18262434694E+02  0.50528856740E+02  0.29999990547E+02 0.  0.
         12    1    1    2    0    0  0.30201130824E+02 -0.20187647377E+02 -0.18262434694E+02  0.40659143260E+02  0.00000000000E+00 0. -1.
         11    1    3    3    0    0 -0.43054671809E+01  0.49686250785E+01 -0.42798851553E+01  0.78448518164E+01  0.51100000000E-03 0. -1.
        -11    1    3    3    0    0 -0.26256780658E+02  0.88453939682E+01  0.11644801030E+02  0.30054299464E+02  0.51100000000E-03 0.  1.
         12    1    3    3    0    0  0.36111701450E+00  0.63736283299E+01  0.10897518819E+02  0.12629705460E+02  0.00000000000E+00 0. -1.
</event>
<event>
 7    1  0.5121289E-013  0.5052886E+02  0.7816164E-02  0.1300439E+00
        -11   -1    0    0    0    0  0.00000000000E+00  0.00000000000E+00  0.45593999997E+02  0.45594000000E+02  0.51100000000E-03 0. -1.
         11   -1    0    0    0    0 -0.00000000000E+00 -0.00000000000E+00 -0.45593999997E+02  0.45594000000E+02  0.51100000000E-03 0.  1.
    9900012    2    1    2    0    0 -0.10448345128E+01 -0.11166435168E+02 -0.39081772061E+02  0.50528857597E+02  0.29999993152E+02 0.  0.
         12    1    1    2    0    0  0.10448345128E+01  0.11166435168E+02  0.39081772061E+02  0.40659142403E+02  0.00000000000E+00 0. -1.
         11    1    3    3    0    0  0.64772162516E+01 -0.20509217613E+01 -0.65717411868E+01  0.94524278854E+01  0.51100000000E-03 0. -1.
        -11    1    3    3    0    0 -0.21102374883E+01  0.41591834883E+01 -0.23906946339E+02  0.24357627000E+02  0.51100000000E-03 0.  1.
        -12    1    3    3    0    0 -0.54118132761E+01 -0.13274696895E+02 -0.86030845349E+01  0.16718802712E+02  0.00000000000E+00 0.  1.
</event>
<event>
 7    1  0.5121289E-013  0.5052885E+02  0.7816164E-02  0.1300439E+00
        -11   -1    0    0    0    0  0.00000000000E+00  0.00000000000E+00  0.45593999997E+02  0.45594000000E+02  0.51100000000E-03 0.  1.
         11   -1    0    0    0    0 -0.00000000000E+00 -0.00000000000E+00 -0.45593999997E+02  0.45594000000E+02  0.51100000000E-03 0. -1.
    9900012    2    1    2    0    0 -0.34387968488E+02  0.19341886280E+02  0.98247330308E+01  0.50528851943E+02  0.29999975966E+02 0.  0.
         12    1    1    2    0    0  0.34387968488E+02 -0.19341886280E+02 -0.98247330308E+01  0.40659148057E+02  0.00000000000E+00 0. -1.
         11    1    3    3    0    0 -0.15968607118E+02  0.49176396312E+01  0.88260917836E+01  0.18896547020E+02  0.51100000000E-03 0. -1.
        -11    1    3    3    0    0 -0.14441874307E+02  0.11518687383E+02  0.10268485289E+02  0.21135034491E+02  0.51100000000E-03 0.  1.
         12    1    3    3    0    0 -0.39774870627E+01  0.29055592659E+01 -0.92698440418E+01  0.10497270433E+02  0.00000000000E+00 0. -1.
</event>
<event>
 7    1  0.5121289E-013  0.5052886E+02  0.7816164E-02  0.1300439E+00
        -11   -1    0    0    0    0  0.00000000000E+00  0.00000000000E+00  0.45593999997E+02  0.45594000000E+02  0.51100000000E-03 0.  1.
         11   -1    0    0    0    0 -0.00000000000E+00 -0.00000000000E+00 -0.45593999997E+02  0.45594000000E+02  0.51100000000E-03 0. -1.
    9900012    2    1    2    0    0  0.36591706344E+02 -0.12123682007E+02 -0.12931696170E+02  0.50528863211E+02  0.30000010216E+02 0.  0.
         12    1    1    2    0    0 -0.36591706344E+02  0.12123682007E+02  0.12931696170E+02  0.40659136789E+02  0.00000000000E+00 0. -1.
         11    1    3    3    0    0  0.34347398164E+01 -0.57483294251E+01 -0.37134122691E+01  0.76570333503E+01  0.51100000000E-03 0. -1.
        -11    1    3    3    0    0  0.36329654112E+01 -0.89858248597E+01  0.39149824217E+01  0.10453256608E+02  0.51100000000E-03 0.  1.
        -12    1    3    3    0    0  0.29524001117E+02  0.26104722774E+01 -0.13133266322E+02  0.32418573253E+02  0.00000000000E+00 0.  1.
</event>
<event>
 7    1  0.5121289E-013  0.5052888E+02  0.7816164E-02  0.1300439E+00
        -11   -1    0    0    0    0  0.00000000000E+00  0.00000000000E+00  0.45593999997E+02  0.45594000000E+02  0.51100000000E-03 0.  1.
         11   -1    0    0    0    0 -0.00000000000E+00 -0.00000000000E+00 -0.45593999997E+02  0.45594000000E+02  0.51100000000E-03 0. -1.
    9900012    2    1    2    0    0 -0.15163338462E+02 -0.10456075469E+02  0.36247861720E+02  0.50528882612E+02  0.30000069186E+02 0.  0.
         12    1    1    2    0    0  0.15163338462E+02  0.10456075469E+02 -0.36247861720E+02  0.40659117388E+02  0.00000000000E+00 0. -1.
         11    1    3    3    0    0  0.59437623470E+00 -0.70287087815E+01  0.23024899267E+02  0.24081154806E+02  0.51100000000E-03 0. -1.
        -11    1    3    3    0    0  0.22164824467E+01 -0.94052512441E+00  0.67759663369E+01  0.71910431792E+01  0.51100000000E-03 0.  1.
         12    1    3    3    0    0 -0.17974197143E+02 -0.24868415636E+01  0.64469961158E+01  0.19256684627E+02  0.00000000000E+00 0. -1.
</event>
<event>
 7    1  0.5121289E-013  0.5052885E+02  0.7816164E-02  0.1300439E+00
        -11   -1    0    0    0    0  0.00000000000E+00  0.00000000000E+00  0.45593999997E+02  0.45594000000E+02  0.51100000000E-03 0.  1.
         11   -1    0    0    0    0 -0.00000000000E+00 -0.00000000000E+00 -0.45593999997E+02  0.45594000000E+02  0.51100000000E-03 0. -1.
    9900012    2    1    2    0    0  0.37389295492E+02  0.15515783593E+02  0.38035873109E+01  0.50528853006E+02  0.29999979196E+02 0.  0.
         12    1    1    2    0    0 -0.37389295492E+02 -0.15515783593E+02 -0.38035873109E+01  0.40659146994E+02  0.00000000000E+00 0. -1.
         11    1    3    3    0    0 -0.14593274095E+00 -0.20249019419E+01  0.18280681851E+00  0.20383676884E+01  0.51100000000E-03 0. -1.
        -11    1    3    3    0    0  0.12550767215E+02  0.24756394396E+01 -0.10053112987E+02  0.16270083875E+02  0.51100000000E-03 0.  1.
        -12    1    3    3    0    0  0.24984461018E+02  0.15065046096E+02  0.13673893479E+02  0.32220401442E+02  0.00000000000E+00 0.  1.
</event>
<event>
 7    1  0.5121289E-013  0.5052886E+02  0.7816164E-02  0.1300439E+00
        -11   -1    0    0    0    0  0.00000000000E+00  0.00000000000E+00  0.45593999997E+02  0.45594000000E+02  0.51100000000E-03 0.  1.
         11   -1    0    0    0    0 -0.00000000000E+00 -0.00000000000E+00 -0.45593999997E+02  0.45594000000E+02  0.51100000000E-03 0. -1.
    9900012    2    1    2    0    0 -0.17143192610E+02  0.60895570474E+01  0.36361986257E+02  0.50528858316E+02  0.29999995338E+02 0.  0.
         12    1    1    2    0    0  0.17143192610E+02 -0.60895570474E+01 -0.36361986257E+02  0.40659141684E+02  0.00000000000E+00 0. -1.
         11    1    3    3    0    0  0.56196807409E-01 -0.19325813017E-01  0.59503344204E+01  0.59506311887E+01  0.51100000000E-03 0. -1.
        -11    1    3    3    0    0  0.12611384229E+01  0.39724204178E+01  0.24825691199E+02  0.25173111406E+02  0.51100000000E-03 0.  1.
         12    1    3    3    0    0 -0.18460527841E+02  0.21364624426E+01  0.55859606381E+01  0.19405115722E+02  0.00000000000E+00 0. -1.
</event>
<event>
 7    1  0.5121289E-013  0.5052886E+02  0.7816164E-02  0.1300439E+00
        -11   -1    0    0    0    0  0.00000000000E+00  0.00000000000E+00  0.45593999997E+02  0.45594000000E+02  0.51100000000E-03 0.  1.
         11   -1    0    0    0    0 -0.00000000000E+00 -0.00000000000E+00 -0.45593999997E+02  0.45594000000E+02  0.51100000000E-03 0. -1.
    9900012    2    1    2    0    0  0.40043793739E+02 -0.42346908657E+01  0.56327124029E+01  0.50528862371E+02  0.30000007662E+02 0.  0.
         12    1    1    2    0    0 -0.40043793739E+02  0.42346908657E+01 -0.56327124029E+01  0.40659137629E+02  0.00000000000E+00 0. -1.
         11    1    3    3    0    0 -0.24705823568E+00 -0.32622230915E+01  0.73793271617E+00  0.33537564349E+01  0.51100000000E-03 0. -1.
        -11    1    3    3    0    0  0.16766881003E+01 -0.47309260728E+01 -0.50542664132E+01  0.71231000083E+01  0.51100000000E-03 0.  1.
        -12    1    3    3    0    0  0.38614163875E+02  0.37584582986E+01  0.99490460999E+01  0.40052005927E+02  0.00000000000E+00 0.  1.
</event>
<event>
 7    1  0.5121289E-013  0.5052885E+02  0.7816164E-02  0.1300439E+00
        -11   -1    0    0    0    0  0.00000000000E+00  0.00000000000E+00  0.45593999997E+02  0.45594000000E+02  0.51100000000E-03 0. -1.
         11   -1    0    0    0    0 -0.00000000000E+00 -0.00000000000E+00 -0.45593999997E+02  0.45594000000E+02  0.51100000000E-03 0.  1.
    9900012    2    1    2    0    0  0.22125004969E+02 -0.13971727002E+02 -0.31119791949E+02  0.50528850338E+02  0.29999971086E+02 0.  0.
         12    1    1    2    0    0 -0.22125004969E+02  0.13971727002E+02  0.31119791949E+02  0.40659149662E+02  0.00000000000E+00 0. -1.
         11    1    3    3    0    0  0.17027361108E+02 -0.75608105682E+01 -0.60148623626E+01  0.19577422002E+02  0.51100000000E-03 0.  1.
        -11    1    3    3    0    0  0.30306752045E+01 -0.67372524477E+00  0.16461562479E+01  0.35140757753E+01  0.51100000000E-03 0. -1.
         12    1    3    3    0    0  0.20669686562E+01 -0.57371911890E+01 -0.26751085835E+02  0.27437352560E+02  0.00000000000E+00 0. -1.
</event>
<event>
 7    1  0.5121289E-013  0.5052886E+02  0.7816164E-02  0.1300439E+00
        -11   -1    0    0    0    0  0.00000000000E+00  0.00000000000E+00  0.45593999997E+02  0.45594000000E+02  0.51100000000E-03 0.  1.
         11   -1    0    0    0    0 -0.00000000000E+00 -0.00000000000E+00 -0.45593999997E+02  0.45594000000E+02  0.51100000000E-03 0. -1.
    9900012    2    1    2    0    0 -0.22211240978E+02 -0.72262692516E+01  0.33280737398E+02  0.50528859886E+02  0.30000000108E+02 0.  0.
         12    1    1    2    0    0  0.22211240978E+02  0.72262692516E+01 -0.33280737398E+02  0.40659140114E+02  0.00000000000E+00 0. -1.
         11    1    3    3    0    0 -0.10494671168E+02 -0.26381441883E+01  0.14466497024E+02  0.18065919962E+02  0.51100000000E-03 0.  1.
        -11    1    3    3    0    0 -0.17003566946E+02 -0.80756526197E+01  0.92046310564E+01  0.20953822736E+02  0.51100000000E-03 0. -1.
         12    1    3    3    0    0  0.52869971362E+01  0.34875275565E+01  0.96096093181E+01  0.11509117187E+02  0.00000000000E+00 0. -1.
</event>
<event>
 7    1  0.5121289E-013  0.5052886E+02  0.7816164E-02  0.1300439E+00
        -11   -1    0    0    0    0  0.00000000000E+00  0.00000000000E+00  0.45593999997E+02  0.45594000000E+02  0.51100000000E-03 0. -1.
         11   -1    0    0    0    0 -0.00000000000E+00 -0.00000000000E+00 -0.45593999997E+02  0.45594000000E+02  0.51100000000E-03 0.  1.
    9900012    2    1    2    0    0 -0.37474192753E+02  0.12104214708E+01 -0.15728491204E+02  0.50528859844E+02  0.29999999983E+02 0.  0.
         12    1    1    2    0    0  0.37474192753E+02 -0.12104214708E+01  0.15728491204E+02  0.40659140156E+02  0.00000000000E+00 0. -1.
         11    1    3    3    0    0 -0.10068058436E+02  0.11524101798E+01 -0.19694582073E+01  0.10323401367E+02  0.51100000000E-03 0. -1.
        -11    1    3    3    0    0 -0.18897556029E+02  0.37612537563E+01 -0.20951742784E+02  0.28464718155E+02  0.51100000000E-03 0.  1.
         12    1    3    3    0    0 -0.85085782876E+01 -0.37032424653E+01  0.71927097870E+01  0.11740740322E+02  0.00000000000E+00 0. -1.
</event>
<event>
 7    1  0.5121289E-013  0.5052899E+02  0.7816164E-02  0.1300438E+00
        -11   -1    0    0    0    0  0.00000000000E+00  0.00000000000E+00  0.45593999997E+02  0.45594000000E+02  0.51100000000E-03 0.  1.
         11   -1    0    0    0    0 -0.00000000000E+00 -0.00000000000E+00 -0.45593999997E+02  0.45594000000E+02  0.51100000000E-03 0. -1.
    9900012    2    1    2    0    0 -0.25210548343E+02 -0.17464564100E+02  0.26694048723E+02  0.50528991353E+02  0.30000399713E+02 0.  0.
         12    1    1    2    0    0  0.25210548343E+02  0.17464564100E+02 -0.26694048723E+02  0.40659008647E+02  0.00000000000E+00 0. -1.
         11    1    3    3    0    0 -0.96495171065E+01 -0.52092305204E+01  0.18413345236E+02  0.21431298282E+02  0.51100000000E-03 0. -1.
        -11    1    3    3    0    0 -0.17342140232E+02 -0.57007258665E+01  0.11505926409E+02  0.21578564503E+02  0.51100000000E-03 0.  1.
         12    1    3    3    0    0  0.17811089952E+01 -0.65546077132E+01 -0.32252229217E+01  0.75191285680E+01  0.00000000000E+00 0. -1.
</event>
<event>
 7    1  0.5121289E-013  0.5052886E+02  0.7816164E-02  0.1300439E+00
        -11   -1    0    0    0    0  0.00000000000E+00  0.00000000000E+00  0.45593999997E+02  0.45594000000E+02  0.51100000000E-03 0. -1.
         11   -1    0    0    0    0 -0.00000000000E+00 -0.00000000000E+00 -0.45593999997E+02  0.45594000000E+02  0.51100000000E-03 0.  1.
    9900012    2    1    2    0    0 -0.27180326591E+02  0.18495834366E+02 -0.23922777064E+02  0.50528864435E+02  0.30000013935E+02 0.  0.
         12    1    1    2    0    0  0.27180326591E+02 -0.18495834366E+02  0.23922777064E+02  0.40659135565E+02  0.00000000000E+00 0. -1.
         11    1    3    3    0    0  0.35877455343E+01 -0.24580619219E+01 -0.27703727395E+01  0.51564475957E+01  0.51100000000E-03 0. -1.
        -11    1    3    3    0    0 -0.12050749238E+02  0.17228311311E+01 -0.11799169522E+02  0.16953144428E+02  0.51100000000E-03 0.  1.
        -12    1    3    3    0    0 -0.18717322887E+02  0.19231065157E+02 -0.93532348024E+01  0.28419272411E+02  0.00000000000E+00 0.  1.
</event>
<event>
 7    1  0.5121289E-013  0.5052886E+02  0.7816164E-02  0.1300439E+00
        -11   -1    0    0    0    0  0.00000000000E+00  0.00000000000E+00  0.45593999997E+02  0.45594000000E+02  0.51100000000E-03 0. -1.
         11   -1    0    0    0    0 -0.00000000000E+00 -0.00000000000E+00 -0.45593999997E+02  0.45594000000E+02  0.51100000000E-03 0.  1.
    9900012    2    1    2    0    0 -0.83874895869E+01 -0.12256135488E+02 -0.37849742399E+02  0.50528857875E+02  0.29999993997E+02 0.  0.
         12    1    1    2    0    0  0.83874895869E+01  0.12256135488E+02  0.37849742399E+02  0.40659142125E+02  0.00000000000E+00 0. -1.
         11    1    3    3    0    0 -0.74424645406E+01  0.38404052666E+01 -0.89515803017E+01  0.12258457538E+02  0.51100000000E-03 0. -1.
        -11    1    3    3    0    0 -0.92942316120E+01 -0.36420528503E+01 -0.13359455404E+02  0.16677000305E+02  0.51100000000E-03 0.  1.
        -12    1    3    3    0    0  0.83492065657E+01 -0.12454487904E+02 -0.15538706693E+02  0.21593400032E+02  0.00000000000E+00 0.  1.
</event>
<event>
 7    1  0.5121289E-013  0.5052885E+02  0.7816164E-02  0.1300439E+00
        -11   -1    0    0    0    0  0.00000000000E+00  0.00000000000E+00  0.45593999997E+02  0.45594000000E+02  0.51100000000E-03 0. -1.
         11   -1    0    0    0    0 -0.00000000000E+00 -0.00000000000E+00 -0.45593999997E+02  0.45594000000E+02  0.51100000000E-03 0.  1.
    9900012    2    1    2    0    0  0.16580823889E+02  0.36047124078E+02 -0.88795991557E+01  0.50528853965E+02  0.29999982112E+02 0.  0.
         12    1    1    2    0    0 -0.16580823889E+02 -0.36047124078E+02  0.88795991557E+01  0.40659146035E+02  0.00000000000E+00 0. -1.
         11    1    3    3    0    0 -0.15010448687E+01  0.51669752943E+01 -0.17044506055E+01  0.56441050236E+01  0.51100000000E-03 0. -1.
        -11    1    3    3    0    0  0.11585594454E+02  0.27498451483E+02 -0.15641333683E+02  0.33690386647E+02  0.51100000000E-03 0.  1.
         12    1    3    3    0    0  0.64962743041E+01  0.33816973007E+01  0.84661851326E+01  0.11194362294E+02  0.00000000000E+00 0. -1.
</event>
<event>
 7    1  0.5121289E-013  0.5052886E+02  0.7816164E-02  0.1300439E+00
        -11   -1    0    0    0    0  0.00000000000E+00  0.00000000000E+00  0.45593999997E+02  0.45594000000E+02  0.51100000000E-03 0. -1.
         11   -1    0    0    0    0 -0.00000000000E+00 -0.00000000000E+00 -0.45593999997E+02  0.45594000000E+02  0.51100000000E-03 0.  1.
    9900012    2    1    2    0    0 -0.28892967376E+02 -0.28596163972E+02 -0.78852652365E+00  0.50528856725E+02  0.29999990503E+02 0.  0.
         12    1    1    2    0    0  0.28892967376E+02  0.28596163972E+02  0.78852652365E+00  0.40659143275E+02  0.00000000000E+00 0. -1.
         11    1    3    3    0    0 -0.58511329335E+01 -0.27373388267E+00  0.25925213571E+01  0.64056111412E+01  0.51100000000E-03 0. -1.
        -11    1    3    3    0    0 -0.25454474848E+02 -0.13626447529E+02 -0.95713955087E-01  0.28872469992E+02  0.51100000000E-03 0.  1.
         12    1    3    3    0    0  0.24126404050E+01 -0.14695982561E+02 -0.32853339257E+01  0.15250775592E+02  0.00000000000E+00 0. -1.
</event>
<event>
 7    1  0.5121289E-013  0.5052886E+02  0.7816164E-02  0.1300439E+00
        -11   -1    0    0    0    0  0.00000000000E+00  0.00000000000E+00  0.45593999997E+02  0.45594000000E+02  0.51100000000E-03 0. -1.
         11   -1    0    0    0    0 -0.00000000000E+00 -0.00000000000E+00 -0.45593999997E+02  0.45594000000E+02  0.51100000000E-03 0.  1.
    9900012    2    1    2    0    0  0.40571685694E+02 -0.25696668354E+01  0.70782966406E+00  0.50528857233E+02  0.29999992045E+02 0.  0.
         12    1    1    2    0    0 -0.40571685694E+02  0.25696668354E+01 -0.70782966406E+00  0.40659142767E+02  0.00000000000E+00 0. -1.
         11    1    3    3    0    0 -0.15298366473E+01 -0.33357631160E+01 -0.12932182082E+00  0.36721165734E+01  0.51100000000E-03 0. -1.
        -11    1    3    3    0    0  0.34291034020E+02  0.89302972038E+01 -0.77774415911E+00  0.35443336588E+02  0.51100000000E-03 0.  1.
         12    1    3    3    0    0  0.78104883223E+01 -0.81642009232E+01  0.16148956440E+01  0.11413404071E+02  0.00000000000E+00 0. -1.
</event>
<event>
 7    1  0.5121289E-013  0.5052881E+02  0.7816164E-02  0.1300439E+00
        -11   -1    0    0    0    0  0.00000000000E+00  0.00000000000E+00  0.45593999997E+02  0.45594000000E+02  0.51100000000E-03 0.  1.
         11   -1    0    0    0    0 -0.00000000000E+00 -0.00000000000E+00 -0.45593999997E+02  0.45594000000E+02  0.51100000000E-03 0. -1.
    9900012    2    1    2    0    0  0.28365590258E+01 -0.24631461503E+02  0.32224448223E+02  0.50528806376E+02  0.29999837459E+02 0.  0.
         12    1    1    2    0    0 -0.28365590258E+01  0.24631461503E+02 -0.32224448223E+02  0.40659193624E+02  0.00000000000E+00 0. -1.
         11    1    3    3    0    0  0.27722176056E+01  0.25036016289E+01  0.11298435882E+01  0.39025323014E+01  0.51100000000E-03 0. -1.
        -11    1    3    3    0    0  0.40812674480E+01  0.12140554472E+01 -0.13180271965E+00  0.42600524444E+01  0.51100000000E-03 0.  1.
        -12    1    3    3    0    0 -0.40169260278E+01 -0.28349118579E+02  0.31226407355E+02  0.42366221630E+02  0.00000000000E+00 0.  1.
</event>
<event>
 7    1  0.5121289E-013  0.5052886E+02  0.7816164E-02  0.1300439E+00
        -11   -1    0    0    0    0  0.00000000000E+00  0.00000000000E+00  0.45593999997E+02  0.45594000000E+02  0.51100000000E-03 0.  1.
         11   -1    0    0    0    0 -0.00000000000E+00 -0.00000000000E+00 -0.45593999997E+02  0.45594000000E+02  0.51100000000E-03 0. -1.
    9900012    2    1    2    0    0  0.36892946388E+02 -0.11072838014E+02 -0.13018006047E+02  0.50528859376E+02  0.29999998559E+02 0.  0.
         12    1    1    2    0    0 -0.36892946388E+02  0.11072838014E+02  0.13018006047E+02  0.40659140624E+02  0.00000000000E+00 0. -1.
         11    1    3    3    0    0 -0.11860124901E+01 -0.69732857702E+01 -0.16641869609E+01  0.72665575455E+01  0.51100000000E-03 0. -1.
        -11    1    3    3    0    0  0.13114171994E+01 -0.15845408581E+01 -0.55956649624E+01  0.59617154775E+01  0.51100000000E-03 0.  1.
        -12    1    3    3    0    0  0.36767541679E+02 -0.25150113854E+01 -0.57581541234E+01  0.37300586353E+02  0.00000000000E+00 0.  1.
</event>
<event>
 7    1  0.5121289E-013  0.5052886E+02  0.7816164E-02  0.1300439E+00
        -11   -1    0    0    0    0  0.00000000000E+00  0.00000000000E+00  0.45593999997E+02  0.45594000000E+02  0.51100000000E-03 0. -1.
         11   -1    0    0    0    0 -0.00000000000E+00 -0.00000000000E+00 -0.45593999997E+02  0.45594000000E+02  0.51100000000E-03 0.  1.
    9900012    2    1    2    0    0 -0.99301667756E+01 -0.34055991552E+02 -0.19868232312E+02  0.50528862921E+02  0.30000009336E+02 0.  0.
         12    1    1    2    0    0  0.99301667756E+01  0.34055991552E+02  0.19868232312E+02  0.40659137079E+02  0.00000000000E+00 0. -1.
         11    1    3    3    0    0 -0.11896743896E+01 -0.12339310863E+02 -0.53912047999E+01  0.13518099245E+02  0.51100000000E-03 0. -1.
        -11    1    3    3    0    0 -0.69260483222E+01 -0.23806668525E+02 -0.27316873429E+01  0.24943731229E+02  0.51100000000E-03 0.  1.
         12    1    3    3    0    0 -0.18144440638E+01  0.20899878361E+01 -0.11745340169E+02  0.12067032448E+02  0.00000000000E+00 0. -1.
</event>
<event>
 7    1  0.5121289E-013  0.5052885E+02  0.7816164E-02  0.1300439E+00
        -11   -1    0    0    0    0  0.00000000000E+00  0.00000000000E+00  0.45593999997E+02  0.45594000000E+02  0.51100000000E-03 0.  1.
         11   -1    0    0    0    0 -0.00000000000E+00 -0.00000000000E+00 -0.45593999997E+02  0.45594000000E+02  0.51100000000E-03 0. -1.
    9900012    2    1    2    0    0 -0.92591190190E+01  0.25196913864E+02  0.30537689472E+02  0.50528853039E+02  0.29999979298E+02 0.  0.
         12    1    1    2    0    0  0.92591190190E+01 -0.25196913864E+02 -0.30537689472E+02  0.40659146961E+02  0.00000000000E+00 0. -1.
         11    1    3    3    0    0 -0.19101232743E+01  0.37109966430E+01  0.17593550884E+02  0.18081844485E+02  0.51100000000E-03 0. -1.
        -11    1    3    3    0    0 -0.88461734123E+01  0.58422563392E+01  0.12944830518E+02  0.16731867217E+02  0.51100000000E-03 0.  1.
         12    1    3    3    0    0  0.14971776675E+01  0.15643660882E+02 -0.69193011860E-03  0.15715141337E+02  0.00000000000E+00 0. -1.
</event>
<event>
 7    1  0.5121289E-013  0.5052878E+02  0.7816164E-02  0.1300439E+00
        -11   -1    0    0    0    0  0.00000000000E+00  0.00000000000E+00  0.45593999997E+02  0.45594000000E+02  0.51100000000E-03 0.  1.
         11   -1    0    0    0    0 -0.00000000000E+00 -0.00000000000E+00 -0.45593999997E+02  0.45594000000E+02  0.51100000000E-03 0. -1.
    9900012    2    1    2    0    0  0.10178918868E+02  0.36281092812E+02  0.15272318700E+02  0.50528784520E+02  0.29999771026E+02 0.  0.
         12    1    1    2    0    0 -0.10178918868E+02 -0.36281092812E+02 -0.15272318700E+02  0.40659215480E+02  0.00000000000E+00 0. -1.
         11    1    3    3    0    0 -0.21494301705E+01 -0.82205720276E+00 -0.41448764958E+01  0.47408680143E+01  0.51100000000E-03 0. -1.
        -11    1    3    3    0    0  0.39284873511E+01  0.65739339495E+01 -0.15471188495E+01  0.78130146190E+01  0.51100000000E-03 0.  1.
        -12    1    3    3    0    0  0.83998616873E+01  0.30529216066E+02  0.20964314045E+02  0.37974901887E+02  0.00000000000E+00 0.  1.
</event>
<event>
 7    1  0.5121289E-013  0.5052887E+02  0.7816164E-02  0.1300439E+00
        -11   -1    0    0    0    0  0.00000000000E+00  0.00000000000E+00  0.45593999997E+02  0.45594000000E+02  0.51100000000E-03 0. -1.
         11   -1    0    0    0    0 -0.00000000000E+00 -0.00000000000E+00 -0.45593999997E+02  0.45594000000E+02  0.51100000000E-03 0.  1.
    9900012    2    1    2    0    0 -0.36138687414E+02  0.18186088739E+02 -0.40529824571E+01  0.50528865499E+02  0.30000017170E+02 0.  0.
         12    1    1    2    0    0  0.36138687414E+02 -0.18186088739E+02  0.40529824571E+01  0.40659134501E+02  0.00000000000E+00 0. -1.
         11    1    3    3    0    0 -0.13306490941E+02  0.14503859097E+02  0.12592652947E+00  0.19683508011E+02  0.51100000000E-03 0. -1.
        -11    1    3    3    0    0 -0.15642195531E+02  0.72767402533E+01  0.56448333795E+01  0.18151952344E+02  0.51100000000E-03 0.  1.
         12    1    3    3    0    0 -0.71900009411E+01 -0.35945106110E+01 -0.98237423661E+01  0.12693405144E+02  0.00000000000E+00 0. -1.
</event>
<event>
 7    1  0.5121289E-013  0.5052885E+02  0.7816164E-02  0.1300439E+00
        -11   -1    0    0    0    0  0.00000000000E+00  0.00000000000E+00  0.45593999997E+02  0.45594000000E+02  0.51100000000E-03 0.  1.
         11   -1    0    0    0    0 -0.00000000000E+00 -0.00000000000E+00 -0.45593999997E+02  0.45594000000E+02  0.51100000000E-03 0. -1.
    9900012    2    1    2    0    0  0.28331472303E+02  0.27122883486E+02  0.10716480676E+02  0.50528854786E+02  0.29999984606E+02 0.  0.
         12    1    1    2    0    0 -0.28331472303E+02 -0.27122883486E+02 -0.10716480676E+02  0.40659145214E+02  0.00000000000E+00 0. -1.
         11    1    3    3    0    0  0.66597212223E+01  0.18239934973E+02 -0.29599832945E+01  0.19642011505E+02  0.51100000000E-03 0. -1.
        -11    1    3    3    0    0  0.18981722907E+01  0.29970064113E+01 -0.27714324753E+01  0.45017711737E+01  0.51100000000E-03 0.  1.
        -12    1    3    3    0    0  0.19773578790E+02  0.58859421017E+01  0.16447896445E+02  0.26385072107E+02  0.00000000000E+00 0.  1.
</event>
<event>
 7    1  0.5121289E-013  0.5052886E+02  0.7816164E-02  0.1300439E+00
        -11   -1    0    0    0    0  0.00000000000E+00  0.00000000000E+00  0.45593999997E+02  0.45594000000E+02  0.51100000000E-03 0.  1.
         11   -1    0    0    0    0 -0.00000000000E+00 -0.00000000000E+00 -0.45593999997E+02  0.45594000000E+02  0.51100000000E-03 0. -1.
    9900012    2    1    2    0    0  0.26111466748E+02 -0.11181574770E+02  0.29091737517E+02  0.50528862014E+02  0.30000006576E+02 0.  0.
         12    1    1    2    0    0 -0.26111466748E+02  0.11181574770E+02 -0.29091737517E+02  0.40659137986E+02  0.00000000000E+00 0. -1.
         11    1    3    3    0    0  0.12868029096E+02 -0.10250089728E+02  0.84669324040E+01  0.18502417594E+02  0.51100000000E-03 0. -1.
        -11    1    3    3    0    0  0.16706793908E+02 -0.62184344459E+01  0.17480964910E+02  0.24967379200E+02  0.51100000000E-03 0.  1.
        -12    1    3    3    0    0 -0.34633562562E+01  0.52869494036E+01  0.31438402024E+01  0.70590652194E+01  0.00000000000E+00 0.  1.
</event>
<event>
 7    1  0.5121289E-013  0.5052886E+02  0.7816164E-02  0.1300439E+00
        -11   -1    0    0    0    0  0.00000000000E+00  0.00000000000E+00  0.45593999997E+02  0.45594000000E+02  0.51100000000E-03 0. -1.
         11   -1    0    0    0    0 -0.00000000000E+00 -0.00000000000E+00 -0.45593999997E+02  0.45594000000E+02  0.51100000000E-03 0.  1.
    9900012    2    1    2    0    0 -0.36945381125E+02 -0.16652804418E+02 -0.32997639759E+01  0.50528861744E+02  0.30000005756E+02 0.  0.
         12    1    1    2    0    0  0.36945381125E+02  0.16652804418E+02  0.32997639759E+01  0.40659138256E+02  0.00000000000E+00 0. -1.
         11    1    3    3    0    0  0.31165993197E+01  0.10229914774E+01 -0.35268026411E+01  0.48164343671E+01  0.51100000000E-03 0. -1.
        -11    1    3    3    0    0 -0.25364670512E+01  0.18856077329E+01 -0.11731622361E+01  0.33712744648E+01  0.51100000000E-03 0.  1.
         12    1    3    3    0    0 -0.37525513393E+02 -0.19561403629E+02  0.14002009013E+01  0.42341152912E+02  0.00000000000E+00 0. -1.
</event>
<event>
 7    1  0.5121289E-013  0.5052887E+02  0.7816164E-02  0.1300439E+00
        -11   -1    0    0    0    0  0.00000000000E+00  0.00000000000E+00  0.45593999997E+02  0.45594000000E+02  0.51100000000E-03 0. -1.
         11   -1    0    0    0    0 -0.00000000000E+00 -0.00000000000E+00 -0.45593999997E+02  0.45594000000E+02  0.51100000000E-03 0.  1.
    9900012    2    1    2    0    0  0.23747563577E+02 -0.28629673126E+02 -0.16418283304E+02  0.50528868359E+02  0.30000025864E+02 0.  0.
         12    1    1    2    0    0 -0.23747563577E+02  0.28629673126E+02  0.16418283304E+02  0.40659131641E+02  0.00000000000E+00 0. -1.
         11    1    3    3    0    0 -0.62102458815E+00  0.72681905600E+00 -0.88019229505E+00  0.12994907528E+01  0.51100000000E-03 0. -1.
        -11    1    3    3    0    0  0.11435160114E+02 -0.20741937721E+02 -0.22068720065E+02  0.32373125781E+02  0.51100000000E-03 0.  1.
        -12    1    3    3    0    0  0.12933428051E+02 -0.86145544616E+01  0.65306290565E+01  0.16856251825E+02  0.00000000000E+00 0.  1.
</event>
<event>
 7    1  0.5121289E-013  0.5052886E+02  0.7816164E-02  0.1300439E+00
        -11   -1    0    0    0    0  0.00000000000E+00  0.00000000000E+00  0.45593999997E+02  0.45594000000E+02  0.51100000000E-03 0. -1.
         11   -1    0    0    0    0 -0.00000000000E+00 -0.00000000000E+00 -0.45593999997E+02  0.45594000000E+02  0.51100000000E-03 0.  1.
    9900012    2    1    2    0    0  0.28476140548E+01 -0.39185435140E+02 -0.10467017489E+02  0.50528859724E+02  0.29999999616E+02 0.  0.
         12    1    1    2    0    0 -0.28476140548E+01  0.39185435140E+02  0.10467017489E+02  0.40659140276E+02  0.00000000000E+00 0. -1.
         11    1    3    3    0    0 -0.41041840897E+01  0.25935127801E+01 -0.50276763494E+01  0.69891462510E+01  0.51100000000E-03 0. -1.
        -11    1    3    3    0    0  0.20761800539E+01 -0.23502687158E+01  0.10015348398E+01  0.32920144211E+01  0.51100000000E-03 0.  1.
         12    1    3    3    0    0  0.48756180906E+01 -0.39428679204E+02 -0.64408759792E+01  0.40247699051E+02  0.00000000000E+00 0. -1.
</event>
<event>
 7    1  0.5121289E-013  0.5052885E+02  0.7816164E-02  0.1300439E+00
        -11   -1    0    0    0    0  0.00000000000E+00  0.00000000000E+00  0.45593999997E+02  0.45594000000E+02  0.51100000000E-03 0.  1.
         11   -1    0    0    0    0 -0.00000000000E+00 -0.00000000000E+00 -0.45593999997E+02  0.45594000000E+02  0.51100000000E-03 0. -1.
    9900012    2    1    2    0    0 -0.24245210753E+02 -0.16607203894E+02  0.28098705590E+02  0.50528847015E+02  0.29999960987E+02 0.  0.
         12    1    1    2    0    0  0.24245210753E+02  0.16607203894E+02 -0.28098705590E+02  0.40659152985E+02  0.00000000000E+00 0. -1.
         11    1    3    3    0    0  0.19281839013E+01 -0.27527895464E+01 -0.14801111973E+01  0.36723933425E+01  0.51100000000E-03 0.  1.
        -11    1    3    3    0    0 -0.10047238095E+02 -0.29923470532E+01 -0.10940542469E+01  0.10540307831E+02  0.51100000000E-03 0. -1.
        -12    1    3    3    0    0 -0.16126156559E+02 -0.10862067294E+02  0.30672871034E+02  0.36316145841E+02  0.00000000000E+00 0.  1.
</event>
<event>
 7    1  0.5121289E-013  0.5052886E+02  0.7816164E-02  0.1300439E+00
        -11   -1    0    0    0    0  0.00000000000E+00  0.00000000000E+00  0.45593999997E+02  0.45594000000E+02  0.51100000000E-03 0. -1.
         11   -1    0    0    0    0 -0.00000000000E+00 -0.00000000000E+00 -0.45593999997E+02  0.45594000000E+02  0.51100000000E-03 0.  1.
    9900012    2    1    2    0    0  0.20335745649E+02 -0.23628938031E+02 -0.26101653696E+02  0.50528860939E+02  0.30000003309E+02 0.  0.
         12    1    1    2    0    0 -0.20335745649E+02  0.23628938031E+02  0.26101653696E+02  0.40659139061E+02  0.00000000000E+00 0. -1.
         11    1    3    3    0    0  0.22225870980E+01 -0.41832799265E+01  0.25461567343E+01  0.53779771967E+01  0.51100000000E-03 0. -1.
        -11    1    3    3    0    0  0.17631862546E+02 -0.27167634037E+01 -0.11711258348E+02  0.21340500289E+02  0.51100000000E-03 0.  1.
         12    1    3    3    0    0  0.48129600520E+00 -0.16728894701E+02 -0.16936552082E+02  0.23810383453E+02  0.00000000000E+00 0. -1.
</event>
<event>
 7    1  0.5121289E-013  0.5052887E+02  0.7816164E-02  0.1300439E+00
        -11   -1    0    0    0    0  0.00000000000E+00  0.00000000000E+00  0.45593999997E+02  0.45594000000E+02  0.51100000000E-03 0. -1.
         11   -1    0    0    0    0 -0.00000000000E+00 -0.00000000000E+00 -0.45593999997E+02  0.45594000000E+02  0.51100000000E-03 0.  1.
    9900012    2    1    2    0    0 -0.24554940784E+02 -0.17813062958E+02 -0.27072399210E+02  0.50528866612E+02  0.30000020554E+02 0.  0.
         12    1    1    2    0    0  0.24554940784E+02  0.17813062958E+02  0.27072399210E+02  0.40659133388E+02  0.00000000000E+00 0. -1.
         11    1    3    3    0    0 -0.23249687771E+01  0.59815868906E+01 -0.16342431933E+01  0.66223570291E+01  0.51100000000E-03 0. -1.
        -11    1    3    3    0    0 -0.11292847696E+02 -0.61831841055E+01 -0.17458913218E+02  0.21692713657E+02  0.51100000000E-03 0.  1.
        -12    1    3    3    0    0 -0.10937124311E+02 -0.17611465743E+02 -0.79792427986E+01  0.22213795926E+02  0.00000000000E+00 0.  1.
</event>
<event>
 7    1  0.5121289E-013  0.5052886E+02  0.7816164E-02  0.1300439E+00
        -11   -1    0    0    0    0  0.00000000000E+00  0.00000000000E+00  0.45593999997E+02  0.45594000000E+02  0.51100000000E-03 0. -1.
         11   -1    0    0    0    0 -0.00000000000E+00 -0.00000000000E+00 -0.45593999997E+02  0.45594000000E+02  0.51100000000E-03 0.  1.
    9900012    2    1    2    0    0 -0.39710068832E+02  0.25472941225E+01 -0.83538966860E+01  0.50528857561E+02  0.29999993043E+02 0.  0.
         12    1    1    2    0    0  0.39710068832E+02 -0.25472941225E+01  0.83538966860E+01  0.40659142439E+02  0.00000000000E+00 0. -1.
         11    1    3    3    0    0 -0.15495633874E+02  0.14916769721E+01  0.10424858156E+01  0.15602132748E+02  0.51100000000E-03 0. -1.
        -11    1    3    3    0    0 -0.22864451463E+02  0.85644465513E+01 -0.23283054550E+01  0.24526595605E+02  0.51100000000E-03 0.  1.
        -12    1    3    3    0    0 -0.13499834956E+01 -0.75088294009E+01 -0.70680770467E+01  0.10400129208E+02  0.00000000000E+00 0.  1.
</event>
<event>
 7    1  0.5121289E-013  0.5052886E+02  0.7816164E-02  0.1300439E+00
        -11   -1    0    0    0    0  0.00000000000E+00  0.00000000000E+00  0.45593999997E+02  0.45594000000E+02  0.51100000000E-03 0.  1.
         11   -1    0    0    0    0 -0.00000000000E+00 -0.00000000000E+00 -0.45593999997E+02  0.45594000000E+02  0.51100000000E-03 0. -1.
    9900012    2    1    2    0    0  0.10087991189E+02 -0.31360391767E+02  0.23831161576E+02  0.50528855886E+02  0.29999987952E+02 0.  0.
         12    1    1    2    0    0 -0.10087991189E+02  0.31360391767E+02 -0.23831161576E+02  0.40659144114E+02  0.00000000000E+00 0. -1.
         11    1    3    3    0    0 -0.55628637139E+01 -0.65036334634E+01  0.27421264719E+01  0.89867657572E+01  0.51100000000E-03 0. -1.
        -11    1    3    3    0    0 -0.39902092882E+01 -0.10320970470E+02  0.90886734646E+01  0.14319503735E+02  0.51100000000E-03 0.  1.
        -12    1    3    3    0    0  0.19641064192E+02 -0.14535787834E+02  0.12000361640E+02  0.27222586394E+02  0.00000000000E+00 0.  1.
</event>
<event>
 7    1  0.5121289E-013  0.5052885E+02  0.7816164E-02  0.1300439E+00
        -11   -1    0    0    0    0  0.00000000000E+00  0.00000000000E+00  0.45593999997E+02  0.45594000000E+02  0.51100000000E-03 0.  1.
         11   -1    0    0    0    0 -0.00000000000E+00 -0.00000000000E+00 -0.45593999997E+02  0.45594000000E+02  0.51100000000E-03 0. -1.
    9900012    2    1    2    0    0  0.38523364257E+01  0.62387246521E+01  0.39992548245E+02  0.50528854703E+02  0.29999984354E+02 0.  0.
         12    1    1    2    0    0 -0.38523364257E+01 -0.62387246521E+01 -0.39992548245E+02  0.40659145297E+02  0.00000000000E+00 0. -1.
         11    1    3    3    0    0  0.36511245196E+01 -0.13075732211E+01  0.19536755645E+01  0.43425000240E+01  0.51100000000E-03 0. -1.
        -11    1    3    3    0    0 -0.51842758315E+00  0.13285530767E+01 -0.37080318843E+01  0.39728228192E+01  0.51100000000E-03 0.  1.
        -12    1    3    3    0    0  0.71963948927E+00  0.62177447965E+01  0.41746904564E+02  0.42213531859E+02  0.00000000000E+00 0.  1.
</event>
<event>
 7    1  0.5121289E-013  0.5052886E+02  0.7816164E-02  0.1300439E+00
        -11   -1    0    0    0    0  0.00000000000E+00  0.00000000000E+00  0.45593999997E+02  0.45594000000E+02  0.51100000000E-03 0. -1.
         11   -1    0    0    0    0 -0.00000000000E+00 -0.00000000000E+00 -0.45593999997E+02  0.45594000000E+02  0.51100000000E-03 0.  1.
    9900012    2    1    2    0    0 -0.39711173909E+02 -0.35254197202E+01 -0.79849812632E+01  0.50528857815E+02  0.29999993816E+02 0.  0.
         12    1    1    2    0    0  0.39711173909E+02  0.35254197202E+01  0.79849812632E+01  0.40659142185E+02  0.00000000000E+00 0. -1.
         11    1    3    3    0    0 -0.29626597291E+02 -0.47145484843E+01  0.53914318421E+01  0.30479989698E+02  0.51100000000E-03 0. -1.
        -11    1    3    3    0    0 -0.92183783456E+01  0.86307327397E+00 -0.31488333742E+01  0.97794962385E+01  0.51100000000E-03 0.  1.
         12    1    3    3    0    0 -0.86619827261E+00  0.32605549017E+00 -0.10227579731E+02  0.10269371879E+02  0.00000000000E+00 0. -1.
</event>
<event>
 7    1  0.5121289E-013  0.5052887E+02  0.7816164E-02  0.1300439E+00
        -11   -1    0    0    0    0  0.00000000000E+00  0.00000000000E+00  0.45593999997E+02  0.45594000000E+02  0.51100000000E-03 0. -1.
         11   -1    0    0    0    0 -0.00000000000E+00 -0.00000000000E+00 -0.45593999997E+02  0.45594000000E+02  0.51100000000E-03 0.  1.
    9900012    2    1    2    0    0  0.12750862747E+02 -0.30441322649E+02 -0.23746708605E+02  0.50528870705E+02  0.30000032996E+02 0.  0.
         12    1    1    2    0    0 -0.12750862747E+02  0.30441322649E+02  0.23746708605E+02  0.40659129295E+02  0.00000000000E+00 0. -1.
         11    1    3    3    0    0  0.65147955253E+00 -0.20122881615E+02 -0.15301590762E+02  0.25288208125E+02  0.51100000000E-03 0. -1.
        -11    1    3    3    0    0  0.67569412904E+01 -0.14554617464E+02 -0.90031704915E+01  0.18399734354E+02  0.51100000000E-03 0.  1.
         12    1    3    3    0    0  0.53424419043E+01  0.42361764292E+01  0.55805264857E+00  0.68409282264E+01  0.00000000000E+00 0. -1.
</event>
<event>
 7    1  0.5121289E-013  0.5052886E+02  0.7816164E-02  0.1300439E+00
        -11   -1    0    0    0    0  0.00000000000E+00  0.00000000000E+00  0.45593999997E+02  0.45594000000E+02  0.51100000000E-03 0.  1.
         11   -1    0    0    0    0 -0.00000000000E+00 -0.00000000000E+00 -0.45593999997E+02  0.45594000000E+02  0.51100000000E-03 0. -1.
    9900012    2    1    2    0    0  0.22904387767E+02 -0.22846466523E+02  0.24629121999E+02  0.50528860044E+02  0.30000000589E+02 0.  0.
         12    1    1    2    0    0 -0.22904387767E+02  0.22846466523E+02 -0.24629121999E+02  0.40659139956E+02  0.00000000000E+00 0. -1.
         11    1    3    3    0    0 -0.19068809411E+01 -0.11860834166E+02  0.13299125882E+02  0.17921560521E+02  0.51100000000E-03 0. -1.
        -11    1    3    3    0    0  0.56894539324E+01  0.10107328214E+01 -0.23210278803E+01  0.62272495990E+01  0.51100000000E-03 0.  1.
         12    1    3    3    0    0  0.19121814775E+02 -0.11996365179E+02  0.13651023997E+02  0.26380049923E+02  0.00000000000E+00 0. -1.
</event>
<event>
 7    1  0.5121289E-013  0.5052886E+02  0.7816164E-02  0.1300439E+00
        -11   -1    0    0    0    0  0.00000000000E+00  0.00000000000E+00  0.45593999997E+02  0.45594000000E+02  0.51100000000E-03 0. -1.
         11   -1    0    0    0    0 -0.00000000000E+00 -0.00000000000E+00 -0.45593999997E+02  0.45594000000E+02  0.51100000000E-03 0.  1.
    9900012    2    1    2    0    0 -0.20387222093E+02 -0.27580542276E+02 -0.21836678534E+02  0.50528859991E+02  0.30000000429E+02 0.  0.
         12    1    1    2    0    0  0.20387222093E+02  0.27580542276E+02  0.21836678534E+02  0.40659140009E+02  0.00000000000E+00 0. -1.
         11    1    3    3    0    0 -0.22317342214E+00 -0.24311097096E+01  0.31551475734E+01  0.39893680286E+01  0.51100000000E-03 0. -1.
        -11    1    3    3    0    0 -0.13906041183E+02 -0.81531262022E+01 -0.56410073838E+00  0.16129775515E+02  0.51100000000E-03 0.  1.
        -12    1    3    3    0    0 -0.62580074874E+01 -0.16996306364E+02 -0.24427725369E+02  0.30409716448E+02  0.00000000000E+00 0.  1.
</event>
<event>
 7    1  0.5121289E-013  0.5052887E+02  0.7816164E-02  0.1300439E+00
        -11   -1    0    0    0    0  0.00000000000E+00  0.00000000000E+00  0.45593999997E+02  0.45594000000E+02  0.51100000000E-03 0.  1.
         11   -1    0    0    0    0 -0.00000000000E+00 -0.00000000000E+00 -0.45593999997E+02  0.45594000000E+02  0.51100000000E-03 0. -1.
    9900012    2    1    2    0    0  0.14190444769E+02  0.58057922764E+01  0.37657524470E+02  0.50528867005E+02  0.30000021749E+02 0.  0.
         12    1    1    2    0    0 -0.14190444769E+02 -0.58057922764E+01 -0.37657524470E+02  0.40659132995E+02  0.00000000000E+00 0. -1.
         11    1    3    3    0    0  0.19709504604E+01 -0.20833268636E+01  0.21305707709E+02  0.21497862168E+02  0.51100000000E-03 0. -1.
        -11    1    3    3    0    0  0.82842201872E+00 -0.54877845078E+01  0.75761557589E+01  0.93914960570E+01  0.51100000000E-03 0.  1.
        -12    1    3    3    0    0  0.11391072290E+02  0.13376903648E+02  0.87756610015E+01  0.19639508780E+02  0.00000000000E+00 0.  1.
</event>
<event>
 7    1  0.5121289E-013  0.5052886E+02  0.7816164E-02  0.1300439E+00
        -11   -1    0    0    0    0  0.00000000000E+00  0.00000000000E+00  0.45593999997E+02  0.45594000000E+02  0.51100000000E-03 0.  1.
         11   -1    0    0    0    0 -0.00000000000E+00 -0.00000000000E+00 -0.45593999997E+02  0.45594000000E+02  0.51100000000E-03 0. -1.
    9900012    2    1    2    0    0  0.13868468540E+02  0.29653992128E+02  0.24113729173E+02  0.50528860764E+02  0.30000002777E+02 0.  0.
         12    1    1    2    0    0 -0.13868468540E+02 -0.29653992128E+02 -0.24113729173E+02  0.40659139236E+02  0.00000000000E+00 0. -1.
         11    1    3    3    0    0 -0.46173413890E+01  0.19652154729E+02  0.12356174307E+02  0.23668588271E+02  0.51100000000E-03 0.  1.
        -11    1    3    3    0    0  0.10188428102E+02  0.11611256931E+02  0.57165765976E+01  0.16471326691E+02  0.51100000000E-03 0. -1.
        -12    1    3    3    0    0  0.82973818269E+01 -0.16094195318E+01  0.60409782688E+01  0.10388945801E+02  0.00000000000E+00 0.  1.
</event>
<event>
 7    1  0.5121289E-013  0.5052886E+02  0.7816164E-02  0.1300439E+00
        -11   -1    0    0    0    0  0.00000000000E+00  0.00000000000E+00  0.45593999997E+02  0.45594000000E+02  0.51100000000E-03 0.  1.
         11   -1    0    0    0    0 -0.00000000000E+00 -0.00000000000E+00 -0.45593999997E+02  0.45594000000E+02  0.51100000000E-03 0. -1.
    9900012    2    1    2    0    0 -0.36370658195E+02  0.14510503445E+02 -0.10944680426E+02  0.50528861821E+02  0.30000005992E+02 0.  0.
         12    1    1    2    0    0  0.36370658195E+02 -0.14510503445E+02  0.10944680426E+02  0.40659138179E+02  0.00000000000E+00 0. -1.
         11    1    3    3    0    0 -0.76196090893E+01  0.10916484231E+02  0.38848365732E+01  0.13867949600E+02  0.51100000000E-03 0. -1.
        -11    1    3    3    0    0 -0.99959843192E+00  0.16018607053E+01  0.30509218963E+01  0.35879352590E+01  0.51100000000E-03 0.  1.
        -12    1    3    3    0    0 -0.27751450674E+02  0.19921585082E+01 -0.17880438896E+02  0.33072976962E+02  0.00000000000E+00 0.  1.
</event>
<event>
 7    1  0.5121289E-013  0.5052881E+02  0.7816164E-02  0.1300439E+00
        -11   -1    0    0    0    0  0.00000000000E+00  0.00000000000E+00  0.45593999997E+02  0.45594000000E+02  0.51100000000E-03 0.  1.
         11   -1    0    0    0    0 -0.00000000000E+00 -0.00000000000E+00 -0.45593999997E+02  0.45594000000E+02  0.51100000000E-03 0. -1.
    9900012    2    1    2    0    0 -0.14965027836E+02 -0.26019407352E+02  0.27426414564E+02  0.50528808752E+02  0.29999844682E+02 0.  0.
         12    1    1    2    0    0  0.14965027836E+02  0.26019407352E+02 -0.27426414564E+02  0.40659191248E+02  0.00000000000E+00 0. -1.
         11    1    3    3    0    0 -0.59353500250E+01 -0.62211353989E+01 -0.28667852768E+01  0.90636286142E+01  0.51100000000E-03 0. -1.
        -11    1    3    3    0    0 -0.69214864357E+01 -0.18601821908E+02  0.12387747000E+02  0.23396389225E+02  0.51100000000E-03 0.  1.
        -12    1    3    3    0    0 -0.21081913750E+01 -0.11964500447E+01  0.17905452841E+02  0.18068790912E+02  0.00000000000E+00 0.  1.
</event>
<event>
 7    1  0.5121289E-013  0.5052886E+02  0.7816164E-02  0.1300439E+00
        -11   -1    0    0    0    0  0.00000000000E+00  0.00000000000E+00  0.45593999997E+02  0.45594000000E+02  0.51100000000E-03 0. -1.
         11   -1    0    0    0    0 -0.00000000000E+00 -0.00000000000E+00 -0.45593999997E+02  0.45594000000E+02  0.51100000000E-03 0.  1.
    9900012    2    1    2    0    0  0.69374285106E+01  0.98157856978E+01 -0.38841834850E+02  0.50528859604E+02  0.29999999252E+02 0.  0.
         12    1    1    2    0    0 -0.69374285106E+01 -0.98157856978E+01  0.38841834850E+02  0.40659140396E+02  0.00000000000E+00 0. -1.
         11    1    3    3    0    0  0.80873652824E+01  0.81513946865E+01 -0.17777006610E+02  0.21163002548E+02  0.51100000000E-03 0. -1.
        -11    1    3    3    0    0  0.44831954190E+01  0.60871678554E+01 -0.20874623902E+02  0.22201409347E+02  0.51100000000E-03 0.  1.
         12    1    3    3    0    0 -0.56331321907E+01 -0.44227768441E+01 -0.19020433749E+00  0.71644477094E+01  0.00000000000E+00 0. -1.
</event>
<event>
 7    1  0.5121289E-013  0.5052886E+02  0.7816164E-02  0.1300439E+00
        -11   -1    0    0    0    0  0.00000000000E+00  0.00000000000E+00  0.45593999997E+02  0.45594000000E+02  0.51100000000E-03 0.  1.
         11   -1    0    0    0    0 -0.00000000000E+00 -0.00000000000E+00 -0.45593999997E+02  0.45594000000E+02  0.51100000000E-03 0. -1.
    9900012    2    1    2    0    0 -0.16153147890E+01  0.40591983596E+02 -0.16874487832E+01  0.50528857639E+02  0.29999993280E+02 0.  0.
         12    1    1    2    0    0  0.16153147890E+01 -0.40591983596E+02  0.16874487832E+01  0.40659142361E+02  0.00000000000E+00 0. -1.
         11    1    3    3    0    0 -0.82088346641E+01  0.50839595007E+01  0.91083872211E+00  0.96985173189E+01  0.51100000000E-03 0. -1.
        -11    1    3    3    0    0 -0.12621393061E+01  0.60928692331E+01  0.65551913108E+01  0.90380630946E+01  0.51100000000E-03 0.  1.
         12    1    3    3    0    0  0.78556591812E+01  0.29415154862E+02 -0.91534788161E+01  0.31792277225E+02  0.00000000000E+00 0. -1.
</event>
<event>
 7    1  0.5121289E-013  0.5052886E+02  0.7816164E-02  0.1300439E+00
        -11   -1    0    0    0    0  0.00000000000E+00  0.00000000000E+00  0.45593999997E+02  0.45594000000E+02  0.51100000000E-03 0.  1.
         11   -1    0    0    0    0 -0.00000000000E+00 -0.00000000000E+00 -0.45593999997E+02  0.45594000000E+02  0.51100000000E-03 0. -1.
    9900012    2    1    2    0    0  0.37759340803E+01 -0.88257233853E+01  0.39509675643E+02  0.50528861533E+02  0.30000005117E+02 0.  0.
         12    1    1    2    0    0 -0.37759340803E+01  0.88257233853E+01 -0.39509675643E+02  0.40659138467E+02  0.00000000000E+00 0. -1.
         11    1    3    3    0    0 -0.19906073893E+00  0.46718620220E+01 -0.55167663325E+00  0.47085313315E+01  0.51100000000E-03 0. -1.
        -11    1    3    3    0    0  0.39768661344E+01  0.26228033324E+01  0.17196193874E+02  0.17843868571E+02  0.51100000000E-03 0.  1.
        -12    1    3    3    0    0 -0.18713152168E-02 -0.16120388740E+02  0.22865158402E+02  0.27976461631E+02  0.00000000000E+00 0.  1.
</event>
<event>
 7    1  0.5121289E-013  0.5052886E+02  0.7816164E-02  0.1300439E+00
        -11   -1    0    0    0    0  0.00000000000E+00  0.00000000000E+00  0.45593999997E+02  0.45594000000E+02  0.51100000000E-03 0.  1.
         11   -1    0    0    0    0 -0.00000000000E+00 -0.00000000000E+00 -0.45593999997E+02  0.45594000000E+02  0.51100000000E-03 0. -1.
    9900012    2    1    2    0    0 -0.14324874449E+02  0.38042868662E+02 -0.83906191498E+00  0.50528857008E+02  0.29999991360E+02 0.  0.
         12    1    1    2    0    0  0.14324874449E+02 -0.38042868662E+02  0.83906191498E+00  0.40659142992E+02  0.00000000000E+00 0. -1.
         11    1    3    3    0    0  0.47346677394E+01  0.49719089787E+01  0.52962418353E+01  0.86710515703E+01  0.51100000000E-03 0. -1.
        -11    1    3    3    0    0  0.18162742769E+01  0.10437051777E+02 -0.21495030762E+01  0.10809776399E+02  0.51100000000E-03 0.  1.
        -12    1    3    3    0    0 -0.20875816466E+02  0.22633907906E+02 -0.39858006742E+01  0.31048029039E+02  0.00000000000E+00 0.  1.
</event>
<event>
 7    1  0.5121289E-013  0.5052880E+02  0.7816164E-02  0.1300439E+00
        -11   -1    0    0    0    0  0.00000000000E+00  0.00000000000E+00  0.45593999997E+02  0.45594000000E+02  0.51100000000E-03 0.  1.
         11   -1    0    0    0    0 -0.00000000000E+00 -0.00000000000E+00 -0.45593999997E+02  0.45594000000E+02  0.51100000000E-03 0. -1.
    9900012    2    1    2    0    0 -0.36765770522E+02 -0.26370879069E+01  0.17160843672E+02  0.50528798455E+02  0.29999813384E+02 0.  0.
         12    1    1    2    0    0  0.36765770522E+02  0.26370879069E+01 -0.17160843672E+02  0.40659201545E+02  0.00000000000E+00 0. -1.
         11    1    3    3    0    0 -0.31310885319E+01 -0.41841532093E+01  0.22461043423E+00  0.52308033400E+01  0.51100000000E-03 0. -1.
        -11    1    3    3    0    0 -0.22528965572E+01 -0.21529850473E+00 -0.59837976105E+01  0.63974784445E+01  0.51100000000E-03 0.  1.
        -12    1    3    3    0    0 -0.31381785433E+02  0.17623638071E+01  0.22920030848E+02  0.38900516671E+02  0.00000000000E+00 0.  1.
</event>
<event>
 7    1  0.5121289E-013  0.5052888E+02  0.7816164E-02  0.1300439E+00
        -11   -1    0    0    0    0  0.00000000000E+00  0.00000000000E+00  0.45593999997E+02  0.45594000000E+02  0.51100000000E-03 0.  1.
         11   -1    0    0    0    0 -0.00000000000E+00 -0.00000000000E+00 -0.45593999997E+02  0.45594000000E+02  0.51100000000E-03 0. -1.
    9900012    2    1    2    0    0  0.12370808390E+02 -0.78079797452E+01  0.37936292485E+02  0.50528883735E+02  0.30000072600E+02 0.  0.
         12    1    1    2    0    0 -0.12370808390E+02  0.78079797452E+01 -0.37936292485E+02  0.40659116265E+02  0.00000000000E+00 0. -1.
         11    1    3    3    0    0  0.35020855626E+01  0.83271015715E+00  0.10985855776E+02  0.11560581165E+02  0.51100000000E-03 0. -1.
        -11    1    3    3    0    0  0.12244184151E+02  0.56336139531E+01  0.12860597468E+02  0.18629348330E+02  0.51100000000E-03 0.  1.
         12    1    3    3    0    0 -0.33754613238E+01 -0.14274303855E+02  0.14089839242E+02  0.20338954240E+02  0.00000000000E+00 0. -1.
</event>
<event>
 7    1  0.5121289E-013  0.5052886E+02  0.7816164E-02  0.1300439E+00
        -11   -1    0    0    0    0  0.00000000000E+00  0.00000000000E+00  0.45593999997E+02  0.45594000000E+02  0.51100000000E-03 0. -1.
         11   -1    0    0    0    0 -0.00000000000E+00 -0.00000000000E+00 -0.45593999997E+02  0.45594000000E+02  0.51100000000E-03 0.  1.
    9900012    2    1    2    0    0 -0.14891899787E+02 -0.24130014608E+02  0.29139991738E+02  0.50528863232E+02  0.30000010280E+02 0.  0.
         12    1    1    2    0    0  0.14891899787E+02  0.24130014608E+02 -0.29139991738E+02  0.40659136768E+02  0.00000000000E+00 0. -1.
         11    1    3    3    0    0  0.32771733860E+01 -0.20140529539E+01  0.12922215621E+01  0.40578456759E+01  0.51100000000E-03 0. -1.
        -11    1    3    3    0    0 -0.22260744319E+02 -0.20640263764E+02  0.17021466767E+02  0.34803614138E+02  0.51100000000E-03 0.  1.
         12    1    3    3    0    0  0.40916711461E+01 -0.14756978904E+01  0.10826303408E+02  0.11667403418E+02  0.00000000000E+00 0. -1.
</event>
<event>
 7    1  0.5121289E-013  0.5052883E+02  0.7816164E-02  0.1300439E+00
        -11   -1    0    0    0    0  0.00000000000E+00  0.00000000000E+00  0.45593999997E+02  0.45594000000E+02  0.51100000000E-03 0.  1.
         11   -1    0    0    0    0 -0.00000000000E+00 -0.00000000000E+00 -0.45593999997E+02  0.45594000000E+02  0.51100000000E-03 0. -1.
    9900012    2    1    2    0    0 -0.28742977906E+02  0.18447012753E+02  0.22061660638E+02  0.50528832171E+02  0.29999915868E+02 0.  0.
         12    1    1    2    0    0  0.28742977906E+02 -0.18447012753E+02 -0.22061660638E+02  0.40659167829E+02  0.00000000000E+00 0. -1.
         11    1    3    3    0    0 -0.14901724200E+02  0.36555409807E+01  0.14665087498E+02  0.21224729812E+02  0.51100000000E-03 0. -1.
        -11    1    3    3    0    0 -0.13224783085E+02  0.16038087925E+02  0.12336335817E+02  0.24172305094E+02  0.51100000000E-03 0.  1.
         12    1    3    3    0    0 -0.61647062048E+00 -0.12466161520E+01 -0.49397626776E+01  0.51317972649E+01  0.00000000000E+00 0. -1.
</event>
<event>
 7    1  0.5121289E-013  0.5052885E+02  0.7816164E-02  0.1300439E+00
        -11   -1    0    0    0    0  0.00000000000E+00  0.00000000000E+00  0.45593999997E+02  0.45594000000E+02  0.51100000000E-03 0.  1.
         11   -1    0    0    0    0 -0.00000000000E+00 -0.00000000000E+00 -0.45593999997E+02  0.45594000000E+02  0.51100000000E-03 0. -1.
    9900012    2    1    2    0    0 -0.30176057441E+02  0.71257101789E+01  0.26302021358E+02  0.50528849544E+02  0.29999968675E+02 0.  0.
         12    1    1    2    0    0  0.30176057441E+02 -0.71257101789E+01 -0.26302021358E+02  0.40659150456E+02  0.00000000000E+00 0. -1.
         11    1    3    3    0    0 -0.11440688194E+02 -0.77313805373E+01  0.15628015727E+02  0.20854219410E+02  0.51100000000E-03 0. -1.
        -11    1    3    3    0    0 -0.14148764206E+02  0.51306836907E+01  0.11423932895E+02  0.18894911663E+02  0.51100000000E-03 0.  1.
        -12    1    3    3    0    0 -0.45866050412E+01  0.97264070254E+01 -0.74992726449E+00  0.10779718472E+02  0.00000000000E+00 0.  1.
</event>
<event>
 7    1  0.5121289E-013  0.5052886E+02  0.7816164E-02  0.1300439E+00
        -11   -1    0    0    0    0  0.00000000000E+00  0.00000000000E+00  0.45593999997E+02  0.45594000000E+02  0.51100000000E-03 0. -1.
         11   -1    0    0    0    0 -0.00000000000E+00 -0.00000000000E+00 -0.45593999997E+02  0.45594000000E+02  0.51100000000E-03 0.  1.
    9900012    2    1    2    0    0 -0.24357426447E+02  0.30097695536E+02 -0.12410089654E+02  0.50528858040E+02  0.29999994498E+02 0.  0.
         12    1    1    2    0    0  0.24357426447E+02 -0.30097695536E+02  0.12410089654E+02  0.40659141960E+02  0.00000000000E+00 0. -1.
         11    1    3    3    0    0 -0.11501243284E+02  0.22648325375E+02 -0.77975063583E+00  0.25413249511E+02  0.51100000000E-03 0. -1.
        -11    1    3    3    0    0 -0.61307935429E+01  0.12058748970E+02 -0.44204007859E+01  0.14231654842E+02  0.51100000000E-03 0.  1.
         12    1    3    3    0    0 -0.67253896204E+01 -0.46093788087E+01 -0.72099382320E+01  0.10883953687E+02  0.00000000000E+00 0. -1.
</event>
<event>
 7    1  0.5121289E-013  0.5052886E+02  0.7816164E-02  0.1300439E+00
        -11   -1    0    0    0    0  0.00000000000E+00  0.00000000000E+00  0.45593999997E+02  0.45594000000E+02  0.51100000000E-03 0.  1.
         11   -1    0    0    0    0 -0.00000000000E+00 -0.00000000000E+00 -0.45593999997E+02  0.45594000000E+02  0.51100000000E-03 0. -1.
    9900012    2    1    2    0    0 -0.15029147676E+02  0.24794065779E+02  0.28505163237E+02  0.50528864386E+02  0.30000013787E+02 0.  0.
         12    1    1    2    0    0  0.15029147676E+02 -0.24794065779E+02 -0.28505163237E+02  0.40659135614E+02  0.00000000000E+00 0. -1.
         11    1    3    3    0    0 -0.63724616336E+01 -0.29693284464E+01  0.24425911095E+01  0.74425419236E+01  0.51100000000E-03 0. -1.
        -11    1    3    3    0    0 -0.34690927439E+01 -0.16071606844E+01  0.60925852396E+01  0.71928551420E+01  0.51100000000E-03 0.  1.
        -12    1    3    3    0    0 -0.51875932983E+01  0.29370554910E+02  0.19969986888E+02  0.35893467320E+02  0.00000000000E+00 0.  1.
</event>
<event>
 7    1  0.5121289E-013  0.5052886E+02  0.7816164E-02  0.1300439E+00
        -11   -1    0    0    0    0  0.00000000000E+00  0.00000000000E+00  0.45593999997E+02  0.45594000000E+02  0.51100000000E-03 0. -1.
         11   -1    0    0    0    0 -0.00000000000E+00 -0.00000000000E+00 -0.45593999997E+02  0.45594000000E+02  0.51100000000E-03 0.  1.
    9900012    2    1    2    0    0 -0.30286241094E+02  0.15860258922E+01 -0.27081240350E+02  0.50528862569E+02  0.30000008266E+02 0.  0.
         12    1    1    2    0    0  0.30286241094E+02 -0.15860258922E+01  0.27081240350E+02  0.40659137431E+02  0.00000000000E+00 0. -1.
         11    1    3    3    0    0 -0.44066048825E+01  0.39419546012E+01 -0.69566129332E+01  0.91297117387E+01  0.51100000000E-03 0. -1.
        -11    1    3    3    0    0 -0.47342867925E+01  0.83321018731E+01 -0.13932882260E+02  0.16910428776E+02  0.51100000000E-03 0.  1.
        -12    1    3    3    0    0 -0.21145349419E+02 -0.10688030582E+02 -0.61917451561E+01  0.24488722054E+02  0.00000000000E+00 0.  1.
</event>
<event>
 7    1  0.5121289E-013  0.5052886E+02  0.7816164E-02  0.1300439E+00
        -11   -1    0    0    0    0  0.00000000000E+00  0.00000000000E+00  0.45593999997E+02  0.45594000000E+02  0.51100000000E-03 0.  1.
         11   -1    0    0    0    0 -0.00000000000E+00 -0.00000000000E+00 -0.45593999997E+02  0.45594000000E+02  0.51100000000E-03 0. -1.
    9900012    2    1    2    0    0  0.62620846382E+01  0.76928683199E+01  0.39430593718E+02  0.50528860216E+02  0.30000001112E+02 0.  0.
         12    1    1    2    0    0 -0.62620846382E+01 -0.76928683199E+01 -0.39430593718E+02  0.40659139784E+02  0.00000000000E+00 0. -1.
         11    1    3    3    0    0  0.46133124299E+01 -0.35677797202E+01  0.97503307556E+00  0.59129005967E+01  0.51100000000E-03 0. -1.
        -11    1    3    3    0    0  0.38537086312E+01 -0.45688804238E+01  0.15779362950E+02  0.16873471306E+02  0.51100000000E-03 0.  1.
         12    1    3    3    0    0 -0.22049364228E+01  0.15829528464E+02  0.22676197693E+02  0.27742488313E+02  0.00000000000E+00 0. -1.
</event>
<event>
 7    1  0.5121289E-013  0.5052888E+02  0.7816164E-02  0.1300439E+00
        -11   -1    0    0    0    0  0.00000000000E+00  0.00000000000E+00  0.45593999997E+02  0.45594000000E+02  0.51100000000E-03 0.  1.
         11   -1    0    0    0    0 -0.00000000000E+00 -0.00000000000E+00 -0.45593999997E+02  0.45594000000E+02  0.51100000000E-03 0. -1.
    9900012    2    1    2    0    0  0.32768068735E+02 -0.23912398039E+02 -0.27595781306E+01  0.50528875808E+02  0.30000048506E+02 0.  0.
         12    1    1    2    0    0 -0.32768068735E+02  0.23912398039E+02  0.27595781306E+01  0.40659124192E+02  0.00000000000E+00 0. -1.
         11    1    3    3    0    0  0.30637896289E+01 -0.78139892938E+00 -0.18368166442E+01  0.36566770192E+01  0.51100000000E-03 0. -1.
        -11    1    3    3    0    0  0.14302981478E+02  0.45772167775E+01 -0.20174361532E+01  0.15152433517E+02  0.51100000000E-03 0.  1.
         12    1    3    3    0    0  0.15401297628E+02 -0.27708215887E+02  0.10946746669E+01  0.31719765272E+02  0.00000000000E+00 0. -1.
</event>
<event>
 7    1  0.5121289E-013  0.5052886E+02  0.7816164E-02  0.1300439E+00
        -11   -1    0    0    0    0  0.00000000000E+00  0.00000000000E+00  0.45593999997E+02  0.45594000000E+02  0.51100000000E-03 0.  1.
         11   -1    0    0    0    0 -0.00000000000E+00 -0.00000000000E+00 -0.45593999997E+02  0.45594000000E+02  0.51100000000E-03 0. -1.
    9900012    2    1    2    0    0 -0.14870003583E+02 -0.35871563188E+02  0.12053184725E+02  0.50528864321E+02  0.30000013591E+02 0.  0.
         12    1    1    2    0    0  0.14870003583E+02  0.35871563188E+02 -0.12053184725E+02  0.40659135679E+02  0.00000000000E+00 0. -1.
         11    1    3    3    0    0 -0.13722396281E+02 -0.19568143303E+02  0.61352543974E+01  0.24675042833E+02  0.51100000000E-03 0. -1.
        -11    1    3    3    0    0 -0.98610818479E+01 -0.11625227531E+02  0.29384600308E+01  0.15524863863E+02  0.51100000000E-03 0.  1.
         12    1    3    3    0    0  0.87134745461E+01 -0.46781923544E+01  0.29794702965E+01  0.10328957625E+02  0.00000000000E+00 0. -1.
</event>
<event>
 7    1  0.5121289E-013  0.5052886E+02  0.7816164E-02  0.1300439E+00
        -11   -1    0    0    0    0  0.00000000000E+00  0.00000000000E+00  0.45593999997E+02  0.45594000000E+02  0.51100000000E-03 0. -1.
         11   -1    0    0    0    0 -0.00000000000E+00 -0.00000000000E+00 -0.45593999997E+02  0.45594000000E+02  0.51100000000E-03 0.  1.
    9900012    2    1    2    0    0 -0.40320372225E+02 -0.51835653951E+01 -0.75072390098E+00  0.50528863844E+02  0.30000012139E+02 0.  0.
         12    1    1    2    0    0  0.40320372225E+02  0.51835653951E+01  0.75072390098E+00  0.40659136156E+02  0.00000000000E+00 0. -1.
         11    1    3    3    0    0 -0.35232736022E+02 -0.33376173282E+01  0.86627424091E+00  0.35401070723E+02  0.51100000000E-03 0. -1.
        -11    1    3    3    0    0 -0.61925071141E+01 -0.46342188965E+01 -0.60194117196E+01  0.98008390891E+01  0.51100000000E-03 0.  1.
         12    1    3    3    0    0  0.11048709104E+01  0.27882708296E+01  0.44024135777E+01  0.53269540318E+01  0.00000000000E+00 0. -1.
</event>
<event>
 7    1  0.5121289E-013  0.5052889E+02  0.7816164E-02  0.1300439E+00
        -11   -1    0    0    0    0  0.00000000000E+00  0.00000000000E+00  0.45593999997E+02  0.45594000000E+02  0.51100000000E-03 0.  1.
         11   -1    0    0    0    0 -0.00000000000E+00 -0.00000000000E+00 -0.45593999997E+02  0.45594000000E+02  0.51100000000E-03 0. -1.
    9900012    2    1    2    0    0  0.57793046443E+01  0.36815696598E+02  0.16259384183E+02  0.50528887218E+02  0.30000083189E+02 0.  0.
         12    1    1    2    0    0 -0.57793046443E+01 -0.36815696598E+02 -0.16259384183E+02  0.40659112782E+02  0.00000000000E+00 0. -1.
         11    1    3    3    0    0 -0.19329836750E+01  0.63731392378E+01 -0.23485720644E+01  0.70618071791E+01  0.51100000000E-03 0. -1.
        -11    1    3    3    0    0 -0.25959960166E+00  0.18588910390E+02  0.21981772354E+02  0.28789117693E+02  0.51100000000E-03 0.  1.
         12    1    3    3    0    0  0.79718879210E+01  0.11853646971E+02 -0.33738161067E+01  0.14677962347E+02  0.00000000000E+00 0. -1.
</event>
<event>
 7    1  0.5121289E-013  0.5052886E+02  0.7816164E-02  0.1300439E+00
        -11   -1    0    0    0    0  0.00000000000E+00  0.00000000000E+00  0.45593999997E+02  0.45594000000E+02  0.51100000000E-03 0. -1.
         11   -1    0    0    0    0 -0.00000000000E+00 -0.00000000000E+00 -0.45593999997E+02  0.45594000000E+02  0.51100000000E-03 0.  1.
    9900012    2    1    2    0    0 -0.36871668436E+02  0.10032350987E+02  0.13892372833E+02  0.50528855610E+02  0.29999987113E+02 0.  0.
         12    1    1    2    0    0  0.36871668436E+02 -0.10032350987E+02 -0.13892372833E+02  0.40659144390E+02  0.00000000000E+00 0. -1.
         11    1    3    3    0    0 -0.14394153508E+02  0.10673566582E+02  0.51171366335E+01  0.18636034084E+02  0.51100000000E-03 0. -1.
        -11    1    3    3    0    0 -0.20756096798E+02 -0.54509719006E+00  0.14883015788E+02  0.25546366560E+02  0.51100000000E-03 0.  1.
        -12    1    3    3    0    0 -0.17214181307E+01 -0.96118404983E-01 -0.61077795890E+01  0.63464549660E+01  0.00000000000E+00 0.  1.
</event>
<event>
 7    1  0.5121289E-013  0.5052886E+02  0.7816164E-02  0.1300439E+00
        -11   -1    0    0    0    0  0.00000000000E+00  0.00000000000E+00  0.45593999997E+02  0.45594000000E+02  0.51100000000E-03 0.  1.
         11   -1    0    0    0    0 -0.00000000000E+00 -0.00000000000E+00 -0.45593999997E+02  0.45594000000E+02  0.51100000000E-03 0. -1.
    9900012    2    1    2    0    0 -0.84890285010E+01  0.48595155276E+01  0.39465014248E+02  0.50528857785E+02  0.29999993723E+02 0.  0.
         12    1    1    2    0    0  0.84890285010E+01 -0.48595155276E+01 -0.39465014248E+02  0.40659142215E+02  0.00000000000E+00 0. -1.
         11    1    3    3    0    0  0.50044130526E+01  0.24472402839E+01 -0.11971843069E+01  0.56979281791E+01  0.51100000000E-03 0. -1.
        -11    1    3    3    0    0 -0.59310587336E+01  0.19846468089E+01  0.40676342181E+01  0.74606922635E+01  0.51100000000E-03 0.  1.
        -12    1    3    3    0    0 -0.75623828201E+01  0.42762843479E+00  0.36594564337E+02  0.37370237342E+02  0.00000000000E+00 0.  1.
</event>
<event>
 7    1  0.5121289E-013  0.5052887E+02  0.7816164E-02  0.1300439E+00
        -11   -1    0    0    0    0  0.00000000000E+00  0.00000000000E+00  0.45593999997E+02  0.45594000000E+02  0.51100000000E-03 0.  1.
         11   -1    0    0    0    0 -0.00000000000E+00 -0.00000000000E+00 -0.45593999997E+02  0.45594000000E+02  0.51100000000E-03 0. -1.
    9900012    2    1    2    0    0  0.71753170986E+01  0.44233646086E+01  0.39775794653E+02  0.50528866092E+02  0.30000018972E+02 0.  0.
         12    1    1    2    0    0 -0.71753170986E+01 -0.44233646086E+01 -0.39775794653E+02  0.40659133908E+02  0.00000000000E+00 0. -1.
         11    1    3    3    0    0  0.95680081901E+01 -0.66311275685E+01  0.24921064371E+02  0.27505964502E+02  0.51100000000E-03 0. -1.
        -11    1    3    3    0    0  0.58413932009E+00  0.17066076911E+01  0.12892609319E+02  0.13018183586E+02  0.51100000000E-03 0.  1.
         12    1    3    3    0    0 -0.29768304115E+01  0.93478844859E+01  0.19621209628E+01  0.10004718004E+02  0.00000000000E+00 0. -1.
</event>
<event>
 7    1  0.5121289E-013  0.5052887E+02  0.7816164E-02  0.1300439E+00
        -11   -1    0    0    0    0  0.00000000000E+00  0.00000000000E+00  0.45593999997E+02  0.45594000000E+02  0.51100000000E-03 0.  1.
         11   -1    0    0    0    0 -0.00000000000E+00 -0.00000000000E+00 -0.45593999997E+02  0.45594000000E+02  0.51100000000E-03 0. -1.
    9900012    2    1    2    0    0 -0.25769324267E+02  0.22484222920E+02  0.21990139689E+02  0.50528873140E+02  0.30000040395E+02 0.  0.
         12    1    1    2    0    0  0.25769324267E+02 -0.22484222920E+02 -0.21990139689E+02  0.40659126860E+02  0.00000000000E+00 0. -1.
         11    1    3    3    0    0 -0.85562233055E+01 -0.32482084200E+01  0.72794479649E+01  0.11694023180E+02  0.51100000000E-03 0. -1.
        -11    1    3    3    0    0 -0.13657637785E+02  0.44799690183E+01  0.65122436968E+01  0.15780066872E+02  0.51100000000E-03 0.  1.
         12    1    3    3    0    0 -0.35554631769E+01  0.21252462322E+02  0.81984480267E+01  0.23054783087E+02  0.00000000000E+00 0. -1.
</event>
<event>
 7    1  0.5121289E-013  0.5052887E+02  0.7816164E-02  0.1300439E+00
        -11   -1    0    0    0    0  0.00000000000E+00  0.00000000000E+00  0.45593999997E+02  0.45594000000E+02  0.51100000000E-03 0.  1.
         11   -1    0    0    0    0 -0.00000000000E+00 -0.00000000000E+00 -0.45593999997E+02  0.45594000000E+02  0.51100000000E-03 0. -1.
    9900012    2    1    2    0    0 -0.23445275969E+02 -0.32314915631E+02 -0.76961341659E+01  0.50528865496E+02  0.30000017163E+02 0.  0.
         12    1    1    2    0    0  0.23445275969E+02  0.32314915631E+02  0.76961341659E+01  0.40659134504E+02  0.00000000000E+00 0. -1.
         11    1    3    3    0    0 -0.32227933036E+01 -0.24893450450E+01  0.44355427652E+01  0.60214014410E+01  0.51100000000E-03 0. -1.
        -11    1    3    3    0    0 -0.28009864515E+01 -0.15111618030E+02  0.48045060304E+01  0.16102478164E+02  0.51100000000E-03 0.  1.
         12    1    3    3    0    0 -0.17421496214E+02 -0.14713952556E+02 -0.16936182962E+02  0.28404985891E+02  0.00000000000E+00 0. -1.
</event>
<event>
 7    1  0.5121289E-013  0.5052886E+02  0.7816164E-02  0.1300439E+00
        -11   -1    0    0    0    0  0.00000000000E+00  0.00000000000E+00  0.45593999997E+02  0.45594000000E+02  0.51100000000E-03 0.  1.
         11   -1    0    0    0    0 -0.00000000000E+00 -0.00000000000E+00 -0.45593999997E+02  0.45594000000E+02  0.51100000000E-03 0. -1.
    9900012    2    1    2    0    0  0.12896313431E+02 -0.31259142636E+02  0.22576916547E+02  0.50528855159E+02  0.29999985741E+02 0.  0.
         12    1    1    2    0    0 -0.12896313431E+02  0.31259142636E+02 -0.22576916547E+02  0.40659144841E+02  0.00000000000E+00 0. -1.
         11    1    3    3    0    0  0.82543819747E+01 -0.76400868763E+01  0.12065134751E+01  0.11312003549E+02  0.51100000000E-03 0. -1.
        -11    1    3    3    0    0  0.10006966372E+02 -0.18151663146E+01  0.44503124267E+01  0.11101328104E+02  0.51100000000E-03 0.  1.
        -12    1    3    3    0    0 -0.53650349160E+01 -0.21803889445E+02  0.16920090645E+02  0.28115523506E+02  0.00000000000E+00 0.  1.
</event>
<event>
 7    1  0.5121289E-013  0.5052886E+02  0.7816164E-02  0.1300439E+00
        -11   -1    0    0    0    0  0.00000000000E+00  0.00000000000E+00  0.45593999997E+02  0.45594000000E+02  0.51100000000E-03 0.  1.
         11   -1    0    0    0    0 -0.00000000000E+00 -0.00000000000E+00 -0.45593999997E+02  0.45594000000E+02  0.51100000000E-03 0. -1.
    9900012    2    1    2    0    0 -0.26179998541E+02 -0.30973961937E+01  0.30954478132E+02  0.50528857077E+02  0.29999991571E+02 0.  0.
         12    1    1    2    0    0  0.26179998541E+02  0.30973961937E+01 -0.30954478132E+02  0.40659142923E+02  0.00000000000E+00 0. -1.
         11    1    3    3    0    0 -0.64477950814E+01 -0.10660712061E+02  0.12220077280E+02  0.17451508017E+02  0.51100000000E-03 0. -1.
        -11    1    3    3    0    0 -0.57913215861E+01 -0.22138819326E+01  0.14141773297E+02  0.15441192673E+02  0.51100000000E-03 0.  1.
        -12    1    3    3    0    0 -0.13940881873E+02  0.97771978004E+01  0.45926275554E+01  0.17636156387E+02  0.00000000000E+00 0.  1.
</event>
<event>
 7    1  0.5121289E-013  0.5052885E+02  0.7816164E-02  0.1300439E+00
        -11   -1    0    0    0    0  0.00000000000E+00  0.00000000000E+00  0.45593999997E+02  0.45594000000E+02  0.51100000000E-03 0.  1.
         11   -1    0    0    0    0 -0.00000000000E+00 -0.00000000000E+00 -0.45593999997E+02  0.45594000000E+02  0.51100000000E-03 0. -1.
    9900012    2    1    2    0    0 -0.89855926572E+01 -0.36279101862E+02 -0.16007875126E+02  0.50528853755E+02  0.29999981474E+02 0.  0.
         12    1    1    2    0    0  0.89855926572E+01  0.36279101862E+02  0.16007875126E+02  0.40659146245E+02  0.00000000000E+00 0. -1.
         11    1    3    3    0    0 -0.19505118296E+01 -0.28516948436E+01 -0.13798674160E+01  0.37203083508E+01  0.51100000000E-03 0. -1.
        -11    1    3    3    0    0 -0.97336779332E+01 -0.14130247680E+01  0.28419160380E+01  0.10238047281E+02  0.51100000000E-03 0.  1.
         12    1    3    3    0    0  0.26985971056E+01 -0.32014382250E+02 -0.17469923748E+02  0.36570498123E+02  0.00000000000E+00 0. -1.
</event>
<event>
 7    1  0.5189919E-013  0.5052886E+02  0.7816164E-02  0.1300439E+00
        -11   -1    0    0    0    0  0.00000000000E+00  0.00000000000E+00  0.45593999997E+02  0.45594000000E+02  0.51100000000E-03 0. -1.
         11   -1    0    0    0    0 -0.00000000000E+00 -0.00000000000E+00 -0.45593999997E+02  0.45594000000E+02  0.51100000000E-03 0.  1.
    9900012    2    1    2    0    0 -0.85392799703E+01 -0.27464029235E+02 -0.28739757590E+02  0.50528857479E+02  0.29999992793E+02 0.  0.
         12    1    1    2    0    0  0.85392799703E+01  0.27464029235E+02  0.28739757590E+02  0.40659142521E+02  0.00000000000E+00 0. -1.
         11    1    3    3    0    0  0.38979761021E+01  0.10747545867E+00 -0.32501334346E+01  0.50763309851E+01  0.51100000000E-03 0. -1.
        -11    1    3    3    0    0 -0.90224041189E+01 -0.28368962410E+01  0.42312505163E+00  0.94673539829E+01  0.51100000000E-03 0.  1.
        -12    1    3    3    0    0 -0.34148519536E+01 -0.24734608453E+02 -0.25912749207E+02  0.35985172511E+02  0.00000000000E+00 0.  1.
</event>
<event>
 7    1  0.5121289E-013  0.5052887E+02  0.7816164E-02  0.1300439E+00
        -11   -1    0    0    0    0  0.00000000000E+00  0.00000000000E+00  0.45593999997E+02  0.45594000000E+02  0.51100000000E-03 0. -1.
         11   -1    0    0    0    0 -0.00000000000E+00 -0.00000000000E+00 -0.45593999997E+02  0.45594000000E+02  0.51100000000E-03 0.  1.
    9900012    2    1    2    0    0  0.36929474996E+01 -0.28627818418E+02 -0.28635206418E+02  0.50528869473E+02  0.30000029249E+02 0.  0.
         12    1    1    2    0    0 -0.36929474996E+01  0.28627818418E+02  0.28635206418E+02  0.40659130527E+02  0.00000000000E+00 0. -1.
         11    1    3    3    0    0 -0.17723378072E+01 -0.15688769555E+01 -0.26317272699E+01  0.35395684608E+01  0.51100000000E-03 0. -1.
        -11    1    3    3    0    0 -0.42526467277E+01 -0.38884091302E+01 -0.20464220941E+02  0.21260034542E+02  0.51100000000E-03 0.  1.
         12    1    3    3    0    0  0.97179320345E+01 -0.23170532332E+02 -0.55392582079E+01  0.25729266470E+02  0.00000000000E+00 0. -1.
</event>
<event>
 7    1  0.5121289E-013  0.5052885E+02  0.7816164E-02  0.1300439E+00
        -11   -1    0    0    0    0  0.00000000000E+00  0.00000000000E+00  0.45593999997E+02  0.45594000000E+02  0.51100000000E-03 0.  1.
         11   -1    0    0    0    0 -0.00000000000E+00 -0.00000000000E+00 -0.45593999997E+02  0.45594000000E+02  0.51100000000E-03 0. -1.
    9900012    2    1    2    0    0 -0.37151302741E+01 -0.27631112418E+00  0.40488122387E+02  0.50528848568E+02  0.29999965706E+02 0.  0.
         12    1    1    2    0    0  0.37151302741E+01  0.27631112418E+00 -0.40488122387E+02  0.40659151432E+02  0.00000000000E+00 0. -1.
         11    1    3    3    0    0 -0.29121066921E+01  0.31781740019E+01  0.14614502877E+02  0.15236956716E+02  0.51100000000E-03 0. -1.
        -11    1    3    3    0    0 -0.64846906981E+00  0.99147451311E+01  0.69657168761E+01  0.12134409545E+02  0.51100000000E-03 0.  1.
         12    1    3    3    0    0 -0.15455451218E+00 -0.13369230257E+02  0.18907902634E+02  0.23157482307E+02  0.00000000000E+00 0. -1.
</event>
<event>
 7    1  0.5121289E-013  0.5052886E+02  0.7816164E-02  0.1300439E+00
        -11   -1    0    0    0    0  0.00000000000E+00  0.00000000000E+00  0.45593999997E+02  0.45594000000E+02  0.51100000000E-03 0. -1.
         11   -1    0    0    0    0 -0.00000000000E+00 -0.00000000000E+00 -0.45593999997E+02  0.45594000000E+02  0.51100000000E-03 0.  1.
    9900012    2    1    2    0    0 -0.48299407417E+01 -0.36636615220E+02 -0.16958647136E+02  0.50528860621E+02  0.30000002345E+02 0.  0.
         12    1    1    2    0    0  0.48299407417E+01  0.36636615220E+02  0.16958647136E+02  0.40659139379E+02  0.00000000000E+00 0. -1.
         11    1    3    3    0    0  0.24609824782E+01 -0.48085619625E+01  0.46873685338E+01  0.71519316928E+01  0.51100000000E-03 0. -1.
        -11    1    3    3    0    0 -0.92525753498E+01 -0.16999849330E+02 -0.31817407414E+01  0.19614497247E+02  0.51100000000E-03 0.  1.
         12    1    3    3    0    0  0.19616521299E+01 -0.14828203927E+02 -0.18464274929E+02  0.23762431681E+02  0.00000000000E+00 0. -1.
</event>
<event>
 7    1  0.5121289E-013  0.5052885E+02  0.7816164E-02  0.1300439E+00
        -11   -1    0    0    0    0  0.00000000000E+00  0.00000000000E+00  0.45593999997E+02  0.45594000000E+02  0.51100000000E-03 0.  1.
         11   -1    0    0    0    0 -0.00000000000E+00 -0.00000000000E+00 -0.45593999997E+02  0.45594000000E+02  0.51100000000E-03 0. -1.
    9900012    2    1    2    0    0  0.37766191620E+02 -0.77087820368E+01  0.12940462745E+02  0.50528854338E+02  0.29999983245E+02 0.  0.
         12    1    1    2    0    0 -0.37766191620E+02  0.77087820368E+01 -0.12940462745E+02  0.40659145662E+02  0.00000000000E+00 0. -1.
         11    1    3    3    0    0 -0.33178685567E+01 -0.15037219803E+01 -0.90930429174E+00  0.37544994487E+01  0.51100000000E-03 0. -1.
        -11    1    3    3    0    0  0.15150149548E+02  0.39181280947E+01  0.10240966187E+02  0.18701768574E+02  0.51100000000E-03 0.  1.
         12    1    3    3    0    0  0.25933910629E+02 -0.10123188151E+02  0.36088008494E+01  0.28072586315E+02  0.00000000000E+00 0. -1.
</event>
<event>
 7    1  0.5121289E-013  0.5052889E+02  0.7816164E-02  0.1300439E+00
        -11   -1    0    0    0    0  0.00000000000E+00  0.00000000000E+00  0.45593999997E+02  0.45594000000E+02  0.51100000000E-03 0. -1.
         11   -1    0    0    0    0 -0.00000000000E+00 -0.00000000000E+00 -0.45593999997E+02  0.45594000000E+02  0.51100000000E-03 0.  1.
    9900012    2    1    2    0    0 -0.92347690583E+01 -0.17972582962E+02 -0.35282690571E+02  0.50528893372E+02  0.30000101892E+02 0.  0.
         12    1    1    2    0    0  0.92347690583E+01  0.17972582962E+02  0.35282690571E+02  0.40659106628E+02  0.00000000000E+00 0. -1.
         11    1    3    3    0    0 -0.90731885316E+00  0.14059418610E+00 -0.16949195594E+02  0.16974045652E+02  0.51100000000E-03 0.  1.
        -11    1    3    3    0    0 -0.10384138871E+02 -0.16801642283E+02 -0.21735102822E+02  0.29369035027E+02  0.51100000000E-03 0. -1.
         12    1    3    3    0    0  0.20566886654E+01 -0.13115348649E+01  0.34016078450E+01  0.41858126928E+01  0.00000000000E+00 0. -1.
</event>
<event>
 7    1  0.5121289E-013  0.5052886E+02  0.7816164E-02  0.1300439E+00
        -11   -1    0    0    0    0  0.00000000000E+00  0.00000000000E+00  0.45593999997E+02  0.45594000000E+02  0.51100000000E-03 0.  1.
         11   -1    0    0    0    0 -0.00000000000E+00 -0.00000000000E+00 -0.45593999997E+02  0.45594000000E+02  0.51100000000E-03 0. -1.
    9900012    2    1    2    0    0  0.37687033209E+02  0.92166552800E+01  0.12161681049E+02  0.50528859668E+02  0.29999999446E+02 0.  0.
         12    1    1    2    0    0 -0.37687033209E+02 -0.92166552800E+01 -0.12161681049E+02  0.40659140332E+02  0.00000000000E+00 0. -1.
         11    1    3    3    0    0  0.14183372432E+02  0.48650345930E+01 -0.28177108581E+01  0.15257001995E+02  0.51100000000E-03 0. -1.
        -11    1    3    3    0    0  0.23120618815E+02 -0.71061286207E+00  0.44123894970E+01  0.23548612833E+02  0.51100000000E-03 0.  1.
         12    1    3    3    0    0  0.38304196213E+00  0.50622335490E+01  0.10567002410E+02  0.11723244840E+02  0.00000000000E+00 0. -1.
</event>
<event>
 7    1  0.5121289E-013  0.5052886E+02  0.7816164E-02  0.1300439E+00
        -11   -1    0    0    0    0  0.00000000000E+00  0.00000000000E+00  0.45593999997E+02  0.45594000000E+02  0.51100000000E-03 0.  1.
         11   -1    0    0    0    0 -0.00000000000E+00 -0.00000000000E+00 -0.45593999997E+02  0.45594000000E+02  0.51100000000E-03 0. -1.
    9900012    2    1    2    0    0  0.32048566021E+01  0.26445916224E+02  0.30716580786E+02  0.50528856798E+02  0.29999990723E+02 0.  0.
         12    1    1    2    0    0 -0.32048566021E+01 -0.26445916224E+02 -0.30716580786E+02  0.40659143202E+02  0.00000000000E+00 0. -1.
         11    1    3    3    0    0  0.85789882947E+00  0.31546903732E+02  0.23962810616E+02  0.39625237139E+02  0.51100000000E-03 0.  1.
        -11    1    3    3    0    0 -0.22304470201E+01 -0.21096190420E+01  0.20595043957E+01  0.36968831506E+01  0.51100000000E-03 0. -1.
        -12    1    3    3    0    0  0.45774047927E+01 -0.29913684664E+01  0.46942657744E+01  0.72067365082E+01  0.00000000000E+00 0.  1.
</event>
<event>
 7    1  0.5121289E-013  0.5052886E+02  0.7816164E-02  0.1300439E+00
        -11   -1    0    0    0    0  0.00000000000E+00  0.00000000000E+00  0.45593999997E+02  0.45594000000E+02  0.51100000000E-03 0.  1.
         11   -1    0    0    0    0 -0.00000000000E+00 -0.00000000000E+00 -0.45593999997E+02  0.45594000000E+02  0.51100000000E-03 0. -1.
    9900012    2    1    2    0    0 -0.21424029337E+02 -0.34173451161E+02  0.51334191113E+01  0.50528858481E+02  0.29999995839E+02 0.  0.
         12    1    1    2    0    0  0.21424029337E+02  0.34173451161E+02 -0.51334191113E+01  0.40659141519E+02  0.00000000000E+00 0. -1.
         11    1    3    3    0    0  0.28879742995E+01  0.90537136927E+00 -0.14364777212E+01  0.33501584105E+01  0.51100000000E-03 0. -1.
        -11    1    3    3    0    0 -0.11066215636E+01  0.23550161638E+01 -0.23704036588E+00  0.26128338663E+01  0.51100000000E-03 0.  1.
        -12    1    3    3    0    0 -0.23205382073E+02 -0.37433838694E+02  0.68069371983E+01  0.44565866204E+02  0.00000000000E+00 0.  1.
</event>
<event>
 7    1  0.5121289E-013  0.5052884E+02  0.7816164E-02  0.1300439E+00
        -11   -1    0    0    0    0  0.00000000000E+00  0.00000000000E+00  0.45593999997E+02  0.45594000000E+02  0.51100000000E-03 0.  1.
         11   -1    0    0    0    0 -0.00000000000E+00 -0.00000000000E+00 -0.45593999997E+02  0.45594000000E+02  0.51100000000E-03 0. -1.
    9900012    2    1    2    0    0  0.25988802676E+02 -0.30353164594E+02  0.75122933035E+01  0.50528843392E+02  0.29999949973E+02 0.  0.
         12    1    1    2    0    0 -0.25988802676E+02  0.30353164594E+02 -0.75122933035E+01  0.40659156608E+02  0.00000000000E+00 0. -1.
         11    1    3    3    0    0  0.76677601642E+01 -0.10083791027E+01 -0.89380112625E+00  0.77852588310E+01  0.51100000000E-03 0. -1.
        -11    1    3    3    0    0  0.19035691963E+02 -0.14351817304E+02 -0.28116064541E+01  0.24004944481E+02  0.51100000000E-03 0.  1.
        -12    1    3    3    0    0 -0.71464945082E+00 -0.14992968188E+02  0.11217700884E+02  0.18738640080E+02  0.00000000000E+00 0.  1.
</event>
<event>
 7    1  0.5121289E-013  0.5052886E+02  0.7816164E-02  0.1300439E+00
        -11   -1    0    0    0    0  0.00000000000E+00  0.00000000000E+00  0.45593999997E+02  0.45594000000E+02  0.51100000000E-03 0.  1.
         11   -1    0    0    0    0 -0.00000000000E+00 -0.00000000000E+00 -0.45593999997E+02  0.45594000000E+02  0.51100000000E-03 0. -1.
    9900012    2    1    2    0    0  0.37818542333E+02  0.13797938561E+02 -0.57044054184E+01  0.50528862111E+02  0.30000006871E+02 0.  0.
         12    1    1    2    0    0 -0.37818542333E+02 -0.13797938561E+02  0.57044054184E+01  0.40659137889E+02  0.00000000000E+00 0. -1.
         11    1    3    3    0    0  0.21028561087E+02  0.11098184584E+00 -0.23377107184E+01  0.21158392898E+02  0.51100000000E-03 0. -1.
        -11    1    3    3    0    0  0.19314730244E+02  0.81523877739E+01  0.22572063699E+01  0.21085900780E+02  0.51100000000E-03 0.  1.
        -12    1    3    3    0    0 -0.25247489986E+01  0.55345689416E+01 -0.56239010698E+01  0.82845684329E+01  0.00000000000E+00 0.  1.
</event>
<event>
 7    1  0.5121289E-013  0.5052888E+02  0.7816164E-02  0.1300439E+00
        -11   -1    0    0    0    0  0.00000000000E+00  0.00000000000E+00  0.45593999997E+02  0.45594000000E+02  0.51100000000E-03 0. -1.
         11   -1    0    0    0    0 -0.00000000000E+00 -0.00000000000E+00 -0.45593999997E+02  0.45594000000E+02  0.51100000000E-03 0.  1.
    9900012    2    1    2    0    0  0.66100980613E+01 -0.39106918505E+02 -0.89509449375E+01  0.50528881876E+02  0.30000066950E+02 0.  0.
         12    1    1    2    0    0 -0.66100980613E+01  0.39106918505E+02  0.89509449375E+01  0.40659118124E+02  0.00000000000E+00 0. -1.
         11    1    3    3    0    0  0.13256477044E+02 -0.32369664585E+02 -0.20236323498E+01  0.35037472185E+02  0.51100000000E-03 0. -1.
        -11    1    3    3    0    0  0.11192387423E+01 -0.56877527904E+01 -0.43317318023E+01  0.72365135138E+01  0.51100000000E-03 0.  1.
         12    1    3    3    0    0 -0.77656177255E+01 -0.10495011296E+01 -0.25955807854E+01  0.82548961770E+01  0.00000000000E+00 0. -1.
</event>
<event>
 7    1  0.5121289E-013  0.5052886E+02  0.7816164E-02  0.1300439E+00
        -11   -1    0    0    0    0  0.00000000000E+00  0.00000000000E+00  0.45593999997E+02  0.45594000000E+02  0.51100000000E-03 0.  1.
         11   -1    0    0    0    0 -0.00000000000E+00 -0.00000000000E+00 -0.45593999997E+02  0.45594000000E+02  0.51100000000E-03 0. -1.
    9900012    2    1    2    0    0  0.18875789805E+01  0.30075927428E+02  0.27295445998E+02  0.50528859117E+02  0.29999997773E+02 0.  0.
         12    1    1    2    0    0 -0.18875789805E+01 -0.30075927428E+02 -0.27295445998E+02  0.40659140883E+02  0.00000000000E+00 0. -1.
         11    1    3    3    0    0 -0.21080731006E+01  0.66585796522E+01 -0.19618618615E+01  0.72546231747E+01  0.51100000000E-03 0. -1.
        -11    1    3    3    0    0  0.91743369981E+01  0.17348649713E+01  0.11232697897E+02  0.14606564214E+02  0.51100000000E-03 0.  1.
         12    1    3    3    0    0 -0.51786849171E+01  0.21682482805E+02  0.18024609963E+02  0.28667671729E+02  0.00000000000E+00 0. -1.
</event>
<event>
 7    1  0.5121289E-013  0.5052884E+02  0.7816164E-02  0.1300439E+00
        -11   -1    0    0    0    0  0.00000000000E+00  0.00000000000E+00  0.45593999997E+02  0.45594000000E+02  0.51100000000E-03 0. -1.
         11   -1    0    0    0    0 -0.00000000000E+00 -0.00000000000E+00 -0.45593999997E+02  0.45594000000E+02  0.51100000000E-03 0.  1.
    9900012    2    1    2    0    0 -0.20570459395E+02 -0.33273314576E+02  0.11086465159E+02  0.50528843930E+02  0.29999951610E+02 0.  0.
         12    1    1    2    0    0  0.20570459395E+02  0.33273314576E+02 -0.11086465159E+02  0.40659156070E+02  0.00000000000E+00 0. -1.
         11    1    3    3    0    0  0.63323851453E+01 -0.21442121694E+01 -0.18205023867E+01  0.69289953570E+01  0.51100000000E-03 0. -1.
        -11    1    3    3    0    0 -0.18908705914E+01 -0.61745969888E+00 -0.26310957416E+00  0.20064583181E+01  0.51100000000E-03 0.  1.
         12    1    3    3    0    0 -0.25011973949E+02 -0.30511642708E+02  0.13170077120E+02  0.41593390255E+02  0.00000000000E+00 0. -1.
</event>
<event>
 7    1  0.5121289E-013  0.5052886E+02  0.7816164E-02  0.1300439E+00
        -11   -1    0    0    0    0  0.00000000000E+00  0.00000000000E+00  0.45593999997E+02  0.45594000000E+02  0.51100000000E-03 0. -1.
         11   -1    0    0    0    0 -0.00000000000E+00 -0.00000000000E+00 -0.45593999997E+02  0.45594000000E+02  0.51100000000E-03 0.  1.
    9900012    2    1    2    0    0 -0.34112207922E+02  0.18434201458E+02 -0.12235320656E+02  0.50528860999E+02  0.30000003494E+02 0.  0.
         12    1    1    2    0    0  0.34112207922E+02 -0.18434201458E+02  0.12235320656E+02  0.40659139001E+02  0.00000000000E+00 0. -1.
         11    1    3    3    0    0 -0.21393909313E+02  0.84226342399E+00 -0.55808439976E+01  0.22125880397E+02  0.51100000000E-03 0.  1.
        -11    1    3    3    0    0 -0.12507394465E+01 -0.32993823146E+01 -0.22010095000E+01  0.41586916093E+01  0.51100000000E-03 0. -1.
        -12    1    3    3    0    0 -0.11467559163E+02  0.20891320348E+02 -0.44534671580E+01  0.24244288993E+02  0.00000000000E+00 0.  1.
</event>
<event>
 7    1  0.5121289E-013  0.5052886E+02  0.7816164E-02  0.1300439E+00
        -11   -1    0    0    0    0  0.00000000000E+00  0.00000000000E+00  0.45593999997E+02  0.45594000000E+02  0.51100000000E-03 0.  1.
         11   -1    0    0    0    0 -0.00000000000E+00 -0.00000000000E+00 -0.45593999997E+02  0.45594000000E+02  0.51100000000E-03 0. -1.
    9900012    2    1    2    0    0  0.52842219393E+01  0.37239092117E+02  0.15443195142E+02  0.50528864995E+02  0.30000015639E+02 0.  0.
         12    1    1    2    0    0 -0.52842219393E+01 -0.37239092117E+02 -0.15443195142E+02  0.40659135005E+02  0.00000000000E+00 0. -1.
         11    1    3    3    0    0 -0.85752926009E+01  0.80995459472E+01  0.10601430354E+01  0.11843233987E+02  0.51100000000E-03 0. -1.
        -11    1    3    3    0    0  0.69209305210E+01  0.15157367056E+02 -0.11012931772E+01  0.16699038962E+02  0.51100000000E-03 0.  1.
        -12    1    3    3    0    0  0.69385840192E+01  0.13982179114E+02  0.15484345283E+02  0.21986592046E+02  0.00000000000E+00 0.  1.
</event>
<event>
 7    1  0.5121289E-013  0.5052886E+02  0.7816164E-02  0.1300439E+00
        -11   -1    0    0    0    0  0.00000000000E+00  0.00000000000E+00  0.45593999997E+02  0.45594000000E+02  0.51100000000E-03 0. -1.
         11   -1    0    0    0    0 -0.00000000000E+00 -0.00000000000E+00 -0.45593999997E+02  0.45594000000E+02  0.51100000000E-03 0.  1.
    9900012    2    1    2    0    0 -0.21515296832E+02 -0.22466693685E+02 -0.26182153255E+02  0.50528862380E+02  0.30000007691E+02 0.  0.
         12    1    1    2    0    0  0.21515296832E+02  0.22466693685E+02  0.26182153255E+02  0.40659137620E+02  0.00000000000E+00 0. -1.
         11    1    3    3    0    0 -0.70325220658E+01  0.28551527713E+01 -0.79994749023E+00  0.76320495413E+01  0.51100000000E-03 0. -1.
        -11    1    3    3    0    0 -0.10436978270E+02 -0.18529023731E+01 -0.98055778905E+01  0.14439983402E+02  0.51100000000E-03 0.  1.
        -12    1    3    3    0    0 -0.40457964960E+01 -0.23468944083E+02 -0.15576627874E+02  0.28456829437E+02  0.00000000000E+00 0.  1.
</event>
<event>
 7    1  0.5121289E-013  0.5052885E+02  0.7816164E-02  0.1300439E+00
        -11   -1    0    0    0    0  0.00000000000E+00  0.00000000000E+00  0.45593999997E+02  0.45594000000E+02  0.51100000000E-03 0.  1.
         11   -1    0    0    0    0 -0.00000000000E+00 -0.00000000000E+00 -0.45593999997E+02  0.45594000000E+02  0.51100000000E-03 0. -1.
    9900012    2    1    2    0    0 -0.19988133539E+02  0.29189810781E+02  0.20039861480E+02  0.50528848706E+02  0.29999966128E+02 0.  0.
         12    1    1    2    0    0  0.19988133539E+02 -0.29189810781E+02 -0.20039861480E+02  0.40659151294E+02  0.00000000000E+00 0. -1.
         11    1    3    3    0    0  0.12264369997E+00  0.21078833652E+02  0.36707159648E+01  0.21396411511E+02  0.51100000000E-03 0. -1.
        -11    1    3    3    0    0 -0.18248385990E+01  0.48945150114E+01  0.56454349482E+01  0.76913749827E+01  0.51100000000E-03 0.  1.
        -12    1    3    3    0    0 -0.18285938640E+02  0.32164621180E+01  0.10723710567E+02  0.21441062213E+02  0.00000000000E+00 0.  1.
</event>
<event>
 7    1  0.5121289E-013  0.5052885E+02  0.7816164E-02  0.1300439E+00
        -11   -1    0    0    0    0  0.00000000000E+00  0.00000000000E+00  0.45593999997E+02  0.45594000000E+02  0.51100000000E-03 0. -1.
         11   -1    0    0    0    0 -0.00000000000E+00 -0.00000000000E+00 -0.45593999997E+02  0.45594000000E+02  0.51100000000E-03 0.  1.
    9900012    2    1    2    0    0  0.24138424968E+02 -0.19254743836E+02 -0.26452928663E+02  0.50528853981E+02  0.29999982160E+02 0.  0.
         12    1    1    2    0    0 -0.24138424968E+02  0.19254743836E+02  0.26452928663E+02  0.40659146019E+02  0.00000000000E+00 0. -1.
         11    1    3    3    0    0  0.81102646594E+01 -0.60594822078E+01 -0.44570117355E+01  0.11061585390E+02  0.51100000000E-03 0. -1.
        -11    1    3    3    0    0  0.22665864881E+02 -0.12184646658E+02 -0.19565569237E+02  0.32326746586E+02  0.51100000000E-03 0.  1.
         12    1    3    3    0    0 -0.66377045722E+01 -0.10106149708E+01 -0.24303476909E+01  0.71405220051E+01  0.00000000000E+00 0. -1.
</event>
<event>
 7    1  0.5121289E-013  0.5052886E+02  0.7816164E-02  0.1300439E+00
        -11   -1    0    0    0    0  0.00000000000E+00  0.00000000000E+00  0.45593999997E+02  0.45594000000E+02  0.51100000000E-03 0. -1.
         11   -1    0    0    0    0 -0.00000000000E+00 -0.00000000000E+00 -0.45593999997E+02  0.45594000000E+02  0.51100000000E-03 0.  1.
    9900012    2    1    2    0    0  0.38855723456E+02 -0.78603039456E+01 -0.90340609743E+01  0.50528857349E+02  0.29999992398E+02 0.  0.
         12    1    1    2    0    0 -0.38855723456E+02  0.78603039456E+01  0.90340609743E+01  0.40659142651E+02  0.00000000000E+00 0. -1.
         11    1    3    3    0    0  0.14487465328E+01  0.46268131299E+01 -0.95664076043E+00  0.49418041302E+01  0.51100000000E-03 0. -1.
        -11    1    3    3    0    0  0.35118533886E+01  0.52072303586E+01  0.80784779640E+00  0.63325335020E+01  0.51100000000E-03 0.  1.
        -12    1    3    3    0    0  0.33895123535E+02 -0.17694347434E+02 -0.88852680103E+01  0.39254519717E+02  0.00000000000E+00 0.  1.
</event>
<event>
 7    1  0.5121289E-013  0.5052886E+02  0.7816164E-02  0.1300439E+00
        -11   -1    0    0    0    0  0.00000000000E+00  0.00000000000E+00  0.45593999997E+02  0.45594000000E+02  0.51100000000E-03 0. -1.
         11   -1    0    0    0    0 -0.00000000000E+00 -0.00000000000E+00 -0.45593999997E+02  0.45594000000E+02  0.51100000000E-03 0.  1.
    9900012    2    1    2    0    0  0.25254884290E+02  0.28391847193E+02  0.14465801407E+02  0.50528861078E+02  0.30000003733E+02 0.  0.
         12    1    1    2    0    0 -0.25254884290E+02 -0.28391847193E+02 -0.14465801407E+02  0.40659138922E+02  0.00000000000E+00 0. -1.
         11    1    3    3    0    0  0.84949156093E+01  0.13224516363E+02  0.48538560538E+01  0.16450268785E+02  0.51100000000E-03 0. -1.
        -11    1    3    3    0    0  0.14940253710E+02  0.13525473082E+02  0.16955382325E+02  0.26336943502E+02  0.51100000000E-03 0.  1.
        -12    1    3    3    0    0  0.18197149704E+01  0.16418577480E+01 -0.73434369720E+01  0.77416487908E+01  0.00000000000E+00 0.  1.
</event>
<event>
 7    1  0.5121289E-013  0.5052887E+02  0.7816164E-02  0.1300439E+00
        -11   -1    0    0    0    0  0.00000000000E+00  0.00000000000E+00  0.45593999997E+02  0.45594000000E+02  0.51100000000E-03 0. -1.
         11   -1    0    0    0    0 -0.00000000000E+00 -0.00000000000E+00 -0.45593999997E+02  0.45594000000E+02  0.51100000000E-03 0.  1.
    9900012    2    1    2    0    0  0.21637250955E+02  0.23160427155E+02 -0.25467405202E+02  0.50528871349E+02  0.30000034954E+02 0.  0.
         12    1    1    2    0    0 -0.21637250955E+02 -0.23160427155E+02  0.25467405202E+02  0.40659128651E+02  0.00000000000E+00 0. -1.
         11    1    3    3    0    0  0.11222677936E+02  0.31214431657E+01 -0.57612042951E+01  0.12995513944E+02  0.51100000000E-03 0. -1.
        -11    1    3    3    0    0  0.14255339044E+02  0.35442195536E+01 -0.11804580470E+02  0.18844742074E+02  0.51100000000E-03 0.  1.
        -12    1    3    3    0    0 -0.38407660250E+01  0.16494764436E+02 -0.79016204365E+01  0.18688615331E+02  0.00000000000E+00 0.  1.
</event>
<event>
 7    1  0.5121289E-013  0.5052885E+02  0.7816164E-02  0.1300439E+00
        -11   -1    0    0    0    0  0.00000000000E+00  0.00000000000E+00  0.45593999997E+02  0.45594000000E+02  0.51100000000E-03 0. -1.
         11   -1    0    0    0    0 -0.00000000000E+00 -0.00000000000E+00 -0.45593999997E+02  0.45594000000E+02  0.51100000000E-03 0.  1.
    9900012    2    1    2    0    0  0.28578399307E+02  0.31861795539E+01 -0.28745250866E+02  0.50528854726E+02  0.29999984424E+02 0.  0.
         12    1    1    2    0    0 -0.28578399307E+02 -0.31861795539E+01  0.28745250866E+02  0.40659145274E+02  0.00000000000E+00 0. -1.
         11    1    3    3    0    0  0.18586709212E+02 -0.18602396941E+01 -0.23240435204E+02  0.29816842217E+02  0.51100000000E-03 0. -1.
        -11    1    3    3    0    0  0.80618030777E+01  0.37417167999E+01 -0.11352279835E+02  0.14417606292E+02  0.51100000000E-03 0.  1.
         12    1    3    3    0    0  0.19298870170E+01  0.13047024481E+01  0.58474641727E+01  0.62944062172E+01  0.00000000000E+00 0. -1.
</event>
<event>
 7    1  0.5121289E-013  0.5052888E+02  0.7816164E-02  0.1300439E+00
        -11   -1    0    0    0    0  0.00000000000E+00  0.00000000000E+00  0.45593999997E+02  0.45594000000E+02  0.51100000000E-03 0.  1.
         11   -1    0    0    0    0 -0.00000000000E+00 -0.00000000000E+00 -0.45593999997E+02  0.45594000000E+02  0.51100000000E-03 0. -1.
    9900012    2    1    2    0    0  0.38922407313E+02 -0.91808270862E+00  0.11720384526E+02  0.50528879494E+02  0.30000059710E+02 0.  0.
         12    1    1    2    0    0 -0.38922407313E+02  0.91808270862E+00 -0.11720384526E+02  0.40659120506E+02  0.00000000000E+00 0. -1.
         11    1    3    3    0    0  0.31165725035E+02 -0.14150874417E+01  0.11840912157E+02  0.33369328588E+02  0.51100000000E-03 0.  1.
        -11    1    3    3    0    0  0.11874857891E+02  0.29689224926E+01  0.81000170670E+00  0.12267145297E+02  0.51100000000E-03 0. -1.
         12    1    3    3    0    0 -0.41181756137E+01 -0.24719177596E+01 -0.93052933792E+00  0.48924056091E+01  0.00000000000E+00 0. -1.
</event>
<event>
 7    1  0.5121289E-013  0.5052886E+02  0.7816164E-02  0.1300439E+00
        -11   -1    0    0    0    0  0.00000000000E+00  0.00000000000E+00  0.45593999997E+02  0.45594000000E+02  0.51100000000E-03 0. -1.
         11   -1    0    0    0    0 -0.00000000000E+00 -0.00000000000E+00 -0.45593999997E+02  0.45594000000E+02  0.51100000000E-03 0.  1.
    9900012    2    1    2    0    0  0.91428458232E+01  0.25024767941E+02 -0.30713757680E+02  0.50528861407E+02  0.30000004733E+02 0.  0.
         12    1    1    2    0    0 -0.91428458232E+01 -0.25024767941E+02  0.30713757680E+02  0.40659138593E+02  0.00000000000E+00 0. -1.
         11    1    3    3    0    0  0.10726602135E+02  0.89181044806E+01 -0.19320702740E+02  0.23830277706E+02  0.51100000000E-03 0. -1.
        -11    1    3    3    0    0 -0.15904583194E+00  0.60473544019E+01 -0.14795370503E+02  0.15984329183E+02  0.51100000000E-03 0.  1.
         12    1    3    3    0    0 -0.14247104799E+01  0.10059309059E+02  0.34023155634E+01  0.10714254518E+02  0.00000000000E+00 0. -1.
</event>
<event>
 7    1  0.5121289E-013  0.5052887E+02  0.7816164E-02  0.1300439E+00
        -11   -1    0    0    0    0  0.00000000000E+00  0.00000000000E+00  0.45593999997E+02  0.45594000000E+02  0.51100000000E-03 0. -1.
         11   -1    0    0    0    0 -0.00000000000E+00 -0.00000000000E+00 -0.45593999997E+02  0.45594000000E+02  0.51100000000E-03 0.  1.
    9900012    2    1    2    0    0 -0.99765135000E+01 -0.12305471992E+02 -0.37446091472E+02  0.50528865367E+02  0.30000016769E+02 0.  0.
         12    1    1    2    0    0  0.99765135000E+01  0.12305471992E+02  0.37446091472E+02  0.40659134633E+02  0.00000000000E+00 0. -1.
         11    1    3    3    0    0 -0.13379059033E+01 -0.79206833528E+01 -0.82715552972E+01  0.11530214407E+02  0.51100000000E-03 0. -1.
        -11    1    3    3    0    0 -0.63680709496E+01 -0.13546225475E+02 -0.11193258449E+02  0.18690681829E+02  0.51100000000E-03 0.  1.
         12    1    3    3    0    0 -0.22705366472E+01  0.91614368359E+01 -0.17981277726E+02  0.20307969131E+02  0.00000000000E+00 0. -1.
</event>
<event>
 7    1  0.5121289E-013  0.5052886E+02  0.7816164E-02  0.1300439E+00
        -11   -1    0    0    0    0  0.00000000000E+00  0.00000000000E+00  0.45593999997E+02  0.45594000000E+02  0.51100000000E-03 0. -1.
         11   -1    0    0    0    0 -0.00000000000E+00 -0.00000000000E+00 -0.45593999997E+02  0.45594000000E+02  0.51100000000E-03 0.  1.
    9900012    2    1    2    0    0 -0.38753907689E+01 -0.33805480105E+02 -0.22256153864E+02  0.50528861746E+02  0.30000005764E+02 0.  0.
         12    1    1    2    0    0  0.38753907689E+01  0.33805480105E+02  0.22256153864E+02  0.40659138254E+02  0.00000000000E+00 0. -1.
         11    1    3    3    0    0  0.47714642907E+01 -0.15466762694E+02 -0.44299873573E+01  0.16781311270E+02  0.51100000000E-03 0.  1.
        -11    1    3    3    0    0 -0.38786991980E-01 -0.72774510957E+01  0.36194519468E+01  0.81279291051E+01  0.51100000000E-03 0. -1.
        -12    1    3    3    0    0 -0.86080680676E+01 -0.11061266315E+02 -0.21445618453E+02  0.25619621371E+02  0.00000000000E+00 0.  1.
</event>
<event>
 7    1  0.5121289E-013  0.5052885E+02  0.7816164E-02  0.1300439E+00
        -11   -1    0    0    0    0  0.00000000000E+00  0.00000000000E+00  0.45593999997E+02  0.45594000000E+02  0.51100000000E-03 0.  1.
         11   -1    0    0    0    0 -0.00000000000E+00 -0.00000000000E+00 -0.45593999997E+02  0.45594000000E+02  0.51100000000E-03 0. -1.
    9900012    2    1    2    0    0 -0.39840403994E+02 -0.77400738178E+01 -0.24495158549E+01  0.50528847758E+02  0.29999963245E+02 0.  0.
         12    1    1    2    0    0  0.39840403994E+02  0.77400738178E+01  0.24495158549E+01  0.40659152242E+02  0.00000000000E+00 0. -1.
         11    1    3    3    0    0 -0.44741274979E+01 -0.11937226807E+02 -0.98021805123E+00  0.12785774455E+02  0.51100000000E-03 0. -1.
        -11    1    3    3    0    0 -0.11920669679E+01 -0.13546234886E+01  0.22920703892E+01  0.29171245057E+01  0.51100000000E-03 0.  1.
         12    1    3    3    0    0 -0.34174209528E+02  0.55517764782E+01 -0.37613681928E+01  0.34825948797E+02  0.00000000000E+00 0. -1.
</event>
<event>
 7    1  0.5121289E-013  0.5052885E+02  0.7816164E-02  0.1300439E+00
        -11   -1    0    0    0    0  0.00000000000E+00  0.00000000000E+00  0.45593999997E+02  0.45594000000E+02  0.51100000000E-03 0.  1.
         11   -1    0    0    0    0 -0.00000000000E+00 -0.00000000000E+00 -0.45593999997E+02  0.45594000000E+02  0.51100000000E-03 0. -1.
    9900012    2    1    2    0    0 -0.11474066770E+02  0.25944793541E+02  0.29126963397E+02  0.50528849531E+02  0.29999968634E+02 0.  0.
         12    1    1    2    0    0  0.11474066770E+02 -0.25944793541E+02 -0.29126963397E+02  0.40659150469E+02  0.00000000000E+00 0. -1.
         11    1    3    3    0    0 -0.47077243454E+00 -0.24796187439E+01  0.90234881015E-03  0.25239130087E+01  0.51100000000E-03 0. -1.
        -11    1    3    3    0    0 -0.81002014204E+01  0.10742745281E+02  0.26732522988E+02  0.29927372501E+02  0.51100000000E-03 0.  1.
         12    1    3    3    0    0 -0.29030929149E+01  0.17681667004E+02  0.23935380602E+01  0.18077564021E+02  0.00000000000E+00 0. -1.
</event>
<event>
 7    1  0.5121289E-013  0.5052887E+02  0.7816164E-02  0.1300439E+00
        -11   -1    0    0    0    0  0.00000000000E+00  0.00000000000E+00  0.45593999997E+02  0.45594000000E+02  0.51100000000E-03 0.  1.
         11   -1    0    0    0    0 -0.00000000000E+00 -0.00000000000E+00 -0.45593999997E+02  0.45594000000E+02  0.51100000000E-03 0. -1.
    9900012    2    1    2    0    0  0.21075353928E+02  0.13415310322E+02  0.32078394844E+02  0.50528874210E+02  0.30000043649E+02 0.  0.
         12    1    1    2    0    0 -0.21075353928E+02 -0.13415310322E+02 -0.32078394844E+02  0.40659125790E+02  0.00000000000E+00 0. -1.
         11    1    3    3    0    0  0.89917888100E+01  0.74493617198E+01  0.21676868257E+01  0.11876199833E+02  0.51100000000E-03 0. -1.
        -11    1    3    3    0    0  0.14528108832E+02  0.19826731299E+01  0.89526413341E+01  0.17179834868E+02  0.51100000000E-03 0.  1.
         12    1    3    3    0    0 -0.24445437141E+01  0.39832754727E+01  0.20958066684E+02  0.21472839510E+02  0.00000000000E+00 0. -1.
</event>
<event>
 7    1  0.5121289E-013  0.5052886E+02  0.7816164E-02  0.1300439E+00
        -11   -1    0    0    0    0  0.00000000000E+00  0.00000000000E+00  0.45593999997E+02  0.45594000000E+02  0.51100000000E-03 0.  1.
         11   -1    0    0    0    0 -0.00000000000E+00 -0.00000000000E+00 -0.45593999997E+02  0.45594000000E+02  0.51100000000E-03 0. -1.
    9900012    2    1    2    0    0  0.12979036352E+02 -0.18989303153E+02  0.33527846407E+02  0.50528861992E+02  0.30000006511E+02 0.  0.
         12    1    1    2    0    0 -0.12979036352E+02  0.18989303153E+02 -0.33527846407E+02  0.40659138008E+02  0.00000000000E+00 0. -1.
         11    1    3    3    0    0  0.40550007524E+01 -0.16093062011E+01 -0.27467567119E+01  0.51553438534E+01  0.51100000000E-03 0. -1.
        -11    1    3    3    0    0  0.43364935965E+01 -0.70959814355E+00  0.23419536720E+02  0.23828206116E+02  0.51100000000E-03 0.  1.
         12    1    3    3    0    0  0.45875420032E+01 -0.16670398808E+02  0.12855066398E+02  0.21545312023E+02  0.00000000000E+00 0. -1.
</event>
<event>
 7    1  0.5121289E-013  0.5052886E+02  0.7816164E-02  0.1300439E+00
        -11   -1    0    0    0    0  0.00000000000E+00  0.00000000000E+00  0.45593999997E+02  0.45594000000E+02  0.51100000000E-03 0.  1.
         11   -1    0    0    0    0 -0.00000000000E+00 -0.00000000000E+00 -0.45593999997E+02  0.45594000000E+02  0.51100000000E-03 0. -1.
    9900012    2    1    2    0    0  0.15330289159E+02  0.30170662593E+02  0.22536171048E+02  0.50528860161E+02  0.30000000944E+02 0.  0.
         12    1    1    2    0    0 -0.15330289159E+02 -0.30170662593E+02 -0.22536171048E+02  0.40659139839E+02  0.00000000000E+00 0. -1.
         11    1    3    3    0    0  0.23299610716E+01  0.12067070843E+02  0.12329596025E+02  0.17408671854E+02  0.51100000000E-03 0. -1.
        -11    1    3    3    0    0  0.18696843089E+02  0.11248801688E+02  0.10473560458E+02  0.24203366498E+02  0.51100000000E-03 0.  1.
        -12    1    3    3    0    0 -0.56965150010E+01  0.68547900617E+01 -0.26698543531E+00  0.89168218088E+01  0.00000000000E+00 0.  1.
</event>
<event>
 7    1  0.5121289E-013  0.5052885E+02  0.7816164E-02  0.1300439E+00
        -11   -1    0    0    0    0  0.00000000000E+00  0.00000000000E+00  0.45593999997E+02  0.45594000000E+02  0.51100000000E-03 0.  1.
         11   -1    0    0    0    0 -0.00000000000E+00 -0.00000000000E+00 -0.45593999997E+02  0.45594000000E+02  0.51100000000E-03 0. -1.
    9900012    2    1    2    0    0 -0.18680040924E+02  0.21795245803E+01  0.36048189983E+02  0.50528852722E+02  0.29999978333E+02 0.  0.
         12    1    1    2    0    0  0.18680040924E+02 -0.21795245803E+01 -0.36048189983E+02  0.40659147278E+02  0.00000000000E+00 0. -1.
         11    1    3    3    0    0 -0.15971929243E+01 -0.56681058858E+00  0.20207499379E+02  0.20278444982E+02  0.51100000000E-03 0. -1.
        -11    1    3    3    0    0 -0.20457016074E+02  0.12187040756E+01  0.16714088569E+02  0.26444952320E+02  0.51100000000E-03 0.  1.
         12    1    3    3    0    0  0.33741680739E+01  0.15276310933E+01 -0.87339796428E+00  0.38054554198E+01  0.00000000000E+00 0. -1.
</event>
<event>
 7    1  0.5121289E-013  0.5052886E+02  0.7816164E-02  0.1300439E+00
        -11   -1    0    0    0    0  0.00000000000E+00  0.00000000000E+00  0.45593999997E+02  0.45594000000E+02  0.51100000000E-03 0.  1.
         11   -1    0    0    0    0 -0.00000000000E+00 -0.00000000000E+00 -0.45593999997E+02  0.45594000000E+02  0.51100000000E-03 0. -1.
    9900012    2    1    2    0    0  0.13366763631E+01 -0.40537979244E+02  0.28374266542E+01  0.50528862590E+02  0.30000008328E+02 0.  0.
         12    1    1    2    0    0 -0.13366763631E+01  0.40537979244E+02 -0.28374266542E+01  0.40659137410E+02  0.00000000000E+00 0. -1.
         11    1    3    3    0    0  0.25804853729E+01  0.29694834341E+00  0.11357492454E+01  0.28349620258E+01  0.51100000000E-03 0.  1.
        -11    1    3    3    0    0  0.11215355967E+02 -0.16310880331E+02  0.36066851234E+01  0.20120566703E+02  0.51100000000E-03 0. -1.
         12    1    3    3    0    0 -0.12459164977E+02 -0.24524047257E+02 -0.19050077146E+01  0.27573333861E+02  0.00000000000E+00 0. -1.
</event>
<event>
 7    1  0.5121289E-013  0.5052884E+02  0.7816164E-02  0.1300439E+00
        -11   -1    0    0    0    0  0.00000000000E+00  0.00000000000E+00  0.45593999997E+02  0.45594000000E+02  0.51100000000E-03 0. -1.
         11   -1    0    0    0    0 -0.00000000000E+00 -0.00000000000E+00 -0.45593999997E+02  0.45594000000E+02  0.51100000000E-03 0.  1.
    9900012    2    1    2    0    0 -0.79178313295E+01  0.51693320042E+00 -0.39877408756E+02  0.50528843565E+02  0.29999950501E+02 0.  0.
         12    1    1    2    0    0  0.79178313295E+01 -0.51693320042E+00  0.39877408756E+02  0.40659156435E+02  0.00000000000E+00 0. -1.
         11    1    3    3    0    0 -0.17808816583E+01 -0.29861915495E+01 -0.56754439683E+01  0.66557902573E+01  0.51100000000E-03 0. -1.
        -11    1    3    3    0    0  0.21202319247E+01 -0.20318287802E+01 -0.33796795880E+02  0.33924137773E+02  0.51100000000E-03 0.  1.
        -12    1    3    3    0    0 -0.82571815959E+01  0.55349535302E+01 -0.40516890778E+00  0.99489155355E+01  0.00000000000E+00 0.  1.
</event>
<event>
 7    1  0.5121289E-013  0.5052886E+02  0.7816164E-02  0.1300439E+00
        -11   -1    0    0    0    0  0.00000000000E+00  0.00000000000E+00  0.45593999997E+02  0.45594000000E+02  0.51100000000E-03 0.  1.
         11   -1    0    0    0    0 -0.00000000000E+00 -0.00000000000E+00 -0.45593999997E+02  0.45594000000E+02  0.51100000000E-03 0. -1.
    9900012    2    1    2    0    0 -0.29435387272E+01 -0.27356074654E+02  0.29935706018E+02  0.50528859139E+02  0.29999997840E+02 0.  0.
         12    1    1    2    0    0  0.29435387272E+01  0.27356074654E+02 -0.29935706018E+02  0.40659140861E+02  0.00000000000E+00 0. -1.
         11    1    3    3    0    0 -0.12365768026E+02 -0.54829593512E+01  0.59817436954E+01  0.14790413112E+02  0.51100000000E-03 0. -1.
        -11    1    3    3    0    0  0.24531099037E+00  0.14385745990E+01  0.15533614479E+01  0.21313391114E+01  0.51100000000E-03 0.  1.
        -12    1    3    3    0    0  0.91769183084E+01 -0.23311689902E+02  0.22400600875E+02  0.33607106916E+02  0.00000000000E+00 0.  1.
</event>
<event>
 7    1  0.5121289E-013  0.5052886E+02  0.7816164E-02  0.1300439E+00
        -11   -1    0    0    0    0  0.00000000000E+00  0.00000000000E+00  0.45593999997E+02  0.45594000000E+02  0.51100000000E-03 0. -1.
         11   -1    0    0    0    0 -0.00000000000E+00 -0.00000000000E+00 -0.45593999997E+02  0.45594000000E+02  0.51100000000E-03 0.  1.
    9900012    2    1    2    0    0 -0.13306317410E+02 -0.38412971970E+02  0.74266670747E+00  0.50528855243E+02  0.29999985995E+02 0.  0.
         12    1    1    2    0    0  0.13306317410E+02  0.38412971970E+02 -0.74266670747E+00  0.40659144757E+02  0.00000000000E+00 0. -1.
         11    1    3    3    0    0  0.18203097278E+01 -0.45386141598E+01 -0.26975682837E+01  0.55847489561E+01  0.51100000000E-03 0. -1.
        -11    1    3    3    0    0  0.18861583187E+01 -0.24917179047E+02 -0.16874783320E+01  0.25045378581E+02  0.51100000000E-03 0.  1.
        -12    1    3    3    0    0 -0.17012785456E+02 -0.89571787625E+01  0.51277133232E+01  0.19898727705E+02  0.00000000000E+00 0.  1.
</event>
<event>
 7    1  0.5121289E-013  0.5052886E+02  0.7816164E-02  0.1300439E+00
        -11   -1    0    0    0    0  0.00000000000E+00  0.00000000000E+00  0.45593999997E+02  0.45594000000E+02  0.51100000000E-03 0.  1.
         11   -1    0    0    0    0 -0.00000000000E+00 -0.00000000000E+00 -0.45593999997E+02  0.45594000000E+02  0.51100000000E-03 0. -1.
    9900012    2    1    2    0    0 -0.31220873782E+02  0.11304426625E+02  0.23465565617E+02  0.50528858460E+02  0.29999995774E+02 0.  0.
         12    1    1    2    0    0  0.31220873782E+02 -0.11304426625E+02 -0.23465565617E+02  0.40659141540E+02  0.00000000000E+00 0. -1.
         11    1    3    3    0    0  0.42602872667E+01  0.12228657804E+01 -0.14592221579E+01  0.46663452379E+01  0.51100000000E-03 0. -1.
        -11    1    3    3    0    0 -0.13245720210E+02  0.49020110548E+01  0.16019204846E+02  0.21356351290E+02  0.51100000000E-03 0.  1.
        -12    1    3    3    0    0 -0.22235440839E+02  0.51795497897E+01  0.89055829290E+01  0.24506161932E+02  0.00000000000E+00 0.  1.
</event>
<event>
 7    1  0.5121289E-013  0.5052899E+02  0.7816164E-02  0.1300438E+00
        -11   -1    0    0    0    0  0.00000000000E+00  0.00000000000E+00  0.45593999997E+02  0.45594000000E+02  0.51100000000E-03 0. -1.
         11   -1    0    0    0    0 -0.00000000000E+00 -0.00000000000E+00 -0.45593999997E+02  0.45594000000E+02  0.51100000000E-03 0.  1.
    9900012    2    1    2    0    0  0.36867450977E+02  0.17093235003E+02 -0.13294790059E+01  0.50528989451E+02  0.30000393932E+02 0.  0.
         12    1    1    2    0    0 -0.36867450977E+02 -0.17093235003E+02  0.13294790059E+01  0.40659010549E+02  0.00000000000E+00 0. -1.
         11    1    3    3    0    0  0.69431119299E+01  0.61749784012E+00 -0.17185685066E+00  0.69726352186E+01  0.51100000000E-03 0. -1.
        -11    1    3    3    0    0  0.32294481300E+02  0.15162452278E+02  0.57491696710E+01  0.36137050706E+02  0.51100000000E-03 0.  1.
         12    1    3    3    0    0 -0.23701422529E+01  0.13132848849E+01 -0.69067918263E+01  0.74193035266E+01  0.00000000000E+00 0. -1.
</event>
<event>
 7    1  0.5121289E-013  0.5052886E+02  0.7816164E-02  0.1300439E+00
        -11   -1    0    0    0    0  0.00000000000E+00  0.00000000000E+00  0.45593999997E+02  0.45594000000E+02  0.51100000000E-03 0.  1.
         11   -1    0    0    0    0 -0.00000000000E+00 -0.00000000000E+00 -0.45593999997E+02  0.45594000000E+02  0.51100000000E-03 0. -1.
    9900012    2    1    2    0    0 -0.30692847472E+02  0.21614603114E+02  0.15618059399E+02  0.50528859169E+02  0.29999997931E+02 0.  0.
         12    1    1    2    0    0  0.30692847472E+02 -0.21614603114E+02 -0.15618059399E+02  0.40659140831E+02  0.00000000000E+00 0. -1.
         11    1    3    3    0    0 -0.85414548890E+01 -0.25957751858E+01 -0.33338601032E+01  0.95293821355E+01  0.51100000000E-03 0. -1.
        -11    1    3    3    0    0 -0.10379282742E+02  0.22487124486E+01  0.18565982821E+01  0.10781149074E+02  0.51100000000E-03 0.  1.
         12    1    3    3    0    0 -0.11772109841E+02  0.21961665851E+02  0.17095321220E+02  0.30218327960E+02  0.00000000000E+00 0. -1.
</event>
<event>
 7    1  0.5121289E-013  0.5052886E+02  0.7816164E-02  0.1300439E+00
        -11   -1    0    0    0    0  0.00000000000E+00  0.00000000000E+00  0.45593999997E+02  0.45594000000E+02  0.51100000000E-03 0.  1.
         11   -1    0    0    0    0 -0.00000000000E+00 -0.00000000000E+00 -0.45593999997E+02  0.45594000000E+02  0.51100000000E-03 0. -1.
    9900012    2    1    2    0    0 -0.15825068577E+02  0.32736053314E+02  0.18195708286E+02  0.50528858567E+02  0.29999996102E+02 0.  0.
         12    1    1    2    0    0  0.15825068577E+02 -0.32736053314E+02 -0.18195708286E+02  0.40659141433E+02  0.00000000000E+00 0. -1.
         11    1    3    3    0    0 -0.43410261941E+01 -0.54257821688E-01  0.92798399475E+01  0.10245139435E+02  0.51100000000E-03 0. -1.
        -11    1    3    3    0    0 -0.12542139955E+02  0.10772295217E+02  0.74758797228E-01  0.16533396748E+02  0.51100000000E-03 0.  1.
         12    1    3    3    0    0  0.10580975721E+01  0.22018015919E+02  0.88411095411E+01  0.23750322385E+02  0.00000000000E+00 0. -1.
</event>
<event>
 7    1  0.5121289E-013  0.5052885E+02  0.7816164E-02  0.1300439E+00
        -11   -1    0    0    0    0  0.00000000000E+00  0.00000000000E+00  0.45593999997E+02  0.45594000000E+02  0.51100000000E-03 0.  1.
         11   -1    0    0    0    0 -0.00000000000E+00 -0.00000000000E+00 -0.45593999997E+02  0.45594000000E+02  0.51100000000E-03 0. -1.
    9900012    2    1    2    0    0  0.36758142178E+01 -0.17608638915E+02  0.36463548916E+02  0.50528853745E+02  0.29999981443E+02 0.  0.
         12    1    1    2    0    0 -0.36758142178E+01  0.17608638915E+02 -0.36463548916E+02  0.40659146255E+02  0.00000000000E+00 0. -1.
         11    1    3    3    0    0  0.13661326700E+01 -0.16826673382E+01 -0.96287155732E+00  0.23716681345E+01  0.51100000000E-03 0. -1.
        -11    1    3    3    0    0  0.60589389800E+00  0.37069162913E+01 -0.18703087271E+01  0.41959969974E+01  0.51100000000E-03 0.  1.
        -12    1    3    3    0    0  0.17037876498E+01 -0.19632887868E+02  0.39296729201E+02  0.43961188613E+02  0.00000000000E+00 0.  1.
</event>
<event>
 7    1  0.5121289E-013  0.5052886E+02  0.7816164E-02  0.1300439E+00
        -11   -1    0    0    0    0  0.00000000000E+00  0.00000000000E+00  0.45593999997E+02  0.45594000000E+02  0.51100000000E-03 0.  1.
         11   -1    0    0    0    0 -0.00000000000E+00 -0.00000000000E+00 -0.45593999997E+02  0.45594000000E+02  0.51100000000E-03 0. -1.
    9900012    2    1    2    0    0  0.18429720691E+02 -0.73796438864E+01  0.35483119574E+02  0.50528861749E+02  0.30000005772E+02 0.  0.
         12    1    1    2    0    0 -0.18429720691E+02  0.73796438864E+01 -0.35483119574E+02  0.40659138251E+02  0.00000000000E+00 0. -1.
         11    1    3    3    0    0  0.16367556919E+02  0.51719085601E+01  0.16106876214E+02  0.23538840653E+02  0.51100000000E-03 0. -1.
        -11    1    3    3    0    0  0.61190634206E+01 -0.59645723022E+00  0.58265014024E+01  0.84703492978E+01  0.51100000000E-03 0.  1.
        -12    1    3    3    0    0 -0.40568996494E+01 -0.11955095216E+02  0.13549741957E+02  0.18519671798E+02  0.00000000000E+00 0.  1.
</event>
<event>
 7    1  0.5121289E-013  0.5052885E+02  0.7816164E-02  0.1300439E+00
        -11   -1    0    0    0    0  0.00000000000E+00  0.00000000000E+00  0.45593999997E+02  0.45594000000E+02  0.51100000000E-03 0. -1.
         11   -1    0    0    0    0 -0.00000000000E+00 -0.00000000000E+00 -0.45593999997E+02  0.45594000000E+02  0.51100000000E-03 0.  1.
    9900012    2    1    2    0    0  0.27373338096E+02  0.15136454945E+02  0.25976038054E+02  0.50528850233E+02  0.29999970767E+02 0.  0.
         12    1    1    2    0    0 -0.27373338096E+02 -0.15136454945E+02 -0.25976038054E+02  0.40659149767E+02  0.00000000000E+00 0. -1.
         11    1    3    3    0    0  0.10555374421E+02  0.31307773163E+01 -0.26397732712E+01  0.11321930001E+02  0.51100000000E-03 0. -1.
        -11    1    3    3    0    0  0.20938678783E+01 -0.17666622657E+01 -0.13781623332E+01  0.30667099521E+01  0.51100000000E-03 0.  1.
         12    1    3    3    0    0  0.14724095796E+02  0.13772339894E+02  0.29993973659E+02  0.36140210279E+02  0.00000000000E+00 0. -1.
</event>
<event>
 7    1  0.5121289E-013  0.5052886E+02  0.7816164E-02  0.1300439E+00
        -11   -1    0    0    0    0  0.00000000000E+00  0.00000000000E+00  0.45593999997E+02  0.45594000000E+02  0.51100000000E-03 0.  1.
         11   -1    0    0    0    0 -0.00000000000E+00 -0.00000000000E+00 -0.45593999997E+02  0.45594000000E+02  0.51100000000E-03 0. -1.
    9900012    2    1    2    0    0 -0.39826087668E+02  0.81881613533E+01 -0.45864732088E-01  0.50528863894E+02  0.30000012292E+02 0.  0.
         12    1    1    2    0    0  0.39826087668E+02 -0.81881613533E+01  0.45864732088E-01  0.40659136106E+02  0.00000000000E+00 0. -1.
         11    1    3    3    0    0 -0.97044196958E+01 -0.45688566708E+01  0.10159412014E+01  0.10774151925E+02  0.51100000000E-03 0. -1.
        -11    1    3    3    0    0 -0.27159521837E+02  0.53158118261E+01 -0.83695143567E+01  0.28912735129E+02  0.51100000000E-03 0.  1.
        -12    1    3    3    0    0 -0.29621461352E+01  0.74412061980E+01  0.73077084232E+01  0.10841976840E+02  0.00000000000E+00 0.  1.
</event>
<event>
 7    1  0.5121289E-013  0.5052886E+02  0.7816164E-02  0.1300439E+00
        -11   -1    0    0    0    0  0.00000000000E+00  0.00000000000E+00  0.45593999997E+02  0.45594000000E+02  0.51100000000E-03 0. -1.
         11   -1    0    0    0    0 -0.00000000000E+00 -0.00000000000E+00 -0.45593999997E+02  0.45594000000E+02  0.51100000000E-03 0.  1.
    9900012    2    1    2    0    0 -0.37511498512E+02 -0.15717631366E+01 -0.15607132919E+02  0.50528861323E+02  0.30000004478E+02 0.  0.
         12    1    1    2    0    0  0.37511498512E+02  0.15717631366E+01  0.15607132919E+02  0.40659138677E+02  0.00000000000E+00 0. -1.
         11    1    3    3    0    0 -0.14361840795E+02  0.45623280612E+01 -0.58319184155E+01  0.16158235703E+02  0.51100000000E-03 0.  1.
        -11    1    3    3    0    0 -0.13061367348E+02 -0.10187964880E+02 -0.14964560894E+02  0.22323351639E+02  0.51100000000E-03 0. -1.
         12    1    3    3    0    0 -0.10088290369E+02  0.40538736825E+01  0.51893463909E+01  0.12047273981E+02  0.00000000000E+00 0. -1.
</event>
<event>
 7    1  0.5121289E-013  0.5052886E+02  0.7816164E-02  0.1300439E+00
        -11   -1    0    0    0    0  0.00000000000E+00  0.00000000000E+00  0.45593999997E+02  0.45594000000E+02  0.51100000000E-03 0.  1.
         11   -1    0    0    0    0 -0.00000000000E+00 -0.00000000000E+00 -0.45593999997E+02  0.45594000000E+02  0.51100000000E-03 0. -1.
    9900012    2    1    2    0    0 -0.13681819519E+02  0.16992351778E+02  0.34310833006E+02  0.50528862455E+02  0.30000007919E+02 0.  0.
         12    1    1    2    0    0  0.13681819519E+02 -0.16992351778E+02 -0.34310833006E+02  0.40659137545E+02  0.00000000000E+00 0. -1.
         11    1    3    3    0    0 -0.76584437743E-02  0.46650847847E+01  0.25299809894E+02  0.25726318346E+02  0.51100000000E-03 0.  1.
        -11    1    3    3    0    0 -0.11078701873E+01  0.95038541063E+00  0.76596682888E+01  0.77975077644E+01  0.51100000000E-03 0. -1.
         12    1    3    3    0    0 -0.12566290888E+02  0.11376881583E+02  0.13513548236E+01  0.17005036345E+02  0.00000000000E+00 0. -1.
</event>
<event>
 7    1  0.5121289E-013  0.5052877E+02  0.7816164E-02  0.1300439E+00
        -11   -1    0    0    0    0  0.00000000000E+00  0.00000000000E+00  0.45593999997E+02  0.45594000000E+02  0.51100000000E-03 0. -1.
         11   -1    0    0    0    0 -0.00000000000E+00 -0.00000000000E+00 -0.45593999997E+02  0.45594000000E+02  0.51100000000E-03 0.  1.
    9900012    2    1    2    0    0 -0.25816685279E+02 -0.30714588887E+02  0.65791728245E+01  0.50528773195E+02  0.29999736604E+02 0.  0.
         12    1    1    2    0    0  0.25816685279E+02  0.30714588887E+02 -0.65791728245E+01  0.40659226805E+02  0.00000000000E+00 0. -1.
         11    1    3    3    0    0 -0.12910031757E+02 -0.16453542382E+02  0.12995296936E+02  0.24622463719E+02  0.51100000000E-03 0.  1.
        -11    1    3    3    0    0 -0.11720045192E+01 -0.10162503807E+02  0.25948866048E+01  0.10553838874E+02  0.51100000000E-03 0. -1.
        -12    1    3    3    0    0 -0.11734649003E+02 -0.40985426976E+01 -0.90110107163E+01  0.15352470602E+02  0.00000000000E+00 0.  1.
</event>
<event>
 7    1  0.5121289E-013  0.5052886E+02  0.7816164E-02  0.1300439E+00
        -11   -1    0    0    0    0  0.00000000000E+00  0.00000000000E+00  0.45593999997E+02  0.45594000000E+02  0.51100000000E-03 0.  1.
         11   -1    0    0    0    0 -0.00000000000E+00 -0.00000000000E+00 -0.45593999997E+02  0.45594000000E+02  0.51100000000E-03 0. -1.
    9900012    2    1    2    0    0  0.21120135069E+02 -0.19760609990E+02  0.28576628581E+02  0.50528861869E+02  0.30000006136E+02 0.  0.
         12    1    1    2    0    0 -0.21120135069E+02  0.19760609990E+02 -0.28576628581E+02  0.40659138131E+02  0.00000000000E+00 0. -1.
         11    1    3    3    0    0 -0.19222741488E+01 -0.94130570316E+00  0.10418894084E+02  0.10636472561E+02  0.51100000000E-03 0. -1.
        -11    1    3    3    0    0  0.38610185235E+01 -0.26988485777E+01 -0.42003705191E+01  0.63114467789E+01  0.51100000000E-03 0.  1.
        -12    1    3    3    0    0  0.19181390695E+02 -0.16120455709E+02  0.22358105016E+02  0.33580942529E+02  0.00000000000E+00 0.  1.
</event>
<event>
 7    1  0.5121289E-013  0.5052886E+02  0.7816164E-02  0.1300439E+00
        -11   -1    0    0    0    0  0.00000000000E+00  0.00000000000E+00  0.45593999997E+02  0.45594000000E+02  0.51100000000E-03 0.  1.
         11   -1    0    0    0    0 -0.00000000000E+00 -0.00000000000E+00 -0.45593999997E+02  0.45594000000E+02  0.51100000000E-03 0. -1.
    9900012    2    1    2    0    0  0.23716633769E+02 -0.11374062454E+02  0.31005118428E+02  0.50528863477E+02  0.30000011025E+02 0.  0.
         12    1    1    2    0    0 -0.23716633769E+02  0.11374062454E+02 -0.31005118428E+02  0.40659136523E+02  0.00000000000E+00 0. -1.
         11    1    3    3    0    0  0.12768475145E+02  0.24970970129E+01  0.10109150403E+02  0.16476175926E+02  0.51100000000E-03 0. -1.
        -11    1    3    3    0    0  0.15359942356E+02 -0.59969184356E+01  0.18359430937E+02  0.24677106081E+02  0.51100000000E-03 0.  1.
        -12    1    3    3    0    0 -0.44117837319E+01 -0.78742410312E+01  0.25365370879E+01  0.93755814706E+01  0.00000000000E+00 0.  1.
</event>
<event>
 7    1  0.5121289E-013  0.5052885E+02  0.7816164E-02  0.1300439E+00
        -11   -1    0    0    0    0  0.00000000000E+00  0.00000000000E+00  0.45593999997E+02  0.45594000000E+02  0.51100000000E-03 0.  1.
         11   -1    0    0    0    0 -0.00000000000E+00 -0.00000000000E+00 -0.45593999997E+02  0.45594000000E+02  0.51100000000E-03 0. -1.
    9900012    2    1    2    0    0 -0.11665331287E+02  0.38931515739E+02 -0.11929961638E+01  0.50528854515E+02  0.29999983782E+02 0.  0.
         12    1    1    2    0    0  0.11665331287E+02 -0.38931515739E+02  0.11929961638E+01  0.40659145485E+02  0.00000000000E+00 0. -1.
         11    1    3    3    0    0 -0.36711502755E+01  0.15688497724E+01  0.46593619316E+00  0.40194192057E+01  0.51100000000E-03 0.  1.
        -11    1    3    3    0    0 -0.43431152646E+01  0.26938381638E+02  0.11254994745E+02  0.29516333824E+02  0.51100000000E-03 0. -1.
         12    1    3    3    0    0 -0.36510657473E+01  0.10424284329E+02 -0.12913927102E+02  0.16993101484E+02  0.00000000000E+00 0. -1.
</event>
<event>
 7    1  0.5121289E-013  0.5052886E+02  0.7816164E-02  0.1300439E+00
        -11   -1    0    0    0    0  0.00000000000E+00  0.00000000000E+00  0.45593999997E+02  0.45594000000E+02  0.51100000000E-03 0. -1.
         11   -1    0    0    0    0 -0.00000000000E+00 -0.00000000000E+00 -0.45593999997E+02  0.45594000000E+02  0.51100000000E-03 0.  1.
    9900012    2    1    2    0    0 -0.19575039064E+02  0.28289993617E+02 -0.21671641294E+02  0.50528856753E+02  0.29999990587E+02 0.  0.
         12    1    1    2    0    0  0.19575039064E+02 -0.28289993617E+02  0.21671641294E+02  0.40659143247E+02  0.00000000000E+00 0. -1.
         11    1    3    3    0    0 -0.49045833710E+01 -0.21775081079E+01 -0.12792207301E+02  0.13872168089E+02  0.51100000000E-03 0. -1.
        -11    1    3    3    0    0 -0.40133928574E+01  0.34951972595E+01 -0.51688216964E+01  0.74189247267E+01  0.51100000000E-03 0.  1.
        -12    1    3    3    0    0 -0.10657062836E+02  0.26972304465E+02 -0.37106122968E+01  0.29237763937E+02  0.00000000000E+00 0.  1.
</event>
<event>
 7    1  0.5121289E-013  0.5052884E+02  0.7816164E-02  0.1300439E+00
        -11   -1    0    0    0    0  0.00000000000E+00  0.00000000000E+00  0.45593999997E+02  0.45594000000E+02  0.51100000000E-03 0.  1.
         11   -1    0    0    0    0 -0.00000000000E+00 -0.00000000000E+00 -0.45593999997E+02  0.45594000000E+02  0.51100000000E-03 0. -1.
    9900012    2    1    2    0    0  0.36578085978E+02  0.27588453085E+01  0.17538514965E+02  0.50528842256E+02  0.29999946522E+02 0.  0.
         12    1    1    2    0    0 -0.36578085978E+02 -0.27588453085E+01 -0.17538514965E+02  0.40659157744E+02  0.00000000000E+00 0. -1.
         11    1    3    3    0    0  0.25144994824E+01 -0.38528350687E+01  0.49343308093E+01  0.67464558482E+01  0.51100000000E-03 0. -1.
        -11    1    3    3    0    0  0.17019319073E+02  0.86987051626E+00  0.18213202889E+02  0.24942627291E+02  0.51100000000E-03 0.  1.
         12    1    3    3    0    0  0.17044267423E+02  0.57418098610E+01 -0.56090187333E+01  0.18839759117E+02  0.00000000000E+00 0. -1.
</event>
<event>
 7    1  0.5121289E-013  0.5052889E+02  0.7816164E-02  0.1300439E+00
        -11   -1    0    0    0    0  0.00000000000E+00  0.00000000000E+00  0.45593999997E+02  0.45594000000E+02  0.51100000000E-03 0.  1.
         11   -1    0    0    0    0 -0.00000000000E+00 -0.00000000000E+00 -0.45593999997E+02  0.45594000000E+02  0.51100000000E-03 0. -1.
    9900012    2    1    2    0    0  0.16455793646E+02  0.13198898300E+02  0.34758580023E+02  0.50528893442E+02  0.30000102106E+02 0.  0.
         12    1    1    2    0    0 -0.16455793646E+02 -0.13198898300E+02 -0.34758580023E+02  0.40659106558E+02  0.00000000000E+00 0. -1.
         11    1    3    3    0    0 -0.30874071700E+01 -0.27839799045E+01  0.12259556041E+01  0.43342351743E+01  0.51100000000E-03 0. -1.
        -11    1    3    3    0    0  0.16516630964E+02  0.15314292656E+02  0.14224875445E+02  0.26639702319E+02  0.51100000000E-03 0.  1.
         12    1    3    3    0    0  0.30265698516E+01  0.66858554937E+00  0.19307748974E+02  0.19554955949E+02  0.00000000000E+00 0. -1.
</event>
<event>
 7    1  0.5121289E-013  0.5052886E+02  0.7816164E-02  0.1300439E+00
        -11   -1    0    0    0    0  0.00000000000E+00  0.00000000000E+00  0.45593999997E+02  0.45594000000E+02  0.51100000000E-03 0.  1.
         11   -1    0    0    0    0 -0.00000000000E+00 -0.00000000000E+00 -0.45593999997E+02  0.45594000000E+02  0.51100000000E-03 0. -1.
    9900012    2    1    2    0    0  0.28485888069E+02  0.18879002784E+02  0.22029588828E+02  0.50528863891E+02  0.30000012283E+02 0.  0.
         12    1    1    2    0    0 -0.28485888069E+02 -0.18879002784E+02 -0.22029588828E+02  0.40659136109E+02  0.00000000000E+00 0. -1.
         11    1    3    3    0    0  0.25989564447E+01 -0.33813887494E+01  0.65232827219E+01  0.77936886136E+01  0.51100000000E-03 0. -1.
        -11    1    3    3    0    0  0.17682996486E+02  0.18326539399E+02  0.20192810375E+02  0.32500769255E+02  0.51100000000E-03 0.  1.
        -12    1    3    3    0    0  0.82039351385E+01  0.39338521350E+01 -0.46865042688E+01  0.10234406023E+02  0.00000000000E+00 0.  1.
</event>
<event>
 7    1  0.5121289E-013  0.5052885E+02  0.7816164E-02  0.1300439E+00
        -11   -1    0    0    0    0  0.00000000000E+00  0.00000000000E+00  0.45593999997E+02  0.45594000000E+02  0.51100000000E-03 0.  1.
         11   -1    0    0    0    0 -0.00000000000E+00 -0.00000000000E+00 -0.45593999997E+02  0.45594000000E+02  0.51100000000E-03 0. -1.
    9900012    2    1    2    0    0  0.38391726844E+02  0.12691867959E+02 -0.42612114466E+01  0.50528854346E+02  0.29999983269E+02 0.  0.
         12    1    1    2    0    0 -0.38391726844E+02 -0.12691867959E+02  0.42612114466E+01  0.40659145654E+02  0.00000000000E+00 0. -1.
         11    1    3    3    0    0  0.16592802683E+02  0.12888543467E+02 -0.77673793232E+01  0.22400174896E+02  0.51100000000E-03 0. -1.
        -11    1    3    3    0    0  0.16889026351E+02  0.16647938494E+01  0.10061746746E+02  0.19729406922E+02  0.51100000000E-03 0.  1.
         12    1    3    3    0    0  0.49098978106E+01 -0.18614693575E+01 -0.65555788695E+01  0.83992725276E+01  0.00000000000E+00 0. -1.
</event>
<event>
 7    1  0.5633152E-013  0.5052886E+02  0.7816164E-02  0.1300439E+00
        -11   -1    0    0    0    0  0.00000000000E+00  0.00000000000E+00  0.45593999997E+02  0.45594000000E+02  0.51100000000E-03 0. -1.
         11   -1    0    0    0    0 -0.00000000000E+00 -0.00000000000E+00 -0.45593999997E+02  0.45594000000E+02  0.51100000000E-03 0.  1.
    9900012    2    1    2    0    0  0.17697968825E+02 -0.14205411276E+02 -0.33736534313E+02  0.50528861329E+02  0.30000004496E+02 0.  0.
         12    1    1    2    0    0 -0.17697968825E+02  0.14205411276E+02  0.33736534313E+02  0.40659138671E+02  0.00000000000E+00 0. -1.
         11    1    3    3    0    0 -0.26342418256E+00  0.28855359756E+01  0.11583777215E+01  0.31205046664E+01  0.51100000000E-03 0. -1.
        -11    1    3    3    0    0  0.83679779513E+01  0.17074160159E+01 -0.27838020988E+01  0.89826431984E+01  0.51100000000E-03 0.  1.
        -12    1    3    3    0    0  0.95934150561E+01 -0.18798363267E+02 -0.32111109935E+02  0.38425713464E+02  0.00000000000E+00 0.  1.
</event>
<event>
 7    1  0.5121289E-013  0.5052886E+02  0.7816164E-02  0.1300439E+00
        -11   -1    0    0    0    0  0.00000000000E+00  0.00000000000E+00  0.45593999997E+02  0.45594000000E+02  0.51100000000E-03 0.  1.
         11   -1    0    0    0    0 -0.00000000000E+00 -0.00000000000E+00 -0.45593999997E+02  0.45594000000E+02  0.51100000000E-03 0. -1.
    9900012    2    1    2    0    0  0.20197637459E+02  0.26536694284E+02  0.23259944940E+02  0.50528859071E+02  0.29999997633E+02 0.  0.
         12    1    1    2    0    0 -0.20197637459E+02 -0.26536694284E+02 -0.23259944940E+02  0.40659140929E+02  0.00000000000E+00 0. -1.
         11    1    3    3    0    0  0.47891967129E+01  0.11084748925E+02  0.12266338844E+02  0.17212528367E+02  0.51100000000E-03 0. -1.
        -11    1    3    3    0    0  0.57556859354E+01  0.19541857308E+02  0.10253644828E+02  0.22806782766E+02  0.51100000000E-03 0.  1.
        -12    1    3    3    0    0  0.96527548103E+01 -0.40899119491E+01  0.73996126805E+00  0.10509547938E+02  0.00000000000E+00 0.  1.
</event>
<event>
 7    1  0.5121289E-013  0.5052886E+02  0.7816164E-02  0.1300439E+00
        -11   -1    0    0    0    0  0.00000000000E+00  0.00000000000E+00  0.45593999997E+02  0.45594000000E+02  0.51100000000E-03 0. -1.
         11   -1    0    0    0    0 -0.00000000000E+00 -0.00000000000E+00 -0.45593999997E+02  0.45594000000E+02  0.51100000000E-03 0.  1.
    9900012    2    1    2    0    0  0.24777767480E+02 -0.30107331911E+02  0.11522877895E+02  0.50528856981E+02  0.29999991279E+02 0.  0.
         12    1    1    2    0    0 -0.24777767480E+02  0.30107331911E+02 -0.11522877895E+02  0.40659143019E+02  0.00000000000E+00 0. -1.
         11    1    3    3    0    0 -0.82694330903E+00  0.38187796363E+01  0.25160145705E+01  0.46472833706E+01  0.51100000000E-03 0. -1.
        -11    1    3    3    0    0  0.90352497339E+01 -0.18849213566E+02  0.10572921439E+02  0.23424671990E+02  0.51100000000E-03 0.  1.
        -12    1    3    3    0    0  0.16569461055E+02 -0.15076897981E+02 -0.15660581138E+01  0.22456901620E+02  0.00000000000E+00 0.  1.
</event>
<event>
 7    1  0.5121289E-013  0.5052892E+02  0.7816164E-02  0.1300439E+00
        -11   -1    0    0    0    0  0.00000000000E+00  0.00000000000E+00  0.45593999997E+02  0.45594000000E+02  0.51100000000E-03 0.  1.
         11   -1    0    0    0    0 -0.00000000000E+00 -0.00000000000E+00 -0.45593999997E+02  0.45594000000E+02  0.51100000000E-03 0. -1.
    9900012    2    1    2    0    0  0.13091821606E+00 -0.67229075353E+01  0.40099199953E+02  0.50528923987E+02  0.30000194952E+02 0.  0.
         12    1    1    2    0    0 -0.13091821606E+00  0.67229075353E+01 -0.40099199953E+02  0.40659076013E+02  0.00000000000E+00 0. -1.
         11    1    3    3    0    0  0.42441583424E+01  0.13020679705E+01  0.14187096046E+02  0.14865461833E+02  0.51100000000E-03 0. -1.
        -11    1    3    3    0    0  0.38293386836E+01  0.64956346260E+01  0.52415123468E+01  0.91831669859E+01  0.51100000000E-03 0.  1.
         12    1    3    3    0    0 -0.79425788099E+01 -0.14520610132E+02  0.20670591561E+02  0.26480295169E+02  0.00000000000E+00 0. -1.
</event>
<event>
 7    1  0.5121289E-013  0.5052886E+02  0.7816164E-02  0.1300439E+00
        -11   -1    0    0    0    0  0.00000000000E+00  0.00000000000E+00  0.45593999997E+02  0.45594000000E+02  0.51100000000E-03 0.  1.
         11   -1    0    0    0    0 -0.00000000000E+00 -0.00000000000E+00 -0.45593999997E+02  0.45594000000E+02  0.51100000000E-03 0. -1.
    9900012    2    1    2    0    0  0.30910432759E+02  0.23670282592E+02 -0.11722990157E+02  0.50528860442E+02  0.30000001801E+02 0.  0.
         12    1    1    2    0    0 -0.30910432759E+02 -0.23670282592E+02  0.11722990157E+02  0.40659139558E+02  0.00000000000E+00 0. -1.
         11    1    3    3    0    0  0.18849022982E+02  0.90317111178E+01 -0.77777848320E+01  0.22301376869E+02  0.51100000000E-03 0. -1.
        -11    1    3    3    0    0  0.15247890845E+02  0.15787587235E+02  0.12960181219E+01  0.21986944971E+02  0.51100000000E-03 0.  1.
         12    1    3    3    0    0 -0.31864810692E+01 -0.11490157600E+01 -0.52412234474E+01  0.62405386023E+01  0.00000000000E+00 0. -1.
</event>
<event>
 7    1  0.5121289E-013  0.5052886E+02  0.7816164E-02  0.1300439E+00
        -11   -1    0    0    0    0  0.00000000000E+00  0.00000000000E+00  0.45593999997E+02  0.45594000000E+02  0.51100000000E-03 0. -1.
         11   -1    0    0    0    0 -0.00000000000E+00 -0.00000000000E+00 -0.45593999997E+02  0.45594000000E+02  0.51100000000E-03 0.  1.
    9900012    2    1    2    0    0  0.36105652809E+02 -0.16974094097E+02 -0.78375770569E+01  0.50528860199E+02  0.30000001061E+02 0.  0.
         12    1    1    2    0    0 -0.36105652809E+02  0.16974094097E+02  0.78375770569E+01  0.40659139801E+02  0.00000000000E+00 0. -1.
         11    1    3    3    0    0  0.12026549449E+02 -0.13156858263E+02  0.32868010792E+01  0.18125779227E+02  0.51100000000E-03 0. -1.
        -11    1    3    3    0    0  0.14932612170E+02 -0.97333071986E+01 -0.15352737251E+01  0.17890702639E+02  0.51100000000E-03 0.  1.
        -12    1    3    3    0    0  0.91464911905E+01  0.59160713638E+01 -0.95891044110E+01  0.14512378333E+02  0.00000000000E+00 0.  1.
</event>
<event>
 7    1  0.5121289E-013  0.5052885E+02  0.7816164E-02  0.1300439E+00
        -11   -1    0    0    0    0  0.00000000000E+00  0.00000000000E+00  0.45593999997E+02  0.45594000000E+02  0.51100000000E-03 0.  1.
         11   -1    0    0    0    0 -0.00000000000E+00 -0.00000000000E+00 -0.45593999997E+02  0.45594000000E+02  0.51100000000E-03 0. -1.
    9900012    2    1    2    0    0 -0.50179133818E+01 -0.39962439278E+02 -0.55668791905E+01  0.50528854022E+02  0.29999982285E+02 0.  0.
         12    1    1    2    0    0  0.50179133818E+01  0.39962439278E+02  0.55668791905E+01  0.40659145978E+02  0.00000000000E+00 0. -1.
         11    1    3    3    0    0  0.41669739485E+01 -0.95014382649E+01 -0.19034500161E+01  0.10548181038E+02  0.51100000000E-03 0. -1.
        -11    1    3    3    0    0 -0.58598114798E-01 -0.26545377579E+02  0.47475122388E+01  0.26966634518E+02  0.51100000000E-03 0.  1.
        -12    1    3    3    0    0 -0.91262892155E+01 -0.39156234343E+01 -0.84109414132E+01  0.13014038465E+02  0.00000000000E+00 0.  1.
</event>
<event>
 7    1  0.5121289E-013  0.5052886E+02  0.7816164E-02  0.1300439E+00
        -11   -1    0    0    0    0  0.00000000000E+00  0.00000000000E+00  0.45593999997E+02  0.45594000000E+02  0.51100000000E-03 0.  1.
         11   -1    0    0    0    0 -0.00000000000E+00 -0.00000000000E+00 -0.45593999997E+02  0.45594000000E+02  0.51100000000E-03 0. -1.
    9900012    2    1    2    0    0  0.58371897122E+01 -0.39414144764E+02  0.81004857861E+01  0.50528862513E+02  0.30000008096E+02 0.  0.
         12    1    1    2    0    0 -0.58371897122E+01  0.39414144764E+02 -0.81004857861E+01  0.40659137487E+02  0.00000000000E+00 0. -1.
         11    1    3    3    0    0 -0.34018791888E+00 -0.23713607780E+02  0.84415985837E+00  0.23731066725E+02  0.51100000000E-03 0. -1.
        -11    1    3    3    0    0  0.21578566588E+01 -0.14173288308E+02 -0.38865361634E+01  0.14854077233E+02  0.51100000000E-03 0.  1.
         12    1    3    3    0    0  0.40195209723E+01 -0.15272486753E+01  0.11142862091E+02  0.11943718556E+02  0.00000000000E+00 0. -1.
</event>
<event>
 7    1  0.5121289E-013  0.5052885E+02  0.7816164E-02  0.1300439E+00
        -11   -1    0    0    0    0  0.00000000000E+00  0.00000000000E+00  0.45593999997E+02  0.45594000000E+02  0.51100000000E-03 0.  1.
         11   -1    0    0    0    0 -0.00000000000E+00 -0.00000000000E+00 -0.45593999997E+02  0.45594000000E+02  0.51100000000E-03 0. -1.
    9900012    2    1    2    0    0  0.16727394457E+02 -0.25104200870E+02  0.27260589280E+02  0.50528851527E+02  0.29999974701E+02 0.  0.
         12    1    1    2    0    0 -0.16727394457E+02  0.25104200870E+02 -0.27260589280E+02  0.40659148473E+02  0.00000000000E+00 0. -1.
         11    1    3    3    0    0 -0.45904427608E+01 -0.13258391570E+02  0.13829573970E+02  0.19700614919E+02  0.51100000000E-03 0. -1.
        -11    1    3    3    0    0  0.16715978910E+01 -0.73686159030E+01  0.44355651514E+01  0.87615625495E+01  0.51100000000E-03 0.  1.
         12    1    3    3    0    0  0.19646239327E+02 -0.44771933971E+01  0.89954501595E+01  0.22066674058E+02  0.00000000000E+00 0. -1.
</event>
<event>
 7    1  0.5121289E-013  0.5052882E+02  0.7816164E-02  0.1300439E+00
        -11   -1    0    0    0    0  0.00000000000E+00  0.00000000000E+00  0.45593999997E+02  0.45594000000E+02  0.51100000000E-03 0.  1.
         11   -1    0    0    0    0 -0.00000000000E+00 -0.00000000000E+00 -0.45593999997E+02  0.45594000000E+02  0.51100000000E-03 0. -1.
    9900012    2    1    2    0    0  0.49386817572E+01 -0.37568220487E+02  0.14744721911E+02  0.50528824009E+02  0.29999891057E+02 0.  0.
         12    1    1    2    0    0 -0.49386817572E+01  0.37568220487E+02 -0.14744721911E+02  0.40659175991E+02  0.00000000000E+00 0. -1.
         11    1    3    3    0    0  0.16899142430E+01 -0.13926168002E+02  0.16584810460E+02  0.21722106335E+02  0.51100000000E-03 0.  1.
        -11    1    3    3    0    0  0.12991605323E+01  0.20288726261E+01 -0.18896010822E+01  0.30618188602E+01  0.51100000000E-03 0. -1.
        -12    1    3    3    0    0  0.19496069819E+01 -0.25670925111E+02  0.49512532910E-01  0.25744898814E+02  0.00000000000E+00 0.  1.
</event>
<event>
 7    1  0.5121289E-013  0.5052886E+02  0.7816164E-02  0.1300439E+00
        -11   -1    0    0    0    0  0.00000000000E+00  0.00000000000E+00  0.45593999997E+02  0.45594000000E+02  0.51100000000E-03 0.  1.
         11   -1    0    0    0    0 -0.00000000000E+00 -0.00000000000E+00 -0.45593999997E+02  0.45594000000E+02  0.51100000000E-03 0. -1.
    9900012    2    1    2    0    0  0.27079384681E+02 -0.25412995247E+02  0.16554516735E+02  0.50528862940E+02  0.30000009393E+02 0.  0.
         12    1    1    2    0    0 -0.27079384681E+02  0.25412995247E+02 -0.16554516735E+02  0.40659137060E+02  0.00000000000E+00 0. -1.
         11    1    3    3    0    0  0.25579270336E+01 -0.16580505465E+02  0.10513933757E+02  0.19798963495E+02  0.51100000000E-03 0. -1.
        -11    1    3    3    0    0  0.56898598662E+01 -0.88948052884E+01 -0.10421957703E+01  0.10610289285E+02  0.51100000000E-03 0.  1.
        -12    1    3    3    0    0  0.18831597781E+02  0.62315506107E-01  0.70827787490E+01  0.20119610161E+02  0.00000000000E+00 0.  1.
</event>
<event>
 7    1  0.5121289E-013  0.5052885E+02  0.7816164E-02  0.1300439E+00
        -11   -1    0    0    0    0  0.00000000000E+00  0.00000000000E+00  0.45593999997E+02  0.45594000000E+02  0.51100000000E-03 0. -1.
         11   -1    0    0    0    0 -0.00000000000E+00 -0.00000000000E+00 -0.45593999997E+02  0.45594000000E+02  0.51100000000E-03 0.  1.
    9900012    2    1    2    0    0 -0.13515568007E+01  0.40426152225E+02  0.41310613135E+01  0.50528853955E+02  0.29999982081E+02 0.  0.
         12    1    1    2    0    0  0.13515568007E+01 -0.40426152225E+02 -0.41310613135E+01  0.40659146045E+02  0.00000000000E+00 0. -1.
         11    1    3    3    0    0  0.97736263474E+00  0.20265616338E+01 -0.78837437471E+01  0.81985123960E+01  0.51100000000E-03 0. -1.
        -11    1    3    3    0    0 -0.53181886057E+01  0.77614064912E+01  0.53855063486E+01  0.10840951972E+02  0.51100000000E-03 0.  1.
        -12    1    3    3    0    0  0.29892691702E+01  0.30638184100E+02  0.66292987121E+01  0.31489389587E+02  0.00000000000E+00 0.  1.
</event>
<event>
 7    1  0.5121289E-013  0.5052879E+02  0.7816164E-02  0.1300439E+00
        -11   -1    0    0    0    0  0.00000000000E+00  0.00000000000E+00  0.45593999997E+02  0.45594000000E+02  0.51100000000E-03 0. -1.
         11   -1    0    0    0    0 -0.00000000000E+00 -0.00000000000E+00 -0.45593999997E+02  0.45594000000E+02  0.51100000000E-03 0.  1.
    9900012    2    1    2    0    0  0.31434444982E+02 -0.21707595083E+02 -0.13922203089E+02  0.50528785123E+02  0.29999772858E+02 0.  0.
         12    1    1    2    0    0 -0.31434444982E+02  0.21707595083E+02  0.13922203089E+02  0.40659214877E+02  0.00000000000E+00 0. -1.
         11    1    3    3    0    0  0.56924141500E+01 -0.78353766578E+01  0.39535080100E+01  0.10460732865E+02  0.51100000000E-03 0. -1.
        -11    1    3    3    0    0 -0.14080280174E+01  0.10619946380E+00  0.28370351623E+01  0.31690045752E+01  0.51100000000E-03 0.  1.
        -12    1    3    3    0    0  0.27150058849E+02 -0.13978417889E+02 -0.20712746261E+02  0.36899047683E+02  0.00000000000E+00 0.  1.
</event>
<event>
 7    1  0.5121289E-013  0.5052894E+02  0.7816164E-02  0.1300438E+00
        -11   -1    0    0    0    0  0.00000000000E+00  0.00000000000E+00  0.45593999997E+02  0.45594000000E+02  0.51100000000E-03 0.  1.
         11   -1    0    0    0    0 -0.00000000000E+00 -0.00000000000E+00 -0.45593999997E+02  0.45594000000E+02  0.51100000000E-03 0. -1.
    9900012    2    1    2    0    0 -0.22165502559E+02 -0.22516165805E+02  0.25590457937E+02  0.50528944875E+02  0.30000258440E+02 0.  0.
         12    1    1    2    0    0  0.22165502559E+02  0.22516165805E+02 -0.25590457937E+02  0.40659055125E+02  0.00000000000E+00 0. -1.
         11    1    3    3    0    0 -0.49639870658E+00 -0.12457659319E+02  0.15192611748E+02  0.19653374758E+02  0.51100000000E-03 0. -1.
        -11    1    3    3    0    0  0.12639571702E+01 -0.22713781199E+01  0.56167384535E+01  0.61890627245E+01  0.51100000000E-03 0.  1.
        -12    1    3    3    0    0 -0.22933061023E+02 -0.77871283658E+01  0.47811077360E+01  0.24686507393E+02  0.00000000000E+00 0.  1.
</event>
<event>
 7    1  0.5121289E-013  0.5052885E+02  0.7816164E-02  0.1300439E+00
        -11   -1    0    0    0    0  0.00000000000E+00  0.00000000000E+00  0.45593999997E+02  0.45594000000E+02  0.51100000000E-03 0. -1.
         11   -1    0    0    0    0 -0.00000000000E+00 -0.00000000000E+00 -0.45593999997E+02  0.45594000000E+02  0.51100000000E-03 0.  1.
    9900012    2    1    2    0    0  0.11515682597E+01 -0.39165497730E+02  0.10858354092E+02  0.50528853729E+02  0.29999981394E+02 0.  0.
         12    1    1    2    0    0 -0.11515682597E+01  0.39165497730E+02 -0.10858354092E+02  0.40659146271E+02  0.00000000000E+00 0. -1.
         11    1    3    3    0    0  0.23545599326E+01 -0.71148171015E+01 -0.24583832075E+01  0.78872189725E+01  0.51100000000E-03 0. -1.
        -11    1    3    3    0    0 -0.12771638024E+01 -0.46682805204E+01 -0.70245990834E+01  0.85304737816E+01  0.51100000000E-03 0.  1.
         12    1    3    3    0    0  0.74172129436E-01 -0.27382400108E+02  0.20341336383E+02  0.34111160975E+02  0.00000000000E+00 0. -1.
</event>
<event>
 7    1  0.5121289E-013  0.5052886E+02  0.7816164E-02  0.1300439E+00
        -11   -1    0    0    0    0  0.00000000000E+00  0.00000000000E+00  0.45593999997E+02  0.45594000000E+02  0.51100000000E-03 0. -1.
         11   -1    0    0    0    0 -0.00000000000E+00 -0.00000000000E+00 -0.45593999997E+02  0.45594000000E+02  0.51100000000E-03 0.  1.
    9900012    2    1    2    0    0  0.35030457671E+02 -0.13186987149E+02 -0.15878788803E+02  0.50528861685E+02  0.30000005576E+02 0.  0.
         12    1    1    2    0    0 -0.35030457671E+02  0.13186987149E+02  0.15878788803E+02  0.40659138315E+02  0.00000000000E+00 0. -1.
         11    1    3    3    0    0  0.23634621382E+02 -0.99066343465E+00 -0.51155691865E+01  0.24202185651E+02  0.51100000000E-03 0. -1.
        -11    1    3    3    0    0  0.15369297434E+02 -0.64210219707E+01 -0.54334216227E+01  0.17520470814E+02  0.51100000000E-03 0.  1.
        -12    1    3    3    0    0 -0.39734611455E+01 -0.57753017438E+01 -0.53297979937E+01  0.88062052191E+01  0.00000000000E+00 0.  1.
</event>
<event>
 7    1  0.5121289E-013  0.5052886E+02  0.7816164E-02  0.1300439E+00
        -11   -1    0    0    0    0  0.00000000000E+00  0.00000000000E+00  0.45593999997E+02  0.45594000000E+02  0.51100000000E-03 0. -1.
         11   -1    0    0    0    0 -0.00000000000E+00 -0.00000000000E+00 -0.45593999997E+02  0.45594000000E+02  0.51100000000E-03 0.  1.
    9900012    2    1    2    0    0  0.28192221012E+02  0.15469267170E+02  0.24881038263E+02  0.50528860592E+02  0.30000002255E+02 0.  0.
         12    1    1    2    0    0 -0.28192221012E+02 -0.15469267170E+02 -0.24881038263E+02  0.40659139408E+02  0.00000000000E+00 0. -1.
         11    1    3    3    0    0  0.57885992443E+01 -0.40498366726E+01  0.88920317194E+01  0.11356816748E+02  0.51100000000E-03 0. -1.
        -11    1    3    3    0    0  0.28959807705E+01  0.23064277409E+01 -0.46641794516E+01  0.59549041777E+01  0.51100000000E-03 0.  1.
         12    1    3    3    0    0  0.19507640997E+02  0.17212676102E+02  0.20653185995E+02  0.33217139666E+02  0.00000000000E+00 0. -1.
</event>
<event>
 7    1  0.5121289E-013  0.5052886E+02  0.7816164E-02  0.1300439E+00
        -11   -1    0    0    0    0  0.00000000000E+00  0.00000000000E+00  0.45593999997E+02  0.45594000000E+02  0.51100000000E-03 0. -1.
         11   -1    0    0    0    0 -0.00000000000E+00 -0.00000000000E+00 -0.45593999997E+02  0.45594000000E+02  0.51100000000E-03 0.  1.
    9900012    2    1    2    0    0  0.26160711531E+02 -0.15786784350E+02 -0.26824621487E+02  0.50528859504E+02  0.29999998950E+02 0.  0.
         12    1    1    2    0    0 -0.26160711531E+02  0.15786784350E+02  0.26824621487E+02  0.40659140496E+02  0.00000000000E+00 0. -1.
         11    1    3    3    0    0  0.56557324403E+01 -0.13839429050E+01  0.19434070463E+01  0.61383579734E+01  0.51100000000E-03 0. -1.
        -11    1    3    3    0    0  0.96227402349E+01 -0.18201243927E+02 -0.11365688789E+02  0.23517255197E+02  0.51100000000E-03 0.  1.
         12    1    3    3    0    0  0.10882238856E+02  0.37984024820E+01 -0.17402339744E+02  0.20873246334E+02  0.00000000000E+00 0. -1.
</event>
<event>
 7    1  0.5121289E-013  0.5052886E+02  0.7816164E-02  0.1300439E+00
        -11   -1    0    0    0    0  0.00000000000E+00  0.00000000000E+00  0.45593999997E+02  0.45594000000E+02  0.51100000000E-03 0. -1.
         11   -1    0    0    0    0 -0.00000000000E+00 -0.00000000000E+00 -0.45593999997E+02  0.45594000000E+02  0.51100000000E-03 0.  1.
    9900012    2    1    2    0    0 -0.27040187618E+02 -0.21298495376E+02 -0.21641805296E+02  0.50528863411E+02  0.30000010825E+02 0.  0.
         12    1    1    2    0    0  0.27040187618E+02  0.21298495376E+02  0.21641805296E+02  0.40659136589E+02  0.00000000000E+00 0. -1.
         11    1    3    3    0    0 -0.12912411370E+02 -0.39725578295E+01 -0.12156557246E+02  0.18173977755E+02  0.51100000000E-03 0. -1.
        -11    1    3    3    0    0 -0.31260078410E+01  0.28723887565E+01 -0.83017065950E+01  0.93242090732E+01  0.51100000000E-03 0.  1.
        -12    1    3    3    0    0 -0.11001768407E+02 -0.20198326303E+02 -0.11835414551E+01  0.23030676583E+02  0.00000000000E+00 0.  1.
</event>
<event>
 7    1  0.5121289E-013  0.5052886E+02  0.7816164E-02  0.1300439E+00
        -11   -1    0    0    0    0  0.00000000000E+00  0.00000000000E+00  0.45593999997E+02  0.45594000000E+02  0.51100000000E-03 0.  1.
         11   -1    0    0    0    0 -0.00000000000E+00 -0.00000000000E+00 -0.45593999997E+02  0.45594000000E+02  0.51100000000E-03 0. -1.
    9900012    2    1    2    0    0 -0.12365827173E+02 -0.20049246106E+02  0.33140298788E+02  0.50528863821E+02  0.30000012070E+02 0.  0.
         12    1    1    2    0    0  0.12365827173E+02  0.20049246106E+02 -0.33140298788E+02  0.40659136179E+02  0.00000000000E+00 0. -1.
         11    1    3    3    0    0 -0.18620760552E+02 -0.11344246650E+02  0.18376130333E+02  0.28515028001E+02  0.51100000000E-03 0. -1.
        -11    1    3    3    0    0 -0.34015339625E+01 -0.28536394000E+01  0.70768972182E+01  0.83544099505E+01  0.51100000000E-03 0.  1.
        -12    1    3    3    0    0  0.96564673421E+01 -0.58513600558E+01  0.76872712361E+01  0.13659425870E+02  0.00000000000E+00 0.  1.
</event>
<event>
 7    1  0.5121289E-013  0.5052886E+02  0.7816164E-02  0.1300439E+00
        -11   -1    0    0    0    0  0.00000000000E+00  0.00000000000E+00  0.45593999997E+02  0.45594000000E+02  0.51100000000E-03 0.  1.
         11   -1    0    0    0    0 -0.00000000000E+00 -0.00000000000E+00 -0.45593999997E+02  0.45594000000E+02  0.51100000000E-03 0. -1.
    9900012    2    1    2    0    0 -0.19132482595E+02  0.22919999295E+02  0.27600498543E+02  0.50528858620E+02  0.29999996261E+02 0.  0.
         12    1    1    2    0    0  0.19132482595E+02 -0.22919999295E+02 -0.27600498543E+02  0.40659141380E+02  0.00000000000E+00 0. -1.
         11    1    3    3    0    0 -0.60942828552E+01  0.68195123622E+01  0.22005702876E+01  0.94068348678E+01  0.51100000000E-03 0. -1.
        -11    1    3    3    0    0 -0.11546965440E+02  0.11050174550E+02  0.84064667053E+00  0.16004544840E+02  0.51100000000E-03 0.  1.
        -12    1    3    3    0    0 -0.14912342993E+01  0.50503123833E+01  0.24559281585E+02  0.25117478912E+02  0.00000000000E+00 0.  1.
</event>
<event>
 7    1  0.5121289E-013  0.5052887E+02  0.7816164E-02  0.1300439E+00
        -11   -1    0    0    0    0  0.00000000000E+00  0.00000000000E+00  0.45593999997E+02  0.45594000000E+02  0.51100000000E-03 0.  1.
         11   -1    0    0    0    0 -0.00000000000E+00 -0.00000000000E+00 -0.45593999997E+02  0.45594000000E+02  0.51100000000E-03 0. -1.
    9900012    2    1    2    0    0 -0.17681691985E+02 -0.25866527214E+02  0.25912261112E+02  0.50528871412E+02  0.30000035144E+02 0.  0.
         12    1    1    2    0    0  0.17681691985E+02  0.25866527214E+02 -0.25912261112E+02  0.40659128588E+02  0.00000000000E+00 0. -1.
         11    1    3    3    0    0 -0.12611983732E+02 -0.68536512207E+01  0.30091104950E+01  0.14665927006E+02  0.51100000000E-03 0. -1.
        -11    1    3    3    0    0 -0.45275513664E+00  0.14009404464E+01 -0.25288655099E+01  0.29262232274E+01  0.51100000000E-03 0.  1.
        -12    1    3    3    0    0 -0.46169531170E+01 -0.20413816440E+02  0.25432016127E+02  0.32936721179E+02  0.00000000000E+00 0.  1.
</event>
<event>
 7    1  0.5121289E-013  0.5052886E+02  0.7816164E-02  0.1300439E+00
        -11   -1    0    0    0    0  0.00000000000E+00  0.00000000000E+00  0.45593999997E+02  0.45594000000E+02  0.51100000000E-03 0.  1.
         11   -1    0    0    0    0 -0.00000000000E+00 -0.00000000000E+00 -0.45593999997E+02  0.45594000000E+02  0.51100000000E-03 0. -1.
    9900012    2    1    2    0    0  0.37305738163E+02 -0.26772832971E+01  0.15946150949E+02  0.50528859874E+02  0.30000000073E+02 0.  0.
         12    1    1    2    0    0 -0.37305738163E+02  0.26772832971E+01 -0.15946150949E+02  0.40659140126E+02  0.00000000000E+00 0. -1.
         11    1    3    3    0    0  0.57412370756E+00 -0.53014807367E+01  0.26584086393E+01  0.59583934738E+01  0.51100000000E-03 0. -1.
        -11    1    3    3    0    0  0.27913992218E+01 -0.57702940420E+01  0.61565447723E+01  0.88877019944E+01  0.51100000000E-03 0.  1.
        -12    1    3    3    0    0  0.33940215233E+02  0.83944914816E+01  0.71311975374E+01  0.35682764406E+02  0.00000000000E+00 0.  1.
</event>
<event>
 7    1  0.5121289E-013  0.5052889E+02  0.7816164E-02  0.1300439E+00
        -11   -1    0    0    0    0  0.00000000000E+00  0.00000000000E+00  0.45593999997E+02  0.45594000000E+02  0.51100000000E-03 0.  1.
         11   -1    0    0    0    0 -0.00000000000E+00 -0.00000000000E+00 -0.45593999997E+02  0.45594000000E+02  0.51100000000E-03 0. -1.
    9900012    2    1    2    0    0 -0.32560586233E+02  0.40639833243E+01  0.24009490400E+02  0.50528888283E+02  0.30000086425E+02 0.  0.
         12    1    1    2    0    0  0.32560586233E+02 -0.40639833243E+01 -0.24009490400E+02  0.40659111717E+02  0.00000000000E+00 0. -1.
         11    1    3    3    0    0 -0.63009486391E+01  0.97338790773E+01  0.89649664935E+01  0.14656772501E+02  0.51100000000E-03 0. -1.
        -11    1    3    3    0    0 -0.25466489108E+02 -0.75004710552E+01  0.18165442098E+02  0.32168034140E+02  0.51100000000E-03 0.  1.
        -12    1    3    3    0    0 -0.79314848618E+00  0.18305753022E+01 -0.31209181915E+01  0.37040816427E+01  0.00000000000E+00 0.  1.
</event>
<event>
 7    1  0.5121289E-013  0.5052885E+02  0.7816164E-02  0.1300439E+00
        -11   -1    0    0    0    0  0.00000000000E+00  0.00000000000E+00  0.45593999997E+02  0.45594000000E+02  0.51100000000E-03 0. -1.
         11   -1    0    0    0    0 -0.00000000000E+00 -0.00000000000E+00 -0.45593999997E+02  0.45594000000E+02  0.51100000000E-03 0.  1.
    9900012    2    1    2    0    0 -0.33092842263E+02 -0.23442920598E+02 -0.29085079174E+01  0.50528853999E+02  0.29999982216E+02 0.  0.
         12    1    1    2    0    0  0.33092842263E+02  0.23442920598E+02  0.29085079174E+01  0.40659146001E+02  0.00000000000E+00 0. -1.
         11    1    3    3    0    0 -0.10503497419E+02 -0.16433807900E+02 -0.32509566215E+01  0.19772764585E+02  0.51100000000E-03 0. -1.
        -11    1    3    3    0    0 -0.44218585414E+01  0.99654173192E+00 -0.80210433174E+01  0.92132005592E+01  0.51100000000E-03 0.  1.
         12    1    3    3    0    0 -0.18167486303E+02 -0.80056544299E+01  0.83634920215E+01  0.21542888855E+02  0.00000000000E+00 0. -1.
</event>
<event>
 7    1  0.5121289E-013  0.5052887E+02  0.7816164E-02  0.1300439E+00
        -11   -1    0    0    0    0  0.00000000000E+00  0.00000000000E+00  0.45593999997E+02  0.45594000000E+02  0.51100000000E-03 0.  1.
         11   -1    0    0    0    0 -0.00000000000E+00 -0.00000000000E+00 -0.45593999997E+02  0.45594000000E+02  0.51100000000E-03 0. -1.
    9900012    2    1    2    0    0 -0.30749859031E+02  0.16699667669E+02  0.20705848871E+02  0.50528869314E+02  0.30000028767E+02 0.  0.
         12    1    1    2    0    0  0.30749859031E+02 -0.16699667669E+02 -0.20705848871E+02  0.40659130686E+02  0.00000000000E+00 0. -1.
         11    1    3    3    0    0 -0.71850562271E+01  0.12215787036E+02  0.34552761386E+01  0.14587303361E+02  0.51100000000E-03 0. -1.
        -11    1    3    3    0    0  0.31930242143E+01  0.12124520667E+01  0.56331961054E+01  0.65877418187E+01  0.51100000000E-03 0.  1.
         12    1    3    3    0    0 -0.26757827018E+02  0.32714285665E+01  0.11617376626E+02  0.29353824134E+02  0.00000000000E+00 0. -1.
</event>
<event>
 7    1  0.5121289E-013  0.5052887E+02  0.7816164E-02  0.1300439E+00
        -11   -1    0    0    0    0  0.00000000000E+00  0.00000000000E+00  0.45593999997E+02  0.45594000000E+02  0.51100000000E-03 0. -1.
         11   -1    0    0    0    0 -0.00000000000E+00 -0.00000000000E+00 -0.45593999997E+02  0.45594000000E+02  0.51100000000E-03 0.  1.
    9900012    2    1    2    0    0  0.19268416644E+02  0.34329532950E+02 -0.10167400170E+02  0.50528871397E+02  0.30000035098E+02 0.  0.
         12    1    1    2    0    0 -0.19268416644E+02 -0.34329532950E+02  0.10167400170E+02  0.40659128603E+02  0.00000000000E+00 0. -1.
         11    1    3    3    0    0  0.16038212326E+02  0.15036551743E+02 -0.11149956459E+02  0.24650429453E+02  0.51100000000E-03 0. -1.
        -11    1    3    3    0    0  0.96485658550E+01  0.72255761879E+01 -0.86896230853E+00  0.12085481789E+02  0.51100000000E-03 0.  1.
         12    1    3    3    0    0 -0.64183615370E+01  0.12067405020E+02  0.18515185978E+01  0.13792960155E+02  0.00000000000E+00 0. -1.
</event>
<event>
 7    1  0.5121289E-013  0.5052887E+02  0.7816164E-02  0.1300439E+00
        -11   -1    0    0    0    0  0.00000000000E+00  0.00000000000E+00  0.45593999997E+02  0.45594000000E+02  0.51100000000E-03 0.  1.
         11   -1    0    0    0    0 -0.00000000000E+00 -0.00000000000E+00 -0.45593999997E+02  0.45594000000E+02  0.51100000000E-03 0. -1.
    9900012    2    1    2    0    0 -0.18925564725E+02  0.23271642415E+01  0.35910608742E+02  0.50528874163E+02  0.30000043506E+02 0.  0.
         12    1    1    2    0    0  0.18925564725E+02 -0.23271642415E+01 -0.35910608742E+02  0.40659125837E+02  0.00000000000E+00 0. -1.
         11    1    3    3    0    0  0.11029454771E+01  0.23690350359E+01 -0.24834539096E+01  0.36050463671E+01  0.51100000000E-03 0. -1.
        -11    1    3    3    0    0  0.69988959313E+00  0.19478457181E+01 -0.10496982817E+01  0.23207359022E+01  0.51100000000E-03 0.  1.
        -12    1    3    3    0    0 -0.20728399796E+02 -0.19897165125E+01  0.39443760934E+02  0.44603091894E+02  0.00000000000E+00 0.  1.
</event>
<event>
 7    1  0.5121289E-013  0.5052886E+02  0.7816164E-02  0.1300439E+00
        -11   -1    0    0    0    0  0.00000000000E+00  0.00000000000E+00  0.45593999997E+02  0.45594000000E+02  0.51100000000E-03 0. -1.
         11   -1    0    0    0    0 -0.00000000000E+00 -0.00000000000E+00 -0.45593999997E+02  0.45594000000E+02  0.51100000000E-03 0.  1.
    9900012    2    1    2    0    0  0.85284233848E+01  0.32476334712E+02 -0.22928565611E+02  0.50528862740E+02  0.30000008784E+02 0.  0.
         12    1    1    2    0    0 -0.85284233848E+01 -0.32476334712E+02  0.22928565611E+02  0.40659137260E+02  0.00000000000E+00 0. -1.
         11    1    3    3    0    0  0.11866005571E+02  0.26913284971E+02 -0.10226306192E+02  0.31140076023E+02  0.51100000000E-03 0. -1.
        -11    1    3    3    0    0  0.25886810511E+01  0.71148723627E+01 -0.35172818788E+01  0.83482902679E+01  0.51100000000E-03 0.  1.
         12    1    3    3    0    0 -0.59262632372E+01 -0.15518226218E+01 -0.91849775408E+01  0.11040496449E+02  0.00000000000E+00 0. -1.
</event>
<event>
 7    1  0.5121289E-013  0.5052887E+02  0.7816164E-02  0.1300439E+00
        -11   -1    0    0    0    0  0.00000000000E+00  0.00000000000E+00  0.45593999997E+02  0.45594000000E+02  0.51100000000E-03 0. -1.
         11   -1    0    0    0    0 -0.00000000000E+00 -0.00000000000E+00 -0.45593999997E+02  0.45594000000E+02  0.51100000000E-03 0.  1.
    9900012    2    1    2    0    0  0.55040417628E+01 -0.86254890050E+00 -0.40275633093E+02  0.50528867110E+02  0.30000022067E+02 0.  0.
         12    1    1    2    0    0 -0.55040417628E+01  0.86254890050E+00  0.40275633093E+02  0.40659132890E+02  0.00000000000E+00 0. -1.
         11    1    3    3    0    0  0.53287436134E+00 -0.10544775276E+02 -0.11350484314E+02  0.15501926820E+02  0.51100000000E-03 0. -1.
        -11    1    3    3    0    0 -0.19791950569E+01 -0.40529880199E+00  0.13076788700E+01  0.24065544831E+01  0.51100000000E-03 0.  1.
        -12    1    3    3    0    0  0.69503624584E+01  0.10087525178E+02 -0.30232827649E+02  0.32620385807E+02  0.00000000000E+00 0.  1.
</event>
<event>
 7    1  0.5121289E-013  0.5052885E+02  0.7816164E-02  0.1300439E+00
        -11   -1    0    0    0    0  0.00000000000E+00  0.00000000000E+00  0.45593999997E+02  0.45594000000E+02  0.51100000000E-03 0.  1.
         11   -1    0    0    0    0 -0.00000000000E+00 -0.00000000000E+00 -0.45593999997E+02  0.45594000000E+02  0.51100000000E-03 0. -1.
    9900012    2    1    2    0    0 -0.23288816657E+02  0.33328624011E+02 -0.11019120860E-01  0.50528852430E+02  0.29999977445E+02 0.  0.
         12    1    1    2    0    0  0.23288816657E+02 -0.33328624011E+02  0.11019120860E-01  0.40659147570E+02  0.00000000000E+00 0. -1.
         11    1    3    3    0    0 -0.82823474290E+01  0.15657612177E+02 -0.84267746862E+01  0.19615520128E+02  0.51100000000E-03 0. -1.
        -11    1    3    3    0    0 -0.54338119217E+01  0.16134861766E+02 -0.14428044469E+01  0.17086303320E+02  0.51100000000E-03 0.  1.
        -12    1    3    3    0    0 -0.95726573064E+01  0.15361500670E+01  0.98585600122E+01  0.13827028981E+02  0.00000000000E+00 0.  1.
</event>
<event>
 7    1  0.5121289E-013  0.5052886E+02  0.7816164E-02  0.1300439E+00
        -11   -1    0    0    0    0  0.00000000000E+00  0.00000000000E+00  0.45593999997E+02  0.45594000000E+02  0.51100000000E-03 0.  1.
         11   -1    0    0    0    0 -0.00000000000E+00 -0.00000000000E+00 -0.45593999997E+02  0.45594000000E+02  0.51100000000E-03 0. -1.
    9900012    2    1    2    0    0  0.30961764010E+02 -0.18090357955E+01  0.26291870755E+02  0.50528857007E+02  0.29999991359E+02 0.  0.
         12    1    1    2    0    0 -0.30961764010E+02  0.18090357955E+01 -0.26291870755E+02  0.40659142993E+02  0.00000000000E+00 0. -1.
         11    1    3    3    0    0  0.14142819035E+01 -0.26149518133E+01  0.67184605671E+01  0.73468278148E+01  0.51100000000E-03 0. -1.
        -11    1    3    3    0    0  0.18924628722E+02  0.44679645202E+01  0.24188115079E+02  0.31034967224E+02  0.51100000000E-03 0.  1.
        -12    1    3    3    0    0  0.10622853384E+02 -0.36620485023E+01 -0.46147048907E+01  0.12147061969E+02  0.00000000000E+00 0.  1.
</event>
<event>
 7    1  0.5121289E-013  0.5052886E+02  0.7816164E-02  0.1300439E+00
        -11   -1    0    0    0    0  0.00000000000E+00  0.00000000000E+00  0.45593999997E+02  0.45594000000E+02  0.51100000000E-03 0.  1.
         11   -1    0    0    0    0 -0.00000000000E+00 -0.00000000000E+00 -0.45593999997E+02  0.45594000000E+02  0.51100000000E-03 0. -1.
    9900012    2    1    2    0    0 -0.31150015627E+02 -0.25905098948E+02 -0.34304775196E+01  0.50528858333E+02  0.29999995390E+02 0.  0.
         12    1    1    2    0    0  0.31150015627E+02  0.25905098948E+02  0.34304775196E+01  0.40659141667E+02  0.00000000000E+00 0. -1.
         11    1    3    3    0    0 -0.10089904173E+02  0.13342293555E+01  0.99704509469E+00  0.10226457518E+02  0.51100000000E-03 0. -1.
        -11    1    3    3    0    0 -0.52699573284E+01  0.67075408335E+00 -0.62264904594E+01  0.81848362834E+01  0.51100000000E-03 0.  1.
        -12    1    3    3    0    0 -0.15790154126E+02 -0.27910082387E+02  0.17989678451E+01  0.32117564532E+02  0.00000000000E+00 0.  1.
</event>
<event>
 7    1  0.5121289E-013  0.5052889E+02  0.7816164E-02  0.1300439E+00
        -11   -1    0    0    0    0  0.00000000000E+00  0.00000000000E+00  0.45593999997E+02  0.45594000000E+02  0.51100000000E-03 0.  1.
         11   -1    0    0    0    0 -0.00000000000E+00 -0.00000000000E+00 -0.45593999997E+02  0.45594000000E+02  0.51100000000E-03 0. -1.
    9900012    2    1    2    0    0  0.38914197435E+02  0.11254684125E+02  0.34900621084E+01  0.50528890193E+02  0.30000092231E+02 0.  0.
         12    1    1    2    0    0 -0.38914197435E+02 -0.11254684125E+02 -0.34900621084E+01  0.40659109807E+02  0.00000000000E+00 0. -1.
         11    1    3    3    0    0  0.25877090571E+02  0.70335891923E+00 -0.49650903717E+00  0.25891408839E+02  0.51100000000E-03 0. -1.
        -11    1    3    3    0    0  0.17042811154E+02  0.64530586417E+01  0.11943481473E+01  0.18262689988E+02  0.51100000000E-03 0.  1.
         12    1    3    3    0    0 -0.40057042898E+01  0.40982665638E+01  0.27922229983E+01  0.63747913658E+01  0.00000000000E+00 0. -1.
</event>
<event>
 7    1  0.5121289E-013  0.5052886E+02  0.7816164E-02  0.1300439E+00
        -11   -1    0    0    0    0  0.00000000000E+00  0.00000000000E+00  0.45593999997E+02  0.45594000000E+02  0.51100000000E-03 0.  1.
         11   -1    0    0    0    0 -0.00000000000E+00 -0.00000000000E+00 -0.45593999997E+02  0.45594000000E+02  0.51100000000E-03 0. -1.
    9900012    2    1    2    0    0  0.61721308185E+01 -0.25088372337E+02  0.31394966534E+02  0.50528861433E+02  0.30000004812E+02 0.  0.
         12    1    1    2    0    0 -0.61721308185E+01  0.25088372337E+02 -0.31394966534E+02  0.40659138567E+02  0.00000000000E+00 0. -1.
         11    1    3    3    0    0  0.94190314684E+01  0.10130504242E+00  0.10851890052E+02  0.14369827225E+02  0.51100000000E-03 0. -1.
        -11    1    3    3    0    0 -0.60724017547E+01 -0.23591394949E+01  0.65218499461E+01  0.92181413098E+01  0.51100000000E-03 0.  1.
         12    1    3    3    0    0  0.28255011048E+01 -0.22830537884E+02  0.14021226536E+02  0.26940892898E+02  0.00000000000E+00 0. -1.
</event>
<event>
 7    1  0.5121289E-013  0.5052885E+02  0.7816164E-02  0.1300439E+00
        -11   -1    0    0    0    0  0.00000000000E+00  0.00000000000E+00  0.45593999997E+02  0.45594000000E+02  0.51100000000E-03 0.  1.
         11   -1    0    0    0    0 -0.00000000000E+00 -0.00000000000E+00 -0.45593999997E+02  0.45594000000E+02  0.51100000000E-03 0. -1.
    9900012    2    1    2    0    0 -0.24178232704E+02  0.29087169113E+02  0.14916961829E+02  0.50528854732E+02  0.29999984444E+02 0.  0.
         12    1    1    2    0    0  0.24178232704E+02 -0.29087169113E+02 -0.14916961829E+02  0.40659145268E+02  0.00000000000E+00 0. -1.
         11    1    3    3    0    0  0.32609987688E+01  0.31833158876E+01 -0.81313805787E+00  0.46291259188E+01  0.51100000000E-03 0.  1.
        -11    1    3    3    0    0 -0.93694017676E+00 -0.31207775265E+01 -0.64400835388E+00  0.33214238341E+01  0.51100000000E-03 0. -1.
        -12    1    3    3    0    0 -0.26502291296E+02  0.29024630752E+02  0.16374108241E+02  0.42578304979E+02  0.00000000000E+00 0.  1.
</event>
<event>
 7    1  0.5121289E-013  0.5052888E+02  0.7816164E-02  0.1300439E+00
        -11   -1    0    0    0    0  0.00000000000E+00  0.00000000000E+00  0.45593999997E+02  0.45594000000E+02  0.51100000000E-03 0. -1.
         11   -1    0    0    0    0 -0.00000000000E+00 -0.00000000000E+00 -0.45593999997E+02  0.45594000000E+02  0.51100000000E-03 0.  1.
    9900012    2    1    2    0    0  0.23777151869E+02 -0.32388455875E+02 -0.62288690830E+01  0.50528882511E+02  0.30000068879E+02 0.  0.
         12    1    1    2    0    0 -0.23777151869E+02  0.32388455875E+02  0.62288690830E+01  0.40659117489E+02  0.00000000000E+00 0. -1.
         11    1    3    3    0    0  0.14612110102E+02 -0.93670075370E+01 -0.33811324552E+01  0.17682947966E+02  0.51100000000E-03 0. -1.
        -11    1    3    3    0    0  0.11228522840E+02 -0.18894869269E+01  0.24727132960E+00  0.11389075001E+02  0.51100000000E-03 0.  1.
         12    1    3    3    0    0 -0.20634810727E+01 -0.21131961411E+02 -0.30950079574E+01  0.21456859543E+02  0.00000000000E+00 0. -1.
</event>
<event>
 7    1  0.5121289E-013  0.5052886E+02  0.7816164E-02  0.1300439E+00
        -11   -1    0    0    0    0  0.00000000000E+00  0.00000000000E+00  0.45593999997E+02  0.45594000000E+02  0.51100000000E-03 0.  1.
         11   -1    0    0    0    0 -0.00000000000E+00 -0.00000000000E+00 -0.45593999997E+02  0.45594000000E+02  0.51100000000E-03 0. -1.
    9900012    2    1    2    0    0 -0.27098474925E+02  0.21044483254E+01  0.30239205305E+02  0.50528861009E+02  0.30000003522E+02 0.  0.
         12    1    1    2    0    0  0.27098474925E+02 -0.21044483254E+01 -0.30239205305E+02  0.40659138991E+02  0.00000000000E+00 0. -1.
         11    1    3    3    0    0  0.47563167679E+00 -0.41261444580E+01  0.25431336641E+01  0.48701973959E+01  0.51100000000E-03 0. -1.
        -11    1    3    3    0    0 -0.65849781567E+01 -0.52960258306E+01 -0.74047772931E+00  0.84828140644E+01  0.51100000000E-03 0.  1.
        -12    1    3    3    0    0 -0.20989128445E+02  0.11526618614E+02  0.28436549370E+02  0.37175849548E+02  0.00000000000E+00 0.  1.
</event>
<event>
 7    1  0.5121289E-013  0.5052886E+02  0.7816164E-02  0.1300439E+00
        -11   -1    0    0    0    0  0.00000000000E+00  0.00000000000E+00  0.45593999997E+02  0.45594000000E+02  0.51100000000E-03 0.  1.
         11   -1    0    0    0    0 -0.00000000000E+00 -0.00000000000E+00 -0.45593999997E+02  0.45594000000E+02  0.51100000000E-03 0. -1.
    9900012    2    1    2    0    0  0.26588711808E+02 -0.20273186454E+02  0.23134476857E+02  0.50528859526E+02  0.29999999016E+02 0.  0.
         12    1    1    2    0    0 -0.26588711808E+02  0.20273186454E+02 -0.23134476857E+02  0.40659140474E+02  0.00000000000E+00 0. -1.
         11    1    3    3    0    0  0.23352609335E+02 -0.38004085885E+01  0.14913848884E+02  0.27968023831E+02  0.51100000000E-03 0.  1.
        -11    1    3    3    0    0 -0.45601395986E+00 -0.27050165030E+00  0.57336837181E+01  0.57581463262E+01  0.51100000000E-03 0. -1.
        -12    1    3    3    0    0  0.36921164330E+01 -0.16202276215E+02  0.24869442544E+01  0.16802689369E+02  0.00000000000E+00 0.  1.
</event>
<event>
 7    1  0.5121289E-013  0.5052887E+02  0.7816164E-02  0.1300439E+00
        -11   -1    0    0    0    0  0.00000000000E+00  0.00000000000E+00  0.45593999997E+02  0.45594000000E+02  0.51100000000E-03 0.  1.
         11   -1    0    0    0    0 -0.00000000000E+00 -0.00000000000E+00 -0.45593999997E+02  0.45594000000E+02  0.51100000000E-03 0. -1.
    9900012    2    1    2    0    0 -0.16528546568E+02 -0.21375968116E+02  0.30381575683E+02  0.50528868116E+02  0.30000025126E+02 0.  0.
         12    1    1    2    0    0  0.16528546568E+02  0.21375968116E+02 -0.30381575683E+02  0.40659131884E+02  0.00000000000E+00 0. -1.
         11    1    3    3    0    0  0.69922439736E+00 -0.63141809842E+01  0.72916540712E+01  0.96708849447E+01  0.51100000000E-03 0. -1.
        -11    1    3    3    0    0 -0.12171104756E+02 -0.20666674918E+02  0.23113865286E+02  0.33309128056E+02  0.51100000000E-03 0.  1.
         12    1    3    3    0    0 -0.50566662101E+01  0.56048877859E+01 -0.23943674342E-01  0.75488551154E+01  0.00000000000E+00 0. -1.
</event>
<event>
 7    1  0.5121289E-013  0.5052885E+02  0.7816164E-02  0.1300439E+00
        -11   -1    0    0    0    0  0.00000000000E+00  0.00000000000E+00  0.45593999997E+02  0.45594000000E+02  0.51100000000E-03 0.  1.
         11   -1    0    0    0    0 -0.00000000000E+00 -0.00000000000E+00 -0.45593999997E+02  0.45594000000E+02  0.51100000000E-03 0. -1.
    9900012    2    1    2    0    0 -0.14815015159E+02  0.15653043043E+02  0.34477006127E+02  0.50528851188E+02  0.29999973671E+02 0.  0.
         12    1    1    2    0    0  0.14815015159E+02 -0.15653043043E+02 -0.34477006127E+02  0.40659148812E+02  0.00000000000E+00 0. -1.
         11    1    3    3    0    0 -0.20761187265E+00  0.82838883501E+01  0.77931187373E+01  0.11375350931E+02  0.51100000000E-03 0. -1.
        -11    1    3    3    0    0 -0.71138037706E+00  0.13460061805E+02  0.12362151041E+02  0.18289398691E+02  0.51100000000E-03 0.  1.
        -12    1    3    3    0    0 -0.13896022909E+02 -0.60909071124E+01  0.14321736348E+02  0.20864101566E+02  0.00000000000E+00 0.  1.
</event>
<event>
 7    1  0.5121289E-013  0.5052885E+02  0.7816164E-02  0.1300439E+00
        -11   -1    0    0    0    0  0.00000000000E+00  0.00000000000E+00  0.45593999997E+02  0.45594000000E+02  0.51100000000E-03 0.  1.
         11   -1    0    0    0    0 -0.00000000000E+00 -0.00000000000E+00 -0.45593999997E+02  0.45594000000E+02  0.51100000000E-03 0. -1.
    9900012    2    1    2    0    0 -0.31788429866E+02  0.87267880744E+01  0.23801366086E+02  0.50528854276E+02  0.29999983057E+02 0.  0.
         12    1    1    2    0    0  0.31788429866E+02 -0.87267880744E+01 -0.23801366086E+02  0.40659145724E+02  0.00000000000E+00 0. -1.
         11    1    3    3    0    0 -0.52097581015E+01 -0.26814529846E+01 -0.17824530246E+01  0.61244517005E+01  0.51100000000E-03 0. -1.
        -11    1    3    3    0    0 -0.27387705124E+01 -0.57810266741E+01  0.76586484928E+01  0.99787789996E+01  0.51100000000E-03 0.  1.
        -12    1    3    3    0    0 -0.23839901252E+02  0.17189267733E+02  0.17925170618E+02  0.34425623576E+02  0.00000000000E+00 0.  1.
</event>
<event>
 7    1  0.5121289E-013  0.5052886E+02  0.7816164E-02  0.1300439E+00
        -11   -1    0    0    0    0  0.00000000000E+00  0.00000000000E+00  0.45593999997E+02  0.45594000000E+02  0.51100000000E-03 0.  1.
         11   -1    0    0    0    0 -0.00000000000E+00 -0.00000000000E+00 -0.45593999997E+02  0.45594000000E+02  0.51100000000E-03 0. -1.
    9900012    2    1    2    0    0 -0.43811828039E+01  0.75578522020E+00  0.40415340384E+02  0.50528859424E+02  0.29999998705E+02 0.  0.
         12    1    1    2    0    0  0.43811828039E+01 -0.75578522020E+00 -0.40415340384E+02  0.40659140576E+02  0.00000000000E+00 0. -1.
         11    1    3    3    0    0  0.79712034305E+01 -0.10119583618E+01  0.66824312577E+01  0.10450790957E+02  0.51100000000E-03 0. -1.
        -11    1    3    3    0    0 -0.14678394421E+01  0.38441926370E+01  0.26563073547E+02  0.26879904133E+02  0.51100000000E-03 0.  1.
        -12    1    3    3    0    0 -0.10884546792E+02 -0.20764490551E+01  0.71698355789E+01  0.13198164334E+02  0.00000000000E+00 0.  1.
</event>
<event>
 7    1  0.5121289E-013  0.5052888E+02  0.7816164E-02  0.1300439E+00
        -11   -1    0    0    0    0  0.00000000000E+00  0.00000000000E+00  0.45593999997E+02  0.45594000000E+02  0.51100000000E-03 0.  1.
         11   -1    0    0    0    0 -0.00000000000E+00 -0.00000000000E+00 -0.45593999997E+02  0.45594000000E+02  0.51100000000E-03 0. -1.
    9900012    2    1    2    0    0 -0.95468499101E+01 -0.13916496984E+02  0.36991256865E+02  0.50528876596E+02  0.30000050901E+02 0.  0.
         12    1    1    2    0    0  0.95468499101E+01  0.13916496984E+02 -0.36991256865E+02  0.40659123404E+02  0.00000000000E+00 0. -1.
         11    1    3    3    0    0 -0.68900751880E+01  0.12032485951E+01  0.19936416797E+02  0.21127746171E+02  0.51100000000E-03 0. -1.
        -11    1    3    3    0    0 -0.70775510552E+01  0.10721002394E+01  0.54097037134E+01  0.89725148309E+01  0.51100000000E-03 0.  1.
        -12    1    3    3    0    0  0.44207763331E+01 -0.16191845818E+02  0.11645136354E+02  0.20428615594E+02  0.00000000000E+00 0.  1.
</event>
<event>
 7    1  0.5121289E-013  0.5052885E+02  0.7816164E-02  0.1300439E+00
        -11   -1    0    0    0    0  0.00000000000E+00  0.00000000000E+00  0.45593999997E+02  0.45594000000E+02  0.51100000000E-03 0.  1.
         11   -1    0    0    0    0 -0.00000000000E+00 -0.00000000000E+00 -0.45593999997E+02  0.45594000000E+02  0.51100000000E-03 0. -1.
    9900012    2    1    2    0    0  0.80009006211E+01  0.13474475142E+01  0.39841386184E+02  0.50528854921E+02  0.29999985017E+02 0.  0.
         12    1    1    2    0    0 -0.80009006211E+01 -0.13474475142E+01 -0.39841386184E+02  0.40659145079E+02  0.00000000000E+00 0. -1.
         11    1    3    3    0    0 -0.27555330260E+01  0.62141789247E+01  0.32376006473E+02  0.33081940351E+02  0.51100000000E-03 0.  1.
        -11    1    3    3    0    0  0.24150844572E+01  0.30113024910E+01  0.37630756630E+01  0.53908546942E+01  0.51100000000E-03 0. -1.
         12    1    3    3    0    0  0.83413491899E+01 -0.78780339014E+01  0.37023040473E+01  0.12056059875E+02  0.00000000000E+00 0. -1.
</event>
<event>
 7    1  0.5121289E-013  0.5052886E+02  0.7816164E-02  0.1300439E+00
        -11   -1    0    0    0    0  0.00000000000E+00  0.00000000000E+00  0.45593999997E+02  0.45594000000E+02  0.51100000000E-03 0.  1.
         11   -1    0    0    0    0 -0.00000000000E+00 -0.00000000000E+00 -0.45593999997E+02  0.45594000000E+02  0.51100000000E-03 0. -1.
    9900012    2    1    2    0    0  0.94802275409E+01  0.30328141291E+02  0.25367201529E+02  0.50528858570E+02  0.29999996110E+02 0.  0.
         12    1    1    2    0    0 -0.94802275409E+01 -0.30328141291E+02 -0.25367201529E+02  0.40659141430E+02  0.00000000000E+00 0. -1.
         11    1    3    3    0    0  0.58654735756E+01  0.20720409242E+02  0.10608110692E+02  0.24005648338E+02  0.51100000000E-03 0. -1.
        -11    1    3    3    0    0  0.10888028213E+02  0.95444797981E+01  0.77530857364E+01  0.16424268376E+02  0.51100000000E-03 0.  1.
        -12    1    3    3    0    0 -0.72732742481E+01  0.63252250810E-01  0.70060051009E+01  0.10098941856E+02  0.00000000000E+00 0.  1.
</event>
<event>
 7    1  0.5121289E-013  0.5052886E+02  0.7816164E-02  0.1300439E+00
        -11   -1    0    0    0    0  0.00000000000E+00  0.00000000000E+00  0.45593999997E+02  0.45594000000E+02  0.51100000000E-03 0.  1.
         11   -1    0    0    0    0 -0.00000000000E+00 -0.00000000000E+00 -0.45593999997E+02  0.45594000000E+02  0.51100000000E-03 0. -1.
    9900012    2    1    2    0    0 -0.38490634134E+02 -0.90937166345E+01 -0.94308686425E+01  0.50528857342E+02  0.29999992378E+02 0.  0.
         12    1    1    2    0    0  0.38490634134E+02  0.90937166345E+01  0.94308686425E+01  0.40659142658E+02  0.00000000000E+00 0. -1.
         11    1    3    3    0    0  0.28358053648E+01 -0.64784784418E+01 -0.28502775518E+01  0.76247332656E+01  0.51100000000E-03 0. -1.
        -11    1    3    3    0    0 -0.84487990378E+01 -0.26165921487E+01  0.16841220282E+01  0.90036118820E+01  0.51100000000E-03 0.  1.
        -12    1    3    3    0    0 -0.32877640461E+02  0.13539559707E-02 -0.82647131189E+01  0.33900512195E+02  0.00000000000E+00 0.  1.
</event>
<event>
 7    1  0.5121289E-013  0.5052886E+02  0.7816164E-02  0.1300439E+00
        -11   -1    0    0    0    0  0.00000000000E+00  0.00000000000E+00  0.45593999997E+02  0.45594000000E+02  0.51100000000E-03 0. -1.
         11   -1    0    0    0    0 -0.00000000000E+00 -0.00000000000E+00 -0.45593999997E+02  0.45594000000E+02  0.51100000000E-03 0.  1.
    9900012    2    1    2    0    0  0.12884761394E+02 -0.37528315807E+02 -0.88754821947E+01  0.50528858990E+02  0.29999997386E+02 0.  0.
         12    1    1    2    0    0 -0.12884761394E+02  0.37528315807E+02  0.88754821947E+01  0.40659141010E+02  0.00000000000E+00 0. -1.
         11    1    3    3    0    0  0.34112672819E+01 -0.12998839593E+01  0.72339254950E+01  0.81028464816E+01  0.51100000000E-03 0. -1.
        -11    1    3    3    0    0 -0.19636794760E+01 -0.42507478456E+01  0.33178413141E+00  0.46941426590E+01  0.51100000000E-03 0.  1.
         12    1    3    3    0    0  0.11437173588E+02 -0.31977684002E+02 -0.16441191821E+02  0.37731869849E+02  0.00000000000E+00 0. -1.
</event>
<event>
 7    1  0.5121289E-013  0.5052887E+02  0.7816164E-02  0.1300439E+00
        -11   -1    0    0    0    0  0.00000000000E+00  0.00000000000E+00  0.45593999997E+02  0.45594000000E+02  0.51100000000E-03 0. -1.
         11   -1    0    0    0    0 -0.00000000000E+00 -0.00000000000E+00 -0.45593999997E+02  0.45594000000E+02  0.51100000000E-03 0.  1.
    9900012    2    1    2    0    0  0.22731984533E+00  0.12313398992E+02 -0.38749110814E+02  0.50528867472E+02  0.30000023167E+02 0.  0.
         12    1    1    2    0    0 -0.22731984533E+00 -0.12313398992E+02  0.38749110814E+02  0.40659132528E+02  0.00000000000E+00 0. -1.
         11    1    3    3    0    0 -0.10986825623E+01  0.64077096677E+01 -0.29796863634E+02  0.30497851224E+02  0.51100000000E-03 0. -1.
        -11    1    3    3    0    0 -0.26383632482E+01 -0.83484630936E+00 -0.11483036360E+02  0.11811776043E+02  0.51100000000E-03 0.  1.
         12    1    3    3    0    0  0.39643656558E+01  0.67405356334E+01  0.25307891798E+01  0.82192402052E+01  0.00000000000E+00 0. -1.
</event>
<event>
 7    1  0.5121289E-013  0.5052885E+02  0.7816164E-02  0.1300439E+00
        -11   -1    0    0    0    0  0.00000000000E+00  0.00000000000E+00  0.45593999997E+02  0.45594000000E+02  0.51100000000E-03 0. -1.
         11   -1    0    0    0    0 -0.00000000000E+00 -0.00000000000E+00 -0.45593999997E+02  0.45594000000E+02  0.51100000000E-03 0.  1.
    9900012    2    1    2    0    0 -0.12635031655E+01 -0.40598768341E+02  0.18192738351E+01  0.50528853570E+02  0.29999980913E+02 0.  0.
         12    1    1    2    0    0  0.12635031655E+01  0.40598768341E+02 -0.18192738351E+01  0.40659146430E+02  0.00000000000E+00 0. -1.
         11    1    3    3    0    0 -0.20743874138E+01  0.21622482097E+01 -0.18334187279E+01  0.35128086990E+01  0.51100000000E-03 0. -1.
        -11    1    3    3    0    0 -0.29462195721E+01 -0.53913789910E+00 -0.28464826341E+01  0.41319902092E+01  0.51100000000E-03 0.  1.
        -12    1    3    3    0    0  0.37571038204E+01 -0.42221878652E+02  0.64991751971E+01  0.42884054662E+02  0.00000000000E+00 0.  1.
</event>
<event>
 7    1  0.5121289E-013  0.5052886E+02  0.7816164E-02  0.1300439E+00
        -11   -1    0    0    0    0  0.00000000000E+00  0.00000000000E+00  0.45593999997E+02  0.45594000000E+02  0.51100000000E-03 0. -1.
         11   -1    0    0    0    0 -0.00000000000E+00 -0.00000000000E+00 -0.45593999997E+02  0.45594000000E+02  0.51100000000E-03 0.  1.
    9900012    2    1    2    0    0 -0.30943347002E+02 -0.18722246733E+02 -0.18578279759E+02  0.50528859266E+02  0.29999998224E+02 0.  0.
         12    1    1    2    0    0  0.30943347002E+02  0.18722246733E+02  0.18578279759E+02  0.40659140734E+02  0.00000000000E+00 0. -1.
         11    1    3    3    0    0 -0.32843230017E+02 -0.86258526163E+01 -0.16985373466E+02  0.37968223600E+02  0.51100000000E-03 0. -1.
        -11    1    3    3    0    0  0.12281344354E+01 -0.65311528584E+00 -0.26917706503E+01  0.30299345311E+01  0.51100000000E-03 0.  1.
        -12    1    3    3    0    0  0.67174857921E+00 -0.94432788313E+01  0.10988643572E+01  0.95307011345E+01  0.00000000000E+00 0.  1.
</event>
<event>
 7    1  0.5121289E-013  0.5052886E+02  0.7816164E-02  0.1300439E+00
        -11   -1    0    0    0    0  0.00000000000E+00  0.00000000000E+00  0.45593999997E+02  0.45594000000E+02  0.51100000000E-03 0.  1.
         11   -1    0    0    0    0 -0.00000000000E+00 -0.00000000000E+00 -0.45593999997E+02  0.45594000000E+02  0.51100000000E-03 0. -1.
    9900012    2    1    2    0    0 -0.22112412403E+02  0.20407017706E+02  0.27345204926E+02  0.50528863433E+02  0.30000010892E+02 0.  0.
         12    1    1    2    0    0  0.22112412403E+02 -0.20407017706E+02 -0.27345204926E+02  0.40659136567E+02  0.00000000000E+00 0. -1.
         11    1    3    3    0    0 -0.28723470225E+01  0.23926732442E+01  0.16246059824E+02  0.16670624546E+02  0.51100000000E-03 0. -1.
        -11    1    3    3    0    0  0.19914500225E+01  0.72369849870E+01  0.57480140545E+01  0.94540727057E+01  0.51100000000E-03 0.  1.
         12    1    3    3    0    0 -0.21231515403E+02  0.10777359475E+02  0.53511310470E+01  0.24404166182E+02  0.00000000000E+00 0. -1.
</event>
<event>
 7    1  0.5121289E-013  0.5052887E+02  0.7816164E-02  0.1300439E+00
        -11   -1    0    0    0    0  0.00000000000E+00  0.00000000000E+00  0.45593999997E+02  0.45594000000E+02  0.51100000000E-03 0.  1.
         11   -1    0    0    0    0 -0.00000000000E+00 -0.00000000000E+00 -0.45593999997E+02  0.45594000000E+02  0.51100000000E-03 0. -1.
    9900012    2    1    2    0    0  0.60829439905E+01 -0.38620799792E+02  0.11162278277E+02  0.50528870146E+02  0.30000031295E+02 0.  0.
         12    1    1    2    0    0 -0.60829439905E+01  0.38620799792E+02 -0.11162278277E+02  0.40659129854E+02  0.00000000000E+00 0. -1.
         11    1    3    3    0    0 -0.75904064991E+01 -0.36701256008E+01  0.69154210808E+00  0.84594517255E+01  0.51100000000E-03 0. -1.
        -11    1    3    3    0    0 -0.29813623133E+01 -0.12146173542E+02  0.31673041860E+01  0.12901545218E+02  0.51100000000E-03 0.  1.
        -12    1    3    3    0    0  0.16654712803E+02 -0.22804500650E+02  0.73034319828E+01  0.29167873202E+02  0.00000000000E+00 0.  1.
</event>
<event>
 7    1  0.5121289E-013  0.5052886E+02  0.7816164E-02  0.1300439E+00
        -11   -1    0    0    0    0  0.00000000000E+00  0.00000000000E+00  0.45593999997E+02  0.45594000000E+02  0.51100000000E-03 0.  1.
         11   -1    0    0    0    0 -0.00000000000E+00 -0.00000000000E+00 -0.45593999997E+02  0.45594000000E+02  0.51100000000E-03 0. -1.
    9900012    2    1    2    0    0  0.23538605659E+02  0.36288684204E+01  0.32953464546E+02  0.50528862430E+02  0.30000007841E+02 0.  0.
         12    1    1    2    0    0 -0.23538605659E+02 -0.36288684204E+01 -0.32953464546E+02  0.40659137570E+02  0.00000000000E+00 0. -1.
         11    1    3    3    0    0 -0.35592978902E+01  0.64451523191E+01  0.13874668450E+02  0.15707164440E+02  0.51100000000E-03 0. -1.
        -11    1    3    3    0    0  0.86539817870E-01 -0.15605677668E+01 -0.25059336444E+00  0.15829270957E+01  0.51100000000E-03 0.  1.
        -12    1    3    3    0    0  0.27011363731E+02 -0.12557161320E+01  0.19329389460E+02  0.33238770894E+02  0.00000000000E+00 0.  1.
</event>
<event>
 7    1  0.5121289E-013  0.5052887E+02  0.7816164E-02  0.1300439E+00
        -11   -1    0    0    0    0  0.00000000000E+00  0.00000000000E+00  0.45593999997E+02  0.45594000000E+02  0.51100000000E-03 0.  1.
         11   -1    0    0    0    0 -0.00000000000E+00 -0.00000000000E+00 -0.45593999997E+02  0.45594000000E+02  0.51100000000E-03 0. -1.
    9900012    2    1    2    0    0 -0.12840575997E+02 -0.21525216501E+02  0.32014835328E+02  0.50528867958E+02  0.30000024646E+02 0.  0.
         12    1    1    2    0    0  0.12840575997E+02  0.21525216501E+02 -0.32014835328E+02  0.40659132042E+02  0.00000000000E+00 0. -1.
         11    1    3    3    0    0  0.91206672061E+00 -0.10710835534E+02  0.22435939164E+01  0.10981237519E+02  0.51100000000E-03 0. -1.
        -11    1    3    3    0    0 -0.12737238093E+02 -0.15118664813E+02  0.17140387904E+02  0.26164941386E+02  0.51100000000E-03 0.  1.
         12    1    3    3    0    0 -0.10154046244E+01  0.43042838458E+01  0.12630853507E+02  0.13382689053E+02  0.00000000000E+00 0. -1.
</event>
<event>
 7    1  0.5121289E-013  0.5052888E+02  0.7816164E-02  0.1300439E+00
        -11   -1    0    0    0    0  0.00000000000E+00  0.00000000000E+00  0.45593999997E+02  0.45594000000E+02  0.51100000000E-03 0.  1.
         11   -1    0    0    0    0 -0.00000000000E+00 -0.00000000000E+00 -0.45593999997E+02  0.45594000000E+02  0.51100000000E-03 0. -1.
    9900012    2    1    2    0    0  0.14699949492E+02 -0.19358872679E+02  0.32593094480E+02  0.50528877109E+02  0.30000052461E+02 0.  0.
         12    1    1    2    0    0 -0.14699949492E+02  0.19358872679E+02 -0.32593094480E+02  0.40659122891E+02  0.00000000000E+00 0. -1.
         11    1    3    3    0    0 -0.37496539278E+01 -0.16593837330E+01 -0.21148665817E+01  0.46136883154E+01  0.51100000000E-03 0. -1.
        -11    1    3    3    0    0  0.37030865376E+01 -0.46519367785E+01  0.21247928005E+02  0.22064174819E+02  0.51100000000E-03 0.  1.
         12    1    3    3    0    0  0.14746516882E+02 -0.13047552167E+02  0.13460033057E+02  0.23851013974E+02  0.00000000000E+00 0. -1.
</event>
<event>
 7    1  0.5121289E-013  0.5052885E+02  0.7816164E-02  0.1300439E+00
        -11   -1    0    0    0    0  0.00000000000E+00  0.00000000000E+00  0.45593999997E+02  0.45594000000E+02  0.51100000000E-03 0. -1.
         11   -1    0    0    0    0 -0.00000000000E+00 -0.00000000000E+00 -0.45593999997E+02  0.45594000000E+02  0.51100000000E-03 0.  1.
    9900012    2    1    2    0    0 -0.11382273719E+02 -0.24350500473E+02 -0.30506774782E+02  0.50528851757E+02  0.29999975400E+02 0.  0.
         12    1    1    2    0    0  0.11382273719E+02  0.24350500473E+02  0.30506774782E+02  0.40659148243E+02  0.00000000000E+00 0. -1.
         11    1    3    3    0    0  0.20172106557E+01  0.17520289728E+00 -0.96978696876E+00  0.22450661261E+01  0.51100000000E-03 0. -1.
        -11    1    3    3    0    0  0.55022290961E+00 -0.22732190673E+02 -0.24289716111E+02  0.33272293985E+02  0.51100000000E-03 0.  1.
        -12    1    3    3    0    0 -0.13949707284E+02 -0.17935126977E+01 -0.52472717020E+01  0.15011491645E+02  0.00000000000E+00 0.  1.
</event>
<event>
 7    1  0.5121289E-013  0.5052887E+02  0.7816164E-02  0.1300439E+00
        -11   -1    0    0    0    0  0.00000000000E+00  0.00000000000E+00  0.45593999997E+02  0.45594000000E+02  0.51100000000E-03 0. -1.
         11   -1    0    0    0    0 -0.00000000000E+00 -0.00000000000E+00 -0.45593999997E+02  0.45594000000E+02  0.51100000000E-03 0.  1.
    9900012    2    1    2    0    0  0.24038485025E+02  0.22658841917E+02 -0.23704279156E+02  0.50528871510E+02  0.30000035441E+02 0.  0.
         12    1    1    2    0    0 -0.24038485025E+02 -0.22658841917E+02  0.23704279156E+02  0.40659128490E+02  0.00000000000E+00 0. -1.
         11    1    3    3    0    0  0.74212006348E+01  0.79783813131E+01 -0.90962299372E+01  0.14194019394E+02  0.51100000000E-03 0.  1.
        -11    1    3    3    0    0 -0.36113362769E+01  0.90989480196E+01  0.14697852873E+01  0.98991350036E+01  0.51100000000E-03 0. -1.
         12    1    3    3    0    0  0.20228620667E+02  0.55815125844E+01 -0.16077834506E+02  0.26435717112E+02  0.00000000000E+00 0. -1.
</event>
<event>
 7    1  0.5121289E-013  0.5052886E+02  0.7816164E-02  0.1300439E+00
        -11   -1    0    0    0    0  0.00000000000E+00  0.00000000000E+00  0.45593999997E+02  0.45594000000E+02  0.51100000000E-03 0.  1.
         11   -1    0    0    0    0 -0.00000000000E+00 -0.00000000000E+00 -0.45593999997E+02  0.45594000000E+02  0.51100000000E-03 0. -1.
    9900012    2    1    2    0    0  0.24149596764E+02  0.25877564416E+02  0.20007855879E+02  0.50528860058E+02  0.30000000633E+02 0.  0.
         12    1    1    2    0    0 -0.24149596764E+02 -0.25877564416E+02 -0.20007855879E+02  0.40659139942E+02  0.00000000000E+00 0. -1.
         11    1    3    3    0    0 -0.10262643446E+01  0.42624363539E+01  0.90685152672E+00  0.44770483724E+01  0.51100000000E-03 0. -1.
        -11    1    3    3    0    0  0.21266940630E+01  0.83589851690E+00  0.14500886107E+02  0.14679824662E+02  0.51100000000E-03 0.  1.
        -12    1    3    3    0    0  0.23049167045E+02  0.20779229545E+02  0.46001182456E+01  0.31371987024E+02  0.00000000000E+00 0.  1.
</event>
<event>
 7    1  0.5121289E-013  0.5052886E+02  0.7816164E-02  0.1300439E+00
        -11   -1    0    0    0    0  0.00000000000E+00  0.00000000000E+00  0.45593999997E+02  0.45594000000E+02  0.51100000000E-03 0.  1.
         11   -1    0    0    0    0 -0.00000000000E+00 -0.00000000000E+00 -0.45593999997E+02  0.45594000000E+02  0.51100000000E-03 0. -1.
    9900012    2    1    2    0    0 -0.56709363820E+01  0.39061557480E+02 -0.97570759026E+01  0.50528864220E+02  0.30000013283E+02 0.  0.
         12    1    1    2    0    0  0.56709363820E+01 -0.39061557480E+02  0.97570759026E+01  0.40659135780E+02  0.00000000000E+00 0. -1.
         11    1    3    3    0    0  0.68317596629E+01  0.53037546863E+01 -0.42873560383E+01  0.96531951147E+01  0.51100000000E-03 0. -1.
        -11    1    3    3    0    0  0.33179158349E+01  0.12403252417E+02 -0.62670654165E+01  0.14287244143E+02  0.51100000000E-03 0.  1.
        -12    1    3    3    0    0 -0.15820611880E+02  0.21354550376E+02  0.79734555225E+00  0.26588424962E+02  0.00000000000E+00 0.  1.
</event>
<event>
 7    1  0.5121289E-013  0.5052886E+02  0.7816164E-02  0.1300439E+00
        -11   -1    0    0    0    0  0.00000000000E+00  0.00000000000E+00  0.45593999997E+02  0.45594000000E+02  0.51100000000E-03 0.  1.
         11   -1    0    0    0    0 -0.00000000000E+00 -0.00000000000E+00 -0.45593999997E+02  0.45594000000E+02  0.51100000000E-03 0. -1.
    9900012    2    1    2    0    0  0.20099895743E+02  0.17518991677E+02  0.30696009484E+02  0.50528857406E+02  0.29999992571E+02 0.  0.
         12    1    1    2    0    0 -0.20099895743E+02 -0.17518991677E+02 -0.30696009484E+02  0.40659142594E+02  0.00000000000E+00 0. -1.
         11    1    3    3    0    0  0.14901459905E+02 -0.33307469638E+01  0.10665230094E+02  0.18625104453E+02  0.51100000000E-03 0. -1.
        -11    1    3    3    0    0  0.15685342054E+01 -0.24168140739E+00  0.62519971231E+01  0.64502850901E+01  0.51100000000E-03 0.  1.
        -12    1    3    3    0    0  0.36299016321E+01  0.21091420048E+02  0.13778782267E+02  0.25453467863E+02  0.00000000000E+00 0.  1.
</event>
<event>
 7    1  0.5121289E-013  0.5052887E+02  0.7816164E-02  0.1300439E+00
        -11   -1    0    0    0    0  0.00000000000E+00  0.00000000000E+00  0.45593999997E+02  0.45594000000E+02  0.51100000000E-03 0.  1.
         11   -1    0    0    0    0 -0.00000000000E+00 -0.00000000000E+00 -0.45593999997E+02  0.45594000000E+02  0.51100000000E-03 0. -1.
    9900012    2    1    2    0    0 -0.67909416707E+01 -0.32533856815E+02  0.23422122538E+02  0.50528873691E+02  0.30000042071E+02 0.  0.
         12    1    1    2    0    0  0.67909416707E+01  0.32533856815E+02 -0.23422122538E+02  0.40659126309E+02  0.00000000000E+00 0. -1.
         11    1    3    3    0    0  0.18107523303E+01  0.10121503310E+01 -0.16229235507E+01  0.26338476431E+01  0.51100000000E-03 0. -1.
        -11    1    3    3    0    0 -0.56170147666E+01 -0.62716235683E+01  0.17530416925E+02  0.19447355473E+02  0.51100000000E-03 0.  1.
        -12    1    3    3    0    0 -0.29846792345E+01 -0.27274383577E+02  0.75146291640E+01  0.28447670575E+02  0.00000000000E+00 0.  1.
</event>
<event>
 7    1  0.5121289E-013  0.5052886E+02  0.7816164E-02  0.1300439E+00
        -11   -1    0    0    0    0  0.00000000000E+00  0.00000000000E+00  0.45593999997E+02  0.45594000000E+02  0.51100000000E-03 0. -1.
         11   -1    0    0    0    0 -0.00000000000E+00 -0.00000000000E+00 -0.45593999997E+02  0.45594000000E+02  0.51100000000E-03 0.  1.
    9900012    2    1    2    0    0  0.65673069136E+01  0.11874788423E+02 -0.38327864151E+02  0.50528864611E+02  0.30000014471E+02 0.  0.
         12    1    1    2    0    0 -0.65673069136E+01 -0.11874788423E+02  0.38327864151E+02  0.40659135389E+02  0.00000000000E+00 0. -1.
         11    1    3    3    0    0  0.39371318248E+01 -0.22685841028E+01 -0.14742375543E+02  0.15426766277E+02  0.51100000000E-03 0.  1.
        -11    1    3    3    0    0 -0.75180765178E+01  0.56416308940E+01 -0.18811013101E+02  0.21028639704E+02  0.51100000000E-03 0. -1.
         12    1    3    3    0    0  0.10148251607E+02  0.85017416314E+01 -0.47744755072E+01  0.14073458630E+02  0.00000000000E+00 0. -1.
</event>
<event>
 7    1  0.5121289E-013  0.5052886E+02  0.7816164E-02  0.1300439E+00
        -11   -1    0    0    0    0  0.00000000000E+00  0.00000000000E+00  0.45593999997E+02  0.45594000000E+02  0.51100000000E-03 0.  1.
         11   -1    0    0    0    0 -0.00000000000E+00 -0.00000000000E+00 -0.45593999997E+02  0.45594000000E+02  0.51100000000E-03 0. -1.
    9900012    2    1    2    0    0  0.14927543666E+02  0.34910581709E+02  0.14545985174E+02  0.50528856381E+02  0.29999989456E+02 0.  0.
         12    1    1    2    0    0 -0.14927543666E+02 -0.34910581709E+02 -0.14545985174E+02  0.40659143619E+02  0.00000000000E+00 0. -1.
         11    1    3    3    0    0  0.72965063617E+01  0.11615528260E+01  0.40511774474E+01  0.84261645501E+01  0.51100000000E-03 0. -1.
        -11    1    3    3    0    0  0.10665230299E+02  0.94568679693E+01  0.10360228839E+02  0.17621402640E+02  0.51100000000E-03 0.  1.
        -12    1    3    3    0    0 -0.30341929949E+01  0.24292160914E+02  0.13457888686E+00  0.24481289191E+02  0.00000000000E+00 0.  1.
</event>
<event>
 7    1  0.5121289E-013  0.5052886E+02  0.7816164E-02  0.1300439E+00
        -11   -1    0    0    0    0  0.00000000000E+00  0.00000000000E+00  0.45593999997E+02  0.45594000000E+02  0.51100000000E-03 0.  1.
         11   -1    0    0    0    0 -0.00000000000E+00 -0.00000000000E+00 -0.45593999997E+02  0.45594000000E+02  0.51100000000E-03 0. -1.
    9900012    2    1    2    0    0 -0.34320594510E+02  0.34898403855E+01  0.21519383537E+02  0.50528855134E+02  0.29999985666E+02 0.  0.
         12    1    1    2    0    0  0.34320594510E+02 -0.34898403855E+01 -0.21519383537E+02  0.40659144866E+02  0.00000000000E+00 0. -1.
         11    1    3    3    0    0 -0.21974936227E+02  0.71704045196E+00  0.28064059499E+01  0.22165014861E+02  0.51100000000E-03 0. -1.
        -11    1    3    3    0    0 -0.77056524555E+01 -0.67864324446E+01  0.63976157930E+01  0.12098026004E+02  0.51100000000E-03 0.  1.
        -12    1    3    3    0    0 -0.46400058272E+01  0.95592323781E+01  0.12315361794E+02  0.16265814269E+02  0.00000000000E+00 0.  1.
</event>
<event>
 7    1  0.5121289E-013  0.5052886E+02  0.7816164E-02  0.1300439E+00
        -11   -1    0    0    0    0  0.00000000000E+00  0.00000000000E+00  0.45593999997E+02  0.45594000000E+02  0.51100000000E-03 0. -1.
         11   -1    0    0    0    0 -0.00000000000E+00 -0.00000000000E+00 -0.45593999997E+02  0.45594000000E+02  0.51100000000E-03 0.  1.
    9900012    2    1    2    0    0 -0.25893609770E+02 -0.12562142788E+02 -0.28720707554E+02  0.50528862027E+02  0.30000006618E+02 0.  0.
         12    1    1    2    0    0  0.25893609770E+02  0.12562142788E+02  0.28720707554E+02  0.40659137973E+02  0.00000000000E+00 0. -1.
         11    1    3    3    0    0 -0.24861713296E+01 -0.89616450359E+00 -0.15856431971E+02  0.16075154550E+02  0.51100000000E-03 0. -1.
        -11    1    3    3    0    0  0.31311665529E+01 -0.53455473390E+00 -0.10660513169E+01  0.33505847873E+01  0.51100000000E-03 0.  1.
        -12    1    3    3    0    0 -0.26538604993E+02 -0.11131423550E+02 -0.11798224265E+02  0.31103122690E+02  0.00000000000E+00 0.  1.
</event>
<event>
 7    1  0.5121289E-013  0.5052886E+02  0.7816164E-02  0.1300439E+00
        -11   -1    0    0    0    0  0.00000000000E+00  0.00000000000E+00  0.45593999997E+02  0.45594000000E+02  0.51100000000E-03 0.  1.
         11   -1    0    0    0    0 -0.00000000000E+00 -0.00000000000E+00 -0.45593999997E+02  0.45594000000E+02  0.51100000000E-03 0. -1.
    9900012    2    1    2    0    0  0.32391260333E+02  0.13660981321E+02  0.20429139412E+02  0.50528857194E+02  0.29999991928E+02 0.  0.
         12    1    1    2    0    0 -0.32391260333E+02 -0.13660981321E+02 -0.20429139412E+02  0.40659142806E+02  0.00000000000E+00 0. -1.
         11    1    3    3    0    0  0.27244728893E+00 -0.12297039495E+01 -0.19766468460E+01  0.23438285653E+01  0.51100000000E-03 0. -1.
        -11    1    3    3    0    0 -0.16974581103E+01 -0.32507601664E+01 -0.15292818115E+00  0.36704486082E+01  0.51100000000E-03 0.  1.
        -12    1    3    3    0    0  0.33816271154E+02  0.18141445436E+02  0.22558714439E+02  0.44514580021E+02  0.00000000000E+00 0.  1.
</event>
<event>
 7    1  0.5121289E-013  0.5052886E+02  0.7816164E-02  0.1300439E+00
        -11   -1    0    0    0    0  0.00000000000E+00  0.00000000000E+00  0.45593999997E+02  0.45594000000E+02  0.51100000000E-03 0.  1.
         11   -1    0    0    0    0 -0.00000000000E+00 -0.00000000000E+00 -0.45593999997E+02  0.45594000000E+02  0.51100000000E-03 0. -1.
    9900012    2    1    2    0    0  0.11496294410E+02 -0.17335822793E+02  0.34935224695E+02  0.50528862508E+02  0.30000008081E+02 0.  0.
         12    1    1    2    0    0 -0.11496294410E+02  0.17335822793E+02 -0.34935224695E+02  0.40659137492E+02  0.00000000000E+00 0. -1.
         11    1    3    3    0    0  0.93994772125E+01 -0.55312049994E+01  0.29398699173E+02  0.31356465265E+02  0.51100000000E-03 0. -1.
        -11    1    3    3    0    0 -0.37769168352E+01 -0.25562782465E+01  0.67533728432E+01  0.81490922362E+01  0.51100000000E-03 0.  1.
         12    1    3    3    0    0  0.58737340330E+01 -0.92483395473E+01 -0.12168473214E+01  0.11023305007E+02  0.00000000000E+00 0. -1.
</event>
<event>
 7    1  0.5121289E-013  0.5052885E+02  0.7816164E-02  0.1300439E+00
        -11   -1    0    0    0    0  0.00000000000E+00  0.00000000000E+00  0.45593999997E+02  0.45594000000E+02  0.51100000000E-03 0. -1.
         11   -1    0    0    0    0 -0.00000000000E+00 -0.00000000000E+00 -0.45593999997E+02  0.45594000000E+02  0.51100000000E-03 0.  1.
    9900012    2    1    2    0    0  0.18330780478E+02 -0.35930408969E+02 -0.51141255523E+01  0.50528854881E+02  0.29999984896E+02 0.  0.
         12    1    1    2    0    0 -0.18330780478E+02  0.35930408969E+02  0.51141255523E+01  0.40659145119E+02  0.00000000000E+00 0. -1.
         11    1    3    3    0    0  0.11106211142E+02 -0.47576024215E+01  0.61219353643E+01  0.13544770194E+02  0.51100000000E-03 0. -1.
        -11    1    3    3    0    0 -0.12583759527E+01 -0.64038079742E+00 -0.43258583058E+01  0.45504557955E+01  0.51100000000E-03 0.  1.
         12    1    3    3    0    0  0.84829452891E+01 -0.30532425750E+02 -0.69102026107E+01  0.32433628892E+02  0.00000000000E+00 0. -1.
</event>
<event>
 7    1  0.5121289E-013  0.5052886E+02  0.7816164E-02  0.1300439E+00
        -11   -1    0    0    0    0  0.00000000000E+00  0.00000000000E+00  0.45593999997E+02  0.45594000000E+02  0.51100000000E-03 0.  1.
         11   -1    0    0    0    0 -0.00000000000E+00 -0.00000000000E+00 -0.45593999997E+02  0.45594000000E+02  0.51100000000E-03 0. -1.
    9900012    2    1    2    0    0  0.11008993566E+02  0.30999583620E+02 -0.23895476881E+02  0.50528856633E+02  0.29999990223E+02 0.  0.
         12    1    1    2    0    0 -0.11008993566E+02 -0.30999583620E+02  0.23895476881E+02  0.40659143367E+02  0.00000000000E+00 0. -1.
         11    1    3    3    0    0  0.55191988189E+01  0.25731320878E+01 -0.15386433855E+02  0.16547655767E+02  0.51100000000E-03 0. -1.
        -11    1    3    3    0    0  0.40040130988E+01  0.19799872515E+02 -0.13120075990E+02  0.24087413035E+02  0.51100000000E-03 0.  1.
        -12    1    3    3    0    0  0.14857816483E+01  0.86265790174E+01  0.46110329644E+01  0.98937878311E+01  0.00000000000E+00 0.  1.
</event>
<event>
 7    1  0.5121289E-013  0.5052886E+02  0.7816164E-02  0.1300439E+00
        -11   -1    0    0    0    0  0.00000000000E+00  0.00000000000E+00  0.45593999997E+02  0.45594000000E+02  0.51100000000E-03 0.  1.
         11   -1    0    0    0    0 -0.00000000000E+00 -0.00000000000E+00 -0.45593999997E+02  0.45594000000E+02  0.51100000000E-03 0. -1.
    9900012    2    1    2    0    0  0.37151100305E+02 -0.14356967796E+02  0.81755020477E+01  0.50528860659E+02  0.30000002460E+02 0.  0.
         12    1    1    2    0    0 -0.37151100305E+02  0.14356967796E+02 -0.81755020477E+01  0.40659139341E+02  0.00000000000E+00 0. -1.
         11    1    3    3    0    0  0.15016974922E+02 -0.91271789713E+01  0.86074597184E+01  0.19567914933E+02  0.51100000000E-03 0. -1.
        -11    1    3    3    0    0  0.19589148013E+01 -0.24273357336E+01  0.82492126053E+01  0.88192298321E+01  0.51100000000E-03 0.  1.
        -12    1    3    3    0    0  0.20175210582E+02 -0.28024530915E+01 -0.86811702761E+01  0.22141715894E+02  0.00000000000E+00 0.  1.
</event>
<event>
 7    1  0.5121289E-013  0.5052889E+02  0.7816164E-02  0.1300439E+00
        -11   -1    0    0    0    0  0.00000000000E+00  0.00000000000E+00  0.45593999997E+02  0.45594000000E+02  0.51100000000E-03 0.  1.
         11   -1    0    0    0    0 -0.00000000000E+00 -0.00000000000E+00 -0.45593999997E+02  0.45594000000E+02  0.51100000000E-03 0. -1.
    9900012    2    1    2    0    0 -0.14886509804E+02 -0.10699400575E+01  0.37820770317E+02  0.50528885238E+02  0.30000077168E+02 0.  0.
         12    1    1    2    0    0  0.14886509804E+02  0.10699400575E+01 -0.37820770317E+02  0.40659114762E+02  0.00000000000E+00 0. -1.
         11    1    3    3    0    0 -0.12860317572E+01 -0.69151686863E+01  0.15781464726E+02  0.17277964718E+02  0.51100000000E-03 0. -1.
        -11    1    3    3    0    0 -0.15690183137E+02 -0.74263341049E+00  0.21056656384E+02  0.26270061469E+02  0.51100000000E-03 0.  1.
         12    1    3    3    0    0  0.20897050900E+01  0.65878620392E+01  0.98264920653E+00  0.69808590499E+01  0.00000000000E+00 0. -1.
</event>
<event>
 7    1  0.5121289E-013  0.5052887E+02  0.7816164E-02  0.1300439E+00
        -11   -1    0    0    0    0  0.00000000000E+00  0.00000000000E+00  0.45593999997E+02  0.45594000000E+02  0.51100000000E-03 0.  1.
         11   -1    0    0    0    0 -0.00000000000E+00 -0.00000000000E+00 -0.45593999997E+02  0.45594000000E+02  0.51100000000E-03 0. -1.
    9900012    2    1    2    0    0  0.89692398937E+01  0.16129253156E+02  0.36229332867E+02  0.50528872715E+02  0.30000039103E+02 0.  0.
         12    1    1    2    0    0 -0.89692398937E+01 -0.16129253156E+02 -0.36229332867E+02  0.40659127285E+02  0.00000000000E+00 0. -1.
         11    1    3    3    0    0 -0.30590957895E+01  0.19515820573E+00  0.49332658991E-01  0.30657116216E+01  0.51100000000E-03 0. -1.
        -11    1    3    3    0    0  0.79560442322E+01  0.21100736355E+02  0.33447862297E+02  0.40339796815E+02  0.51100000000E-03 0.  1.
         12    1    3    3    0    0  0.40722914510E+01 -0.51666414054E+01  0.27321379108E+01  0.71233642781E+01  0.00000000000E+00 0. -1.
</event>
<event>
 7    1  0.5121289E-013  0.5052886E+02  0.7816164E-02  0.1300439E+00
        -11   -1    0    0    0    0  0.00000000000E+00  0.00000000000E+00  0.45593999997E+02  0.45594000000E+02  0.51100000000E-03 0.  1.
         11   -1    0    0    0    0 -0.00000000000E+00 -0.00000000000E+00 -0.45593999997E+02  0.45594000000E+02  0.51100000000E-03 0. -1.
    9900012    2    1    2    0    0  0.11834765282E+02 -0.27260181728E+02  0.27748630247E+02  0.50528860096E+02  0.30000000748E+02 0.  0.
         12    1    1    2    0    0 -0.11834765282E+02  0.27260181728E+02 -0.27748630247E+02  0.40659139904E+02  0.00000000000E+00 0. -1.
         11    1    3    3    0    0  0.11448838127E+01  0.11558861250E+01 -0.47244685238E+00  0.16941186405E+01  0.51100000000E-03 0. -1.
        -11    1    3    3    0    0  0.14360895456E+02 -0.10582117678E+02  0.35765834544E+01  0.18193638512E+02  0.51100000000E-03 0.  1.
        -12    1    3    3    0    0 -0.36710139872E+01 -0.17833950175E+02  0.24644493645E+02  0.30641102943E+02  0.00000000000E+00 0.  1.
</event>
<event>
 7    1  0.5121289E-013  0.5052885E+02  0.7816164E-02  0.1300439E+00
        -11   -1    0    0    0    0  0.00000000000E+00  0.00000000000E+00  0.45593999997E+02  0.45594000000E+02  0.51100000000E-03 0.  1.
         11   -1    0    0    0    0 -0.00000000000E+00 -0.00000000000E+00 -0.45593999997E+02  0.45594000000E+02  0.51100000000E-03 0. -1.
    9900012    2    1    2    0    0  0.25588865786E+02  0.23234788093E+01  0.31511557499E+02  0.50528845287E+02  0.29999955734E+02 0.  0.
         12    1    1    2    0    0 -0.25588865786E+02 -0.23234788093E+01 -0.31511557499E+02  0.40659154713E+02  0.00000000000E+00 0. -1.
         11    1    3    3    0    0  0.29264506239E+01  0.75279797792E+01  0.37903014370E+01  0.89219380212E+01  0.51100000000E-03 0. -1.
        -11    1    3    3    0    0  0.19494823436E+02  0.43123470366E+01  0.13114523634E+02  0.23887972040E+02  0.51100000000E-03 0.  1.
         12    1    3    3    0    0  0.31675917262E+01 -0.95168480065E+01  0.14606732428E+02  0.17718935226E+02  0.00000000000E+00 0. -1.
</event>
<event>
 7    1  0.5121289E-013  0.5052900E+02  0.7816164E-02  0.1300438E+00
        -11   -1    0    0    0    0  0.00000000000E+00  0.00000000000E+00  0.45593999997E+02  0.45594000000E+02  0.51100000000E-03 0.  1.
         11   -1    0    0    0    0 -0.00000000000E+00 -0.00000000000E+00 -0.45593999997E+02  0.45594000000E+02  0.51100000000E-03 0. -1.
    9900012    2    1    2    0    0  0.30672493054E+01 -0.33038605903E+02 -0.23498863706E+02  0.50529002303E+02  0.30000432996E+02 0.  0.
         12    1    1    2    0    0 -0.30672493054E+01  0.33038605903E+02  0.23498863706E+02  0.40658997697E+02  0.00000000000E+00 0. -1.
         11    1    3    3    0    0 -0.89304295335E+01 -0.10561499118E+02 -0.70038893953E+01  0.15503299720E+02  0.51100000000E-03 0. -1.
        -11    1    3    3    0    0  0.64478051301E+01 -0.24030148429E+02 -0.15072900110E+02  0.29089766973E+02  0.51100000000E-03 0.  1.
         12    1    3    3    0    0  0.55498737088E+01  0.15530416453E+01 -0.14220742002E+01  0.59359356100E+01  0.00000000000E+00 0. -1.
</event>
<event>
 7    1  0.5121289E-013  0.5052886E+02  0.7816164E-02  0.1300439E+00
        -11   -1    0    0    0    0  0.00000000000E+00  0.00000000000E+00  0.45593999997E+02  0.45594000000E+02  0.51100000000E-03 0.  1.
         11   -1    0    0    0    0 -0.00000000000E+00 -0.00000000000E+00 -0.45593999997E+02  0.45594000000E+02  0.51100000000E-03 0. -1.
    9900012    2    1    2    0    0  0.23925632997E+02 -0.32082327350E+02 -0.71731315456E+01  0.50528862544E+02  0.30000008190E+02 0.  0.
         12    1    1    2    0    0 -0.23925632997E+02  0.32082327350E+02  0.71731315456E+01  0.40659137456E+02  0.00000000000E+00 0. -1.
         11    1    3    3    0    0  0.18911369168E+01  0.31692107914E-01  0.35809475144E+01  0.40497640165E+01  0.51100000000E-03 0. -1.
        -11    1    3    3    0    0  0.28758163721E+01 -0.13333130644E+02  0.59437707063E+01  0.14878545058E+02  0.51100000000E-03 0.  1.
         12    1    3    3    0    0  0.19158679708E+02 -0.18780888814E+02 -0.16697849766E+02  0.31600553470E+02  0.00000000000E+00 0. -1.
</event>
<event>
 7    1  0.5121289E-013  0.5052888E+02  0.7816164E-02  0.1300439E+00
        -11   -1    0    0    0    0  0.00000000000E+00  0.00000000000E+00  0.45593999997E+02  0.45594000000E+02  0.51100000000E-03 0.  1.
         11   -1    0    0    0    0 -0.00000000000E+00 -0.00000000000E+00 -0.45593999997E+02  0.45594000000E+02  0.51100000000E-03 0. -1.
    9900012    2    1    2    0    0  0.16442504680E+02  0.37178293392E+02 -0.76303725915E+00  0.50528884349E+02  0.30000074466E+02 0.  0.
         12    1    1    2    0    0 -0.16442504680E+02 -0.37178293392E+02  0.76303725915E+00  0.40659115651E+02  0.00000000000E+00 0. -1.
         11    1    3    3    0    0  0.24933650281E+01  0.23421305087E+02  0.20167482531E+01  0.23639832380E+02  0.51100000000E-03 0. -1.
        -11    1    3    3    0    0 -0.28951801411E+01  0.74208769535E+01  0.21092849609E+01  0.82401799808E+01  0.51100000000E-03 0.  1.
        -12    1    3    3    0    0  0.16844319793E+02  0.63361113514E+01 -0.48890704731E+01  0.18648871988E+02  0.00000000000E+00 0.  1.
</event>
<event>
 7    1  0.5121289E-013  0.5052886E+02  0.7816164E-02  0.1300439E+00
        -11   -1    0    0    0    0  0.00000000000E+00  0.00000000000E+00  0.45593999997E+02  0.45594000000E+02  0.51100000000E-03 0. -1.
         11   -1    0    0    0    0 -0.00000000000E+00 -0.00000000000E+00 -0.45593999997E+02  0.45594000000E+02  0.51100000000E-03 0.  1.
    9900012    2    1    2    0    0 -0.10055937528E+01 -0.36456587283E+02 -0.17974192867E+02  0.50528860999E+02  0.30000003491E+02 0.  0.
         12    1    1    2    0    0  0.10055937528E+01  0.36456587283E+02  0.17974192867E+02  0.40659139001E+02  0.00000000000E+00 0. -1.
         11    1    3    3    0    0  0.15375492153E+01 -0.30114900927E+02 -0.10749978299E+02  0.32013018432E+02  0.51100000000E-03 0.  1.
        -11    1    3    3    0    0 -0.78353518192E+01 -0.59828093566E+01 -0.85486765589E+01  0.13048625104E+02  0.51100000000E-03 0. -1.
        -12    1    3    3    0    0  0.52922088510E+01 -0.35887699963E+00  0.13244619911E+01  0.54672174632E+01  0.00000000000E+00 0.  1.
</event>
<event>
 7    1  0.5121289E-013  0.5052886E+02  0.7816164E-02  0.1300439E+00
        -11   -1    0    0    0    0  0.00000000000E+00  0.00000000000E+00  0.45593999997E+02  0.45594000000E+02  0.51100000000E-03 0.  1.
         11   -1    0    0    0    0 -0.00000000000E+00 -0.00000000000E+00 -0.45593999997E+02  0.45594000000E+02  0.51100000000E-03 0. -1.
    9900012    2    1    2    0    0 -0.29161058376E+02  0.14537743250E+02  0.24319791851E+02  0.50528861051E+02  0.30000003650E+02 0.  0.
         12    1    1    2    0    0  0.29161058376E+02 -0.14537743250E+02 -0.24319791851E+02  0.40659138949E+02  0.00000000000E+00 0. -1.
         11    1    3    3    0    0 -0.87545011328E+00 -0.23685049369E+01 -0.42145643052E+00  0.25600496715E+01  0.51100000000E-03 0. -1.
        -11    1    3    3    0    0 -0.30676643744E+02  0.12541959580E+02  0.13706725857E+02  0.35864070537E+02  0.51100000000E-03 0.  1.
         12    1    3    3    0    0  0.23910354811E+01  0.43642886073E+01  0.11034522425E+02  0.12104740843E+02  0.00000000000E+00 0. -1.
</event>
<event>
 7    1  0.5121289E-013  0.5052886E+02  0.7816164E-02  0.1300439E+00
        -11   -1    0    0    0    0  0.00000000000E+00  0.00000000000E+00  0.45593999997E+02  0.45594000000E+02  0.51100000000E-03 0.  1.
         11   -1    0    0    0    0 -0.00000000000E+00 -0.00000000000E+00 -0.45593999997E+02  0.45594000000E+02  0.51100000000E-03 0. -1.
    9900012    2    1    2    0    0  0.11163980858E+02  0.32251329207E+02  0.22099384122E+02  0.50528862247E+02  0.30000007286E+02 0.  0.
         12    1    1    2    0    0 -0.11163980858E+02 -0.32251329207E+02 -0.22099384122E+02  0.40659137753E+02  0.00000000000E+00 0. -1.
         11    1    3    3    0    0  0.59423220304E+00 -0.19927728912E+01  0.32780294057E+00  0.21051628763E+01  0.51100000000E-03 0. -1.
        -11    1    3    3    0    0  0.73014840079E+01  0.92824299998E+01 -0.39300991234E+01  0.12446720644E+02  0.51100000000E-03 0.  1.
        -12    1    3    3    0    0  0.32682646467E+01  0.24961672099E+02  0.25701680305E+02  0.35976978726E+02  0.00000000000E+00 0.  1.
</event>
<event>
 7    1  0.5121289E-013  0.5052885E+02  0.7816164E-02  0.1300439E+00
        -11   -1    0    0    0    0  0.00000000000E+00  0.00000000000E+00  0.45593999997E+02  0.45594000000E+02  0.51100000000E-03 0.  1.
         11   -1    0    0    0    0 -0.00000000000E+00 -0.00000000000E+00 -0.45593999997E+02  0.45594000000E+02  0.51100000000E-03 0. -1.
    9900012    2    1    2    0    0 -0.19641653459E+01 -0.31630756653E+02  0.25471620460E+02  0.50528853910E+02  0.29999981944E+02 0.  0.
         12    1    1    2    0    0  0.19641653459E+01  0.31630756653E+02 -0.25471620460E+02  0.40659146090E+02  0.00000000000E+00 0. -1.
         11    1    3    3    0    0  0.58012983813E+00 -0.20387227998E+02  0.12247724180E+02  0.23790383854E+02  0.51100000000E-03 0. -1.
        -11    1    3    3    0    0 -0.92515930470E+01 -0.79625694232E+01  0.78620911195E+00  0.12231623390E+02  0.51100000000E-03 0.  1.
        -12    1    3    3    0    0  0.67072978629E+01 -0.32809592318E+01  0.12437687168E+02  0.14506846666E+02  0.00000000000E+00 0.  1.
</event>
<event>
 7    1  0.5121289E-013  0.5052886E+02  0.7816164E-02  0.1300439E+00
        -11   -1    0    0    0    0  0.00000000000E+00  0.00000000000E+00  0.45593999997E+02  0.45594000000E+02  0.51100000000E-03 0. -1.
         11   -1    0    0    0    0 -0.00000000000E+00 -0.00000000000E+00 -0.45593999997E+02  0.45594000000E+02  0.51100000000E-03 0.  1.
    9900012    2    1    2    0    0 -0.24439384511E+02 -0.32321190625E+02 -0.33500648812E+01  0.50528858181E+02  0.29999994927E+02 0.  0.
         12    1    1    2    0    0  0.24439384511E+02  0.32321190625E+02  0.33500648812E+01  0.40659141819E+02  0.00000000000E+00 0. -1.
         11    1    3    3    0    0 -0.18713577696E+01 -0.76687026881E+01 -0.17821556810E+01  0.80924075498E+01  0.51100000000E-03 0. -1.
        -11    1    3    3    0    0  0.19828543139E+01 -0.12510698994E+02 -0.70608056510E+01  0.14501871508E+02  0.51100000000E-03 0.  1.
         12    1    3    3    0    0 -0.24550881056E+02 -0.12141788943E+02  0.54928964508E+01  0.27934579123E+02  0.00000000000E+00 0. -1.
</event>
<event>
 7    1  0.5121289E-013  0.5052886E+02  0.7816164E-02  0.1300439E+00
        -11   -1    0    0    0    0  0.00000000000E+00  0.00000000000E+00  0.45593999997E+02  0.45594000000E+02  0.51100000000E-03 0.  1.
         11   -1    0    0    0    0 -0.00000000000E+00 -0.00000000000E+00 -0.45593999997E+02  0.45594000000E+02  0.51100000000E-03 0. -1.
    9900012    2    1    2    0    0  0.28930251901E+02 -0.13298138470E+02  0.25285683909E+02  0.50528858684E+02  0.29999996455E+02 0.  0.
         12    1    1    2    0    0 -0.28930251901E+02  0.13298138470E+02 -0.25285683909E+02  0.40659141316E+02  0.00000000000E+00 0. -1.
         11    1    3    3    0    0  0.51008523314E+01  0.33101619241E-01  0.60487352268E+01  0.79124577932E+01  0.51100000000E-03 0. -1.
        -11    1    3    3    0    0  0.22952015874E+02 -0.12753390574E+02  0.25300135529E+02  0.36462869633E+02  0.51100000000E-03 0.  1.
         12    1    3    3    0    0  0.87738369585E+00 -0.57784951464E+00 -0.60631868462E+01  0.61535312580E+01  0.00000000000E+00 0. -1.
</event>
<event>
 7    1  0.5121289E-013  0.5052886E+02  0.7816164E-02  0.1300439E+00
        -11   -1    0    0    0    0  0.00000000000E+00  0.00000000000E+00  0.45593999997E+02  0.45594000000E+02  0.51100000000E-03 0.  1.
         11   -1    0    0    0    0 -0.00000000000E+00 -0.00000000000E+00 -0.45593999997E+02  0.45594000000E+02  0.51100000000E-03 0. -1.
    9900012    2    1    2    0    0  0.46989721569E+01 -0.34434935503E+02 -0.21102616796E+02  0.50528861322E+02  0.30000004474E+02 0.  0.
         12    1    1    2    0    0 -0.46989721569E+01  0.34434935503E+02  0.21102616796E+02  0.40659138678E+02  0.00000000000E+00 0. -1.
         11    1    3    3    0    0 -0.17884887147E+01 -0.21430925401E+01 -0.59772966824E+00  0.28546135527E+01  0.51100000000E-03 0.  1.
        -11    1    3    3    0    0  0.13171098606E+02 -0.17308708951E+02 -0.43839167721E+00  0.21754572659E+02  0.51100000000E-03 0. -1.
        -12    1    3    3    0    0 -0.66836377341E+01 -0.14983134012E+02 -0.20066495450E+02  0.25919675110E+02  0.00000000000E+00 0.  1.
</event>
<event>
 7    1  0.5121289E-013  0.5052886E+02  0.7816164E-02  0.1300439E+00
        -11   -1    0    0    0    0  0.00000000000E+00  0.00000000000E+00  0.45593999997E+02  0.45594000000E+02  0.51100000000E-03 0.  1.
         11   -1    0    0    0    0 -0.00000000000E+00 -0.00000000000E+00 -0.45593999997E+02  0.45594000000E+02  0.51100000000E-03 0. -1.
    9900012    2    1    2    0    0 -0.15174266615E+02 -0.83088597781E+01  0.36794970547E+02  0.50528863565E+02  0.30000011291E+02 0.  0.
         12    1    1    2    0    0  0.15174266615E+02  0.83088597781E+01 -0.36794970547E+02  0.40659136435E+02  0.00000000000E+00 0. -1.
         11    1    3    3    0    0 -0.32743188469E+01 -0.46406578310E+01 -0.16164666646E+01  0.59050684801E+01  0.51100000000E-03 0. -1.
        -11    1    3    3    0    0  0.75331289377E+00 -0.18413338247E+01  0.28177691739E+02  0.28247837130E+02  0.51100000000E-03 0.  1.
         12    1    3    3    0    0 -0.12653260662E+02 -0.18268681224E+01  0.10233745473E+02  0.16375957954E+02  0.00000000000E+00 0. -1.
</event>
<event>
 7    1  0.5121289E-013  0.5052886E+02  0.7816164E-02  0.1300439E+00
        -11   -1    0    0    0    0  0.00000000000E+00  0.00000000000E+00  0.45593999997E+02  0.45594000000E+02  0.51100000000E-03 0.  1.
         11   -1    0    0    0    0 -0.00000000000E+00 -0.00000000000E+00 -0.45593999997E+02  0.45594000000E+02  0.51100000000E-03 0. -1.
    9900012    2    1    2    0    0  0.24643260958E+02  0.19869756281E+02  0.25516029673E+02  0.50528864550E+02  0.30000014285E+02 0.  0.
         12    1    1    2    0    0 -0.24643260958E+02 -0.19869756281E+02 -0.25516029673E+02  0.40659135450E+02  0.00000000000E+00 0. -1.
         11    1    3    3    0    0  0.82896616835E+01 -0.53631778494E+01  0.95893896105E+00  0.99197646979E+01  0.51100000000E-03 0. -1.
        -11    1    3    3    0    0  0.17882586343E+00  0.96926768656E+01  0.53129490527E+01  0.11054745199E+02  0.51100000000E-03 0.  1.
        -12    1    3    3    0    0  0.16174773411E+02  0.15540257264E+02  0.19244141660E+02  0.29554354653E+02  0.00000000000E+00 0.  1.
</event>
<event>
 7    1  0.5121289E-013  0.5052886E+02  0.7816164E-02  0.1300439E+00
        -11   -1    0    0    0    0  0.00000000000E+00  0.00000000000E+00  0.45593999997E+02  0.45594000000E+02  0.51100000000E-03 0. -1.
         11   -1    0    0    0    0 -0.00000000000E+00 -0.00000000000E+00 -0.45593999997E+02  0.45594000000E+02  0.51100000000E-03 0.  1.
    9900012    2    1    2    0    0  0.36780636778E+02  0.14785502675E+02 -0.90409826817E+01  0.50528859589E+02  0.29999999206E+02 0.  0.
         12    1    1    2    0    0 -0.36780636778E+02 -0.14785502675E+02  0.90409826817E+01  0.40659140411E+02  0.00000000000E+00 0. -1.
         11    1    3    3    0    0  0.21274510414E+02  0.48702285337E+01  0.27006356607E+01  0.21991301748E+02  0.51100000000E-03 0. -1.
        -11    1    3    3    0    0  0.18017065110E+02  0.72201554370E+01 -0.37932154647E+01  0.19777102001E+02  0.51100000000E-03 0.  1.
        -12    1    3    3    0    0 -0.25109387468E+01  0.26951187040E+01 -0.79484028777E+01  0.87604558401E+01  0.00000000000E+00 0.  1.
</event>
<event>
 7    1  0.5121289E-013  0.5052887E+02  0.7816164E-02  0.1300439E+00
        -11   -1    0    0    0    0  0.00000000000E+00  0.00000000000E+00  0.45593999997E+02  0.45594000000E+02  0.51100000000E-03 0.  1.
         11   -1    0    0    0    0 -0.00000000000E+00 -0.00000000000E+00 -0.45593999997E+02  0.45594000000E+02  0.51100000000E-03 0. -1.
    9900012    2    1    2    0    0 -0.25383103128E+02  0.12940350435E+02  0.29007072088E+02  0.50528870337E+02  0.30000031877E+02 0.  0.
         12    1    1    2    0    0  0.25383103128E+02 -0.12940350435E+02 -0.29007072088E+02  0.40659129663E+02  0.00000000000E+00 0. -1.
         11    1    3    3    0    0 -0.76726718166E+01 -0.47459235228E+00  0.15756333525E+01  0.78471492549E+01  0.51100000000E-03 0. -1.
        -11    1    3    3    0    0 -0.13468166510E+02  0.20425256394E+02  0.19624439739E+02  0.31364011912E+02  0.51100000000E-03 0.  1.
         12    1    3    3    0    0 -0.42422648015E+01 -0.70103136069E+01  0.78069989969E+01  0.11317709170E+02  0.00000000000E+00 0. -1.
</event>
<event>
 7    1  0.5121289E-013  0.5052886E+02  0.7816164E-02  0.1300439E+00
        -11   -1    0    0    0    0  0.00000000000E+00  0.00000000000E+00  0.45593999997E+02  0.45594000000E+02  0.51100000000E-03 0.  1.
         11   -1    0    0    0    0 -0.00000000000E+00 -0.00000000000E+00 -0.45593999997E+02  0.45594000000E+02  0.51100000000E-03 0. -1.
    9900012    2    1    2    0    0 -0.68392666654E+01  0.91368711176E+01  0.39024451064E+02  0.50528858799E+02  0.29999996807E+02 0.  0.
         12    1    1    2    0    0  0.68392666654E+01 -0.91368711176E+01 -0.39024451064E+02  0.40659141201E+02  0.00000000000E+00 0. -1.
         11    1    3    3    0    0 -0.79744025294E+01  0.20910721226E+00  0.61696491864E+01  0.10084611687E+02  0.51100000000E-03 0. -1.
        -11    1    3    3    0    0 -0.85593159266E+01  0.40829458956E+01  0.25863367665E+02  0.27547161806E+02  0.51100000000E-03 0.  1.
        -12    1    3    3    0    0  0.96944517906E+01  0.48448180098E+01  0.69914342120E+01  0.12897085307E+02  0.00000000000E+00 0.  1.
</event>
<event>
 7    1  0.5121289E-013  0.5052886E+02  0.7816164E-02  0.1300439E+00
        -11   -1    0    0    0    0  0.00000000000E+00  0.00000000000E+00  0.45593999997E+02  0.45594000000E+02  0.51100000000E-03 0. -1.
         11   -1    0    0    0    0 -0.00000000000E+00 -0.00000000000E+00 -0.45593999997E+02  0.45594000000E+02  0.51100000000E-03 0.  1.
    9900012    2    1    2    0    0 -0.37124067866E+01  0.27927818318E+02  0.29315876723E+02  0.50528860459E+02  0.30000001852E+02 0.  0.
         12    1    1    2    0    0  0.37124067866E+01 -0.27927818318E+02 -0.29315876723E+02  0.40659139541E+02  0.00000000000E+00 0. -1.
         11    1    3    3    0    0 -0.96313374057E+00  0.17839968532E+02  0.27037738913E+02  0.32407274332E+02  0.51100000000E-03 0. -1.
        -11    1    3    3    0    0  0.11617520015E+01 -0.22318151717E+01  0.43556322926E+01  0.50301291835E+01  0.51100000000E-03 0.  1.
        -12    1    3    3    0    0 -0.39110250474E+01  0.12319664958E+02 -0.20774944824E+01  0.13091456944E+02  0.00000000000E+00 0.  1.
</event>
<event>
 7    1  0.5121289E-013  0.5052887E+02  0.7816164E-02  0.1300439E+00
        -11   -1    0    0    0    0  0.00000000000E+00  0.00000000000E+00  0.45593999997E+02  0.45594000000E+02  0.51100000000E-03 0. -1.
         11   -1    0    0    0    0 -0.00000000000E+00 -0.00000000000E+00 -0.45593999997E+02  0.45594000000E+02  0.51100000000E-03 0.  1.
    9900012    2    1    2    0    0  0.39475235423E+02 -0.79070887442E+01 -0.56875554296E+01  0.50528873707E+02  0.30000042121E+02 0.  0.
         12    1    1    2    0    0 -0.39475235423E+02  0.79070887442E+01  0.56875554296E+01  0.40659126293E+02  0.00000000000E+00 0. -1.
         11    1    3    3    0    0  0.64073772776E+01 -0.19868615970E+01  0.53283122788E+01  0.85669723115E+01  0.51100000000E-03 0. -1.
        -11    1    3    3    0    0  0.89200350047E+01  0.12862420980E+01  0.66381710536E+01  0.11193156767E+02  0.51100000000E-03 0.  1.
        -12    1    3    3    0    0  0.24147823141E+02 -0.72064692453E+01 -0.17654038762E+02  0.30768744629E+02  0.00000000000E+00 0.  1.
</event>
<event>
 7    1  0.5121289E-013  0.5052886E+02  0.7816164E-02  0.1300439E+00
        -11   -1    0    0    0    0  0.00000000000E+00  0.00000000000E+00  0.45593999997E+02  0.45594000000E+02  0.51100000000E-03 0. -1.
         11   -1    0    0    0    0 -0.00000000000E+00 -0.00000000000E+00 -0.45593999997E+02  0.45594000000E+02  0.51100000000E-03 0.  1.
    9900012    2    1    2    0    0 -0.20746544691E+02 -0.75414160728E+01 -0.34144895035E+02  0.50528856748E+02  0.29999990572E+02 0.  0.
         12    1    1    2    0    0  0.20746544691E+02  0.75414160728E+01  0.34144895035E+02  0.40659143252E+02  0.00000000000E+00 0. -1.
         11    1    3    3    0    0 -0.21305939368E+02 -0.37469906162E+01 -0.37102505702E+02  0.42948561334E+02  0.51100000000E-03 0.  1.
        -11    1    3    3    0    0  0.27739864619E+00 -0.17303565975E+01 -0.17226347732E+01  0.24573471034E+01  0.51100000000E-03 0. -1.
        -12    1    3    3    0    0  0.28199603014E+00 -0.20640688591E+01  0.46802454404E+01  0.51229483111E+01  0.00000000000E+00 0.  1.
</event>
<event>
 7    1  0.5121289E-013  0.5052886E+02  0.7816164E-02  0.1300439E+00
        -11   -1    0    0    0    0  0.00000000000E+00  0.00000000000E+00  0.45593999997E+02  0.45594000000E+02  0.51100000000E-03 0.  1.
         11   -1    0    0    0    0 -0.00000000000E+00 -0.00000000000E+00 -0.45593999997E+02  0.45594000000E+02  0.51100000000E-03 0. -1.
    9900012    2    1    2    0    0  0.31644973667E+02 -0.18954269694E+02  0.17102535297E+02  0.50528863123E+02  0.30000009949E+02 0.  0.
         12    1    1    2    0    0 -0.31644973667E+02  0.18954269694E+02 -0.17102535297E+02  0.40659136877E+02  0.00000000000E+00 0. -1.
         11    1    3    3    0    0  0.20290469459E+02  0.52541489555E+00  0.47174691770E+01  0.20838275538E+02  0.51100000000E-03 0. -1.
        -11    1    3    3    0    0 -0.13143115782E+01 -0.25297067043E+01 -0.25216754349E+01  0.38060055432E+01  0.51100000000E-03 0.  1.
        -12    1    3    3    0    0  0.12668815786E+02 -0.16949977885E+02  0.14906741555E+02  0.25884582042E+02  0.00000000000E+00 0.  1.
</event>
<event>
 7    1  0.5121289E-013  0.5052886E+02  0.7816164E-02  0.1300439E+00
        -11   -1    0    0    0    0  0.00000000000E+00  0.00000000000E+00  0.45593999997E+02  0.45594000000E+02  0.51100000000E-03 0.  1.
         11   -1    0    0    0    0 -0.00000000000E+00 -0.00000000000E+00 -0.45593999997E+02  0.45594000000E+02  0.51100000000E-03 0. -1.
    9900012    2    1    2    0    0 -0.20687507279E+02  0.79590887712E+01  0.34085858358E+02  0.50528858451E+02  0.29999995748E+02 0.  0.
         12    1    1    2    0    0  0.20687507279E+02 -0.79590887712E+01 -0.34085858358E+02  0.40659141549E+02  0.00000000000E+00 0. -1.
         11    1    3    3    0    0 -0.14310809740E+02  0.14793577709E+01  0.99913956281E+01  0.17516157161E+02  0.51100000000E-03 0. -1.
        -11    1    3    3    0    0 -0.87618194600E+01  0.93672903456E+01  0.53494498143E+01  0.13897201957E+02  0.51100000000E-03 0.  1.
        -12    1    3    3    0    0  0.23851219207E+01 -0.28875593452E+01  0.18745012915E+02  0.19115499333E+02  0.00000000000E+00 0.  1.
</event>
<event>
 7    1  0.5121289E-013  0.5052885E+02  0.7816164E-02  0.1300439E+00
        -11   -1    0    0    0    0  0.00000000000E+00  0.00000000000E+00  0.45593999997E+02  0.45594000000E+02  0.51100000000E-03 0.  1.
         11   -1    0    0    0    0 -0.00000000000E+00 -0.00000000000E+00 -0.45593999997E+02  0.45594000000E+02  0.51100000000E-03 0. -1.
    9900012    2    1    2    0    0 -0.24633069228E+02 -0.30779290356E+01  0.32201000707E+02  0.50528853510E+02  0.29999980728E+02 0.  0.
         12    1    1    2    0    0  0.24633069228E+02  0.30779290356E+01 -0.32201000707E+02  0.40659146490E+02  0.00000000000E+00 0. -1.
         11    1    3    3    0    0 -0.84267659260E+01 -0.63288717676E+01  0.76952948392E+01  0.13049236175E+02  0.51100000000E-03 0. -1.
        -11    1    3    3    0    0 -0.14811800506E+02 -0.20754213389E+01  0.29665204515E+01  0.15247854007E+02  0.51100000000E-03 0.  1.
         12    1    3    3    0    0 -0.13945027966E+01  0.53263640709E+01  0.21539185417E+02  0.22231763328E+02  0.00000000000E+00 0. -1.
</event>
<event>
 7    1  0.5121289E-013  0.5052887E+02  0.7816164E-02  0.1300439E+00
        -11   -1    0    0    0    0  0.00000000000E+00  0.00000000000E+00  0.45593999997E+02  0.45594000000E+02  0.51100000000E-03 0.  1.
         11   -1    0    0    0    0 -0.00000000000E+00 -0.00000000000E+00 -0.45593999997E+02  0.45594000000E+02  0.51100000000E-03 0. -1.
    9900012    2    1    2    0    0  0.94108147689E+01 -0.11611684597E+02  0.37812304175E+02  0.50528868175E+02  0.30000025303E+02 0.  0.
         12    1    1    2    0    0 -0.94108147689E+01  0.11611684597E+02 -0.37812304175E+02  0.40659131825E+02  0.00000000000E+00 0. -1.
         11    1    3    3    0    0  0.77422798089E+01 -0.15501964337E+02  0.26414656693E+02  0.31590946225E+02  0.51100000000E-03 0.  1.
        -11    1    3    3    0    0  0.21486488358E+01 -0.50483386804E+01  0.17079250161E+01  0.57462529854E+01  0.51100000000E-03 0. -1.
        -12    1    3    3    0    0 -0.48011387571E+00  0.89386184200E+01  0.96897224656E+01  0.13191668964E+02  0.00000000000E+00 0.  1.
</event>
<event>
 7    1  0.5121289E-013  0.5052886E+02  0.7816164E-02  0.1300439E+00
        -11   -1    0    0    0    0  0.00000000000E+00  0.00000000000E+00  0.45593999997E+02  0.45594000000E+02  0.51100000000E-03 0. -1.
         11   -1    0    0    0    0 -0.00000000000E+00 -0.00000000000E+00 -0.45593999997E+02  0.45594000000E+02  0.51100000000E-03 0.  1.
    9900012    2    1    2    0    0 -0.43233401625E+01 -0.35196604409E+02 -0.19891541117E+02  0.50528860313E+02  0.30000001407E+02 0.  0.
         12    1    1    2    0    0  0.43233401625E+01  0.35196604409E+02  0.19891541117E+02  0.40659139687E+02  0.00000000000E+00 0. -1.
         11    1    3    3    0    0 -0.50961444028E+01 -0.18405868759E+01 -0.22271863314E+01  0.58582255878E+01  0.51100000000E-03 0. -1.
        -11    1    3    3    0    0 -0.21610453171E+01 -0.87266376876E+01  0.56595692770E+01  0.10623325602E+02  0.51100000000E-03 0.  1.
        -12    1    3    3    0    0  0.29338495575E+01 -0.24629379846E+02 -0.23323924062E+02  0.34047309122E+02  0.00000000000E+00 0.  1.
</event>
<event>
 7    1  0.5121289E-013  0.5052884E+02  0.7816164E-02  0.1300439E+00
        -11   -1    0    0    0    0  0.00000000000E+00  0.00000000000E+00  0.45593999997E+02  0.45594000000E+02  0.51100000000E-03 0. -1.
         11   -1    0    0    0    0 -0.00000000000E+00 -0.00000000000E+00 -0.45593999997E+02  0.45594000000E+02  0.51100000000E-03 0.  1.
    9900012    2    1    2    0    0 -0.15951634853E+02 -0.25569393629E+02 -0.27293202353E+02  0.50528838182E+02  0.29999934139E+02 0.  0.
         12    1    1    2    0    0  0.15951634853E+02  0.25569393629E+02  0.27293202353E+02  0.40659161818E+02  0.00000000000E+00 0. -1.
         11    1    3    3    0    0 -0.67255686415E+01 -0.24899157112E+01 -0.15854752942E+01  0.73448407723E+01  0.51100000000E-03 0. -1.
        -11    1    3    3    0    0 -0.82922698737E+01 -0.18724908773E+02 -0.38003321617E+01  0.20828501459E+02  0.51100000000E-03 0.  1.
        -12    1    3    3    0    0 -0.93379633757E+00 -0.43545691447E+01 -0.21907394897E+02  0.22355495951E+02  0.00000000000E+00 0.  1.
</event>
<event>
 7    1  0.5121289E-013  0.5052886E+02  0.7816164E-02  0.1300439E+00
        -11   -1    0    0    0    0  0.00000000000E+00  0.00000000000E+00  0.45593999997E+02  0.45594000000E+02  0.51100000000E-03 0. -1.
         11   -1    0    0    0    0 -0.00000000000E+00 -0.00000000000E+00 -0.45593999997E+02  0.45594000000E+02  0.51100000000E-03 0.  1.
    9900012    2    1    2    0    0  0.52477648901E+01  0.19201074273E+02 -0.35453426246E+02  0.50528859304E+02  0.29999998340E+02 0.  0.
         12    1    1    2    0    0 -0.52477648901E+01 -0.19201074273E+02  0.35453426246E+02  0.40659140696E+02  0.00000000000E+00 0. -1.
         11    1    3    3    0    0 -0.48553831046E+01  0.18091452460E+02 -0.11957621016E+02  0.22222963300E+02  0.51100000000E-03 0. -1.
        -11    1    3    3    0    0  0.18431743858E+01  0.48344199670E+01 -0.15067364659E+02  0.15930925467E+02  0.51100000000E-03 0.  1.
         12    1    3    3    0    0  0.82599736089E+01 -0.37247981542E+01 -0.84284405712E+01  0.12374970536E+02  0.00000000000E+00 0. -1.
</event>
<event>
 7    1  0.5121289E-013  0.5052887E+02  0.7816164E-02  0.1300439E+00
        -11   -1    0    0    0    0  0.00000000000E+00  0.00000000000E+00  0.45593999997E+02  0.45594000000E+02  0.51100000000E-03 0.  1.
         11   -1    0    0    0    0 -0.00000000000E+00 -0.00000000000E+00 -0.45593999997E+02  0.45594000000E+02  0.51100000000E-03 0. -1.
    9900012    2    1    2    0    0 -0.40029426507E+02 -0.65308247159E+01 -0.28561989630E+01  0.50528873959E+02  0.30000042885E+02 0.  0.
         12    1    1    2    0    0  0.40029426507E+02  0.65308247159E+01  0.28561989630E+01  0.40659126041E+02  0.00000000000E+00 0. -1.
         11    1    3    3    0    0 -0.10246582142E+02 -0.10725855416E+02  0.22019643398E+01  0.14996168418E+02  0.51100000000E-03 0. -1.
        -11    1    3    3    0    0 -0.63776287515E+01 -0.52305813306E+01 -0.61322309317E+01  0.10278004963E+02  0.51100000000E-03 0.  1.
         12    1    3    3    0    0 -0.23405215613E+02  0.94256120304E+01  0.10740676289E+01  0.25254700578E+02  0.00000000000E+00 0. -1.
</event>
<event>
 7    1  0.5121289E-013  0.5052886E+02  0.7816164E-02  0.1300439E+00
        -11   -1    0    0    0    0  0.00000000000E+00  0.00000000000E+00  0.45593999997E+02  0.45594000000E+02  0.51100000000E-03 0. -1.
         11   -1    0    0    0    0 -0.00000000000E+00 -0.00000000000E+00 -0.45593999997E+02  0.45594000000E+02  0.51100000000E-03 0.  1.
    9900012    2    1    2    0    0 -0.23996899400E+02 -0.26401748061E+02  0.19500312130E+02  0.50528860133E+02  0.30000000862E+02 0.  0.
         12    1    1    2    0    0  0.23996899400E+02  0.26401748061E+02 -0.19500312130E+02  0.40659139867E+02  0.00000000000E+00 0. -1.
         11    1    3    3    0    0 -0.22188771002E+00 -0.91626439929E+01  0.13974524770E+02  0.16711990363E+02  0.51100000000E-03 0. -1.
        -11    1    3    3    0    0 -0.17912120061E+02 -0.92961985845E+01  0.10514541256E+02  0.22755635155E+02  0.51100000000E-03 0.  1.
         12    1    3    3    0    0 -0.58628916295E+01 -0.79429054836E+01 -0.49887538961E+01  0.11061234615E+02  0.00000000000E+00 0. -1.
</event>
<event>
 7    1  0.5121289E-013  0.5052886E+02  0.7816164E-02  0.1300439E+00
        -11   -1    0    0    0    0  0.00000000000E+00  0.00000000000E+00  0.45593999997E+02  0.45594000000E+02  0.51100000000E-03 0.  1.
         11   -1    0    0    0    0 -0.00000000000E+00 -0.00000000000E+00 -0.45593999997E+02  0.45594000000E+02  0.51100000000E-03 0. -1.
    9900012    2    1    2    0    0 -0.19929196263E+02  0.34422675706E+02 -0.84304174556E+01  0.50528863205E+02  0.30000010198E+02 0.  0.
         12    1    1    2    0    0  0.19929196263E+02 -0.34422675706E+02  0.84304174556E+01  0.40659136795E+02  0.00000000000E+00 0. -1.
         11    1    3    3    0    0 -0.40550097573E+01  0.22352375624E+01 -0.44817433506E+01  0.64440216335E+01  0.51100000000E-03 0. -1.
        -11    1    3    3    0    0 -0.17775497724E+02  0.96360923353E+01  0.29315102903E+01  0.20430769630E+02  0.51100000000E-03 0.  1.
        -12    1    3    3    0    0  0.19013112182E+01  0.22551345808E+02 -0.68801843952E+01  0.23654071941E+02  0.00000000000E+00 0.  1.
</event>
<event>
 7    1  0.5121289E-013  0.5052886E+02  0.7816164E-02  0.1300439E+00
        -11   -1    0    0    0    0  0.00000000000E+00  0.00000000000E+00  0.45593999997E+02  0.45594000000E+02  0.51100000000E-03 0.  1.
         11   -1    0    0    0    0 -0.00000000000E+00 -0.00000000000E+00 -0.45593999997E+02  0.45594000000E+02  0.51100000000E-03 0. -1.
    9900012    2    1    2    0    0 -0.85525829411E+01 -0.34708932573E+02  0.19372892649E+02  0.50528860254E+02  0.30000001227E+02 0.  0.
         12    1    1    2    0    0  0.85525829411E+01  0.34708932573E+02 -0.19372892649E+02  0.40659139746E+02  0.00000000000E+00 0. -1.
         11    1    3    3    0    0 -0.65590008974E+01 -0.84560683752E+01 -0.16590830649E+01  0.10829503313E+02  0.51100000000E-03 0. -1.
        -11    1    3    3    0    0 -0.86136204880E+01 -0.21473909184E+02  0.83127481328E+01  0.24585056749E+02  0.51100000000E-03 0.  1.
        -12    1    3    3    0    0  0.66200384443E+01 -0.47789550139E+01  0.12719227581E+02  0.15114300192E+02  0.00000000000E+00 0.  1.
</event>
<event>
 7    1  0.5121289E-013  0.5052887E+02  0.7816164E-02  0.1300439E+00
        -11   -1    0    0    0    0  0.00000000000E+00  0.00000000000E+00  0.45593999997E+02  0.45594000000E+02  0.51100000000E-03 0.  1.
         11   -1    0    0    0    0 -0.00000000000E+00 -0.00000000000E+00 -0.45593999997E+02  0.45594000000E+02  0.51100000000E-03 0. -1.
    9900012    2    1    2    0    0  0.31000502455E+02  0.22016039513E+02 -0.14402359759E+02  0.50528866771E+02  0.30000021037E+02 0.  0.
         12    1    1    2    0    0 -0.31000502455E+02 -0.22016039513E+02  0.14402359759E+02  0.40659133229E+02  0.00000000000E+00 0. -1.
         11    1    3    3    0    0  0.62873347354E+01  0.11822706714E+02 -0.33815469978E+01  0.13810931630E+02  0.51100000000E-03 0. -1.
        -11    1    3    3    0    0  0.19006106294E+02 -0.40777689296E+01 -0.41226819151E+01  0.19871003557E+02  0.51100000000E-03 0.  1.
         12    1    3    3    0    0  0.57070614253E+01  0.14271101728E+02 -0.68981308463E+01  0.16846931585E+02  0.00000000000E+00 0. -1.
</event>
<event>
 7    1  0.5121289E-013  0.5052886E+02  0.7816164E-02  0.1300439E+00
        -11   -1    0    0    0    0  0.00000000000E+00  0.00000000000E+00  0.45593999997E+02  0.45594000000E+02  0.51100000000E-03 0.  1.
         11   -1    0    0    0    0 -0.00000000000E+00 -0.00000000000E+00 -0.45593999997E+02  0.45594000000E+02  0.51100000000E-03 0. -1.
    9900012    2    1    2    0    0 -0.23885410835E+02 -0.23304180400E+02  0.23228603177E+02  0.50528859817E+02  0.29999999900E+02 0.  0.
         12    1    1    2    0    0  0.23885410835E+02  0.23304180400E+02 -0.23228603177E+02  0.40659140183E+02  0.00000000000E+00 0. -1.
         11    1    3    3    0    0 -0.74169173463E+01 -0.87358284428E+00 -0.30859841891E+01  0.80806626327E+01  0.51100000000E-03 0. -1.
        -11    1    3    3    0    0 -0.12319436386E+02 -0.44027363030E+01  0.44748869824E+01  0.13826684837E+02  0.51100000000E-03 0.  1.
        -12    1    3    3    0    0 -0.41490571028E+01 -0.18027861253E+02  0.21839700383E+02  0.28621512347E+02  0.00000000000E+00 0.  1.
</event>
<event>
 7    1  0.5121289E-013  0.5052887E+02  0.7816164E-02  0.1300439E+00
        -11   -1    0    0    0    0  0.00000000000E+00  0.00000000000E+00  0.45593999997E+02  0.45594000000E+02  0.51100000000E-03 0.  1.
         11   -1    0    0    0    0 -0.00000000000E+00 -0.00000000000E+00 -0.45593999997E+02  0.45594000000E+02  0.51100000000E-03 0. -1.
    9900012    2    1    2    0    0  0.20097547524E+01  0.30989056480E+02  0.26245081949E+02  0.50528867420E+02  0.30000023009E+02 0.  0.
         12    1    1    2    0    0 -0.20097547524E+01 -0.30989056480E+02 -0.26245081949E+02  0.40659132580E+02  0.00000000000E+00 0. -1.
         11    1    3    3    0    0 -0.79053425312E+01  0.83960864129E+00  0.45016143495E+01  0.91358587565E+01  0.51100000000E-03 0. -1.
        -11    1    3    3    0    0  0.16102102893E+01 -0.14730803656E+01  0.10253704221E+00  0.21847784889E+01  0.51100000000E-03 0.  1.
        -12    1    3    3    0    0  0.83048869943E+01  0.31622528204E+02  0.21640930558E+02  0.39208230174E+02  0.00000000000E+00 0.  1.
</event>
<event>
 7    1  0.5121289E-013  0.5052886E+02  0.7816164E-02  0.1300439E+00
        -11   -1    0    0    0    0  0.00000000000E+00  0.00000000000E+00  0.45593999997E+02  0.45594000000E+02  0.51100000000E-03 0.  1.
         11   -1    0    0    0    0 -0.00000000000E+00 -0.00000000000E+00 -0.45593999997E+02  0.45594000000E+02  0.51100000000E-03 0. -1.
    9900012    2    1    2    0    0  0.28300858461E+02  0.12541116455E+01  0.29165971563E+02  0.50528864706E+02  0.30000014761E+02 0.  0.
         12    1    1    2    0    0 -0.28300858461E+02 -0.12541116455E+01 -0.29165971563E+02  0.40659135294E+02  0.00000000000E+00 0. -1.
         11    1    3    3    0    0  0.42741729323E+01 -0.24197357424E+01 -0.12187161946E+01  0.50605281090E+01  0.51100000000E-03 0.  1.
        -11    1    3    3    0    0  0.12069953559E+02 -0.76870488639E+01  0.49263290481E+01  0.15134173823E+02  0.51100000000E-03 0. -1.
        -12    1    3    3    0    0  0.11956731969E+02  0.11360896252E+02  0.25458358709E+02  0.30334162774E+02  0.00000000000E+00 0.  1.
</event>
<event>
 7    1  0.5121289E-013  0.5052890E+02  0.7816164E-02  0.1300439E+00
        -11   -1    0    0    0    0  0.00000000000E+00  0.00000000000E+00  0.45593999997E+02  0.45594000000E+02  0.51100000000E-03 0.  1.
         11   -1    0    0    0    0 -0.00000000000E+00 -0.00000000000E+00 -0.45593999997E+02  0.45594000000E+02  0.51100000000E-03 0. -1.
    9900012    2    1    2    0    0 -0.24833280894E+01  0.33281788132E+02  0.23223217140E+02  0.50528903183E+02  0.30000131714E+02 0.  0.
         12    1    1    2    0    0  0.24833280894E+01 -0.33281788132E+02 -0.23223217140E+02  0.40659096817E+02  0.00000000000E+00 0. -1.
         11    1    3    3    0    0 -0.31470711301E+01  0.85580766881E+00 -0.44859252842E+01  0.55461688922E+01  0.51100000000E-03 0. -1.
        -11    1    3    3    0    0  0.39165825465E+01  0.42401396038E+01  0.70821424015E+00  0.58154939923E+01  0.51100000000E-03 0.  1.
         12    1    3    3    0    0 -0.32528395058E+01  0.28185840859E+02  0.27000928184E+02  0.39167240298E+02  0.00000000000E+00 0. -1.
</event>
<event>
 7    1  0.5121289E-013  0.5052885E+02  0.7816164E-02  0.1300439E+00
        -11   -1    0    0    0    0  0.00000000000E+00  0.00000000000E+00  0.45593999997E+02  0.45594000000E+02  0.51100000000E-03 0. -1.
         11   -1    0    0    0    0 -0.00000000000E+00 -0.00000000000E+00 -0.45593999997E+02  0.45594000000E+02  0.51100000000E-03 0.  1.
    9900012    2    1    2    0    0  0.24536329951E+02 -0.12221093908E+02 -0.30029649258E+02  0.50528850251E+02  0.29999970822E+02 0.  0.
         12    1    1    2    0    0 -0.24536329951E+02  0.12221093908E+02  0.30029649258E+02  0.40659149749E+02  0.00000000000E+00 0. -1.
         11    1    3    3    0    0  0.15029782797E+02 -0.67836556989E+01 -0.87966057940E+01  0.18689372095E+02  0.51100000000E-03 0. -1.
        -11    1    3    3    0    0  0.10043833335E+02 -0.13577329425E+01  0.77300560527E-01  0.10135482349E+02  0.51100000000E-03 0.  1.
        -12    1    3    3    0    0 -0.53728618124E+00 -0.40797052665E+01 -0.21310344025E+02  0.21703995806E+02  0.00000000000E+00 0.  1.
</event>
<event>
 7    1  0.5121289E-013  0.5052886E+02  0.7816164E-02  0.1300439E+00
        -11   -1    0    0    0    0  0.00000000000E+00  0.00000000000E+00  0.45593999997E+02  0.45594000000E+02  0.51100000000E-03 0.  1.
         11   -1    0    0    0    0 -0.00000000000E+00 -0.00000000000E+00 -0.45593999997E+02  0.45594000000E+02  0.51100000000E-03 0. -1.
    9900012    2    1    2    0    0  0.18840996384E+02  0.27259683006E+02  0.23560397042E+02  0.50528858702E+02  0.29999996510E+02 0.  0.
         12    1    1    2    0    0 -0.18840996384E+02 -0.27259683006E+02 -0.23560397042E+02  0.40659141298E+02  0.00000000000E+00 0. -1.
         11    1    3    3    0    0  0.11811921790E+02  0.77438629285E+01  0.69393123817E+01  0.15736675825E+02  0.51100000000E-03 0. -1.
        -11    1    3    3    0    0  0.12235119102E+02  0.18444616303E+02  0.18807240965E+02  0.29045039558E+02  0.51100000000E-03 0.  1.
         12    1    3    3    0    0 -0.52060445073E+01  0.10712037747E+01 -0.21861563040E+01  0.57471433186E+01  0.00000000000E+00 0. -1.
</event>
<event>
 7    1  0.5121289E-013  0.5052886E+02  0.7816164E-02  0.1300439E+00
        -11   -1    0    0    0    0  0.00000000000E+00  0.00000000000E+00  0.45593999997E+02  0.45594000000E+02  0.51100000000E-03 0.  1.
         11   -1    0    0    0    0 -0.00000000000E+00 -0.00000000000E+00 -0.45593999997E+02  0.45594000000E+02  0.51100000000E-03 0. -1.
    9900012    2    1    2    0    0 -0.21691694502E+02  0.14699795677E+02  0.31089420609E+02  0.50528859857E+02  0.30000000023E+02 0.  0.
         12    1    1    2    0    0  0.21691694502E+02 -0.14699795677E+02 -0.31089420609E+02  0.40659140143E+02  0.00000000000E+00 0. -1.
         11    1    3    3    0    0  0.21714354534E+01 -0.14545279872E+01  0.82045582078E+01  0.86107815697E+01  0.51100000000E-03 0. -1.
        -11    1    3    3    0    0 -0.17291974529E+02 -0.39957633782E+00  0.11842724301E+02  0.20962398801E+02  0.51100000000E-03 0.  1.
        -12    1    3    3    0    0 -0.65711554266E+01  0.16553900002E+02  0.11042138100E+02  0.20955679487E+02  0.00000000000E+00 0.  1.
</event>
<event>
 7    1  0.5121289E-013  0.5052890E+02  0.7816164E-02  0.1300439E+00
        -11   -1    0    0    0    0  0.00000000000E+00  0.00000000000E+00  0.45593999997E+02  0.45594000000E+02  0.51100000000E-03 0. -1.
         11   -1    0    0    0    0 -0.00000000000E+00 -0.00000000000E+00 -0.45593999997E+02  0.45594000000E+02  0.51100000000E-03 0.  1.
    9900012    2    1    2    0    0  0.68344398221E+01  0.39812857239E+02 -0.46248309616E+01  0.50528902240E+02  0.30000128849E+02 0.  0.
         12    1    1    2    0    0 -0.68344398221E+01 -0.39812857239E+02  0.46248309616E+01  0.40659097760E+02  0.00000000000E+00 0. -1.
         11    1    3    3    0    0 -0.11831687772E+01 -0.86175086833E+00 -0.32792753795E+00  0.15000132152E+01  0.51100000000E-03 0. -1.
        -11    1    3    3    0    0 -0.19931840491E+01 -0.32287271464E+01 -0.66749320105E+00  0.38526625954E+01  0.51100000000E-03 0.  1.
        -12    1    3    3    0    0  0.10010792648E+02  0.43903335254E+02 -0.36294102226E+01  0.45176226430E+02  0.00000000000E+00 0.  1.
</event>
<event>
 7    1  0.5121289E-013  0.5052885E+02  0.7816164E-02  0.1300439E+00
        -11   -1    0    0    0    0  0.00000000000E+00  0.00000000000E+00  0.45593999997E+02  0.45594000000E+02  0.51100000000E-03 0.  1.
         11   -1    0    0    0    0 -0.00000000000E+00 -0.00000000000E+00 -0.45593999997E+02  0.45594000000E+02  0.51100000000E-03 0. -1.
    9900012    2    1    2    0    0  0.76412622251E+01  0.20784986761E+02  0.34099292925E+02  0.50528851693E+02  0.29999975206E+02 0.  0.
         12    1    1    2    0    0 -0.76412622251E+01 -0.20784986761E+02 -0.34099292925E+02  0.40659148307E+02  0.00000000000E+00 0. -1.
         11    1    3    3    0    0  0.50094795762E+01  0.18328573832E+02  0.84454121341E+01  0.20793183756E+02  0.51100000000E-03 0. -1.
        -11    1    3    3    0    0 -0.12844719485E+01  0.38946800502E+01  0.37869386478E+00  0.41184718264E+01  0.51100000000E-03 0.  1.
        -12    1    3    3    0    0  0.39162545975E+01 -0.14382671221E+01  0.25275186926E+02  0.25617196110E+02  0.00000000000E+00 0.  1.
</event>
<event>
 7    1  0.5121289E-013  0.5052887E+02  0.7816164E-02  0.1300439E+00
        -11   -1    0    0    0    0  0.00000000000E+00  0.00000000000E+00  0.45593999997E+02  0.45594000000E+02  0.51100000000E-03 0. -1.
         11   -1    0    0    0    0 -0.00000000000E+00 -0.00000000000E+00 -0.45593999997E+02  0.45594000000E+02  0.51100000000E-03 0.  1.
    9900012    2    1    2    0    0 -0.88787993156E+01  0.39532804466E+02 -0.33896024048E+01  0.50528866823E+02  0.30000021195E+02 0.  0.
         12    1    1    2    0    0  0.88787993156E+01 -0.39532804466E+02  0.33896024048E+01  0.40659133177E+02  0.00000000000E+00 0. -1.
         11    1    3    3    0    0  0.20230081628E+01  0.96801985605E+01 -0.37332749197E+01  0.10570532062E+02  0.51100000000E-03 0. -1.
        -11    1    3    3    0    0 -0.72153531622E+01  0.28386623904E+02 -0.83043206250E+01  0.30443775706E+02  0.51100000000E-03 0.  1.
        -12    1    3    3    0    0 -0.36864543161E+01  0.14659820018E+01  0.86479931399E+01  0.95145590545E+01  0.00000000000E+00 0.  1.
</event>
<event>
 7    1  0.5121289E-013  0.5052886E+02  0.7816164E-02  0.1300439E+00
        -11   -1    0    0    0    0  0.00000000000E+00  0.00000000000E+00  0.45593999997E+02  0.45594000000E+02  0.51100000000E-03 0.  1.
         11   -1    0    0    0    0 -0.00000000000E+00 -0.00000000000E+00 -0.45593999997E+02  0.45594000000E+02  0.51100000000E-03 0. -1.
    9900012    2    1    2    0    0 -0.28658151113E+02 -0.25803549620E+02 -0.12886138379E+02  0.50528863750E+02  0.30000011856E+02 0.  0.
         12    1    1    2    0    0  0.28658151113E+02  0.25803549620E+02  0.12886138379E+02  0.40659136250E+02  0.00000000000E+00 0. -1.
         11    1    3    3    0    0  0.31056940563E+01  0.19167840872E+01 -0.39626138204E+01  0.53871797222E+01  0.51100000000E-03 0. -1.
        -11    1    3    3    0    0 -0.65613476557E+01 -0.30061317646E+01 -0.65789277521E+01  0.97657770748E+01  0.51100000000E-03 0.  1.
        -12    1    3    3    0    0 -0.25202497514E+02 -0.24714201943E+02 -0.23445968066E+01  0.35375906954E+02  0.00000000000E+00 0.  1.
</event>
<event>
 7    1  0.5121289E-013  0.5052886E+02  0.7816164E-02  0.1300439E+00
        -11   -1    0    0    0    0  0.00000000000E+00  0.00000000000E+00  0.45593999997E+02  0.45594000000E+02  0.51100000000E-03 0.  1.
         11   -1    0    0    0    0 -0.00000000000E+00 -0.00000000000E+00 -0.45593999997E+02  0.45594000000E+02  0.51100000000E-03 0. -1.
    9900012    2    1    2    0    0  0.35334049935E+02  0.64291793938E+01  0.19061382969E+02  0.50528858923E+02  0.29999997181E+02 0.  0.
         12    1    1    2    0    0 -0.35334049935E+02 -0.64291793938E+01 -0.19061382969E+02  0.40659141077E+02  0.00000000000E+00 0. -1.
         11    1    3    3    0    0  0.11913620185E+02 -0.81992864041E+01  0.76476326843E+01  0.16359979504E+02  0.51100000000E-03 0. -1.
        -11    1    3    3    0    0  0.90256948619E+01  0.41650384124E+01 -0.39128913803E+01  0.10682763310E+02  0.51100000000E-03 0.  1.
        -12    1    3    3    0    0  0.14394734888E+02  0.10463427385E+02  0.15326641665E+02  0.23486116109E+02  0.00000000000E+00 0.  1.
</event>
<event>
 7    1  0.5121289E-013  0.5052883E+02  0.7816164E-02  0.1300439E+00
        -11   -1    0    0    0    0  0.00000000000E+00  0.00000000000E+00  0.45593999997E+02  0.45594000000E+02  0.51100000000E-03 0. -1.
         11   -1    0    0    0    0 -0.00000000000E+00 -0.00000000000E+00 -0.45593999997E+02  0.45594000000E+02  0.51100000000E-03 0.  1.
    9900012    2    1    2    0    0  0.40132992942E+02  0.64646817975E+01 -0.84771936370E+00  0.50528832998E+02  0.29999918380E+02 0.  0.
         12    1    1    2    0    0 -0.40132992942E+02 -0.64646817975E+01  0.84771936370E+00  0.40659167002E+02  0.00000000000E+00 0. -1.
         11    1    3    3    0    0  0.83255328078E+01  0.73492959897E+01  0.80645780234E+00  0.11134496959E+02  0.51100000000E-03 0. -1.
        -11    1    3    3    0    0  0.21469688617E+02  0.10006948262E+02 -0.44989815643E+01  0.24110731598E+02  0.51100000000E-03 0.  1.
        -12    1    3    3    0    0  0.10337771517E+02 -0.10891562454E+02  0.28448043982E+01  0.15283604441E+02  0.00000000000E+00 0.  1.
</event>
<event>
 7    1  0.5121289E-013  0.5052886E+02  0.7816164E-02  0.1300439E+00
        -11   -1    0    0    0    0  0.00000000000E+00  0.00000000000E+00  0.45593999997E+02  0.45594000000E+02  0.51100000000E-03 0. -1.
         11   -1    0    0    0    0 -0.00000000000E+00 -0.00000000000E+00 -0.45593999997E+02  0.45594000000E+02  0.51100000000E-03 0.  1.
    9900012    2    1    2    0    0  0.90672577176E+01 -0.22998414386E+02 -0.32280391568E+02  0.50528857036E+02  0.29999991447E+02 0.  0.
         12    1    1    2    0    0 -0.90672577176E+01  0.22998414386E+02  0.32280391568E+02  0.40659142964E+02  0.00000000000E+00 0. -1.
         11    1    3    3    0    0  0.15773643216E+01  0.92021409369E+00 -0.59355830787E+01  0.62101545010E+01  0.51100000000E-03 0. -1.
        -11    1    3    3    0    0 -0.32431611885E+01 -0.10588030916E+01 -0.17082153955E+02  0.17419504657E+02  0.51100000000E-03 0.  1.
        -12    1    3    3    0    0  0.10733054584E+02 -0.22859825388E+02 -0.92626545337E+01  0.26899197878E+02  0.00000000000E+00 0.  1.
</event>
<event>
 7    1  0.5121289E-013  0.5052885E+02  0.7816164E-02  0.1300439E+00
        -11   -1    0    0    0    0  0.00000000000E+00  0.00000000000E+00  0.45593999997E+02  0.45594000000E+02  0.51100000000E-03 0. -1.
         11   -1    0    0    0    0 -0.00000000000E+00 -0.00000000000E+00 -0.45593999997E+02  0.45594000000E+02  0.51100000000E-03 0.  1.
    9900012    2    1    2    0    0 -0.15271250780E+02 -0.34760156463E+02 -0.14549453486E+02  0.50528853741E+02  0.29999981432E+02 0.  0.
         12    1    1    2    0    0  0.15271250780E+02  0.34760156463E+02  0.14549453486E+02  0.40659146259E+02  0.00000000000E+00 0. -1.
         11    1    3    3    0    0  0.57592358773E+01 -0.11803810388E+02 -0.28140372113E+01  0.13431959769E+02  0.51100000000E-03 0. -1.
        -11    1    3    3    0    0  0.47572800684E+00 -0.10145033246E+02 -0.31809656063E+01  0.10642676315E+02  0.51100000000E-03 0.  1.
         12    1    3    3    0    0 -0.21506214664E+02 -0.12811312830E+02 -0.85544506685E+01  0.26454217657E+02  0.00000000000E+00 0. -1.
</event>
<event>
 7    1  0.5121289E-013  0.5052887E+02  0.7816164E-02  0.1300439E+00
        -11   -1    0    0    0    0  0.00000000000E+00  0.00000000000E+00  0.45593999997E+02  0.45594000000E+02  0.51100000000E-03 0.  1.
         11   -1    0    0    0    0 -0.00000000000E+00 -0.00000000000E+00 -0.45593999997E+02  0.45594000000E+02  0.51100000000E-03 0. -1.
    9900012    2    1    2    0    0 -0.37772532098E+02 -0.11723413604E+02  0.94319637699E+01  0.50528873741E+02  0.30000042222E+02 0.  0.
         12    1    1    2    0    0  0.37772532098E+02  0.11723413604E+02 -0.94319637699E+01  0.40659126259E+02  0.00000000000E+00 0. -1.
         11    1    3    3    0    0 -0.47404423895E+00 -0.21563899239E+01 -0.85618166727E-01  0.22095398109E+01  0.51100000000E-03 0. -1.
        -11    1    3    3    0    0 -0.40277607788E+02 -0.13448833363E+02  0.81504289961E+01  0.43238712990E+02  0.51100000000E-03 0.  1.
        -12    1    3    3    0    0  0.29791199296E+01  0.38818096826E+01  0.13671529404E+01  0.50806209394E+01  0.00000000000E+00 0.  1.
</event>
<event>
 7    1  0.5121289E-013  0.5052887E+02  0.7816164E-02  0.1300439E+00
        -11   -1    0    0    0    0  0.00000000000E+00  0.00000000000E+00  0.45593999997E+02  0.45594000000E+02  0.51100000000E-03 0.  1.
         11   -1    0    0    0    0 -0.00000000000E+00 -0.00000000000E+00 -0.45593999997E+02  0.45594000000E+02  0.51100000000E-03 0. -1.
    9900012    2    1    2    0    0 -0.13371388744E+02  0.54631767562E+01  0.38006904932E+02  0.50528866221E+02  0.30000019365E+02 0.  0.
         12    1    1    2    0    0  0.13371388744E+02 -0.54631767562E+01 -0.38006904932E+02  0.40659133779E+02  0.00000000000E+00 0. -1.
         11    1    3    3    0    0  0.30226700495E+01 -0.32380337768E+01 -0.19053601415E+00  0.44337006216E+01  0.51100000000E-03 0. -1.
        -11    1    3    3    0    0 -0.16997958078E+02  0.21532354755E+01  0.34575291816E+02  0.38587793488E+02  0.51100000000E-03 0.  1.
         12    1    3    3    0    0  0.60389928491E+00  0.65479750576E+01  0.36221491294E+01  0.75073721112E+01  0.00000000000E+00 0. -1.
</event>
<event>
 7    1  0.5121289E-013  0.5052886E+02  0.7816164E-02  0.1300439E+00
        -11   -1    0    0    0    0  0.00000000000E+00  0.00000000000E+00  0.45593999997E+02  0.45594000000E+02  0.51100000000E-03 0.  1.
         11   -1    0    0    0    0 -0.00000000000E+00 -0.00000000000E+00 -0.45593999997E+02  0.45594000000E+02  0.51100000000E-03 0. -1.
    9900012    2    1    2    0    0  0.23122306927E+01 -0.29054723460E+01  0.40489228832E+02  0.50528857957E+02  0.29999994245E+02 0.  0.
         12    1    1    2    0    0 -0.23122306927E+01  0.29054723460E+01 -0.40489228832E+02  0.40659142043E+02  0.00000000000E+00 0. -1.
         11    1    3    3    0    0 -0.48923259023E+01  0.44018661791E+01  0.10918414559E+02  0.12748453056E+02  0.51100000000E-03 0. -1.
        -11    1    3    3    0    0  0.65193975805E+01 -0.14018276056E+02  0.14188799135E+02  0.20984199522E+02  0.51100000000E-03 0.  1.
         12    1    3    3    0    0  0.68515901450E+00  0.67109375314E+01  0.15382015138E+02  0.16796205379E+02  0.00000000000E+00 0. -1.
</event>
<event>
 7    1  0.5121289E-013  0.5052886E+02  0.7816164E-02  0.1300439E+00
        -11   -1    0    0    0    0  0.00000000000E+00  0.00000000000E+00  0.45593999997E+02  0.45594000000E+02  0.51100000000E-03 0.  1.
         11   -1    0    0    0    0 -0.00000000000E+00 -0.00000000000E+00 -0.45593999997E+02  0.45594000000E+02  0.51100000000E-03 0. -1.
    9900012    2    1    2    0    0 -0.23955756325E+01 -0.17841974203E+02  0.36456699325E+02  0.50528858939E+02  0.29999997232E+02 0.  0.
         12    1    1    2    0    0  0.23955756325E+01  0.17841974203E+02 -0.36456699325E+02  0.40659141061E+02  0.00000000000E+00 0. -1.
         11    1    3    3    0    0  0.52267980740E+01 -0.36942825515E+01  0.10471730512E+02  0.12272908451E+02  0.51100000000E-03 0.  1.
        -11    1    3    3    0    0  0.12663115651E+00  0.15405799155E+01 -0.35809149283E+01  0.39003043356E+01  0.51100000000E-03 0. -1.
         12    1    3    3    0    0 -0.77490048629E+01 -0.15688271567E+02  0.29565883742E+02  0.34355646153E+02  0.00000000000E+00 0. -1.
</event>
<event>
 7    1  0.5121289E-013  0.5052889E+02  0.7816164E-02  0.1300439E+00
        -11   -1    0    0    0    0  0.00000000000E+00  0.00000000000E+00  0.45593999997E+02  0.45594000000E+02  0.51100000000E-03 0. -1.
         11   -1    0    0    0    0 -0.00000000000E+00 -0.00000000000E+00 -0.45593999997E+02  0.45594000000E+02  0.51100000000E-03 0.  1.
    9900012    2    1    2    0    0  0.43332794176E+01  0.34543817839E+02 -0.21002627287E+02  0.50528892603E+02  0.30000099555E+02 0.  0.
         12    1    1    2    0    0 -0.43332794176E+01 -0.34543817839E+02  0.21002627287E+02  0.40659107397E+02  0.00000000000E+00 0. -1.
         11    1    3    3    0    0 -0.75809937959E+00  0.13349122697E+02  0.48998205690E+01  0.14240155663E+02  0.51100000000E-03 0. -1.
        -11    1    3    3    0    0  0.74223502845E+01  0.58853364536E+01 -0.66140951981E+01  0.11553126177E+02  0.51100000000E-03 0.  1.
        -12    1    3    3    0    0 -0.23309714872E+01  0.15309358688E+02 -0.19288352658E+02  0.24735610762E+02  0.00000000000E+00 0.  1.
</event>
<event>
 7    1  0.5121289E-013  0.5052886E+02  0.7816164E-02  0.1300439E+00
        -11   -1    0    0    0    0  0.00000000000E+00  0.00000000000E+00  0.45593999997E+02  0.45594000000E+02  0.51100000000E-03 0.  1.
         11   -1    0    0    0    0 -0.00000000000E+00 -0.00000000000E+00 -0.45593999997E+02  0.45594000000E+02  0.51100000000E-03 0. -1.
    9900012    2    1    2    0    0 -0.21187092731E+02 -0.12945611382E+02  0.32197571722E+02  0.50528863545E+02  0.30000011233E+02 0.  0.
         12    1    1    2    0    0  0.21187092731E+02  0.12945611382E+02 -0.32197571722E+02  0.40659136455E+02  0.00000000000E+00 0. -1.
         11    1    3    3    0    0 -0.50776439140E+01 -0.62613407053E+01  0.48908891014E+01  0.94290854068E+01  0.51100000000E-03 0. -1.
        -11    1    3    3    0    0 -0.10077634051E+02 -0.14878520461E+02  0.24790134804E+02  0.30618292947E+02  0.51100000000E-03 0.  1.
         12    1    3    3    0    0 -0.60318147663E+01  0.81942497842E+01  0.25165478169E+01  0.10481485191E+02  0.00000000000E+00 0. -1.
</event>
<event>
 7    1  0.5121289E-013  0.5052885E+02  0.7816164E-02  0.1300439E+00
        -11   -1    0    0    0    0  0.00000000000E+00  0.00000000000E+00  0.45593999997E+02  0.45594000000E+02  0.51100000000E-03 0. -1.
         11   -1    0    0    0    0 -0.00000000000E+00 -0.00000000000E+00 -0.45593999997E+02  0.45594000000E+02  0.51100000000E-03 0.  1.
    9900012    2    1    2    0    0  0.90108920012E+01  0.33435545257E+02 -0.21308091707E+02  0.50528848097E+02  0.29999964275E+02 0.  0.
         12    1    1    2    0    0 -0.90108920012E+01 -0.33435545257E+02  0.21308091707E+02  0.40659151903E+02  0.00000000000E+00 0. -1.
         11    1    3    3    0    0  0.10987372495E+02  0.13143279157E+02 -0.19790828614E+02  0.26175275334E+02  0.51100000000E-03 0. -1.
        -11    1    3    3    0    0  0.34798350593E+01  0.11787923269E+02 -0.55352972890E+01  0.13479759025E+02  0.51100000000E-03 0.  1.
         12    1    3    3    0    0 -0.54563155529E+01  0.85043428317E+01  0.40180341961E+01  0.10873813738E+02  0.00000000000E+00 0. -1.
</event>
<event>
 7    1  0.5121289E-013  0.5052886E+02  0.7816164E-02  0.1300439E+00
        -11   -1    0    0    0    0  0.00000000000E+00  0.00000000000E+00  0.45593999997E+02  0.45594000000E+02  0.51100000000E-03 0.  1.
         11   -1    0    0    0    0 -0.00000000000E+00 -0.00000000000E+00 -0.45593999997E+02  0.45594000000E+02  0.51100000000E-03 0. -1.
    9900012    2    1    2    0    0  0.34489551140E+02 -0.16185057911E+02  0.14201415144E+02  0.50528862903E+02  0.30000009279E+02 0.  0.
         12    1    1    2    0    0 -0.34489551140E+02  0.16185057911E+02 -0.14201415144E+02  0.40659137097E+02  0.00000000000E+00 0. -1.
         11    1    3    3    0    0 -0.83670532726E+00 -0.38577161332E+01 -0.16889143774E+01  0.42935395193E+01  0.51100000000E-03 0. -1.
        -11    1    3    3    0    0  0.27080460766E+02 -0.16431443234E+02  0.51585374510E+01  0.32092899385E+02  0.51100000000E-03 0.  1.
        -12    1    3    3    0    0  0.82457957015E+01  0.41041014563E+01  0.10731792070E+02  0.14142423999E+02  0.00000000000E+00 0.  1.
</event>
<event>
 7    1  0.5121289E-013  0.5052886E+02  0.7816164E-02  0.1300439E+00
        -11   -1    0    0    0    0  0.00000000000E+00  0.00000000000E+00  0.45593999997E+02  0.45594000000E+02  0.51100000000E-03 0.  1.
         11   -1    0    0    0    0 -0.00000000000E+00 -0.00000000000E+00 -0.45593999997E+02  0.45594000000E+02  0.51100000000E-03 0. -1.
    9900012    2    1    2    0    0  0.28498486231E+02 -0.19952201320E+02  0.21045461829E+02  0.50528861807E+02  0.30000005948E+02 0.  0.
         12    1    1    2    0    0 -0.28498486231E+02  0.19952201320E+02 -0.21045461829E+02  0.40659138193E+02  0.00000000000E+00 0. -1.
         11    1    3    3    0    0 -0.51946083537E+01 -0.41334186213E+01  0.45297791252E+01  0.80366662636E+01  0.51100000000E-03 0. -1.
        -11    1    3    3    0    0  0.78861987420E-01  0.31570342378E+00 -0.11772572747E+01  0.12214019882E+01  0.51100000000E-03 0.  1.
        -12    1    3    3    0    0  0.33614232598E+02 -0.16134486123E+02  0.17692939979E+02  0.41270793555E+02  0.00000000000E+00 0.  1.
</event>
<event>
 7    1  0.5121289E-013  0.5052886E+02  0.7816164E-02  0.1300439E+00
        -11   -1    0    0    0    0  0.00000000000E+00  0.00000000000E+00  0.45593999997E+02  0.45594000000E+02  0.51100000000E-03 0.  1.
         11   -1    0    0    0    0 -0.00000000000E+00 -0.00000000000E+00 -0.45593999997E+02  0.45594000000E+02  0.51100000000E-03 0. -1.
    9900012    2    1    2    0    0 -0.35226681775E+01  0.19852711926E+02  0.35307593395E+02  0.50528861873E+02  0.30000006148E+02 0.  0.
         12    1    1    2    0    0  0.35226681775E+01 -0.19852711926E+02 -0.35307593395E+02  0.40659138127E+02  0.00000000000E+00 0. -1.
         11    1    3    3    0    0  0.70821247097E+01  0.32194625824E+01 -0.12252974424E+01  0.78754545142E+01  0.51100000000E-03 0. -1.
        -11    1    3    3    0    0 -0.57615584048E+00  0.99381351052E+01  0.16813434058E+02  0.19539448560E+02  0.51100000000E-03 0.  1.
        -12    1    3    3    0    0 -0.10028637047E+02  0.66951142379E+01  0.19719456779E+02  0.23113958799E+02  0.00000000000E+00 0.  1.
</event>
<event>
 7    1  0.5121289E-013  0.5052886E+02  0.7816164E-02  0.1300439E+00
        -11   -1    0    0    0    0  0.00000000000E+00  0.00000000000E+00  0.45593999997E+02  0.45594000000E+02  0.51100000000E-03 0.  1.
         11   -1    0    0    0    0 -0.00000000000E+00 -0.00000000000E+00 -0.45593999997E+02  0.45594000000E+02  0.51100000000E-03 0. -1.
    9900012    2    1    2    0    0  0.27080726469E+02 -0.81526961342E+01  0.29211871130E+02  0.50528860619E+02  0.30000002337E+02 0.  0.
         12    1    1    2    0    0 -0.27080726469E+02  0.81526961342E+01 -0.29211871130E+02  0.40659139381E+02  0.00000000000E+00 0. -1.
         11    1    3    3    0    0  0.18446427014E+02  0.40083933094E+01  0.53577883799E+01  0.19622532535E+02  0.51100000000E-03 0. -1.
        -11    1    3    3    0    0  0.10116383645E+02 -0.58036780905E+01  0.20455360608E+02  0.23546670153E+02  0.51100000000E-03 0.  1.
         12    1    3    3    0    0 -0.14820841906E+01 -0.63574113531E+01  0.33987221421E+01  0.73596579309E+01  0.00000000000E+00 0. -1.
</event>
<event>
 7    1  0.5121289E-013  0.5052884E+02  0.7816164E-02  0.1300439E+00
        -11   -1    0    0    0    0  0.00000000000E+00  0.00000000000E+00  0.45593999997E+02  0.45594000000E+02  0.51100000000E-03 0. -1.
         11   -1    0    0    0    0 -0.00000000000E+00 -0.00000000000E+00 -0.45593999997E+02  0.45594000000E+02  0.51100000000E-03 0.  1.
    9900012    2    1    2    0    0 -0.21812355914E+02  0.33849883268E+02 -0.56190254160E+01  0.50528844642E+02  0.29999953775E+02 0.  0.
         12    1    1    2    0    0  0.21812355914E+02 -0.33849883268E+02  0.56190254160E+01  0.40659155358E+02  0.00000000000E+00 0. -1.
         11    1    3    3    0    0 -0.40845031425E+01 -0.31659628408E+01 -0.48487158769E+00  0.51905286193E+01  0.51100000000E-03 0. -1.
        -11    1    3    3    0    0 -0.18369579517E+02  0.19454424192E+02 -0.70257906654E+01  0.27663654983E+02  0.51100000000E-03 0.  1.
         12    1    3    3    0    0  0.64172674573E+00  0.17561421917E+02  0.18916368372E+01  0.17674661040E+02  0.00000000000E+00 0. -1.
</event>
<event>
 7    1  0.5121289E-013  0.5052886E+02  0.7816164E-02  0.1300439E+00
        -11   -1    0    0    0    0  0.00000000000E+00  0.00000000000E+00  0.45593999997E+02  0.45594000000E+02  0.51100000000E-03 0. -1.
         11   -1    0    0    0    0 -0.00000000000E+00 -0.00000000000E+00 -0.45593999997E+02  0.45594000000E+02  0.51100000000E-03 0.  1.
    9900012    2    1    2    0    0  0.15455185812E+02 -0.25487255249E+02 -0.27653256090E+02  0.50528861778E+02  0.30000005859E+02 0.  0.
         12    1    1    2    0    0 -0.15455185812E+02  0.25487255249E+02  0.27653256090E+02  0.40659138222E+02  0.00000000000E+00 0. -1.
         11    1    3    3    0    0  0.99971739923E+01 -0.17603157365E+02 -0.23095462924E+02  0.30711806280E+02  0.51100000000E-03 0.  1.
        -11    1    3    3    0    0 -0.69014963265E+00  0.55415204990E+00 -0.85822472749E+01  0.86277667770E+01  0.51100000000E-03 0. -1.
         12    1    3    3    0    0  0.61481614527E+01 -0.84382499341E+01  0.40244541089E+01  0.11189288721E+02  0.00000000000E+00 0. -1.
</event>
<event>
 7    1  0.5121289E-013  0.5052887E+02  0.7816164E-02  0.1300439E+00
        -11   -1    0    0    0    0  0.00000000000E+00  0.00000000000E+00  0.45593999997E+02  0.45594000000E+02  0.51100000000E-03 0.  1.
         11   -1    0    0    0    0 -0.00000000000E+00 -0.00000000000E+00 -0.45593999997E+02  0.45594000000E+02  0.51100000000E-03 0. -1.
    9900012    2    1    2    0    0  0.94241685119E+01  0.44531885318E+01  0.39300373355E+02  0.50528865896E+02  0.30000018379E+02 0.  0.
         12    1    1    2    0    0 -0.94241685119E+01 -0.44531885318E+01 -0.39300373355E+02  0.40659134104E+02  0.00000000000E+00 0. -1.
         11    1    3    3    0    0 -0.17647420071E+01  0.30701472148E+01  0.13876712114E+02  0.14321426522E+02  0.51100000000E-03 0. -1.
        -11    1    3    3    0    0 -0.69461448879E+01  0.21409553648E+01  0.10156588950E+02  0.12489552355E+02  0.51100000000E-03 0.  1.
         12    1    3    3    0    0  0.18135055407E+02 -0.75791404784E+00  0.15267072291E+02  0.23717887019E+02  0.00000000000E+00 0. -1.
</event>
<event>
 7    1  0.5121289E-013  0.5052886E+02  0.7816164E-02  0.1300439E+00
        -11   -1    0    0    0    0  0.00000000000E+00  0.00000000000E+00  0.45593999997E+02  0.45594000000E+02  0.51100000000E-03 0.  1.
         11   -1    0    0    0    0 -0.00000000000E+00 -0.00000000000E+00 -0.45593999997E+02  0.45594000000E+02  0.51100000000E-03 0. -1.
    9900012    2    1    2    0    0 -0.40500494121E+02  0.65365373399E-01  0.35876754245E+01  0.50528859433E+02  0.29999998732E+02 0.  0.
         12    1    1    2    0    0  0.40500494121E+02 -0.65365373399E-01 -0.35876754245E+01  0.40659140567E+02  0.00000000000E+00 0. -1.
         11    1    3    3    0    0 -0.87218611084E+01  0.82390592762E+00 -0.68407236591E+01  0.11115088061E+02  0.51100000000E-03 0. -1.
        -11    1    3    3    0    0 -0.20522576369E+02 -0.10005678603E+02  0.28974604978E+01  0.23014886981E+02  0.51100000000E-03 0.  1.
        -12    1    3    3    0    0 -0.11256056644E+02  0.92471380492E+01  0.75309385858E+01  0.16398884391E+02  0.00000000000E+00 0.  1.
</event>
<event>
 7    1  0.5121289E-013  0.5052886E+02  0.7816164E-02  0.1300439E+00
        -11   -1    0    0    0    0  0.00000000000E+00  0.00000000000E+00  0.45593999997E+02  0.45594000000E+02  0.51100000000E-03 0.  1.
         11   -1    0    0    0    0 -0.00000000000E+00 -0.00000000000E+00 -0.45593999997E+02  0.45594000000E+02  0.51100000000E-03 0. -1.
    9900012    2    1    2    0    0 -0.11631667995E+02 -0.19826877929E+01  0.38909367682E+02  0.50528860257E+02  0.30000001238E+02 0.  0.
         12    1    1    2    0    0  0.11631667995E+02  0.19826877929E+01 -0.38909367682E+02  0.40659139743E+02  0.00000000000E+00 0. -1.
         11    1    3    3    0    0  0.18605701776E+01 -0.22683340769E+01 -0.10007673795E+01  0.30997736174E+01  0.51100000000E-03 0. -1.
        -11    1    3    3    0    0 -0.18779804134E+01  0.97516619454E+01  0.21572763468E+02  0.23748807234E+02  0.51100000000E-03 0.  1.
        -12    1    3    3    0    0 -0.11614257759E+02 -0.94660156614E+01  0.18337371594E+02  0.23680279406E+02  0.00000000000E+00 0.  1.
</event>
<event>
 7    1  0.5121289E-013  0.5052884E+02  0.7816164E-02  0.1300439E+00
        -11   -1    0    0    0    0  0.00000000000E+00  0.00000000000E+00  0.45593999997E+02  0.45594000000E+02  0.51100000000E-03 0. -1.
         11   -1    0    0    0    0 -0.00000000000E+00 -0.00000000000E+00 -0.45593999997E+02  0.45594000000E+02  0.51100000000E-03 0.  1.
    9900012    2    1    2    0    0 -0.33924691271E+02  0.12300824191E+02  0.18734247879E+02  0.50528843625E+02  0.29999950681E+02 0.  0.
         12    1    1    2    0    0  0.33924691271E+02 -0.12300824191E+02 -0.18734247879E+02  0.40659156375E+02  0.00000000000E+00 0. -1.
         11    1    3    3    0    0 -0.46269027109E+01 -0.48649865236E+01  0.33239616013E+01  0.74916649390E+01  0.51100000000E-03 0.  1.
        -11    1    3    3    0    0 -0.16800428403E+02  0.72362941075E-01  0.13905952018E+02  0.21809060794E+02  0.51100000000E-03 0. -1.
        -12    1    3    3    0    0 -0.12497360157E+02  0.17093447773E+02  0.15043342593E+01  0.21228117892E+02  0.00000000000E+00 0.  1.
</event>
<event>
 7    1  0.5121289E-013  0.5052888E+02  0.7816164E-02  0.1300439E+00
        -11   -1    0    0    0    0  0.00000000000E+00  0.00000000000E+00  0.45593999997E+02  0.45594000000E+02  0.51100000000E-03 0. -1.
         11   -1    0    0    0    0 -0.00000000000E+00 -0.00000000000E+00 -0.45593999997E+02  0.45594000000E+02  0.51100000000E-03 0.  1.
    9900012    2    1    2    0    0 -0.14668941812E+02 -0.18988518070E+02 -0.32824118225E+02  0.50528875444E+02  0.30000047399E+02 0.  0.
         12    1    1    2    0    0  0.14668941812E+02  0.18988518070E+02  0.32824118225E+02  0.40659124556E+02  0.00000000000E+00 0. -1.
         11    1    3    3    0    0 -0.56402789116E+01 -0.32559675063E+01 -0.13252850055E+02  0.14766587468E+02  0.51100000000E-03 0. -1.
        -11    1    3    3    0    0 -0.94976850625E+01 -0.46039255666E+01 -0.21965144862E+02  0.24369442777E+02  0.51100000000E-03 0.  1.
         12    1    3    3    0    0  0.46902216170E+00 -0.11128624997E+02  0.23938766922E+01  0.11392845199E+02  0.00000000000E+00 0. -1.
</event>
<event>
 7    1  0.5121289E-013  0.5052886E+02  0.7816164E-02  0.1300439E+00
        -11   -1    0    0    0    0  0.00000000000E+00  0.00000000000E+00  0.45593999997E+02  0.45594000000E+02  0.51100000000E-03 0.  1.
         11   -1    0    0    0    0 -0.00000000000E+00 -0.00000000000E+00 -0.45593999997E+02  0.45594000000E+02  0.51100000000E-03 0. -1.
    9900012    2    1    2    0    0  0.14621672220E+02 -0.33186979427E+02  0.18384691726E+02  0.50528858446E+02  0.29999995734E+02 0.  0.
         12    1    1    2    0    0 -0.14621672220E+02  0.33186979427E+02 -0.18384691726E+02  0.40659141554E+02  0.00000000000E+00 0. -1.
         11    1    3    3    0    0  0.47401783638E+01  0.20254989598E+01 -0.27618857354E+01  0.58480723348E+01  0.51100000000E-03 0.  1.
        -11    1    3    3    0    0  0.15315207243E+01  0.88180697858E+00 -0.41543993791E+00  0.18154145200E+01  0.51100000000E-03 0. -1.
        -12    1    3    3    0    0  0.83499731319E+01 -0.36094285366E+02  0.21562017399E+02  0.42865371592E+02  0.00000000000E+00 0.  1.
</event>
<event>
 7    1  0.5121289E-013  0.5052885E+02  0.7816164E-02  0.1300439E+00
        -11   -1    0    0    0    0  0.00000000000E+00  0.00000000000E+00  0.45593999997E+02  0.45594000000E+02  0.51100000000E-03 0.  1.
         11   -1    0    0    0    0 -0.00000000000E+00 -0.00000000000E+00 -0.45593999997E+02  0.45594000000E+02  0.51100000000E-03 0. -1.
    9900012    2    1    2    0    0 -0.24113978084E+02  0.13547459084E+02  0.29801830075E+02  0.50528847740E+02  0.29999963189E+02 0.  0.
         12    1    1    2    0    0  0.24113978084E+02 -0.13547459084E+02 -0.29801830075E+02  0.40659152260E+02  0.00000000000E+00 0. -1.
         11    1    3    3    0    0 -0.43139076102E+01  0.56831571110E+01  0.28425490600E+01  0.76803749281E+01  0.51100000000E-03 0. -1.
        -11    1    3    3    0    0 -0.15214430439E+02  0.30958355029E+01  0.45696950262E+00  0.15532929937E+02  0.51100000000E-03 0.  1.
        -12    1    3    3    0    0 -0.45856400356E+01  0.47684664705E+01  0.26502311513E+02  0.27315542875E+02  0.00000000000E+00 0.  1.
</event>
<event>
 7    1  0.5121289E-013  0.5052890E+02  0.7816164E-02  0.1300439E+00
        -11   -1    0    0    0    0  0.00000000000E+00  0.00000000000E+00  0.45593999997E+02  0.45594000000E+02  0.51100000000E-03 0.  1.
         11   -1    0    0    0    0 -0.00000000000E+00 -0.00000000000E+00 -0.45593999997E+02  0.45594000000E+02  0.51100000000E-03 0. -1.
    9900012    2    1    2    0    0 -0.33763396740E+02  0.14076886090E+02  0.17749264189E+02  0.50528904331E+02  0.30000135203E+02 0.  0.
         12    1    1    2    0    0  0.33763396740E+02 -0.14076886090E+02 -0.17749264189E+02  0.40659095669E+02  0.00000000000E+00 0. -1.
         11    1    3    3    0    0 -0.33810732419E+01  0.25809695611E+01 -0.24549024809E+01  0.49111716112E+01  0.51100000000E-03 0. -1.
        -11    1    3    3    0    0 -0.12651079855E+01  0.11337319218E+02  0.29931264704E+01  0.11793816668E+02  0.51100000000E-03 0.  1.
        -12    1    3    3    0    0 -0.29117215512E+02  0.15859731064E+00  0.17211040200E+02  0.33823916051E+02  0.00000000000E+00 0.  1.
</event>
<event>
 7    1  0.5121289E-013  0.5052886E+02  0.7816164E-02  0.1300439E+00
        -11   -1    0    0    0    0  0.00000000000E+00  0.00000000000E+00  0.45593999997E+02  0.45594000000E+02  0.51100000000E-03 0.  1.
         11   -1    0    0    0    0 -0.00000000000E+00 -0.00000000000E+00 -0.45593999997E+02  0.45594000000E+02  0.51100000000E-03 0. -1.
    9900012    2    1    2    0    0 -0.31194810127E+02  0.82600104287E+01  0.24735029492E+02  0.50528860374E+02  0.30000001594E+02 0.  0.
         12    1    1    2    0    0  0.31194810127E+02 -0.82600104287E+01 -0.24735029492E+02  0.40659139626E+02  0.00000000000E+00 0. -1.
         11    1    3    3    0    0 -0.18505750335E+01  0.35471789631E+01  0.43756897747E+01  0.59290612930E+01  0.51100000000E-03 0. -1.
        -11    1    3    3    0    0 -0.92088037367E+01  0.12690156657E+02  0.16201528629E+02  0.22546211931E+02  0.51100000000E-03 0.  1.
        -12    1    3    3    0    0 -0.20135431357E+02 -0.79773251918E+01  0.41578110875E+01  0.22053587150E+02  0.00000000000E+00 0.  1.
</event>
<event>
 7    1  0.5121289E-013  0.5052886E+02  0.7816164E-02  0.1300439E+00
        -11   -1    0    0    0    0  0.00000000000E+00  0.00000000000E+00  0.45593999997E+02  0.45594000000E+02  0.51100000000E-03 0. -1.
         11   -1    0    0    0    0 -0.00000000000E+00 -0.00000000000E+00 -0.45593999997E+02  0.45594000000E+02  0.51100000000E-03 0.  1.
    9900012    2    1    2    0    0 -0.29660400967E+02  0.16339845284E+00 -0.27810060044E+02  0.50528861738E+02  0.30000005739E+02 0.  0.
         12    1    1    2    0    0  0.29660400967E+02 -0.16339845284E+00  0.27810060044E+02  0.40659138262E+02  0.00000000000E+00 0. -1.
         11    1    3    3    0    0 -0.74368880434E+01  0.97372782246E+00  0.29757752352E+01  0.80691194163E+01  0.51100000000E-03 0. -1.
        -11    1    3    3    0    0  0.22989185043E+01 -0.16686822873E+01  0.30003032198E+00  0.28564917855E+01  0.51100000000E-03 0.  1.
        -12    1    3    3    0    0 -0.24522431428E+02  0.85835291768E+00 -0.31085865601E+02  0.39603250536E+02  0.00000000000E+00 0.  1.
</event>
<event>
 7    1  0.5121289E-013  0.5052884E+02  0.7816164E-02  0.1300439E+00
        -11   -1    0    0    0    0  0.00000000000E+00  0.00000000000E+00  0.45593999997E+02  0.45594000000E+02  0.51100000000E-03 0. -1.
         11   -1    0    0    0    0 -0.00000000000E+00 -0.00000000000E+00 -0.45593999997E+02  0.45594000000E+02  0.51100000000E-03 0.  1.
    9900012    2    1    2    0    0 -0.16973703516E+02 -0.33238550011E+02  0.16132559360E+02  0.50528840031E+02  0.29999939758E+02 0.  0.
         12    1    1    2    0    0  0.16973703516E+02  0.33238550011E+02 -0.16132559360E+02  0.40659159969E+02  0.00000000000E+00 0. -1.
         11    1    3    3    0    0 -0.65135808576E+01 -0.50154642842E+01  0.14902697965E+02  0.17019753949E+02  0.51100000000E-03 0. -1.
        -11    1    3    3    0    0  0.26445596304E+00  0.16260638871E+01 -0.56342597551E+00  0.17411116600E+01  0.51100000000E-03 0.  1.
        -12    1    3    3    0    0 -0.10724578622E+02 -0.29849149614E+02  0.17932873701E+01  0.31767974422E+02  0.00000000000E+00 0.  1.
</event>
<event>
 7    1  0.5121289E-013  0.5052886E+02  0.7816164E-02  0.1300439E+00
        -11   -1    0    0    0    0  0.00000000000E+00  0.00000000000E+00  0.45593999997E+02  0.45594000000E+02  0.51100000000E-03 0. -1.
         11   -1    0    0    0    0 -0.00000000000E+00 -0.00000000000E+00 -0.45593999997E+02  0.45594000000E+02  0.51100000000E-03 0.  1.
    9900012    2    1    2    0    0 -0.27900225462E+02  0.28774895474E+02 -0.68372907609E+01  0.50528859142E+02  0.29999997849E+02 0.  0.
         12    1    1    2    0    0  0.27900225462E+02 -0.28774895474E+02  0.68372907609E+01  0.40659140858E+02  0.00000000000E+00 0. -1.
         11    1    3    3    0    0 -0.10388073579E+02  0.11896017410E+02 -0.58627779427E+01  0.16846348814E+02  0.51100000000E-03 0. -1.
        -11    1    3    3    0    0 -0.63325229852E+01 -0.32754298810E+01 -0.68617800159E+01  0.98951156391E+01  0.51100000000E-03 0.  1.
         12    1    3    3    0    0 -0.11179628897E+02  0.20154307945E+02  0.58872671978E+01  0.23787394689E+02  0.00000000000E+00 0. -1.
</event>
<event>
 7    1  0.5121289E-013  0.5052886E+02  0.7816164E-02  0.1300439E+00
        -11   -1    0    0    0    0  0.00000000000E+00  0.00000000000E+00  0.45593999997E+02  0.45594000000E+02  0.51100000000E-03 0.  1.
         11   -1    0    0    0    0 -0.00000000000E+00 -0.00000000000E+00 -0.45593999997E+02  0.45594000000E+02  0.51100000000E-03 0. -1.
    9900012    2    1    2    0    0 -0.13193803012E+02  0.37680943129E+02 -0.76964939210E+01  0.50528856727E+02  0.29999990507E+02 0.  0.
         12    1    1    2    0    0  0.13193803012E+02 -0.37680943129E+02  0.76964939210E+01  0.40659143273E+02  0.00000000000E+00 0. -1.
         11    1    3    3    0    0 -0.23965536537E+01  0.12172968973E+01 -0.94653025620E+00  0.28497720853E+01  0.51100000000E-03 0. -1.
        -11    1    3    3    0    0 -0.12035428074E+02  0.30498585587E+01 -0.69763835525E+01  0.14241597308E+02  0.51100000000E-03 0.  1.
         12    1    3    3    0    0  0.12381787157E+01  0.33413787673E+02  0.22641988767E+00  0.33437487333E+02  0.00000000000E+00 0. -1.
</event>
<event>
 7    1  0.5121289E-013  0.5052889E+02  0.7816164E-02  0.1300439E+00
        -11   -1    0    0    0    0  0.00000000000E+00  0.00000000000E+00  0.45593999997E+02  0.45594000000E+02  0.51100000000E-03 0.  1.
         11   -1    0    0    0    0 -0.00000000000E+00 -0.00000000000E+00 -0.45593999997E+02  0.45594000000E+02  0.51100000000E-03 0. -1.
    9900012    2    1    2    0    0 -0.38642529583E+02  0.12142254051E+02 -0.35332433252E+01  0.50528889896E+02  0.30000091328E+02 0.  0.
         12    1    1    2    0    0  0.38642529583E+02 -0.12142254051E+02  0.35332433252E+01  0.40659110104E+02  0.00000000000E+00 0. -1.
         11    1    3    3    0    0 -0.53313369555E+01 -0.72337840954E+00 -0.63257129871E+01  0.83042805296E+01  0.51100000000E-03 0. -1.
        -11    1    3    3    0    0 -0.60432047477E+01 -0.41784945092E+01 -0.53073999026E+01  0.90635883608E+01  0.51100000000E-03 0.  1.
        -12    1    3    3    0    0 -0.27267987880E+02  0.17044126969E+02  0.80998695646E+01  0.33161021006E+02  0.00000000000E+00 0.  1.
</event>
<event>
 7    1  0.5121289E-013  0.5052886E+02  0.7816164E-02  0.1300439E+00
        -11   -1    0    0    0    0  0.00000000000E+00  0.00000000000E+00  0.45593999997E+02  0.45594000000E+02  0.51100000000E-03 0.  1.
         11   -1    0    0    0    0 -0.00000000000E+00 -0.00000000000E+00 -0.45593999997E+02  0.45594000000E+02  0.51100000000E-03 0. -1.
    9900012    2    1    2    0    0  0.15063062359E+02 -0.27573092479E+02  0.25806874244E+02  0.50528855460E+02  0.29999986655E+02 0.  0.
         12    1    1    2    0    0 -0.15063062359E+02  0.27573092479E+02 -0.25806874244E+02  0.40659144540E+02  0.00000000000E+00 0. -1.
         11    1    3    3    0    0  0.33779997411E+01 -0.65487866097E+01  0.15057721633E+02  0.16764023066E+02  0.51100000000E-03 0. -1.
        -11    1    3    3    0    0  0.90349072107E+00 -0.95852809881E+01  0.14685622574E+02  0.17560222600E+02  0.51100000000E-03 0.  1.
         12    1    3    3    0    0  0.10781571897E+02 -0.11439024881E+02 -0.39364699632E+01  0.16204609794E+02  0.00000000000E+00 0. -1.
</event>
<event>
 7    1  0.5121289E-013  0.5052889E+02  0.7816164E-02  0.1300439E+00
        -11   -1    0    0    0    0  0.00000000000E+00  0.00000000000E+00  0.45593999997E+02  0.45594000000E+02  0.51100000000E-03 0.  1.
         11   -1    0    0    0    0 -0.00000000000E+00 -0.00000000000E+00 -0.45593999997E+02  0.45594000000E+02  0.51100000000E-03 0. -1.
    9900012    2    1    2    0    0 -0.24456871589E+02  0.19722135195E+02  0.25808170055E+02  0.50528894917E+02  0.30000106590E+02 0.  0.
         12    1    1    2    0    0  0.24456871589E+02 -0.19722135195E+02 -0.25808170055E+02  0.40659105083E+02  0.00000000000E+00 0. -1.
         11    1    3    3    0    0 -0.41405827809E+01  0.35622561734E+01 -0.34248116439E+01  0.64469705961E+01  0.51100000000E-03 0. -1.
        -11    1    3    3    0    0 -0.24243426302E+02  0.13282989408E+02  0.21840548844E+02  0.35230542154E+02  0.51100000000E-03 0.  1.
         12    1    3    3    0    0  0.39271374939E+01  0.28768896144E+01  0.73924328547E+01  0.88513821667E+01  0.00000000000E+00 0. -1.
</event>
<event>
 7    1  0.5121289E-013  0.5052886E+02  0.7816164E-02  0.1300439E+00
        -11   -1    0    0    0    0  0.00000000000E+00  0.00000000000E+00  0.45593999997E+02  0.45594000000E+02  0.51100000000E-03 0.  1.
         11   -1    0    0    0    0 -0.00000000000E+00 -0.00000000000E+00 -0.45593999997E+02  0.45594000000E+02  0.51100000000E-03 0. -1.
    9900012    2    1    2    0    0  0.77301591740E+01  0.34326934362E+02  0.20373307659E+02  0.50528862669E+02  0.30000008570E+02 0.  0.
         12    1    1    2    0    0 -0.77301591740E+01 -0.34326934362E+02 -0.20373307659E+02  0.40659137331E+02  0.00000000000E+00 0. -1.
         11    1    3    3    0    0  0.12978829050E+02  0.13507787455E+02  0.12039367816E+02  0.22267840109E+02  0.51100000000E-03 0. -1.
        -11    1    3    3    0    0 -0.55154448565E+01  0.36739457060E+01  0.89096937734E+01  0.11104082691E+02  0.51100000000E-03 0.  1.
         12    1    3    3    0    0  0.26677498017E+00  0.17145201200E+02 -0.57575393046E+00  0.17156939869E+02  0.00000000000E+00 0. -1.
</event>
<event>
 7    1  0.5121289E-013  0.5052887E+02  0.7816164E-02  0.1300439E+00
        -11   -1    0    0    0    0  0.00000000000E+00  0.00000000000E+00  0.45593999997E+02  0.45594000000E+02  0.51100000000E-03 0. -1.
         11   -1    0    0    0    0 -0.00000000000E+00 -0.00000000000E+00 -0.45593999997E+02  0.45594000000E+02  0.51100000000E-03 0.  1.
    9900012    2    1    2    0    0 -0.24964187814E+02  0.10550079223E+02 -0.30309241136E+02  0.50528868884E+02  0.30000027461E+02 0.  0.
         12    1    1    2    0    0  0.24964187814E+02 -0.10550079223E+02  0.30309241136E+02  0.40659131116E+02  0.00000000000E+00 0. -1.
         11    1    3    3    0    0  0.11921335967E+01 -0.27440323693E+01  0.13058225153E+00  0.29946532590E+01  0.51100000000E-03 0. -1.
        -11    1    3    3    0    0 -0.44879591293E+01 -0.45969664689E+01 -0.12894938081E+02  0.14406710459E+02  0.51100000000E-03 0.  1.
        -12    1    3    3    0    0 -0.21668362282E+02  0.17891078061E+02 -0.17544885307E+02  0.33127505167E+02  0.00000000000E+00 0.  1.
</event>
<event>
 7    1  0.5121289E-013  0.5052886E+02  0.7816164E-02  0.1300439E+00
        -11   -1    0    0    0    0  0.00000000000E+00  0.00000000000E+00  0.45593999997E+02  0.45594000000E+02  0.51100000000E-03 0. -1.
         11   -1    0    0    0    0 -0.00000000000E+00 -0.00000000000E+00 -0.45593999997E+02  0.45594000000E+02  0.51100000000E-03 0.  1.
    9900012    2    1    2    0    0 -0.20312020551E+02 -0.15500446827E+02  0.31627899036E+02  0.50528855541E+02  0.29999986903E+02 0.  0.
         12    1    1    2    0    0  0.20312020551E+02  0.15500446827E+02 -0.31627899036E+02  0.40659144459E+02  0.00000000000E+00 0. -1.
         11    1    3    3    0    0 -0.19171213655E+01 -0.15900895267E+01  0.58055629547E+01  0.63173016799E+01  0.51100000000E-03 0. -1.
        -11    1    3    3    0    0 -0.25681624648E+02 -0.10523485970E+02  0.18626224153E+02  0.33424928242E+02  0.51100000000E-03 0.  1.
         12    1    3    3    0    0  0.72867254625E+01 -0.33868713295E+01  0.71961119281E+01  0.10786625619E+02  0.00000000000E+00 0. -1.
</event>
<event>
 7    1  0.5121289E-013  0.5052886E+02  0.7816164E-02  0.1300439E+00
        -11   -1    0    0    0    0  0.00000000000E+00  0.00000000000E+00  0.45593999997E+02  0.45594000000E+02  0.51100000000E-03 0.  1.
         11   -1    0    0    0    0 -0.00000000000E+00 -0.00000000000E+00 -0.45593999997E+02  0.45594000000E+02  0.51100000000E-03 0. -1.
    9900012    2    1    2    0    0 -0.50464755743E+01  0.34628068524E+02  0.20702543930E+02  0.50528863627E+02  0.30000011480E+02 0.  0.
         12    1    1    2    0    0  0.50464755743E+01 -0.34628068524E+02 -0.20702543930E+02  0.40659136373E+02  0.00000000000E+00 0. -1.
         11    1    3    3    0    0 -0.48626311016E+01  0.65082448119E+01  0.11695862709E+01  0.82079451794E+01  0.51100000000E-03 0.  1.
        -11    1    3    3    0    0 -0.10224176279E+02  0.50373236256E+01  0.18209816671E+01  0.11542286792E+02  0.51100000000E-03 0. -1.
        -12    1    3    3    0    0  0.10040331806E+02  0.23082500087E+02  0.17711975992E+02  0.30778631655E+02  0.00000000000E+00 0.  1.
</event>
<event>
 7    1  0.5121289E-013  0.5052885E+02  0.7816164E-02  0.1300439E+00
        -11   -1    0    0    0    0  0.00000000000E+00  0.00000000000E+00  0.45593999997E+02  0.45594000000E+02  0.51100000000E-03 0. -1.
         11   -1    0    0    0    0 -0.00000000000E+00 -0.00000000000E+00 -0.45593999997E+02  0.45594000000E+02  0.51100000000E-03 0.  1.
    9900012    2    1    2    0    0  0.33692316663E+02  0.20405527936E+02 -0.10080100578E+02  0.50528853426E+02  0.29999980473E+02 0.  0.
         12    1    1    2    0    0 -0.33692316663E+02 -0.20405527936E+02  0.10080100578E+02  0.40659146574E+02  0.00000000000E+00 0. -1.
         11    1    3    3    0    0  0.11108743099E+01  0.46059310687E+01 -0.33013998175E+01  0.57747626582E+01  0.51100000000E-03 0. -1.
        -11    1    3    3    0    0  0.19889530342E+02  0.21428303579E+02 -0.92227500377E+01  0.30656560962E+02  0.51100000000E-03 0.  1.
         12    1    3    3    0    0  0.12691912012E+02 -0.56287067120E+01  0.24440492771E+01  0.14097529806E+02  0.00000000000E+00 0. -1.
</event>
<event>
 7    1  0.5121289E-013  0.5052886E+02  0.7816164E-02  0.1300439E+00
        -11   -1    0    0    0    0  0.00000000000E+00  0.00000000000E+00  0.45593999997E+02  0.45594000000E+02  0.51100000000E-03 0.  1.
         11   -1    0    0    0    0 -0.00000000000E+00 -0.00000000000E+00 -0.45593999997E+02  0.45594000000E+02  0.51100000000E-03 0. -1.
    9900012    2    1    2    0    0 -0.33262467687E+01 -0.19063517414E+02  0.35758689694E+02  0.50528862006E+02  0.30000006554E+02 0.  0.
         12    1    1    2    0    0  0.33262467687E+01  0.19063517414E+02 -0.35758689694E+02  0.40659137994E+02  0.00000000000E+00 0. -1.
         11    1    3    3    0    0 -0.48019261182E+01 -0.16597586849E+02  0.13942960555E+02  0.22202354221E+02  0.51100000000E-03 0. -1.
        -11    1    3    3    0    0  0.47208100538E+01 -0.92256916922E+01  0.10508906625E+02  0.14759287025E+02  0.51100000000E-03 0.  1.
        -12    1    3    3    0    0 -0.32451307042E+01  0.67597611274E+01  0.11306822514E+02  0.13567220760E+02  0.00000000000E+00 0.  1.
</event>
<event>
 7    1  0.5121289E-013  0.5052887E+02  0.7816164E-02  0.1300439E+00
        -11   -1    0    0    0    0  0.00000000000E+00  0.00000000000E+00  0.45593999997E+02  0.45594000000E+02  0.51100000000E-03 0.  1.
         11   -1    0    0    0    0 -0.00000000000E+00 -0.00000000000E+00 -0.45593999997E+02  0.45594000000E+02  0.51100000000E-03 0. -1.
    9900012    2    1    2    0    0  0.56882491522E+01 -0.70879134728E+01  0.39630420079E+02  0.50528869520E+02  0.30000029392E+02 0.  0.
         12    1    1    2    0    0 -0.56882491522E+01  0.70879134728E+01 -0.39630420079E+02  0.40659130480E+02  0.00000000000E+00 0. -1.
         11    1    3    3    0    0  0.14435326278E+01  0.37851825559E+01 -0.12005554981E+01  0.42252487730E+01  0.51100000000E-03 0. -1.
        -11    1    3    3    0    0 -0.46925540529E+01 -0.36876442326E+01  0.28207022319E+01  0.66011472388E+01  0.51100000000E-03 0.  1.
        -12    1    3    3    0    0  0.89372705773E+01 -0.71854517960E+01  0.38010273345E+02  0.39702473508E+02  0.00000000000E+00 0.  1.
</event>
<event>
 7    1  0.5121289E-013  0.5052886E+02  0.7816164E-02  0.1300439E+00
        -11   -1    0    0    0    0  0.00000000000E+00  0.00000000000E+00  0.45593999997E+02  0.45594000000E+02  0.51100000000E-03 0. -1.
         11   -1    0    0    0    0 -0.00000000000E+00 -0.00000000000E+00 -0.45593999997E+02  0.45594000000E+02  0.51100000000E-03 0.  1.
    9900012    2    1    2    0    0 -0.27529257909E+02 -0.20640136845E+02 -0.21663111309E+02  0.50528859803E+02  0.29999999856E+02 0.  0.
         12    1    1    2    0    0  0.27529257909E+02  0.20640136845E+02  0.21663111309E+02  0.40659140197E+02  0.00000000000E+00 0. -1.
         11    1    3    3    0    0 -0.71134011520E+00 -0.12358380199E+02 -0.17261391264E+01  0.12498604820E+02  0.51100000000E-03 0. -1.
        -11    1    3    3    0    0 -0.90001344646E+01 -0.11133080503E+02 -0.95632227514E+01  0.17216362320E+02  0.51100000000E-03 0.  1.
        -12    1    3    3    0    0 -0.17817783329E+02  0.28513238574E+01 -0.10373749431E+02  0.20813892663E+02  0.00000000000E+00 0.  1.
</event>
<event>
 7    1  0.5121289E-013  0.5052886E+02  0.7816164E-02  0.1300439E+00
        -11   -1    0    0    0    0  0.00000000000E+00  0.00000000000E+00  0.45593999997E+02  0.45594000000E+02  0.51100000000E-03 0. -1.
         11   -1    0    0    0    0 -0.00000000000E+00 -0.00000000000E+00 -0.45593999997E+02  0.45594000000E+02  0.51100000000E-03 0.  1.
    9900012    2    1    2    0    0  0.27898332843E+02  0.29274270283E+02 -0.42268214216E+01  0.50528857174E+02  0.29999991867E+02 0.  0.
         12    1    1    2    0    0 -0.27898332843E+02 -0.29274270283E+02  0.42268214216E+01  0.40659142826E+02  0.00000000000E+00 0. -1.
         11    1    3    3    0    0 -0.21433672424E+01  0.28873569743E+00 -0.19720613644E+01  0.29268443288E+01  0.51100000000E-03 0. -1.
        -11    1    3    3    0    0  0.11505768255E+01  0.14065475463E+02 -0.49954100985E+01  0.14970489282E+02  0.51100000000E-03 0.  1.
        -12    1    3    3    0    0  0.28891123260E+02  0.14920059122E+02  0.27406500413E+01  0.32631523563E+02  0.00000000000E+00 0.  1.
</event>
<event>
 7    1  0.5121289E-013  0.5052886E+02  0.7816164E-02  0.1300439E+00
        -11   -1    0    0    0    0  0.00000000000E+00  0.00000000000E+00  0.45593999997E+02  0.45594000000E+02  0.51100000000E-03 0. -1.
         11   -1    0    0    0    0 -0.00000000000E+00 -0.00000000000E+00 -0.45593999997E+02  0.45594000000E+02  0.51100000000E-03 0.  1.
    9900012    2    1    2    0    0 -0.35557271910E+02 -0.19313595342E+02 -0.39788351880E+01  0.50528859820E+02  0.29999999908E+02 0.  0.
         12    1    1    2    0    0  0.35557271910E+02  0.19313595342E+02  0.39788351880E+01  0.40659140180E+02  0.00000000000E+00 0. -1.
         11    1    3    3    0    0 -0.14896861866E+02 -0.16549035941E+02 -0.21712070944E+01  0.22371884689E+02  0.51100000000E-03 0. -1.
        -11    1    3    3    0    0 -0.10419923056E+01 -0.15894326557E+01 -0.74667766198E+01  0.77048554485E+01  0.51100000000E-03 0.  1.
        -12    1    3    3    0    0 -0.19618417739E+02 -0.11751267453E+01  0.56591485261E+01  0.20452119682E+02  0.00000000000E+00 0.  1.
</event>
<event>
 7    1  0.5121289E-013  0.5052886E+02  0.7816164E-02  0.1300439E+00
        -11   -1    0    0    0    0  0.00000000000E+00  0.00000000000E+00  0.45593999997E+02  0.45594000000E+02  0.51100000000E-03 0. -1.
         11   -1    0    0    0    0 -0.00000000000E+00 -0.00000000000E+00 -0.45593999997E+02  0.45594000000E+02  0.51100000000E-03 0.  1.
    9900012    2    1    2    0    0 -0.43053559014E+01 -0.40230681261E+02 -0.40151932052E+01  0.50528861044E+02  0.30000003630E+02 0.  0.
         12    1    1    2    0    0  0.43053559014E+01  0.40230681261E+02  0.40151932052E+01  0.40659138956E+02  0.00000000000E+00 0. -1.
         11    1    3    3    0    0 -0.68706478664E+01 -0.12587229763E+02  0.32079883949E+01  0.14694738685E+02  0.51100000000E-03 0. -1.
        -11    1    3    3    0    0  0.41193310054E+00 -0.28031999336E+02 -0.12064922956E+02  0.30520895168E+02  0.51100000000E-03 0.  1.
         12    1    3    3    0    0  0.21533588645E+01  0.38854783873E+00  0.48417413561E+01  0.53132271908E+01  0.00000000000E+00 0. -1.
</event>
<event>
 7    1  0.5121289E-013  0.5052889E+02  0.7816164E-02  0.1300439E+00
        -11   -1    0    0    0    0  0.00000000000E+00  0.00000000000E+00  0.45593999997E+02  0.45594000000E+02  0.51100000000E-03 0.  1.
         11   -1    0    0    0    0 -0.00000000000E+00 -0.00000000000E+00 -0.45593999997E+02  0.45594000000E+02  0.51100000000E-03 0. -1.
    9900012    2    1    2    0    0  0.35712508141E+02  0.16452843971E+02  0.10348121520E+02  0.50528893622E+02  0.30000102653E+02 0.  0.
         12    1    1    2    0    0 -0.35712508141E+02 -0.16452843971E+02 -0.10348121520E+02  0.40659106378E+02  0.00000000000E+00 0. -1.
         11    1    3    3    0    0 -0.24880710883E+00 -0.81229887976E+00 -0.17649684803E+01  0.19587874936E+01  0.51100000000E-03 0. -1.
        -11    1    3    3    0    0 -0.43475681356E+00 -0.41800813876E+01  0.34717255223E+01  0.54511441236E+01  0.51100000000E-03 0.  1.
        -12    1    3    3    0    0  0.36396072063E+02  0.21445224239E+02  0.86413644783E+01  0.43118962005E+02  0.00000000000E+00 0.  1.
</event>
<event>
 7    1  0.5121289E-013  0.5052886E+02  0.7816164E-02  0.1300439E+00
        -11   -1    0    0    0    0  0.00000000000E+00  0.00000000000E+00  0.45593999997E+02  0.45594000000E+02  0.51100000000E-03 0.  1.
         11   -1    0    0    0    0 -0.00000000000E+00 -0.00000000000E+00 -0.45593999997E+02  0.45594000000E+02  0.51100000000E-03 0. -1.
    9900012    2    1    2    0    0  0.75518387904E+01 -0.33369215181E+02  0.21968861719E+02  0.50528859870E+02  0.30000000061E+02 0.  0.
         12    1    1    2    0    0 -0.75518387904E+01  0.33369215181E+02 -0.21968861719E+02  0.40659140130E+02  0.00000000000E+00 0. -1.
         11    1    3    3    0    0  0.66540017829E+01 -0.19634117804E+02  0.11952827581E+02  0.23929989743E+02  0.51100000000E-03 0. -1.
        -11    1    3    3    0    0  0.24419865737E+01 -0.14705840566E+02  0.15087221538E+02  0.21209651086E+02  0.51100000000E-03 0.  1.
         12    1    3    3    0    0 -0.15441495663E+01  0.97074318927E+00 -0.50711874003E+01  0.53892190410E+01  0.00000000000E+00 0. -1.
</event>
<event>
 7    1  0.5121289E-013  0.5052886E+02  0.7816164E-02  0.1300439E+00
        -11   -1    0    0    0    0  0.00000000000E+00  0.00000000000E+00  0.45593999997E+02  0.45594000000E+02  0.51100000000E-03 0.  1.
         11   -1    0    0    0    0 -0.00000000000E+00 -0.00000000000E+00 -0.45593999997E+02  0.45594000000E+02  0.51100000000E-03 0. -1.
    9900012    2    1    2    0    0  0.54934960405E+00 -0.26522839786E+02  0.30812385825E+02  0.50528856680E+02  0.29999990365E+02 0.  0.
         12    1    1    2    0    0 -0.54934960405E+00  0.26522839786E+02 -0.30812385825E+02  0.40659143320E+02  0.00000000000E+00 0. -1.
         11    1    3    3    0    0  0.13628797060E+01 -0.21001290732E+01 -0.12787065946E+01  0.28112406573E+01  0.51100000000E-03 0.  1.
        -11    1    3    3    0    0 -0.67348683126E+00 -0.45034024435E+01 -0.42797987440E+01  0.62490715815E+01  0.51100000000E-03 0. -1.
        -12    1    3    3    0    0 -0.14004327068E+00 -0.19919308269E+02  0.36370891164E+02  0.41468544441E+02  0.00000000000E+00 0.  1.
</event>
<event>
 7    1  0.5121289E-013  0.5052885E+02  0.7816164E-02  0.1300439E+00
        -11   -1    0    0    0    0  0.00000000000E+00  0.00000000000E+00  0.45593999997E+02  0.45594000000E+02  0.51100000000E-03 0.  1.
         11   -1    0    0    0    0 -0.00000000000E+00 -0.00000000000E+00 -0.45593999997E+02  0.45594000000E+02  0.51100000000E-03 0. -1.
    9900012    2    1    2    0    0 -0.34980466962E+02 -0.81291934013E+01 -0.19064346730E+02  0.50528853790E+02  0.29999981580E+02 0.  0.
         12    1    1    2    0    0  0.34980466962E+02  0.81291934013E+01  0.19064346730E+02  0.40659146210E+02  0.00000000000E+00 0. -1.
         11    1    3    3    0    0 -0.12325511819E+01 -0.56705068138E+01 -0.44135484480E+01  0.72906268664E+01  0.51100000000E-03 0. -1.
        -11    1    3    3    0    0 -0.31156743116E+01 -0.73207271884E+01 -0.84548723748E+01  0.11609708873E+02  0.51100000000E-03 0.  1.
        -12    1    3    3    0    0 -0.30632241469E+02  0.48620406009E+01 -0.61959259077E+01  0.31628518050E+02  0.00000000000E+00 0.  1.
</event>
<event>
 7    1  0.5121289E-013  0.5052886E+02  0.7816164E-02  0.1300439E+00
        -11   -1    0    0    0    0  0.00000000000E+00  0.00000000000E+00  0.45593999997E+02  0.45594000000E+02  0.51100000000E-03 0.  1.
         11   -1    0    0    0    0 -0.00000000000E+00 -0.00000000000E+00 -0.45593999997E+02  0.45594000000E+02  0.51100000000E-03 0. -1.
    9900012    2    1    2    0    0 -0.21679283913E+02  0.30917475876E+02  0.15075942436E+02  0.50528859505E+02  0.29999998950E+02 0.  0.
         12    1    1    2    0    0  0.21679283913E+02 -0.30917475876E+02 -0.15075942436E+02  0.40659140495E+02  0.00000000000E+00 0. -1.
         11    1    3    3    0    0 -0.10250320705E+01 -0.11276922655E+00  0.19934120096E+01  0.22443483119E+01  0.51100000000E-03 0. -1.
        -11    1    3    3    0    0  0.21191399485E+01 -0.22374052847E+01  0.68216913636E+01  0.74854665753E+01  0.51100000000E-03 0.  1.
         12    1    3    3    0    0 -0.22773391791E+02  0.33267650387E+02  0.62608390625E+01  0.40799044617E+02  0.00000000000E+00 0. -1.
</event>
<event>
 7    1  0.5121289E-013  0.5052886E+02  0.7816164E-02  0.1300439E+00
        -11   -1    0    0    0    0  0.00000000000E+00  0.00000000000E+00  0.45593999997E+02  0.45594000000E+02  0.51100000000E-03 0. -1.
         11   -1    0    0    0    0 -0.00000000000E+00 -0.00000000000E+00 -0.45593999997E+02  0.45594000000E+02  0.51100000000E-03 0.  1.
    9900012    2    1    2    0    0 -0.31077020167E+02 -0.11674408929E+02 -0.23475364871E+02  0.50528858812E+02  0.29999996846E+02 0.  0.
         12    1    1    2    0    0  0.31077020167E+02  0.11674408929E+02  0.23475364871E+02  0.40659141188E+02  0.00000000000E+00 0. -1.
         11    1    3    3    0    0 -0.18821887129E+02 -0.15284117088E+02 -0.23814548123E+02  0.33985296421E+02  0.51100000000E-03 0. -1.
        -11    1    3    3    0    0  0.17444552463E+01 -0.34036024151E+00 -0.80763249993E+00  0.19522396668E+01  0.51100000000E-03 0.  1.
         12    1    3    3    0    0 -0.13999588284E+02  0.39500684005E+01  0.11468157515E+01  0.14591322725E+02  0.00000000000E+00 0. -1.
</event>
<event>
 7    1  0.5121289E-013  0.5052886E+02  0.7816164E-02  0.1300439E+00
        -11   -1    0    0    0    0  0.00000000000E+00  0.00000000000E+00  0.45593999997E+02  0.45594000000E+02  0.51100000000E-03 0. -1.
         11   -1    0    0    0    0 -0.00000000000E+00 -0.00000000000E+00 -0.45593999997E+02  0.45594000000E+02  0.51100000000E-03 0.  1.
    9900012    2    1    2    0    0 -0.37383754185E+02  0.13495596279E+02 -0.85725904793E+01  0.50528861994E+02  0.30000006515E+02 0.  0.
         12    1    1    2    0    0  0.37383754185E+02 -0.13495596279E+02  0.85725904793E+01  0.40659138006E+02  0.00000000000E+00 0. -1.
         11    1    3    3    0    0 -0.24755507848E+02  0.11898528753E+01 -0.61759128150E-01  0.24784162950E+02  0.51100000000E-03 0.  1.
        -11    1    3    3    0    0 -0.13593933512E+02  0.19403610317E+01 -0.62725756837E+01  0.15096530569E+02  0.51100000000E-03 0. -1.
         12    1    3    3    0    0  0.96568717418E+00  0.10365382372E+02 -0.22382556674E+01  0.10648168475E+02  0.00000000000E+00 0. -1.
</event>
<event>
 7    1  0.5121289E-013  0.5052882E+02  0.7816164E-02  0.1300439E+00
        -11   -1    0    0    0    0  0.00000000000E+00  0.00000000000E+00  0.45593999997E+02  0.45594000000E+02  0.51100000000E-03 0.  1.
         11   -1    0    0    0    0 -0.00000000000E+00 -0.00000000000E+00 -0.45593999997E+02  0.45594000000E+02  0.51100000000E-03 0. -1.
    9900012    2    1    2    0    0  0.22369014933E+02 -0.11761463711E+02  0.31850649035E+02  0.50528822664E+02  0.29999886968E+02 0.  0.
         12    1    1    2    0    0 -0.22369014933E+02  0.11761463711E+02 -0.31850649035E+02  0.40659177336E+02  0.00000000000E+00 0. -1.
         11    1    3    3    0    0 -0.12051140125E+01 -0.80012539420E+00 -0.16198795212E+01  0.21717528298E+01  0.51100000000E-03 0. -1.
        -11    1    3    3    0    0  0.17890551321E+02 -0.75104114261E+01  0.36276890850E+02  0.41139894462E+02  0.51100000000E-03 0.  1.
         12    1    3    3    0    0  0.56835776244E+01 -0.34509268910E+01 -0.28063622939E+01  0.72171753716E+01  0.00000000000E+00 0. -1.
</event>
<event>
 7    1  0.5121289E-013  0.5052887E+02  0.7816164E-02  0.1300439E+00
        -11   -1    0    0    0    0  0.00000000000E+00  0.00000000000E+00  0.45593999997E+02  0.45594000000E+02  0.51100000000E-03 0.  1.
         11   -1    0    0    0    0 -0.00000000000E+00 -0.00000000000E+00 -0.45593999997E+02  0.45594000000E+02  0.51100000000E-03 0. -1.
    9900012    2    1    2    0    0  0.31113544521E+02 -0.17167997353E+02  0.19757833312E+02  0.50528871099E+02  0.30000034192E+02 0.  0.
         12    1    1    2    0    0 -0.31113544521E+02  0.17167997353E+02 -0.19757833312E+02  0.40659128901E+02  0.00000000000E+00 0. -1.
         11    1    3    3    0    0  0.20794602940E+02 -0.75142894077E+01  0.43853303253E+01  0.22541321591E+02  0.51100000000E-03 0. -1.
        -11    1    3    3    0    0  0.14611884399E+02 -0.10389072784E+02  0.84772224991E+01  0.19831875871E+02  0.51100000000E-03 0.  1.
         12    1    3    3    0    0 -0.42929428169E+01  0.73536483873E+00  0.68952804878E+01  0.81556736375E+01  0.00000000000E+00 0. -1.
</event>
<event>
 7    1  0.5121289E-013  0.5052886E+02  0.7816164E-02  0.1300439E+00
        -11   -1    0    0    0    0  0.00000000000E+00  0.00000000000E+00  0.45593999997E+02  0.45594000000E+02  0.51100000000E-03 0.  1.
         11   -1    0    0    0    0 -0.00000000000E+00 -0.00000000000E+00 -0.45593999997E+02  0.45594000000E+02  0.51100000000E-03 0. -1.
    9900012    2    1    2    0    0  0.27707638982E+02  0.28676525056E+02  0.79441248005E+01  0.50528862453E+02  0.30000007912E+02 0.  0.
         12    1    1    2    0    0 -0.27707638982E+02 -0.28676525056E+02 -0.79441248005E+01  0.40659137547E+02  0.00000000000E+00 0. -1.
         11    1    3    3    0    0  0.27436099528E+01 -0.27623132113E+01  0.67086397142E+01  0.77565209293E+01  0.51100000000E-03 0.  1.
        -11    1    3    3    0    0  0.81897560495E+01  0.79369312695E+01 -0.61657806886E+01  0.12964714956E+02  0.51100000000E-03 0. -1.
        -12    1    3    3    0    0  0.16774272979E+02  0.23501906998E+02  0.74012657749E+01  0.29807626568E+02  0.00000000000E+00 0.  1.
</event>
<event>
 7    1  0.5121289E-013  0.5052886E+02  0.7816164E-02  0.1300439E+00
        -11   -1    0    0    0    0  0.00000000000E+00  0.00000000000E+00  0.45593999997E+02  0.45594000000E+02  0.51100000000E-03 0.  1.
         11   -1    0    0    0    0 -0.00000000000E+00 -0.00000000000E+00 -0.45593999997E+02  0.45594000000E+02  0.51100000000E-03 0. -1.
    9900012    2    1    2    0    0 -0.27928404508E+01 -0.40151578273E+02 -0.57633623090E+01  0.50528861536E+02  0.30000005124E+02 0.  0.
         12    1    1    2    0    0  0.27928404508E+01  0.40151578273E+02  0.57633623090E+01  0.40659138464E+02  0.00000000000E+00 0. -1.
         11    1    3    3    0    0 -0.35635921753E+01 -0.58161761446E+01  0.55743554120E+01  0.88091164516E+01  0.51100000000E-03 0. -1.
        -11    1    3    3    0    0  0.22408083716E+01  0.20682695843E+01  0.10698022514E+01  0.32316309118E+01  0.51100000000E-03 0.  1.
        -12    1    3    3    0    0 -0.14700566471E+01 -0.36403671712E+02 -0.12407519972E+02  0.38488114172E+02  0.00000000000E+00 0.  1.
</event>
<event>
 7    1  0.5121289E-013  0.5052881E+02  0.7816164E-02  0.1300439E+00
        -11   -1    0    0    0    0  0.00000000000E+00  0.00000000000E+00  0.45593999997E+02  0.45594000000E+02  0.51100000000E-03 0. -1.
         11   -1    0    0    0    0 -0.00000000000E+00 -0.00000000000E+00 -0.45593999997E+02  0.45594000000E+02  0.51100000000E-03 0.  1.
    9900012    2    1    2    0    0  0.22292841225E+02 -0.28989757439E+02 -0.17770563523E+02  0.50528809967E+02  0.29999848375E+02 0.  0.
         12    1    1    2    0    0 -0.22292841225E+02  0.28989757439E+02  0.17770563523E+02  0.40659190033E+02  0.00000000000E+00 0. -1.
         11    1    3    3    0    0 -0.78394376103E+00 -0.14412565850E+01 -0.19988581713E+01  0.25859664758E+01  0.51100000000E-03 0. -1.
        -11    1    3    3    0    0  0.13343307268E+01  0.54513082552E+01 -0.73494810952E+00  0.56601545179E+01  0.51100000000E-03 0.  1.
        -12    1    3    3    0    0  0.21742454259E+02 -0.32999809109E+02 -0.15036757242E+02  0.42282688973E+02  0.00000000000E+00 0.  1.
</event>
<event>
 7    1  0.5121289E-013  0.5052886E+02  0.7816164E-02  0.1300439E+00
        -11   -1    0    0    0    0  0.00000000000E+00  0.00000000000E+00  0.45593999997E+02  0.45594000000E+02  0.51100000000E-03 0. -1.
         11   -1    0    0    0    0 -0.00000000000E+00 -0.00000000000E+00 -0.45593999997E+02  0.45594000000E+02  0.51100000000E-03 0.  1.
    9900012    2    1    2    0    0 -0.29273507051E+02  0.35620769259E+01 -0.27991768586E+02  0.50528859384E+02  0.29999998583E+02 0.  0.
         12    1    1    2    0    0  0.29273507051E+02 -0.35620769259E+01  0.27991768586E+02  0.40659140616E+02  0.00000000000E+00 0. -1.
         11    1    3    3    0    0 -0.30217953502E+01  0.43225562983E+00  0.92803724175E+00  0.31905086509E+01  0.51100000000E-03 0. -1.
        -11    1    3    3    0    0 -0.12140342290E+02 -0.69867290198E+01 -0.47783596602E+00  0.14015370875E+02  0.51100000000E-03 0.  1.
        -12    1    3    3    0    0 -0.14111369411E+02  0.10116550316E+02 -0.28441969862E+02  0.33322979857E+02  0.00000000000E+00 0.  1.
</event>
<event>
 7    1  0.5121289E-013  0.5052886E+02  0.7816164E-02  0.1300439E+00
        -11   -1    0    0    0    0  0.00000000000E+00  0.00000000000E+00  0.45593999997E+02  0.45594000000E+02  0.51100000000E-03 0. -1.
         11   -1    0    0    0    0 -0.00000000000E+00 -0.00000000000E+00 -0.45593999997E+02  0.45594000000E+02  0.51100000000E-03 0.  1.
    9900012    2    1    2    0    0  0.40018931626E+01 -0.37783734649E+02  0.14475496841E+02  0.50528858817E+02  0.29999996861E+02 0.  0.
         12    1    1    2    0    0 -0.40018931626E+01  0.37783734649E+02 -0.14475496841E+02  0.40659141183E+02  0.00000000000E+00 0. -1.
         11    1    3    3    0    0 -0.35565817224E+01 -0.58252955611E+01 -0.15443762294E+01  0.69977453599E+01  0.51100000000E-03 0. -1.
        -11    1    3    3    0    0  0.20328563633E+01 -0.28405980850E+02  0.26091112275E+01  0.28597897032E+02  0.51100000000E-03 0.  1.
         12    1    3    3    0    0  0.55256185217E+01 -0.35524582382E+01  0.13410761843E+02  0.14933216425E+02  0.00000000000E+00 0. -1.
</event>
<event>
 7    1  0.5121289E-013  0.5052886E+02  0.7816164E-02  0.1300439E+00
        -11   -1    0    0    0    0  0.00000000000E+00  0.00000000000E+00  0.45593999997E+02  0.45594000000E+02  0.51100000000E-03 0.  1.
         11   -1    0    0    0    0 -0.00000000000E+00 -0.00000000000E+00 -0.45593999997E+02  0.45594000000E+02  0.51100000000E-03 0. -1.
    9900012    2    1    2    0    0  0.93847990487E+01  0.14153382196E+02  0.36942835016E+02  0.50528859087E+02  0.29999997680E+02 0.  0.
         12    1    1    2    0    0 -0.93847990487E+01 -0.14153382196E+02 -0.36942835016E+02  0.40659140913E+02  0.00000000000E+00 0. -1.
         11    1    3    3    0    0  0.16702809454E+02  0.48671211101E+01  0.21465465424E+02  0.27630398435E+02  0.51100000000E-03 0.  1.
        -11    1    3    3    0    0 -0.14376722580E+01 -0.19775869329E+01 -0.48875685752E+00  0.24933180955E+01  0.51100000000E-03 0. -1.
        -12    1    3    3    0    0 -0.58803381473E+01  0.11263848019E+02  0.15966126450E+02  0.20405142556E+02  0.00000000000E+00 0.  1.
</event>
<event>
 7    1  0.5121289E-013  0.5052886E+02  0.7816164E-02  0.1300439E+00
        -11   -1    0    0    0    0  0.00000000000E+00  0.00000000000E+00  0.45593999997E+02  0.45594000000E+02  0.51100000000E-03 0.  1.
         11   -1    0    0    0    0 -0.00000000000E+00 -0.00000000000E+00 -0.45593999997E+02  0.45594000000E+02  0.51100000000E-03 0. -1.
    9900012    2    1    2    0    0  0.40120357967E+01 -0.29630754560E+02  0.27551548647E+02  0.50528857364E+02  0.29999992444E+02 0.  0.
         12    1    1    2    0    0 -0.40120357967E+01  0.29630754560E+02 -0.27551548647E+02  0.40659142636E+02  0.00000000000E+00 0. -1.
         11    1    3    3    0    0  0.13521337293E+02 -0.10943671630E+02  0.10147163858E+02  0.20138407226E+02  0.51100000000E-03 0.  1.
        -11    1    3    3    0    0 -0.69297397548E+01 -0.10186433744E+01  0.58134599824E+01  0.91024856287E+01  0.51100000000E-03 0. -1.
        -12    1    3    3    0    0 -0.25795617420E+01 -0.17668439556E+02  0.11590924806E+02  0.21287964510E+02  0.00000000000E+00 0.  1.
</event>
<event>
 7    1  0.5121289E-013  0.5052886E+02  0.7816164E-02  0.1300439E+00
        -11   -1    0    0    0    0  0.00000000000E+00  0.00000000000E+00  0.45593999997E+02  0.45594000000E+02  0.51100000000E-03 0.  1.
         11   -1    0    0    0    0 -0.00000000000E+00 -0.00000000000E+00 -0.45593999997E+02  0.45594000000E+02  0.51100000000E-03 0. -1.
    9900012    2    1    2    0    0  0.24358218467E+02  0.75857983151E+01  0.31659099791E+02  0.50528859053E+02  0.29999997578E+02 0.  0.
         12    1    1    2    0    0 -0.24358218467E+02 -0.75857983151E+01 -0.31659099791E+02  0.40659140947E+02  0.00000000000E+00 0. -1.
         11    1    3    3    0    0  0.20572598690E+02  0.72993453378E+01  0.14520217005E+02  0.26217340852E+02  0.51100000000E-03 0. -1.
        -11    1    3    3    0    0  0.81382829606E+01  0.78243263297E+00  0.18164995219E+01  0.83751729024E+01  0.51100000000E-03 0.  1.
         12    1    3    3    0    0 -0.43526631833E+01 -0.49597965562E+00  0.15322383264E+02  0.15936345299E+02  0.00000000000E+00 0. -1.
</event>
<event>
 7    1  0.5121289E-013  0.5052886E+02  0.7816164E-02  0.1300439E+00
        -11   -1    0    0    0    0  0.00000000000E+00  0.00000000000E+00  0.45593999997E+02  0.45594000000E+02  0.51100000000E-03 0.  1.
         11   -1    0    0    0    0 -0.00000000000E+00 -0.00000000000E+00 -0.45593999997E+02  0.45594000000E+02  0.51100000000E-03 0. -1.
    9900012    2    1    2    0    0 -0.20377167079E+02 -0.11999698326E+02  0.33074829198E+02  0.50528855585E+02  0.29999987036E+02 0.  0.
         12    1    1    2    0    0  0.20377167079E+02  0.11999698326E+02 -0.33074829198E+02  0.40659144415E+02  0.00000000000E+00 0. -1.
         11    1    3    3    0    0 -0.20961773125E+02 -0.10093105608E+02  0.16265442317E+02  0.28387168358E+02  0.51100000000E-03 0. -1.
        -11    1    3    3    0    0 -0.45853319746E+01 -0.59549880417E+01  0.65968232399E+01  0.10000261447E+02  0.51100000000E-03 0.  1.
        -12    1    3    3    0    0  0.51699380205E+01  0.40483953243E+01  0.10212563641E+02  0.12141425780E+02  0.00000000000E+00 0.  1.
</event>
<event>
 7    1  0.5121289E-013  0.5052882E+02  0.7816164E-02  0.1300439E+00
        -11   -1    0    0    0    0  0.00000000000E+00  0.00000000000E+00  0.45593999997E+02  0.45594000000E+02  0.51100000000E-03 0.  1.
         11   -1    0    0    0    0 -0.00000000000E+00 -0.00000000000E+00 -0.45593999997E+02  0.45594000000E+02  0.51100000000E-03 0. -1.
    9900012    2    1    2    0    0 -0.49400092532E+01 -0.37723234218E+02  0.14343054299E+02  0.50528815332E+02  0.29999864683E+02 0.  0.
         12    1    1    2    0    0  0.49400092532E+01  0.37723234218E+02 -0.14343054299E+02  0.40659184668E+02  0.00000000000E+00 0. -1.
         11    1    3    3    0    0  0.15450535122E+00 -0.64242488627E+00  0.95781459296E+00  0.11636110577E+01  0.51100000000E-03 0. -1.
        -11    1    3    3    0    0 -0.63092183851E+01 -0.19743520685E+02  0.21778197944E+02  0.30064975496E+02  0.51100000000E-03 0.  1.
         12    1    3    3    0    0  0.12147037807E+01 -0.17337288647E+02 -0.83929582381E+01  0.19300228778E+02  0.00000000000E+00 0. -1.
</event>
<event>
 7    1  0.5121289E-013  0.5052886E+02  0.7816164E-02  0.1300439E+00
        -11   -1    0    0    0    0  0.00000000000E+00  0.00000000000E+00  0.45593999997E+02  0.45594000000E+02  0.51100000000E-03 0.  1.
         11   -1    0    0    0    0 -0.00000000000E+00 -0.00000000000E+00 -0.45593999997E+02  0.45594000000E+02  0.51100000000E-03 0. -1.
    9900012    2    1    2    0    0 -0.15585527044E+01 -0.66979771480E+01  0.40073353181E+02  0.50528860566E+02  0.30000002175E+02 0.  0.
         12    1    1    2    0    0  0.15585527044E+01  0.66979771480E+01 -0.40073353181E+02  0.40659139434E+02  0.00000000000E+00 0. -1.
         11    1    3    3    0    0 -0.51185225778E+01  0.79743728979E+01  0.27349752737E+02  0.28944755510E+02  0.51100000000E-03 0. -1.
        -11    1    3    3    0    0  0.15505830902E+01 -0.18843150391E+01 -0.10726752295E+01  0.26656300372E+01  0.51100000000E-03 0.  1.
        -12    1    3    3    0    0  0.20093867832E+01 -0.12788035007E+02  0.13796275673E+02  0.18918475018E+02  0.00000000000E+00 0.  1.
</event>
<event>
 7    1  0.5121289E-013  0.5052885E+02  0.7816164E-02  0.1300439E+00
        -11   -1    0    0    0    0  0.00000000000E+00  0.00000000000E+00  0.45593999997E+02  0.45594000000E+02  0.51100000000E-03 0.  1.
         11   -1    0    0    0    0 -0.00000000000E+00 -0.00000000000E+00 -0.45593999997E+02  0.45594000000E+02  0.51100000000E-03 0. -1.
    9900012    2    1    2    0    0  0.40333243048E+02  0.36467095719E+00  0.51247087762E+01  0.50528854415E+02  0.29999983480E+02 0.  0.
         12    1    1    2    0    0 -0.40333243048E+02 -0.36467095719E+00 -0.51247087762E+01  0.40659145585E+02  0.00000000000E+00 0. -1.
         11    1    3    3    0    0  0.14361922187E+02  0.11383758490E+02 -0.27103457885E+01  0.18525677877E+02  0.51100000000E-03 0. -1.
        -11    1    3    3    0    0  0.67038370100E+01  0.14101799164E+01 -0.18760855563E+01  0.71027977114E+01  0.51100000000E-03 0.  1.
        -12    1    3    3    0    0  0.19267483851E+02 -0.12429267449E+02  0.97111401210E+01  0.24900378826E+02  0.00000000000E+00 0.  1.
</event>
<event>
 7    1  0.5121289E-013  0.5052886E+02  0.7816164E-02  0.1300439E+00
        -11   -1    0    0    0    0  0.00000000000E+00  0.00000000000E+00  0.45593999997E+02  0.45594000000E+02  0.51100000000E-03 0.  1.
         11   -1    0    0    0    0 -0.00000000000E+00 -0.00000000000E+00 -0.45593999997E+02  0.45594000000E+02  0.51100000000E-03 0. -1.
    9900012    2    1    2    0    0 -0.19324652102E+02  0.21027375309E+02  0.28940850352E+02  0.50528861908E+02  0.30000006257E+02 0.  0.
         12    1    1    2    0    0  0.19324652102E+02 -0.21027375309E+02 -0.28940850352E+02  0.40659138092E+02  0.00000000000E+00 0. -1.
         11    1    3    3    0    0 -0.75637026665E+00  0.14949969756E+02  0.16698361486E+02  0.22425631948E+02  0.51100000000E-03 0. -1.
        -11    1    3    3    0    0  0.65161613891E+00  0.19154160530E+00  0.73948949300E+01  0.74260193284E+01  0.51100000000E-03 0.  1.
         12    1    3    3    0    0 -0.19219897975E+02  0.58858639477E+01  0.48475939362E+01  0.20677210632E+02  0.00000000000E+00 0. -1.
</event>
<event>
 7    1  0.5121289E-013  0.5052885E+02  0.7816164E-02  0.1300439E+00
        -11   -1    0    0    0    0  0.00000000000E+00  0.00000000000E+00  0.45593999997E+02  0.45594000000E+02  0.51100000000E-03 0.  1.
         11   -1    0    0    0    0 -0.00000000000E+00 -0.00000000000E+00 -0.45593999997E+02  0.45594000000E+02  0.51100000000E-03 0. -1.
    9900012    2    1    2    0    0 -0.14571567508E+02 -0.48375457949E+01  0.37648823747E+02  0.50528851479E+02  0.29999974555E+02 0.  0.
         12    1    1    2    0    0  0.14571567508E+02  0.48375457949E+01 -0.37648823747E+02  0.40659148521E+02  0.00000000000E+00 0. -1.
         11    1    3    3    0    0 -0.28808718552E+01 -0.22484532543E+00  0.11016889491E+02  0.11389549262E+02  0.51100000000E-03 0.  1.
        -11    1    3    3    0    0 -0.19369961241E+02  0.25865430681E+00  0.20288328421E+02  0.28051355955E+02  0.51100000000E-03 0. -1.
         12    1    3    3    0    0  0.76792655882E+01 -0.48713547763E+01  0.63436058346E+01  0.11087946262E+02  0.00000000000E+00 0. -1.
</event>
<event>
 7    1  0.5121289E-013  0.5052887E+02  0.7816164E-02  0.1300439E+00
        -11   -1    0    0    0    0  0.00000000000E+00  0.00000000000E+00  0.45593999997E+02  0.45594000000E+02  0.51100000000E-03 0.  1.
         11   -1    0    0    0    0 -0.00000000000E+00 -0.00000000000E+00 -0.45593999997E+02  0.45594000000E+02  0.51100000000E-03 0. -1.
    9900012    2    1    2    0    0  0.20475957936E+02 -0.11252755150E+02  0.33275748778E+02  0.50528870537E+02  0.30000032485E+02 0.  0.
         12    1    1    2    0    0 -0.20475957936E+02  0.11252755150E+02 -0.33275748778E+02  0.40659129463E+02  0.00000000000E+00 0. -1.
         11    1    3    3    0    0 -0.16150619712E+01 -0.14121469927E+01  0.35360054918E+01  0.41359302943E+01  0.51100000000E-03 0. -1.
        -11    1    3    3    0    0  0.65322158898E+01 -0.11931626301E+02  0.99294030678E+00  0.13638895899E+02  0.51100000000E-03 0.  1.
         12    1    3    3    0    0  0.15558804018E+02  0.20910181436E+01  0.28746802980E+02  0.32754044344E+02  0.00000000000E+00 0. -1.
</event>
<event>
 7    1  0.5121289E-013  0.5052886E+02  0.7816164E-02  0.1300439E+00
        -11   -1    0    0    0    0  0.00000000000E+00  0.00000000000E+00  0.45593999997E+02  0.45594000000E+02  0.51100000000E-03 0.  1.
         11   -1    0    0    0    0 -0.00000000000E+00 -0.00000000000E+00 -0.45593999997E+02  0.45594000000E+02  0.51100000000E-03 0. -1.
    9900012    2    1    2    0    0 -0.55544121065E+01  0.24670654755E+02  0.31838230414E+02  0.50528860612E+02  0.30000002315E+02 0.  0.
         12    1    1    2    0    0  0.55544121065E+01 -0.24670654755E+02 -0.31838230414E+02  0.40659139388E+02  0.00000000000E+00 0. -1.
         11    1    3    3    0    0 -0.52729193286E+01  0.13269570426E+02  0.17395556344E+02  0.22505345105E+02  0.51100000000E-03 0. -1.
        -11    1    3    3    0    0  0.26385383221E+00  0.10026698267E+02  0.19945505748E+02  0.22325489844E+02  0.51100000000E-03 0.  1.
         12    1    3    3    0    0 -0.54534661013E+00  0.13743860621E+01 -0.55028316778E+01  0.56980256622E+01  0.00000000000E+00 0. -1.
</event>
<event>
 7    1  0.5121289E-013  0.5052886E+02  0.7816164E-02  0.1300439E+00
        -11   -1    0    0    0    0  0.00000000000E+00  0.00000000000E+00  0.45593999997E+02  0.45594000000E+02  0.51100000000E-03 0. -1.
         11   -1    0    0    0    0 -0.00000000000E+00 -0.00000000000E+00 -0.45593999997E+02  0.45594000000E+02  0.51100000000E-03 0.  1.
    9900012    2    1    2    0    0  0.14844602103E+02 -0.14858372494E+02 -0.34814256737E+02  0.50528856908E+02  0.29999991059E+02 0.  0.
         12    1    1    2    0    0 -0.14844602103E+02  0.14858372494E+02  0.34814256737E+02  0.40659143092E+02  0.00000000000E+00 0. -1.
         11    1    3    3    0    0  0.49619842690E+01 -0.50497968659E+01  0.38489101864E+01  0.80582781136E+01  0.51100000000E-03 0. -1.
        -11    1    3    3    0    0 -0.23143929118E+00 -0.70841353844E+01 -0.14797926159E+02  0.16407838284E+02  0.51100000000E-03 0.  1.
        -12    1    3    3    0    0  0.10114057125E+02 -0.27244402440E+01 -0.23865240765E+02  0.26062740511E+02  0.00000000000E+00 0.  1.
</event>
<event>
 7    1  0.5121289E-013  0.5052885E+02  0.7816164E-02  0.1300439E+00
        -11   -1    0    0    0    0  0.00000000000E+00  0.00000000000E+00  0.45593999997E+02  0.45594000000E+02  0.51100000000E-03 0.  1.
         11   -1    0    0    0    0 -0.00000000000E+00 -0.00000000000E+00 -0.45593999997E+02  0.45594000000E+02  0.51100000000E-03 0. -1.
    9900012    2    1    2    0    0  0.25381596174E+01  0.39483175870E+02  0.93703212441E+01  0.50528851567E+02  0.29999974824E+02 0.  0.
         12    1    1    2    0    0 -0.25381596174E+01 -0.39483175870E+02 -0.93703212441E+01  0.40659148433E+02  0.00000000000E+00 0. -1.
         11    1    3    3    0    0  0.52616112206E+00  0.81658128687E+00 -0.10061457114E+01  0.13985635410E+01  0.51100000000E-03 0. -1.
        -11    1    3    3    0    0 -0.11620400173E+02  0.28660476607E+02  0.87564778347E+01  0.32142378939E+02  0.51100000000E-03 0.  1.
         12    1    3    3    0    0  0.13632398668E+02  0.10006117977E+02  0.16199891208E+01  0.16987909088E+02  0.00000000000E+00 0. -1.
</event>
<event>
 7    1  0.5121289E-013  0.5052886E+02  0.7816164E-02  0.1300439E+00
        -11   -1    0    0    0    0  0.00000000000E+00  0.00000000000E+00  0.45593999997E+02  0.45594000000E+02  0.51100000000E-03 0. -1.
         11   -1    0    0    0    0 -0.00000000000E+00 -0.00000000000E+00 -0.45593999997E+02  0.45594000000E+02  0.51100000000E-03 0.  1.
    9900012    2    1    2    0    0 -0.10477288279E+02  0.32506147623E+02 -0.22062243995E+02  0.50528858186E+02  0.29999994941E+02 0.  0.
         12    1    1    2    0    0  0.10477288279E+02 -0.32506147623E+02  0.22062243995E+02  0.40659141814E+02  0.00000000000E+00 0. -1.
         11    1    3    3    0    0 -0.12401679758E+02  0.18029444765E+02 -0.11155888604E+02  0.24562499673E+02  0.51100000000E-03 0. -1.
        -11    1    3    3    0    0 -0.34602026386E+01  0.15626707319E+02 -0.12416757238E+02  0.20256920904E+02  0.51100000000E-03 0.  1.
         12    1    3    3    0    0  0.53845941176E+01 -0.11500044610E+01  0.15104018473E+01  0.57094376090E+01  0.00000000000E+00 0. -1.
</event>
<event>
 7    1  0.5121289E-013  0.5052886E+02  0.7816164E-02  0.1300439E+00
        -11   -1    0    0    0    0  0.00000000000E+00  0.00000000000E+00  0.45593999997E+02  0.45594000000E+02  0.51100000000E-03 0.  1.
         11   -1    0    0    0    0 -0.00000000000E+00 -0.00000000000E+00 -0.45593999997E+02  0.45594000000E+02  0.51100000000E-03 0. -1.
    9900012    2    1    2    0    0  0.14053610173E+02 -0.14657230800E+02  0.35225374005E+02  0.50528863912E+02  0.30000012347E+02 0.  0.
         12    1    1    2    0    0 -0.14053610173E+02  0.14657230800E+02 -0.35225374005E+02  0.40659136088E+02  0.00000000000E+00 0. -1.
         11    1    3    3    0    0  0.15891308914E+01 -0.95891729242E+01  0.15117707293E+02  0.17972830840E+02  0.51100000000E-03 0. -1.
        -11    1    3    3    0    0  0.61999695900E+01 -0.13491908638E+02  0.94729539088E+01  0.17612724878E+02  0.51100000000E-03 0.  1.
         12    1    3    3    0    0  0.62645096920E+01  0.84238507625E+01  0.10634712803E+02  0.14943308193E+02  0.00000000000E+00 0. -1.
</event>
<event>
 7    1  0.5121289E-013  0.5052886E+02  0.7816164E-02  0.1300439E+00
        -11   -1    0    0    0    0  0.00000000000E+00  0.00000000000E+00  0.45593999997E+02  0.45594000000E+02  0.51100000000E-03 0.  1.
         11   -1    0    0    0    0 -0.00000000000E+00 -0.00000000000E+00 -0.45593999997E+02  0.45594000000E+02  0.51100000000E-03 0. -1.
    9900012    2    1    2    0    0  0.84172397359E+01  0.23637187937E+02  0.31993732343E+02  0.50528862188E+02  0.30000007107E+02 0.  0.
         12    1    1    2    0    0 -0.84172397359E+01 -0.23637187937E+02 -0.31993732343E+02  0.40659137812E+02  0.00000000000E+00 0. -1.
         11    1    3    3    0    0  0.11371021415E+02  0.18030651507E+02  0.19926244953E+02  0.29179783412E+02  0.51100000000E-03 0. -1.
        -11    1    3    3    0    0  0.15876381971E+00  0.88454759684E+01  0.13917194317E+02  0.16491086955E+02  0.51100000000E-03 0.  1.
        -12    1    3    3    0    0 -0.31125454992E+01 -0.32389395386E+01 -0.18497069261E+01  0.48579918209E+01  0.00000000000E+00 0.  1.
</event>
<event>
 7    1  0.5121289E-013  0.5052883E+02  0.7816164E-02  0.1300439E+00
        -11   -1    0    0    0    0  0.00000000000E+00  0.00000000000E+00  0.45593999997E+02  0.45594000000E+02  0.51100000000E-03 0.  1.
         11   -1    0    0    0    0 -0.00000000000E+00 -0.00000000000E+00 -0.45593999997E+02  0.45594000000E+02  0.51100000000E-03 0. -1.
    9900012    2    1    2    0    0  0.88316873838E+01  0.71525167249E+01  0.39038580823E+02  0.50528831412E+02  0.29999913560E+02 0.  0.
         12    1    1    2    0    0 -0.88316873838E+01 -0.71525167249E+01 -0.39038580823E+02  0.40659168588E+02  0.00000000000E+00 0. -1.
         11    1    3    3    0    0  0.34918229466E+01  0.21610341239E+00  0.22322872541E+02  0.22595357199E+02  0.51100000000E-03 0. -1.
        -11    1    3    3    0    0  0.44145279120E+01 -0.64844976410E+01  0.10519381386E+02  0.13122276912E+02  0.51100000000E-03 0.  1.
         12    1    3    3    0    0  0.92533652531E+00  0.13420910954E+02  0.61963268959E+01  0.14811197302E+02  0.00000000000E+00 0. -1.
</event>
<event>
 7    1  0.5121289E-013  0.5052886E+02  0.7816164E-02  0.1300439E+00
        -11   -1    0    0    0    0  0.00000000000E+00  0.00000000000E+00  0.45593999997E+02  0.45594000000E+02  0.51100000000E-03 0. -1.
         11   -1    0    0    0    0 -0.00000000000E+00 -0.00000000000E+00 -0.45593999997E+02  0.45594000000E+02  0.51100000000E-03 0.  1.
    9900012    2    1    2    0    0  0.39654742741E+01  0.39928570505E+02 -0.65688769783E+01  0.50528857442E+02  0.29999992681E+02 0.  0.
         12    1    1    2    0    0 -0.39654742741E+01 -0.39928570505E+02  0.65688769783E+01  0.40659142558E+02  0.00000000000E+00 0. -1.
         11    1    3    3    0    0  0.26766352875E+01  0.21120747984E+02  0.21036700635E+01  0.21393358779E+02  0.51100000000E-03 0. -1.
        -11    1    3    3    0    0 -0.36072832025E+01  0.17549256090E+02  0.12912341543E+01  0.17962632528E+02  0.51100000000E-03 0.  1.
        -12    1    3    3    0    0  0.48961221892E+01  0.12585664313E+01 -0.99637811962E+01  0.11172866135E+02  0.00000000000E+00 0.  1.
</event>
<event>
 7    1  0.5121289E-013  0.5052887E+02  0.7816164E-02  0.1300439E+00
        -11   -1    0    0    0    0  0.00000000000E+00  0.00000000000E+00  0.45593999997E+02  0.45594000000E+02  0.51100000000E-03 0. -1.
         11   -1    0    0    0    0 -0.00000000000E+00 -0.00000000000E+00 -0.45593999997E+02  0.45594000000E+02  0.51100000000E-03 0.  1.
    9900012    2    1    2    0    0  0.29173084053E+02 -0.28245633397E+02  0.20689029162E+01  0.50528868204E+02  0.30000025392E+02 0.  0.
         12    1    1    2    0    0 -0.29173084053E+02  0.28245633397E+02 -0.20689029162E+01  0.40659131796E+02  0.00000000000E+00 0. -1.
         11    1    3    3    0    0 -0.19002311707E+01  0.12375657678E+01 -0.13269884690E+01  0.26274219665E+01  0.51100000000E-03 0. -1.
        -11    1    3    3    0    0  0.18854525761E+02 -0.50776190296E+01 -0.32888813707E+01  0.19801315553E+02  0.51100000000E-03 0.  1.
         12    1    3    3    0    0  0.12218789462E+02 -0.24405580135E+02  0.66847727559E+01  0.28100130684E+02  0.00000000000E+00 0. -1.
</event>
<event>
 7    1  0.5121289E-013  0.5052886E+02  0.7816164E-02  0.1300439E+00
        -11   -1    0    0    0    0  0.00000000000E+00  0.00000000000E+00  0.45593999997E+02  0.45594000000E+02  0.51100000000E-03 0.  1.
         11   -1    0    0    0    0 -0.00000000000E+00 -0.00000000000E+00 -0.45593999997E+02  0.45594000000E+02  0.51100000000E-03 0. -1.
    9900012    2    1    2    0    0  0.13984139822E+02  0.10911368644E+01  0.38163052499E+02  0.50528864222E+02  0.30000013289E+02 0.  0.
         12    1    1    2    0    0 -0.13984139822E+02 -0.10911368644E+01 -0.38163052499E+02  0.40659135778E+02  0.00000000000E+00 0. -1.
         11    1    3    3    0    0  0.33602747442E+00 -0.19357439030E+00 -0.19948242586E+01  0.20321686918E+01  0.51100000000E-03 0. -1.
        -11    1    3    3    0    0  0.67673139018E+01  0.60815797093E+01  0.18543288394E+01  0.92855094051E+01  0.51100000000E-03 0.  1.
        -12    1    3    3    0    0  0.68807984457E+01 -0.47968684547E+01  0.38303547918E+02  0.39211186125E+02  0.00000000000E+00 0.  1.
</event>
<event>
 7    1  0.5121289E-013  0.5052886E+02  0.7816164E-02  0.1300439E+00
        -11   -1    0    0    0    0  0.00000000000E+00  0.00000000000E+00  0.45593999997E+02  0.45594000000E+02  0.51100000000E-03 0.  1.
         11   -1    0    0    0    0 -0.00000000000E+00 -0.00000000000E+00 -0.45593999997E+02  0.45594000000E+02  0.51100000000E-03 0. -1.
    9900012    2    1    2    0    0 -0.36820861296E+02 -0.35037978397E+01  0.16885299096E+02  0.50528858944E+02  0.29999997245E+02 0.  0.
         12    1    1    2    0    0  0.36820861296E+02  0.35037978397E+01 -0.16885299096E+02  0.40659141056E+02  0.00000000000E+00 0. -1.
         11    1    3    3    0    0 -0.14301931506E+02 -0.11333434007E+02  0.90401195771E+01  0.20364570543E+02  0.51100000000E-03 0. -1.
        -11    1    3    3    0    0  0.26558210782E+01 -0.18478832678E+00  0.24676530364E+00  0.26736539980E+01  0.51100000000E-03 0.  1.
        -12    1    3    3    0    0 -0.25174750869E+02  0.80144244940E+01  0.75984142149E+01  0.27490634402E+02  0.00000000000E+00 0.  1.
</event>
<event>
 7    1  0.5121289E-013  0.5052886E+02  0.7816164E-02  0.1300439E+00
        -11   -1    0    0    0    0  0.00000000000E+00  0.00000000000E+00  0.45593999997E+02  0.45594000000E+02  0.51100000000E-03 0.  1.
         11   -1    0    0    0    0 -0.00000000000E+00 -0.00000000000E+00 -0.45593999997E+02  0.45594000000E+02  0.51100000000E-03 0. -1.
    9900012    2    1    2    0    0  0.34540914588E+02 -0.80223640980E+01  0.19893027101E+02  0.50528860394E+02  0.30000001652E+02 0.  0.
         12    1    1    2    0    0 -0.34540914588E+02  0.80223640980E+01 -0.19893027101E+02  0.40659139606E+02  0.00000000000E+00 0. -1.
         11    1    3    3    0    0  0.25611695866E+02 -0.95707087956E+01  0.49335068454E+01  0.27783032988E+02  0.51100000000E-03 0. -1.
        -11    1    3    3    0    0  0.55624481395E+01 -0.16125131236E+01 -0.12213656336E+01  0.59188480425E+01  0.51100000000E-03 0.  1.
        -12    1    3    3    0    0  0.33667705827E+01  0.31608578211E+01  0.16180885889E+02  0.16826979363E+02  0.00000000000E+00 0.  1.
</event>
<event>
 7    1  0.5121289E-013  0.5052886E+02  0.7816164E-02  0.1300439E+00
        -11   -1    0    0    0    0  0.00000000000E+00  0.00000000000E+00  0.45593999997E+02  0.45594000000E+02  0.51100000000E-03 0.  1.
         11   -1    0    0    0    0 -0.00000000000E+00 -0.00000000000E+00 -0.45593999997E+02  0.45594000000E+02  0.51100000000E-03 0. -1.
    9900012    2    1    2    0    0 -0.28751095239E+02  0.50989720965E+01  0.28293831739E+02  0.50528857014E+02  0.29999991379E+02 0.  0.
         12    1    1    2    0    0  0.28751095239E+02 -0.50989720965E+01 -0.28293831739E+02  0.40659142986E+02  0.00000000000E+00 0. -1.
         11    1    3    3    0    0 -0.20945295759E+00  0.21793044329E+01 -0.47455897538E+01  0.52262664231E+01  0.51100000000E-03 0. -1.
        -11    1    3    3    0    0 -0.49683055114E+01 -0.27473505645E+01  0.22349157496E+01  0.61013804542E+01  0.51100000000E-03 0.  1.
        -12    1    3    3    0    0 -0.23573336770E+02  0.56670182280E+01  0.30804505743E+02  0.39201210137E+02  0.00000000000E+00 0.  1.
</event>
<event>
 7    1  0.5121289E-013  0.5052886E+02  0.7816164E-02  0.1300439E+00
        -11   -1    0    0    0    0  0.00000000000E+00  0.00000000000E+00  0.45593999997E+02  0.45594000000E+02  0.51100000000E-03 0.  1.
         11   -1    0    0    0    0 -0.00000000000E+00 -0.00000000000E+00 -0.45593999997E+02  0.45594000000E+02  0.51100000000E-03 0. -1.
    9900012    2    1    2    0    0 -0.36154312433E+02 -0.16848867556E+02 -0.78833272913E+01  0.50528862102E+02  0.30000006845E+02 0.  0.
         12    1    1    2    0    0  0.36154312433E+02  0.16848867556E+02  0.78833272913E+01  0.40659137898E+02  0.00000000000E+00 0. -1.
         11    1    3    3    0    0 -0.85914453830E+01 -0.59297981760E+01 -0.42561590762E+01  0.11273434726E+02  0.51100000000E-03 0. -1.
        -11    1    3    3    0    0 -0.26747964850E+02 -0.17631942416E+02 -0.47943446627E+01  0.32393282605E+02  0.51100000000E-03 0.  1.
        -12    1    3    3    0    0 -0.81490220059E+00  0.67128730357E+01  0.11671764475E+01  0.68621447704E+01  0.00000000000E+00 0.  1.
</event>
<event>
 7    1  0.5121289E-013  0.5052887E+02  0.7816164E-02  0.1300439E+00
        -11   -1    0    0    0    0  0.00000000000E+00  0.00000000000E+00  0.45593999997E+02  0.45594000000E+02  0.51100000000E-03 0.  1.
         11   -1    0    0    0    0 -0.00000000000E+00 -0.00000000000E+00 -0.45593999997E+02  0.45594000000E+02  0.51100000000E-03 0. -1.
    9900012    2    1    2    0    0  0.33113611947E+02  0.22635439122E+02 -0.66551328270E+01  0.50528865807E+02  0.30000018106E+02 0.  0.
         12    1    1    2    0    0 -0.33113611947E+02 -0.22635439122E+02  0.66551328270E+01  0.40659134193E+02  0.00000000000E+00 0. -1.
         11    1    3    3    0    0  0.77990293202E+01  0.15758433517E+02 -0.10728792463E+02  0.20597574450E+02  0.51100000000E-03 0. -1.
        -11    1    3    3    0    0  0.37431855057E+01 -0.37298079182E+01  0.24888992924E+01  0.58410208684E+01  0.51100000000E-03 0.  1.
        -12    1    3    3    0    0  0.21571397121E+02  0.10606813524E+02  0.15847603436E+01  0.24090270489E+02  0.00000000000E+00 0.  1.
</event>
<event>
 7    1  0.5121289E-013  0.5052886E+02  0.7816164E-02  0.1300439E+00
        -11   -1    0    0    0    0  0.00000000000E+00  0.00000000000E+00  0.45593999997E+02  0.45594000000E+02  0.51100000000E-03 0.  1.
         11   -1    0    0    0    0 -0.00000000000E+00 -0.00000000000E+00 -0.45593999997E+02  0.45594000000E+02  0.51100000000E-03 0. -1.
    9900012    2    1    2    0    0 -0.27919781369E+02 -0.12395432566E+02  0.26832908037E+02  0.50528857192E+02  0.29999991921E+02 0.  0.
         12    1    1    2    0    0  0.27919781369E+02  0.12395432566E+02 -0.26832908037E+02  0.40659142808E+02  0.00000000000E+00 0. -1.
         11    1    3    3    0    0 -0.85505553451E+01  0.18918617695E+01  0.89718347931E+01  0.12537342521E+02  0.51100000000E-03 0. -1.
        -11    1    3    3    0    0 -0.23039624547E+02 -0.10231361207E+02  0.19937579939E+02  0.32140506304E+02  0.51100000000E-03 0.  1.
        -12    1    3    3    0    0  0.36703985231E+01 -0.40559331279E+01 -0.20765066955E+01  0.58510083671E+01  0.00000000000E+00 0.  1.
</event>
<event>
 7    1  0.5121289E-013  0.5052886E+02  0.7816164E-02  0.1300439E+00
        -11   -1    0    0    0    0  0.00000000000E+00  0.00000000000E+00  0.45593999997E+02  0.45594000000E+02  0.51100000000E-03 0.  1.
         11   -1    0    0    0    0 -0.00000000000E+00 -0.00000000000E+00 -0.45593999997E+02  0.45594000000E+02  0.51100000000E-03 0. -1.
    9900012    2    1    2    0    0 -0.15360652394E+02 -0.37217452250E+02 -0.56636706368E+01  0.50528861309E+02  0.30000004436E+02 0.  0.
         12    1    1    2    0    0  0.15360652394E+02  0.37217452250E+02  0.56636706368E+01  0.40659138691E+02  0.00000000000E+00 0. -1.
         11    1    3    3    0    0  0.38951204679E+01 -0.91766847811E+01 -0.20933118368E+01  0.10186533352E+02  0.51100000000E-03 0. -1.
        -11    1    3    3    0    0 -0.14070289373E+02 -0.28242384017E+02 -0.90199828627E+01  0.32817150837E+02  0.51100000000E-03 0.  1.
         12    1    3    3    0    0 -0.51854834897E+01  0.20161654753E+00  0.54496240627E+01  0.75251771195E+01  0.00000000000E+00 0. -1.
</event>
<event>
 7    1  0.5121289E-013  0.5052886E+02  0.7816164E-02  0.1300439E+00
        -11   -1    0    0    0    0  0.00000000000E+00  0.00000000000E+00  0.45593999997E+02  0.45594000000E+02  0.51100000000E-03 0.  1.
         11   -1    0    0    0    0 -0.00000000000E+00 -0.00000000000E+00 -0.45593999997E+02  0.45594000000E+02  0.51100000000E-03 0. -1.
    9900012    2    1    2    0    0 -0.37790614388E+02 -0.40582250291E+01  0.14441825842E+02  0.50528855151E+02  0.29999985718E+02 0.  0.
         12    1    1    2    0    0  0.37790614388E+02  0.40582250291E+01 -0.14441825842E+02  0.40659144849E+02  0.00000000000E+00 0. -1.
         11    1    3    3    0    0 -0.19539014638E+01 -0.62408116558E-01 -0.33944225005E+01  0.39171073608E+01  0.51100000000E-03 0. -1.
        -11    1    3    3    0    0 -0.17387598201E+02  0.63343238476E+01 -0.66279598671E+00  0.18517330493E+02  0.51100000000E-03 0.  1.
         12    1    3    3    0    0 -0.18449114723E+02 -0.10330140760E+02  0.18499044330E+02  0.28094417298E+02  0.00000000000E+00 0. -1.
</event>
<event>
 7    1  0.5121289E-013  0.5052887E+02  0.7816164E-02  0.1300439E+00
        -11   -1    0    0    0    0  0.00000000000E+00  0.00000000000E+00  0.45593999997E+02  0.45594000000E+02  0.51100000000E-03 0.  1.
         11   -1    0    0    0    0 -0.00000000000E+00 -0.00000000000E+00 -0.45593999997E+02  0.45594000000E+02  0.51100000000E-03 0. -1.
    9900012    2    1    2    0    0  0.24347747941E+02  0.32182062563E+02  0.49666120122E+01  0.50528865535E+02  0.30000017280E+02 0.  0.
         12    1    1    2    0    0 -0.24347747941E+02 -0.32182062563E+02 -0.49666120122E+01  0.40659134465E+02  0.00000000000E+00 0. -1.
         11    1    3    3    0    0  0.65496271855E+01  0.95567756763E+01 -0.45230888661E+01  0.12437359476E+02  0.51100000000E-03 0. -1.
        -11    1    3    3    0    0  0.16688713407E+02  0.25582975296E+02  0.27750088830E+01  0.30670873068E+02  0.51100000000E-03 0.  1.
        -12    1    3    3    0    0  0.11094073485E+01 -0.29576884096E+01  0.67146919953E+01  0.74206329908E+01  0.00000000000E+00 0.  1.
</event>
<event>
 7    1  0.5121289E-013  0.5052886E+02  0.7816164E-02  0.1300439E+00
        -11   -1    0    0    0    0  0.00000000000E+00  0.00000000000E+00  0.45593999997E+02  0.45594000000E+02  0.51100000000E-03 0.  1.
         11   -1    0    0    0    0 -0.00000000000E+00 -0.00000000000E+00 -0.45593999997E+02  0.45594000000E+02  0.51100000000E-03 0. -1.
    9900012    2    1    2    0    0 -0.32496884603E+02 -0.60836802052E+01  0.23666578775E+02  0.50528860503E+02  0.30000001985E+02 0.  0.
         12    1    1    2    0    0  0.32496884603E+02  0.60836802052E+01 -0.23666578775E+02  0.40659139497E+02  0.00000000000E+00 0. -1.
         11    1    3    3    0    0  0.26270400317E+01  0.16221691024E+01 -0.97927782488E-01  0.30890713874E+01  0.51100000000E-03 0. -1.
        -11    1    3    3    0    0  0.15883817535E+01 -0.10948370701E+00 -0.15352290537E+01  0.22117576235E+01  0.51100000000E-03 0.  1.
        -12    1    3    3    0    0 -0.36712306388E+02 -0.75963656006E+01  0.25299735611E+02  0.45228031492E+02  0.00000000000E+00 0.  1.
</event>
<event>
 7    1  0.5121289E-013  0.5052886E+02  0.7816164E-02  0.1300439E+00
        -11   -1    0    0    0    0  0.00000000000E+00  0.00000000000E+00  0.45593999997E+02  0.45594000000E+02  0.51100000000E-03 0. -1.
         11   -1    0    0    0    0 -0.00000000000E+00 -0.00000000000E+00 -0.45593999997E+02  0.45594000000E+02  0.51100000000E-03 0.  1.
    9900012    2    1    2    0    0 -0.88499143060E+01 -0.38904665920E+02 -0.78276380035E+01  0.50528856744E+02  0.29999990559E+02 0.  0.
         12    1    1    2    0    0  0.88499143060E+01  0.38904665920E+02  0.78276380035E+01  0.40659143256E+02  0.00000000000E+00 0. -1.
         11    1    3    3    0    0 -0.46388672690E+01 -0.10525006722E+02 -0.12001821091E+02  0.16623434236E+02  0.51100000000E-03 0.  1.
        -11    1    3    3    0    0  0.99389132563E+00  0.17602079587E+01  0.25804472235E+01  0.32779353501E+01  0.51100000000E-03 0. -1.
         12    1    3    3    0    0 -0.52049383626E+01 -0.30139867157E+02  0.15937358641E+01  0.30627487158E+02  0.00000000000E+00 0. -1.
</event>
<event>
 7    1  0.5121289E-013  0.5052886E+02  0.7816164E-02  0.1300439E+00
        -11   -1    0    0    0    0  0.00000000000E+00  0.00000000000E+00  0.45593999997E+02  0.45594000000E+02  0.51100000000E-03 0.  1.
         11   -1    0    0    0    0 -0.00000000000E+00 -0.00000000000E+00 -0.45593999997E+02  0.45594000000E+02  0.51100000000E-03 0. -1.
    9900012    2    1    2    0    0  0.39687807802E+02  0.35437649791E+00  0.88271245248E+01  0.50528858368E+02  0.29999995496E+02 0.  0.
         12    1    1    2    0    0 -0.39687807802E+02 -0.35437649791E+00 -0.88271245248E+01  0.40659141632E+02  0.00000000000E+00 0. -1.
         11    1    3    3    0    0  0.23576800717E+02 -0.61656569780E+01  0.32476818534E+01  0.24585123464E+02  0.51100000000E-03 0. -1.
        -11    1    3    3    0    0 -0.85334414407E+00 -0.37359121626E+01  0.47496403137E+01  0.61028124078E+01  0.51100000000E-03 0.  1.
         12    1    3    3    0    0  0.16964351229E+02  0.10255945639E+02  0.82980235772E+00  0.19840922497E+02  0.00000000000E+00 0. -1.
</event>
<event>
 7    1  0.5121289E-013  0.5052885E+02  0.7816164E-02  0.1300439E+00
        -11   -1    0    0    0    0  0.00000000000E+00  0.00000000000E+00  0.45593999997E+02  0.45594000000E+02  0.51100000000E-03 0. -1.
         11   -1    0    0    0    0 -0.00000000000E+00 -0.00000000000E+00 -0.45593999997E+02  0.45594000000E+02  0.51100000000E-03 0.  1.
    9900012    2    1    2    0    0 -0.24431891697E+02 -0.78254062428E+01 -0.31543818576E+02  0.50528845986E+02  0.29999957860E+02 0.  0.
         12    1    1    2    0    0  0.24431891697E+02  0.78254062428E+01  0.31543818576E+02  0.40659154014E+02  0.00000000000E+00 0. -1.
         11    1    3    3    0    0 -0.13866634906E+02  0.68369414575E+01 -0.12772787506E+02  0.20054212352E+02  0.51100000000E-03 0. -1.
        -11    1    3    3    0    0 -0.96386415949E+01 -0.41017699501E+00 -0.63775197483E+01  0.11564792059E+02  0.51100000000E-03 0.  1.
         12    1    3    3    0    0 -0.92661519589E+00 -0.14252170705E+02 -0.12393511321E+02  0.18909841575E+02  0.00000000000E+00 0. -1.
</event>
<event>
 7    1  0.5155238E-013  0.5052886E+02  0.7816164E-02  0.1300439E+00
        -11   -1    0    0    0    0  0.00000000000E+00  0.00000000000E+00  0.45593999997E+02  0.45594000000E+02  0.51100000000E-03 0. -1.
         11   -1    0    0    0    0 -0.00000000000E+00 -0.00000000000E+00 -0.45593999997E+02  0.45594000000E+02  0.51100000000E-03 0.  1.
    9900012    2    1    2    0    0  0.40570925490E+02 -0.36186996106E+00 -0.26522838287E+01  0.50528861366E+02  0.30000004607E+02 0.  0.
         12    1    1    2    0    0 -0.40570925490E+02  0.36186996106E+00  0.26522838287E+01  0.40659138634E+02  0.00000000000E+00 0. -1.
         11    1    3    3    0    0  0.17297130669E+01 -0.62471820536E+01  0.82742614823E+00  0.65348163858E+01  0.51100000000E-03 0. -1.
        -11    1    3    3    0    0  0.73801113353E+01  0.66171993274E+01  0.54105072358E+01  0.11292783495E+02  0.51100000000E-03 0.  1.
        -12    1    3    3    0    0  0.31461101088E+02 -0.73188723484E+00 -0.88902172127E+01  0.32701261485E+02  0.00000000000E+00 0.  1.
</event>
<event>
 7    1  0.5121289E-013  0.5052887E+02  0.7816164E-02  0.1300439E+00
        -11   -1    0    0    0    0  0.00000000000E+00  0.00000000000E+00  0.45593999997E+02  0.45594000000E+02  0.51100000000E-03 0.  1.
         11   -1    0    0    0    0 -0.00000000000E+00 -0.00000000000E+00 -0.45593999997E+02  0.45594000000E+02  0.51100000000E-03 0. -1.
    9900012    2    1    2    0    0  0.77096289191E+01 -0.19350490597E+02  0.34918265445E+02  0.50528866633E+02  0.30000020619E+02 0.  0.
         12    1    1    2    0    0 -0.77096289191E+01  0.19350490597E+02 -0.34918265445E+02  0.40659133367E+02  0.00000000000E+00 0. -1.
         11    1    3    3    0    0  0.52824807396E+01  0.24037365772E+01  0.13485428453E+02  0.14681257886E+02  0.51100000000E-03 0. -1.
        -11    1    3    3    0    0 -0.95673181726E+00  0.21847550917E+00  0.11425124801E+02  0.11467194264E+02  0.51100000000E-03 0.  1.
         12    1    3    3    0    0  0.33838799968E+01 -0.21972702683E+02  0.10007712192E+02  0.24380414483E+02  0.00000000000E+00 0. -1.
</event>
<event>
 7    1  0.5121289E-013  0.5052886E+02  0.7816164E-02  0.1300439E+00
        -11   -1    0    0    0    0  0.00000000000E+00  0.00000000000E+00  0.45593999997E+02  0.45594000000E+02  0.51100000000E-03 0.  1.
         11   -1    0    0    0    0 -0.00000000000E+00 -0.00000000000E+00 -0.45593999997E+02  0.45594000000E+02  0.51100000000E-03 0. -1.
    9900012    2    1    2    0    0  0.18862564591E+02 -0.26524252567E+02  0.24368692683E+02  0.50528862032E+02  0.30000006634E+02 0.  0.
         12    1    1    2    0    0 -0.18862564591E+02  0.26524252567E+02 -0.24368692683E+02  0.40659137968E+02  0.00000000000E+00 0. -1.
         11    1    3    3    0    0 -0.12697315888E+01 -0.18175972929E+02  0.46382913622E+01  0.18801381791E+02  0.51100000000E-03 0. -1.
        -11    1    3    3    0    0  0.19117895853E+01 -0.31768928746E-01 -0.15813481079E+01  0.24812518579E+01  0.51100000000E-03 0.  1.
        -12    1    3    3    0    0  0.18220506595E+02 -0.83165107088E+01  0.21311749429E+02  0.29246228383E+02  0.00000000000E+00 0.  1.
</event>
<event>
 7    1  0.5121289E-013  0.5052886E+02  0.7816164E-02  0.1300439E+00
        -11   -1    0    0    0    0  0.00000000000E+00  0.00000000000E+00  0.45593999997E+02  0.45594000000E+02  0.51100000000E-03 0.  1.
         11   -1    0    0    0    0 -0.00000000000E+00 -0.00000000000E+00 -0.45593999997E+02  0.45594000000E+02  0.51100000000E-03 0. -1.
    9900012    2    1    2    0    0  0.27876304399E+02 -0.41386355052E+01  0.29307825447E+02  0.50528864702E+02  0.30000014747E+02 0.  0.
         12    1    1    2    0    0 -0.27876304399E+02  0.41386355052E+01 -0.29307825447E+02  0.40659135298E+02  0.00000000000E+00 0. -1.
         11    1    3    3    0    0  0.91757811191E+01 -0.80026371305E+01  0.94958722217E+01  0.15440490591E+02  0.51100000000E-03 0. -1.
        -11    1    3    3    0    0  0.29512049017E+01 -0.71381944357E+01  0.33611946100E+00  0.77315203374E+01  0.51100000000E-03 0.  1.
        -12    1    3    3    0    0  0.15749318378E+02  0.11002196061E+02  0.19475833764E+02  0.27356853773E+02  0.00000000000E+00 0.  1.
</event>
<event>
 7    1  0.5121289E-013  0.5052886E+02  0.7816164E-02  0.1300439E+00
        -11   -1    0    0    0    0  0.00000000000E+00  0.00000000000E+00  0.45593999997E+02  0.45594000000E+02  0.51100000000E-03 0.  1.
         11   -1    0    0    0    0 -0.00000000000E+00 -0.00000000000E+00 -0.45593999997E+02  0.45594000000E+02  0.51100000000E-03 0. -1.
    9900012    2    1    2    0    0  0.18274315142E+02  0.35056353730E+02 -0.95009077277E+01  0.50528858612E+02  0.29999996237E+02 0.  0.
         12    1    1    2    0    0 -0.18274315142E+02 -0.35056353730E+02  0.95009077277E+01  0.40659141388E+02  0.00000000000E+00 0. -1.
         11    1    3    3    0    0  0.17048253901E+02  0.30456067570E+02 -0.73261290712E+01  0.35663527311E+02  0.51100000000E-03 0.  1.
        -11    1    3    3    0    0  0.31606051303E+01  0.76369405330E+01  0.27980380969E+01  0.87258984035E+01  0.51100000000E-03 0. -1.
         12    1    3    3    0    0 -0.19345438892E+01 -0.30366543723E+01 -0.49728167534E+01  0.61394328972E+01  0.00000000000E+00 0. -1.
</event>
<event>
 7    1  0.5121289E-013  0.5052887E+02  0.7816164E-02  0.1300439E+00
        -11   -1    0    0    0    0  0.00000000000E+00  0.00000000000E+00  0.45593999997E+02  0.45594000000E+02  0.51100000000E-03 0.  1.
         11   -1    0    0    0    0 -0.00000000000E+00 -0.00000000000E+00 -0.45593999997E+02  0.45594000000E+02  0.51100000000E-03 0. -1.
    9900012    2    1    2    0    0  0.18529135660E+02 -0.31433912635E+02  0.17937266329E+02  0.50528865046E+02  0.30000015793E+02 0.  0.
         12    1    1    2    0    0 -0.18529135660E+02  0.31433912635E+02 -0.17937266329E+02  0.40659134954E+02  0.00000000000E+00 0. -1.
         11    1    3    3    0    0  0.37611791168E+01 -0.71122966090E+01  0.12618195304E+02  0.14964961890E+02  0.51100000000E-03 0. -1.
        -11    1    3    3    0    0  0.53877672594E+01  0.22550837187E+01  0.44920115888E+01  0.73682838568E+01  0.51100000000E-03 0.  1.
         12    1    3    3    0    0  0.93801892840E+01 -0.26576699745E+02  0.82705943676E+00  0.28195619299E+02  0.00000000000E+00 0. -1.
</event>
<event>
 7    1  0.5121289E-013  0.5052885E+02  0.7816164E-02  0.1300439E+00
        -11   -1    0    0    0    0  0.00000000000E+00  0.00000000000E+00  0.45593999997E+02  0.45594000000E+02  0.51100000000E-03 0.  1.
         11   -1    0    0    0    0 -0.00000000000E+00 -0.00000000000E+00 -0.45593999997E+02  0.45594000000E+02  0.51100000000E-03 0. -1.
    9900012    2    1    2    0    0 -0.25739316842E+02 -0.12646674466E+02  0.28822132444E+02  0.50528854348E+02  0.29999983275E+02 0.  0.
         12    1    1    2    0    0  0.25739316842E+02  0.12646674466E+02 -0.28822132444E+02  0.40659145652E+02  0.00000000000E+00 0. -1.
         11    1    3    3    0    0 -0.32972990973E+01 -0.49204922068E+01  0.12871357270E+01  0.60613648244E+01  0.51100000000E-03 0. -1.
        -11    1    3    3    0    0 -0.26998913012E+02 -0.63137483368E+01  0.16065527103E+02  0.32045372260E+02  0.51100000000E-03 0.  1.
        -12    1    3    3    0    0  0.45568952678E+01 -0.14124339228E+01  0.11469469615E+02  0.12422117263E+02  0.00000000000E+00 0.  1.
</event>
<event>
 7    1  0.5121289E-013  0.5052886E+02  0.7816164E-02  0.1300439E+00
        -11   -1    0    0    0    0  0.00000000000E+00  0.00000000000E+00  0.45593999997E+02  0.45594000000E+02  0.51100000000E-03 0.  1.
         11   -1    0    0    0    0 -0.00000000000E+00 -0.00000000000E+00 -0.45593999997E+02  0.45594000000E+02  0.51100000000E-03 0. -1.
    9900012    2    1    2    0    0 -0.34149624436E+02  0.21868246443E+02 -0.29577441458E+01  0.50528864470E+02  0.30000014044E+02 0.  0.
         12    1    1    2    0    0  0.34149624436E+02 -0.21868246443E+02  0.29577441458E+01  0.40659135530E+02  0.00000000000E+00 0. -1.
         11    1    3    3    0    0 -0.88914165615E+00  0.21277389944E+01 -0.57400455894E+01  0.61859493809E+01  0.51100000000E-03 0. -1.
        -11    1    3    3    0    0 -0.25281970440E+01 -0.42750524229E+01  0.19367211342E+01  0.53309232338E+01  0.51100000000E-03 0.  1.
        -12    1    3    3    0    0 -0.30732285736E+02  0.24015559871E+02  0.84558030950E+00  0.39011991856E+02  0.00000000000E+00 0.  1.
</event>
<event>
 7    1  0.5121289E-013  0.5052886E+02  0.7816164E-02  0.1300439E+00
        -11   -1    0    0    0    0  0.00000000000E+00  0.00000000000E+00  0.45593999997E+02  0.45594000000E+02  0.51100000000E-03 0.  1.
         11   -1    0    0    0    0 -0.00000000000E+00 -0.00000000000E+00 -0.45593999997E+02  0.45594000000E+02  0.51100000000E-03 0. -1.
    9900012    2    1    2    0    0 -0.33864115501E+02  0.20022984327E+02 -0.10269716972E+02  0.50528864413E+02  0.30000013869E+02 0.  0.
         12    1    1    2    0    0  0.33864115501E+02 -0.20022984327E+02  0.10269716972E+02  0.40659135587E+02  0.00000000000E+00 0. -1.
         11    1    3    3    0    0 -0.17517111437E+01 -0.10776048593E+01 -0.26309410870E+01  0.33393974648E+01  0.51100000000E-03 0. -1.
        -11    1    3    3    0    0 -0.62969771599E+01  0.16154859468E+02 -0.11233786433E+02  0.20659849072E+02  0.51100000000E-03 0.  1.
         12    1    3    3    0    0 -0.25815427197E+02  0.49457297184E+01  0.35950105474E+01  0.26529617876E+02  0.00000000000E+00 0. -1.
</event>
<event>
 7    1  0.5121289E-013  0.5052887E+02  0.7816164E-02  0.1300439E+00
        -11   -1    0    0    0    0  0.00000000000E+00  0.00000000000E+00  0.45593999997E+02  0.45594000000E+02  0.51100000000E-03 0. -1.
         11   -1    0    0    0    0 -0.00000000000E+00 -0.00000000000E+00 -0.45593999997E+02  0.45594000000E+02  0.51100000000E-03 0.  1.
    9900012    2    1    2    0    0 -0.81009066692E+01  0.26053925532E+02 -0.30145205546E+02  0.50528866439E+02  0.30000020028E+02 0.  0.
         12    1    1    2    0    0  0.81009066692E+01 -0.26053925532E+02  0.30145205546E+02  0.40659133561E+02  0.00000000000E+00 0. -1.
         11    1    3    3    0    0  0.60897568569E+01  0.14992751528E+01 -0.13392644323E+01  0.64130019524E+01  0.51100000000E-03 0. -1.
        -11    1    3    3    0    0 -0.11418761050E+02  0.23679937938E+02 -0.15547670449E+02  0.30542717975E+02  0.51100000000E-03 0.  1.
         12    1    3    3    0    0 -0.27719024763E+01  0.87471244181E+00 -0.13258270665E+02  0.13573146512E+02  0.00000000000E+00 0. -1.
</event>
<event>
 7    1  0.5121289E-013  0.5052883E+02  0.7816164E-02  0.1300439E+00
        -11   -1    0    0    0    0  0.00000000000E+00  0.00000000000E+00  0.45593999997E+02  0.45594000000E+02  0.51100000000E-03 0.  1.
         11   -1    0    0    0    0 -0.00000000000E+00 -0.00000000000E+00 -0.45593999997E+02  0.45594000000E+02  0.51100000000E-03 0. -1.
    9900012    2    1    2    0    0 -0.18913630975E+02 -0.82278601374E+01  0.35039196060E+02  0.50528826624E+02  0.29999899005E+02 0.  0.
         12    1    1    2    0    0  0.18913630975E+02  0.82278601374E+01 -0.35039196060E+02  0.40659173376E+02  0.00000000000E+00 0. -1.
         11    1    3    3    0    0  0.37584363991E+01 -0.83890421901E+01  0.16132671275E+02  0.18567847365E+02  0.51100000000E-03 0. -1.
        -11    1    3    3    0    0 -0.54227660846E+01 -0.52934920262E+01  0.68944720696E+01  0.10245057111E+02  0.51100000000E-03 0.  1.
        -12    1    3    3    0    0 -0.17249301289E+02  0.54546740789E+01  0.12012052716E+02  0.21715922147E+02  0.00000000000E+00 0.  1.
</event>
<event>
 7    1  0.5121289E-013  0.5052886E+02  0.7816164E-02  0.1300439E+00
        -11   -1    0    0    0    0  0.00000000000E+00  0.00000000000E+00  0.45593999997E+02  0.45594000000E+02  0.51100000000E-03 0.  1.
         11   -1    0    0    0    0 -0.00000000000E+00 -0.00000000000E+00 -0.45593999997E+02  0.45594000000E+02  0.51100000000E-03 0. -1.
    9900012    2    1    2    0    0 -0.12794608873E+01 -0.43878536655E+01  0.40401429485E+02  0.50528858538E+02  0.29999996014E+02 0.  0.
         12    1    1    2    0    0  0.12794608873E+01  0.43878536655E+01 -0.40401429485E+02  0.40659141462E+02  0.00000000000E+00 0. -1.
         11    1    3    3    0    0  0.11770144310E+00  0.45137652533E+01  0.17317741952E+02  0.17896706874E+02  0.51100000000E-03 0.  1.
        -11    1    3    3    0    0 -0.19683843054E+01  0.56557596382E+01  0.14583378439E+02  0.15765058859E+02  0.51100000000E-03 0. -1.
        -12    1    3    3    0    0  0.57122197497E+00 -0.14557378557E+02  0.85003090943E+01  0.16867092805E+02  0.00000000000E+00 0.  1.
</event>
<event>
 7    1  0.5121289E-013  0.5052886E+02  0.7816164E-02  0.1300439E+00
        -11   -1    0    0    0    0  0.00000000000E+00  0.00000000000E+00  0.45593999997E+02  0.45594000000E+02  0.51100000000E-03 0.  1.
         11   -1    0    0    0    0 -0.00000000000E+00 -0.00000000000E+00 -0.45593999997E+02  0.45594000000E+02  0.51100000000E-03 0. -1.
    9900012    2    1    2    0    0  0.22020916145E+02 -0.33884869790E+02 -0.44788592862E+01  0.50528864137E+02  0.30000013032E+02 0.  0.
         12    1    1    2    0    0 -0.22020916145E+02  0.33884869790E+02  0.44788592862E+01  0.40659135863E+02  0.00000000000E+00 0. -1.
         11    1    3    3    0    0 -0.25292713702E+01  0.22173259105E+01 -0.13410710178E+01  0.36210798932E+01  0.51100000000E-03 0. -1.
        -11    1    3    3    0    0 -0.95333494666E+00  0.29097916904E+00 -0.22480468369E+01  0.24591118802E+01  0.51100000000E-03 0.  1.
        -12    1    3    3    0    0  0.25503522462E+02 -0.36393174870E+02 -0.88974143151E+00  0.44448672364E+02  0.00000000000E+00 0.  1.
</event>
<event>
 7    1  0.5121289E-013  0.5052886E+02  0.7816164E-02  0.1300439E+00
        -11   -1    0    0    0    0  0.00000000000E+00  0.00000000000E+00  0.45593999997E+02  0.45594000000E+02  0.51100000000E-03 0.  1.
         11   -1    0    0    0    0 -0.00000000000E+00 -0.00000000000E+00 -0.45593999997E+02  0.45594000000E+02  0.51100000000E-03 0. -1.
    9900012    2    1    2    0    0 -0.40422176493E+02 -0.41680994450E+00  0.43633960864E+01  0.50528864392E+02  0.30000013807E+02 0.  0.
         12    1    1    2    0    0  0.40422176493E+02  0.41680994450E+00 -0.43633960864E+01  0.40659135608E+02  0.00000000000E+00 0. -1.
         11    1    3    3    0    0 -0.83278197227E+01 -0.13087371306E+00  0.48545901279E+01  0.96403710942E+01  0.51100000000E-03 0. -1.
        -11    1    3    3    0    0 -0.53748587026E+01  0.24833045047E+01  0.10347475029E+02  0.11921667126E+02  0.51100000000E-03 0.  1.
        -12    1    3    3    0    0 -0.26719498068E+02 -0.27692407361E+01 -0.10838669070E+02  0.28966826172E+02  0.00000000000E+00 0.  1.
</event>
<event>
 7    1  0.5121289E-013  0.5052889E+02  0.7816164E-02  0.1300439E+00
        -11   -1    0    0    0    0  0.00000000000E+00  0.00000000000E+00  0.45593999997E+02  0.45594000000E+02  0.51100000000E-03 0. -1.
         11   -1    0    0    0    0 -0.00000000000E+00 -0.00000000000E+00 -0.45593999997E+02  0.45594000000E+02  0.51100000000E-03 0.  1.
    9900012    2    1    2    0    0  0.25201223898E+02 -0.31144079541E+02  0.69359696343E+01  0.50528892150E+02  0.30000098179E+02 0.  0.
         12    1    1    2    0    0 -0.25201223898E+02  0.31144079541E+02 -0.69359696343E+01  0.40659107850E+02  0.00000000000E+00 0. -1.
         11    1    3    3    0    0  0.12804881786E+01 -0.55927491498E+01  0.10958192871E+02  0.12369336453E+02  0.51100000000E-03 0. -1.
        -11    1    3    3    0    0  0.19980865007E+01 -0.10385179332E+02 -0.45114339715E+01  0.11497710040E+02  0.51100000000E-03 0.  1.
         12    1    3    3    0    0  0.21922649219E+02 -0.15166151058E+02  0.48921073521E+00  0.26661845657E+02  0.00000000000E+00 0. -1.
</event>
<event>
 7    1  0.5121289E-013  0.5052885E+02  0.7816164E-02  0.1300439E+00
        -11   -1    0    0    0    0  0.00000000000E+00  0.00000000000E+00  0.45593999997E+02  0.45594000000E+02  0.51100000000E-03 0. -1.
         11   -1    0    0    0    0 -0.00000000000E+00 -0.00000000000E+00 -0.45593999997E+02  0.45594000000E+02  0.51100000000E-03 0.  1.
    9900012    2    1    2    0    0  0.24849640675E+02 -0.31301078180E+02 -0.74769067733E+01  0.50528852545E+02  0.29999977794E+02 0.  0.
         12    1    1    2    0    0 -0.24849640675E+02  0.31301078180E+02  0.74769067733E+01  0.40659147455E+02  0.00000000000E+00 0. -1.
         11    1    3    3    0    0 -0.54712087245E+01 -0.43067089213E+01  0.25106525385E+01  0.74017054163E+01  0.51100000000E-03 0. -1.
        -11    1    3    3    0    0  0.22422947321E+01 -0.29699611155E+01  0.20671244105E+01  0.42569423631E+01  0.51100000000E-03 0.  1.
         12    1    3    3    0    0  0.28078554667E+02 -0.24024408143E+02 -0.12054683722E+02  0.38870204765E+02  0.00000000000E+00 0. -1.
</event>
<event>
 7    1  0.5121289E-013  0.5052885E+02  0.7816164E-02  0.1300439E+00
        -11   -1    0    0    0    0  0.00000000000E+00  0.00000000000E+00  0.45593999997E+02  0.45594000000E+02  0.51100000000E-03 0.  1.
         11   -1    0    0    0    0 -0.00000000000E+00 -0.00000000000E+00 -0.45593999997E+02  0.45594000000E+02  0.51100000000E-03 0. -1.
    9900012    2    1    2    0    0 -0.90818108369E+01 -0.99970622141E+01  0.38350308396E+02  0.50528847339E+02  0.29999961972E+02 0.  0.
         12    1    1    2    0    0  0.90818108369E+01  0.99970622141E+01 -0.38350308396E+02  0.40659152661E+02  0.00000000000E+00 0. -1.
         11    1    3    3    0    0  0.64995421928E+01 -0.38003709344E+01  0.51517871986E+01  0.91229260413E+01  0.51100000000E-03 0. -1.
        -11    1    3    3    0    0 -0.11696258606E+02 -0.93093441776E+01  0.10751779353E+02  0.18413775113E+02  0.51100000000E-03 0.  1.
        -12    1    3    3    0    0 -0.38850944240E+01  0.31126528979E+01  0.22446741845E+02  0.22992146185E+02  0.00000000000E+00 0.  1.
</event>
<event>
 7    1  0.5121289E-013  0.5052886E+02  0.7816164E-02  0.1300439E+00
        -11   -1    0    0    0    0  0.00000000000E+00  0.00000000000E+00  0.45593999997E+02  0.45594000000E+02  0.51100000000E-03 0.  1.
         11   -1    0    0    0    0 -0.00000000000E+00 -0.00000000000E+00 -0.45593999997E+02  0.45594000000E+02  0.51100000000E-03 0. -1.
    9900012    2    1    2    0    0  0.18403863866E+02  0.36187749149E+02 -0.22159009120E+01  0.50528860677E+02  0.30000002514E+02 0.  0.
         12    1    1    2    0    0 -0.18403863866E+02 -0.36187749149E+02  0.22159009120E+01  0.40659139323E+02  0.00000000000E+00 0. -1.
         11    1    3    3    0    0  0.37961253556E+01  0.59084527979E+01 -0.76513863491E+01  0.10385764079E+02  0.51100000000E-03 0. -1.
        -11    1    3    3    0    0 -0.34436417511E+01  0.16555891862E+01 -0.34582576304E+01  0.51535609206E+01  0.51100000000E-03 0.  1.
         12    1    3    3    0    0  0.18051380261E+02  0.28623707165E+02  0.88937430676E+01  0.34989535677E+02  0.00000000000E+00 0. -1.
</event>
<event>
 7    1  0.5121289E-013  0.5052887E+02  0.7816164E-02  0.1300439E+00
        -11   -1    0    0    0    0  0.00000000000E+00  0.00000000000E+00  0.45593999997E+02  0.45594000000E+02  0.51100000000E-03 0.  1.
         11   -1    0    0    0    0 -0.00000000000E+00 -0.00000000000E+00 -0.45593999997E+02  0.45594000000E+02  0.51100000000E-03 0. -1.
    9900012    2    1    2    0    0 -0.23462111968E+01  0.39889641276E+02 -0.75151047755E+01  0.50528868333E+02  0.30000025786E+02 0.  0.
         12    1    1    2    0    0  0.23462111968E+01 -0.39889641276E+02  0.75151047755E+01  0.40659131667E+02  0.00000000000E+00 0. -1.
         11    1    3    3    0    0 -0.14675771209E+01  0.81542013401E+01  0.57650889468E+01  0.10093613472E+02  0.51100000000E-03 0. -1.
        -11    1    3    3    0    0  0.44038129469E+01  0.13108654354E+02  0.40934060998E+01  0.14421732254E+02  0.51100000000E-03 0.  1.
         12    1    3    3    0    0 -0.52824470228E+01  0.18626785582E+02 -0.17373599822E+02  0.26013522607E+02  0.00000000000E+00 0. -1.
</event>
<event>
 7    1  0.5121289E-013  0.5052885E+02  0.7816164E-02  0.1300439E+00
        -11   -1    0    0    0    0  0.00000000000E+00  0.00000000000E+00  0.45593999997E+02  0.45594000000E+02  0.51100000000E-03 0.  1.
         11   -1    0    0    0    0 -0.00000000000E+00 -0.00000000000E+00 -0.45593999997E+02  0.45594000000E+02  0.51100000000E-03 0. -1.
    9900012    2    1    2    0    0  0.27106899121E+02  0.23107498298E+02  0.19606775079E+02  0.50528854823E+02  0.29999984720E+02 0.  0.
         12    1    1    2    0    0 -0.27106899121E+02 -0.23107498298E+02 -0.19606775079E+02  0.40659145177E+02  0.00000000000E+00 0. -1.
         11    1    3    3    0    0  0.57386250915E+01 -0.29714124026E+01  0.57247552887E+00  0.64875910860E+01  0.51100000000E-03 0. -1.
        -11    1    3    3    0    0  0.54622778404E+01  0.67423283394E+00  0.12075752135E+02  0.13270827367E+02  0.51100000000E-03 0.  1.
         12    1    3    3    0    0  0.15905996189E+02  0.25404677867E+02  0.69585474151E+01  0.30770436370E+02  0.00000000000E+00 0. -1.
</event>
<event>
 7    1  0.5121289E-013  0.5052887E+02  0.7816164E-02  0.1300439E+00
        -11   -1    0    0    0    0  0.00000000000E+00  0.00000000000E+00  0.45593999997E+02  0.45594000000E+02  0.51100000000E-03 0. -1.
         11   -1    0    0    0    0 -0.00000000000E+00 -0.00000000000E+00 -0.45593999997E+02  0.45594000000E+02  0.51100000000E-03 0.  1.
    9900012    2    1    2    0    0 -0.19780195044E+02  0.34433276725E+02  0.87326076731E+01  0.50528866970E+02  0.30000021642E+02 0.  0.
         12    1    1    2    0    0  0.19780195044E+02 -0.34433276725E+02 -0.87326076731E+01  0.40659133030E+02  0.00000000000E+00 0. -1.
         11    1    3    3    0    0 -0.78205492406E+01  0.33594791857E+01 -0.43065405615E+01  0.95390451668E+01  0.51100000000E-03 0.  1.
        -11    1    3    3    0    0  0.47853178721E+01  0.32580802036E+01  0.47315994679E+01  0.74767899219E+01  0.51100000000E-03 0. -1.
         12    1    3    3    0    0 -0.16744963675E+02  0.27815717335E+02  0.83075487667E+01  0.33513031881E+02  0.00000000000E+00 0. -1.
</event>
<event>
 7    1  0.5121289E-013  0.5052886E+02  0.7816164E-02  0.1300439E+00
        -11   -1    0    0    0    0  0.00000000000E+00  0.00000000000E+00  0.45593999997E+02  0.45594000000E+02  0.51100000000E-03 0. -1.
         11   -1    0    0    0    0 -0.00000000000E+00 -0.00000000000E+00 -0.45593999997E+02  0.45594000000E+02  0.51100000000E-03 0.  1.
    9900012    2    1    2    0    0  0.34707764117E+02  0.21099050351E+02 -0.18348597818E+01  0.50528861714E+02  0.30000005666E+02 0.  0.
         12    1    1    2    0    0 -0.34707764117E+02 -0.21099050351E+02  0.18348597818E+01  0.40659138286E+02  0.00000000000E+00 0. -1.
         11    1    3    3    0    0  0.86947874740E+00  0.43697499690E+01  0.44483471088E+01  0.62959113991E+01  0.51100000000E-03 0. -1.
        -11    1    3    3    0    0  0.49471090578E+01  0.10725438898E+01  0.71264904892E+01  0.87413445979E+01  0.51100000000E-03 0.  1.
        -12    1    3    3    0    0  0.28891176312E+02  0.15656756492E+02 -0.13409697380E+02  0.35491605717E+02  0.00000000000E+00 0.  1.
</event>
<event>
 7    1  0.5121289E-013  0.5052887E+02  0.7816164E-02  0.1300439E+00
        -11   -1    0    0    0    0  0.00000000000E+00  0.00000000000E+00  0.45593999997E+02  0.45594000000E+02  0.51100000000E-03 0.  1.
         11   -1    0    0    0    0 -0.00000000000E+00 -0.00000000000E+00 -0.45593999997E+02  0.45594000000E+02  0.51100000000E-03 0. -1.
    9900012    2    1    2    0    0  0.79460075526E+01  0.96628030187E+00  0.39863422125E+02  0.50528866252E+02  0.30000019458E+02 0.  0.
         12    1    1    2    0    0 -0.79460075526E+01 -0.96628030187E+00 -0.39863422125E+02  0.40659133748E+02  0.00000000000E+00 0. -1.
         11    1    3    3    0    0 -0.39519153816E+00 -0.77646355307E+01  0.14133233774E+02  0.16130531251E+02  0.51100000000E-03 0.  1.
        -11    1    3    3    0    0 -0.55917239035E+01 -0.10087983973E+01  0.82280567170E+01  0.99992983763E+01  0.51100000000E-03 0. -1.
         12    1    3    3    0    0  0.13932922994E+02  0.97397142299E+01  0.17502131634E+02  0.24399036624E+02  0.00000000000E+00 0. -1.
</event>
<event>
 7    1  0.5121289E-013  0.5052887E+02  0.7816164E-02  0.1300439E+00
        -11   -1    0    0    0    0  0.00000000000E+00  0.00000000000E+00  0.45593999997E+02  0.45594000000E+02  0.51100000000E-03 0.  1.
         11   -1    0    0    0    0 -0.00000000000E+00 -0.00000000000E+00 -0.45593999997E+02  0.45594000000E+02  0.51100000000E-03 0. -1.
    9900012    2    1    2    0    0  0.85996702578E+01 -0.42399500678E+01  0.39512448351E+02  0.50528867203E+02  0.30000022350E+02 0.  0.
         12    1    1    2    0    0 -0.85996702578E+01  0.42399500678E+01 -0.39512448351E+02  0.40659132797E+02  0.00000000000E+00 0. -1.
         11    1    3    3    0    0  0.28530513995E+01  0.28042657399E+01  0.56191298411E+01  0.68977118714E+01  0.51100000000E-03 0. -1.
        -11    1    3    3    0    0  0.14550126792E+02  0.12284388231E+01  0.13274102900E+02  0.19733652973E+02  0.51100000000E-03 0.  1.
         12    1    3    3    0    0 -0.88035079341E+01 -0.82726546308E+01  0.20619215610E+02  0.23897502358E+02  0.00000000000E+00 0. -1.
</event>
<event>
 7    1  0.5121289E-013  0.5052886E+02  0.7816164E-02  0.1300439E+00
        -11   -1    0    0    0    0  0.00000000000E+00  0.00000000000E+00  0.45593999997E+02  0.45594000000E+02  0.51100000000E-03 0. -1.
         11   -1    0    0    0    0 -0.00000000000E+00 -0.00000000000E+00 -0.45593999997E+02  0.45594000000E+02  0.51100000000E-03 0.  1.
    9900012    2    1    2    0    0 -0.24296993880E+02 -0.24016185476E+02 -0.22046424352E+02  0.50528857078E+02  0.29999991575E+02 0.  0.
         12    1    1    2    0    0  0.24296993880E+02  0.24016185476E+02  0.22046424352E+02  0.40659142922E+02  0.00000000000E+00 0. -1.
         11    1    3    3    0    0 -0.14282720236E+00 -0.10062745407E+02 -0.16664054143E+01  0.10200791734E+02  0.51100000000E-03 0. -1.
        -11    1    3    3    0    0 -0.75312008625E+01 -0.15233725712E+02 -0.15385674347E+02  0.22923881890E+02  0.51100000000E-03 0.  1.
         12    1    3    3    0    0 -0.16622965815E+02  0.12802856433E+01 -0.49943445902E+01  0.17404183454E+02  0.00000000000E+00 0. -1.
</event>
<event>
 7    1  0.5121289E-013  0.5052887E+02  0.7816164E-02  0.1300439E+00
        -11   -1    0    0    0    0  0.00000000000E+00  0.00000000000E+00  0.45593999997E+02  0.45594000000E+02  0.51100000000E-03 0.  1.
         11   -1    0    0    0    0 -0.00000000000E+00 -0.00000000000E+00 -0.45593999997E+02  0.45594000000E+02  0.51100000000E-03 0. -1.
    9900012    2    1    2    0    0 -0.27315068986E+01 -0.22033758111E+02  0.34061967422E+02  0.50528865096E+02  0.30000015946E+02 0.  0.
         12    1    1    2    0    0  0.27315068986E+01  0.22033758111E+02 -0.34061967422E+02  0.40659134904E+02  0.00000000000E+00 0. -1.
         11    1    3    3    0    0  0.18988312149E+00  0.31556535966E+01  0.63019173573E+01  0.70504161481E+01  0.51100000000E-03 0. -1.
        -11    1    3    3    0    0  0.89255746103E+01 -0.11873951627E+02  0.17341657845E+02  0.22833959499E+02  0.51100000000E-03 0.  1.
        -12    1    3    3    0    0 -0.11846964630E+02 -0.13315460081E+02  0.10418392221E+02  0.20644489449E+02  0.00000000000E+00 0.  1.
</event>
<event>
 7    1  0.5121289E-013  0.5052886E+02  0.7816164E-02  0.1300439E+00
        -11   -1    0    0    0    0  0.00000000000E+00  0.00000000000E+00  0.45593999997E+02  0.45594000000E+02  0.51100000000E-03 0. -1.
         11   -1    0    0    0    0 -0.00000000000E+00 -0.00000000000E+00 -0.45593999997E+02  0.45594000000E+02  0.51100000000E-03 0.  1.
    9900012    2    1    2    0    0  0.20468494353E+02 -0.32912886317E+02 -0.12286102877E+02  0.50528859937E+02  0.30000000264E+02 0.  0.
         12    1    1    2    0    0 -0.20468494353E+02  0.32912886317E+02  0.12286102877E+02  0.40659140063E+02  0.00000000000E+00 0. -1.
         11    1    3    3    0    0 -0.24990498449E+01 -0.85190121853E+01 -0.57990330980E+01  0.10604131453E+02  0.51100000000E-03 0. -1.
        -11    1    3    3    0    0  0.14786474576E+02 -0.20720034979E+02 -0.13245644768E+02  0.28695065525E+02  0.51100000000E-03 0.  1.
        -12    1    3    3    0    0  0.81810696221E+01 -0.36738391527E+01  0.67585749890E+01  0.11229662959E+02  0.00000000000E+00 0.  1.
</event>
<event>
 7    1  0.5121289E-013  0.5052886E+02  0.7816164E-02  0.1300439E+00
        -11   -1    0    0    0    0  0.00000000000E+00  0.00000000000E+00  0.45593999997E+02  0.45594000000E+02  0.51100000000E-03 0. -1.
         11   -1    0    0    0    0 -0.00000000000E+00 -0.00000000000E+00 -0.45593999997E+02  0.45594000000E+02  0.51100000000E-03 0.  1.
    9900012    2    1    2    0    0  0.32348324444E+02 -0.22406284992E+01 -0.24530206142E+02  0.50528861743E+02  0.30000005756E+02 0.  0.
         12    1    1    2    0    0 -0.32348324444E+02  0.22406284992E+01  0.24530206142E+02  0.40659138257E+02  0.00000000000E+00 0. -1.
         11    1    3    3    0    0  0.13366738429E+02  0.16781725978E+00 -0.23553867665E+01  0.13573713786E+02  0.51100000000E-03 0. -1.
        -11    1    3    3    0    0  0.20942158678E+02 -0.53782757573E+01 -0.24521406742E+02  0.32692495302E+02  0.51100000000E-03 0.  1.
         12    1    3    3    0    0 -0.19605726637E+01  0.29698299984E+01  0.23465873664E+01  0.42626526550E+01  0.00000000000E+00 0. -1.
</event>
<event>
 7    1  0.5121289E-013  0.5052886E+02  0.7816164E-02  0.1300439E+00
        -11   -1    0    0    0    0  0.00000000000E+00  0.00000000000E+00  0.45593999997E+02  0.45594000000E+02  0.51100000000E-03 0.  1.
         11   -1    0    0    0    0 -0.00000000000E+00 -0.00000000000E+00 -0.45593999997E+02  0.45594000000E+02  0.51100000000E-03 0. -1.
    9900012    2    1    2    0    0  0.27927991895E+02  0.13190082263E+02  0.26442660440E+02  0.50528864587E+02  0.30000014398E+02 0.  0.
         12    1    1    2    0    0 -0.27927991895E+02 -0.13190082263E+02 -0.26442660440E+02  0.40659135413E+02  0.00000000000E+00 0. -1.
         11    1    3    3    0    0  0.72621422123E+01  0.23509889398E+01  0.73501646420E+01  0.10596734357E+02  0.51100000000E-03 0. -1.
        -11    1    3    3    0    0  0.25898646200E+02  0.87608382257E+01  0.20447756267E+02  0.34140927024E+02  0.51100000000E-03 0.  1.
         12    1    3    3    0    0 -0.52327965171E+01  0.20782550973E+01 -0.13552604690E+01  0.57912032064E+01  0.00000000000E+00 0. -1.
</event>
<event>
 7    1  0.5121289E-013  0.5052887E+02  0.7816164E-02  0.1300439E+00
        -11   -1    0    0    0    0  0.00000000000E+00  0.00000000000E+00  0.45593999997E+02  0.45594000000E+02  0.51100000000E-03 0. -1.
         11   -1    0    0    0    0 -0.00000000000E+00 -0.00000000000E+00 -0.45593999997E+02  0.45594000000E+02  0.51100000000E-03 0.  1.
    9900012    2    1    2    0    0  0.85304911302E+01  0.23209871671E+02 -0.32275338431E+02  0.50528869503E+02  0.30000029342E+02 0.  0.
         12    1    1    2    0    0 -0.85304911302E+01 -0.23209871671E+02  0.32275338431E+02  0.40659130497E+02  0.00000000000E+00 0. -1.
         11    1    3    3    0    0  0.12166935151E+01  0.46522473810E+01 -0.18567365401E+02  0.19179958473E+02  0.51100000000E-03 0. -1.
        -11    1    3    3    0    0  0.11183613543E+02  0.16630035147E+02 -0.16703653135E+02  0.26089141595E+02  0.51100000000E-03 0.  1.
         12    1    3    3    0    0 -0.38698159281E+01  0.19275891434E+01  0.29956801052E+01  0.52597694356E+01  0.00000000000E+00 0. -1.
</event>
<event>
 7    1  0.5121289E-013  0.5052886E+02  0.7816164E-02  0.1300439E+00
        -11   -1    0    0    0    0  0.00000000000E+00  0.00000000000E+00  0.45593999997E+02  0.45594000000E+02  0.51100000000E-03 0.  1.
         11   -1    0    0    0    0 -0.00000000000E+00 -0.00000000000E+00 -0.45593999997E+02  0.45594000000E+02  0.51100000000E-03 0. -1.
    9900012    2    1    2    0    0 -0.17201041813E+01  0.13954041778E+01  0.40598764326E+02  0.50528861101E+02  0.30000003804E+02 0.  0.
         12    1    1    2    0    0  0.17201041813E+01 -0.13954041778E+01 -0.40598764326E+02  0.40659138899E+02  0.00000000000E+00 0. -1.
         11    1    3    3    0    0  0.24762529434E+01 -0.21039126419E+00  0.24210211292E+01  0.34695009285E+01  0.51100000000E-03 0. -1.
        -11    1    3    3    0    0  0.11607424597E+02 -0.12527670411E+00  0.16674192939E+02  0.20316907010E+02  0.51100000000E-03 0.  1.
         12    1    3    3    0    0 -0.15803781722E+02  0.17310721461E+01  0.21503550258E+02  0.26742453163E+02  0.00000000000E+00 0. -1.
</event>
<event>
 7    1  0.5121289E-013  0.5052884E+02  0.7816164E-02  0.1300439E+00
        -11   -1    0    0    0    0  0.00000000000E+00  0.00000000000E+00  0.45593999997E+02  0.45594000000E+02  0.51100000000E-03 0. -1.
         11   -1    0    0    0    0 -0.00000000000E+00 -0.00000000000E+00 -0.45593999997E+02  0.45594000000E+02  0.51100000000E-03 0.  1.
    9900012    2    1    2    0    0  0.19115287146E+02 -0.14141402930E+02 -0.32981723978E+02  0.50528836260E+02  0.29999928295E+02 0.  0.
         12    1    1    2    0    0 -0.19115287146E+02  0.14141402930E+02  0.32981723978E+02  0.40659163740E+02  0.00000000000E+00 0. -1.
         11    1    3    3    0    0 -0.12615748906E+00  0.62758412533E-01  0.11555429469E+01  0.11641022694E+01  0.51100000000E-03 0. -1.
        -11    1    3    3    0    0  0.20474942962E+02 -0.43093856719E+00 -0.13521089250E+02  0.24540351508E+02  0.51100000000E-03 0.  1.
         12    1    3    3    0    0 -0.12334983267E+01 -0.13773222775E+02 -0.20616177675E+02  0.24824382483E+02  0.00000000000E+00 0. -1.
</event>
<event>
 7    1  0.5121289E-013  0.5052884E+02  0.7816164E-02  0.1300439E+00
        -11   -1    0    0    0    0  0.00000000000E+00  0.00000000000E+00  0.45593999997E+02  0.45594000000E+02  0.51100000000E-03 0.  1.
         11   -1    0    0    0    0 -0.00000000000E+00 -0.00000000000E+00 -0.45593999997E+02  0.45594000000E+02  0.51100000000E-03 0. -1.
    9900012    2    1    2    0    0  0.33955767395E+02 -0.82642186517E+01  0.20781630556E+02  0.50528835992E+02  0.29999927481E+02 0.  0.
         12    1    1    2    0    0 -0.33955767395E+02  0.82642186517E+01 -0.20781630556E+02  0.40659164008E+02  0.00000000000E+00 0. -1.
         11    1    3    3    0    0  0.27283859243E+02 -0.23897639049E+01  0.55864593049E+01  0.27952253479E+02  0.51100000000E-03 0. -1.
        -11    1    3    3    0    0 -0.71404366576E+00 -0.72852054901E+01  0.23423790939E+01  0.76857541900E+01  0.51100000000E-03 0.  1.
        -12    1    3    3    0    0  0.73859518172E+01  0.14107507433E+01  0.12852792157E+02  0.14890828323E+02  0.00000000000E+00 0.  1.
</event>
<event>
 7    1  0.5121289E-013  0.5052887E+02  0.7816164E-02  0.1300439E+00
        -11   -1    0    0    0    0  0.00000000000E+00  0.00000000000E+00  0.45593999997E+02  0.45594000000E+02  0.51100000000E-03 0.  1.
         11   -1    0    0    0    0 -0.00000000000E+00 -0.00000000000E+00 -0.45593999997E+02  0.45594000000E+02  0.51100000000E-03 0. -1.
    9900012    2    1    2    0    0  0.60005125976E+01 -0.39742013258E+02  0.61425769061E+01  0.50528867935E+02  0.30000024574E+02 0.  0.
         12    1    1    2    0    0 -0.60005125976E+01  0.39742013258E+02 -0.61425769061E+01  0.40659132065E+02  0.00000000000E+00 0. -1.
         11    1    3    3    0    0 -0.65811783385E+01 -0.19907086768E+02  0.36695870250E+01  0.21285438240E+02  0.51100000000E-03 0. -1.
        -11    1    3    3    0    0  0.25152359433E+01 -0.18710296628E+02  0.28513331234E+00  0.18880755097E+02  0.51100000000E-03 0.  1.
         12    1    3    3    0    0  0.10066454993E+02 -0.11246298630E+01  0.21878565688E+01  0.10362674598E+02  0.00000000000E+00 0. -1.
</event>
<event>
 7    1  0.5121289E-013  0.5052886E+02  0.7816164E-02  0.1300439E+00
        -11   -1    0    0    0    0  0.00000000000E+00  0.00000000000E+00  0.45593999997E+02  0.45594000000E+02  0.51100000000E-03 0.  1.
         11   -1    0    0    0    0 -0.00000000000E+00 -0.00000000000E+00 -0.45593999997E+02  0.45594000000E+02  0.51100000000E-03 0. -1.
    9900012    2    1    2    0    0  0.28881122206E+02 -0.28367447658E+02  0.37860543909E+01  0.50528861859E+02  0.30000006107E+02 0.  0.
         12    1    1    2    0    0 -0.28881122206E+02  0.28367447658E+02 -0.37860543909E+01  0.40659138141E+02  0.00000000000E+00 0. -1.
         11    1    3    3    0    0  0.40508069462E+01 -0.37992510019E-02  0.12753480793E+01  0.42468299159E+01  0.51100000000E-03 0. -1.
        -11    1    3    3    0    0  0.16836398654E+02 -0.15177681573E+02  0.14361522550E+02  0.26834300210E+02  0.51100000000E-03 0.  1.
        -12    1    3    3    0    0  0.79939166062E+01 -0.13185966834E+02 -0.11850816238E+02  0.19447731733E+02  0.00000000000E+00 0.  1.
</event>
<event>
 7    1  0.5121289E-013  0.5052881E+02  0.7816164E-02  0.1300439E+00
        -11   -1    0    0    0    0  0.00000000000E+00  0.00000000000E+00  0.45593999997E+02  0.45594000000E+02  0.51100000000E-03 0.  1.
         11   -1    0    0    0    0 -0.00000000000E+00 -0.00000000000E+00 -0.45593999997E+02  0.45594000000E+02  0.51100000000E-03 0. -1.
    9900012    2    1    2    0    0 -0.22569208982E+02  0.33353048872E+02  0.56013121818E+01  0.50528809633E+02  0.29999847360E+02 0.  0.
         12    1    1    2    0    0  0.22569208982E+02 -0.33353048872E+02 -0.56013121818E+01  0.40659190367E+02  0.00000000000E+00 0. -1.
         11    1    3    3    0    0 -0.10414755167E+02  0.26233967259E+02 -0.61256077728E+01  0.28882715146E+02  0.51100000000E-03 0. -1.
        -11    1    3    3    0    0  0.21925002463E+01  0.19304674474E+01  0.22324323402E+01  0.36766175093E+01  0.51100000000E-03 0.  1.
        -12    1    3    3    0    0 -0.14346954061E+02  0.51886141657E+01  0.94944876145E+01  0.17969476977E+02  0.00000000000E+00 0.  1.
</event>
<event>
 7    1  0.5121289E-013  0.5052885E+02  0.7816164E-02  0.1300439E+00
        -11   -1    0    0    0    0  0.00000000000E+00  0.00000000000E+00  0.45593999997E+02  0.45594000000E+02  0.51100000000E-03 0.  1.
         11   -1    0    0    0    0 -0.00000000000E+00 -0.00000000000E+00 -0.45593999997E+02  0.45594000000E+02  0.51100000000E-03 0. -1.
    9900012    2    1    2    0    0  0.12713159430E+02 -0.15131304312E+02  0.35532876912E+02  0.50528854232E+02  0.29999982925E+02 0.  0.
         12    1    1    2    0    0 -0.12713159430E+02  0.15131304312E+02 -0.35532876912E+02  0.40659145768E+02  0.00000000000E+00 0. -1.
         11    1    3    3    0    0 -0.31945831202E+00  0.20896396053E+00  0.18550499107E+02  0.18554426343E+02  0.51100000000E-03 0. -1.
        -11    1    3    3    0    0  0.94484657890E+01 -0.13038069975E+02  0.20765775729E+02  0.26277028301E+02  0.51100000000E-03 0.  1.
        -12    1    3    3    0    0  0.35841519531E+01 -0.23021982971E+01 -0.37833979233E+01  0.56973995882E+01  0.00000000000E+00 0.  1.
</event>
<event>
 7    1  0.5121289E-013  0.5052887E+02  0.7816164E-02  0.1300439E+00
        -11   -1    0    0    0    0  0.00000000000E+00  0.00000000000E+00  0.45593999997E+02  0.45594000000E+02  0.51100000000E-03 0.  1.
         11   -1    0    0    0    0 -0.00000000000E+00 -0.00000000000E+00 -0.45593999997E+02  0.45594000000E+02  0.51100000000E-03 0. -1.
    9900012    2    1    2    0    0 -0.34221650188E+02 -0.19571121752E+02  0.99506254587E+01  0.50528867013E+02  0.30000021772E+02 0.  0.
         12    1    1    2    0    0  0.34221650188E+02  0.19571121752E+02 -0.99506254587E+01  0.40659132987E+02  0.00000000000E+00 0. -1.
         11    1    3    3    0    0 -0.67828022614E+01  0.12975145009E+00 -0.56510757779E+01  0.88293770825E+01  0.51100000000E-03 0. -1.
        -11    1    3    3    0    0 -0.21090245386E+02 -0.37617275463E+01  0.72402221378E+01  0.22613488484E+02  0.51100000000E-03 0.  1.
        -12    1    3    3    0    0 -0.63486025411E+01 -0.15939145656E+02  0.83614790988E+01  0.19086001446E+02  0.00000000000E+00 0.  1.
</event>
<event>
 7    1  0.5121289E-013  0.5052886E+02  0.7816164E-02  0.1300439E+00
        -11   -1    0    0    0    0  0.00000000000E+00  0.00000000000E+00  0.45593999997E+02  0.45594000000E+02  0.51100000000E-03 0. -1.
         11   -1    0    0    0    0 -0.00000000000E+00 -0.00000000000E+00 -0.45593999997E+02  0.45594000000E+02  0.51100000000E-03 0.  1.
    9900012    2    1    2    0    0  0.87551324535E+01 -0.32113536413E+02 -0.23350247902E+02  0.50528860285E+02  0.30000001323E+02 0.  0.
         12    1    1    2    0    0 -0.87551324535E+01  0.32113536413E+02  0.23350247902E+02  0.40659139715E+02  0.00000000000E+00 0. -1.
         11    1    3    3    0    0 -0.16610389335E+01 -0.23862469228E+02 -0.33769401304E+01  0.24157404929E+02  0.51100000000E-03 0. -1.
        -11    1    3    3    0    0  0.44709534332E+01 -0.64970928699E+01 -0.32389498409E+01  0.85259859661E+01  0.51100000000E-03 0.  1.
         12    1    3    3    0    0  0.59452179539E+01 -0.17539743159E+01 -0.16734357931E+02  0.17845469391E+02  0.00000000000E+00 0. -1.
</event>
<event>
 7    1  0.5121289E-013  0.5052886E+02  0.7816164E-02  0.1300439E+00
        -11   -1    0    0    0    0  0.00000000000E+00  0.00000000000E+00  0.45593999997E+02  0.45594000000E+02  0.51100000000E-03 0.  1.
         11   -1    0    0    0    0 -0.00000000000E+00 -0.00000000000E+00 -0.45593999997E+02  0.45594000000E+02  0.51100000000E-03 0. -1.
    9900012    2    1    2    0    0 -0.34357139001E+02 -0.15394028640E+02  0.15355012634E+02  0.50528861653E+02  0.30000005482E+02 0.  0.
         12    1    1    2    0    0  0.34357139001E+02  0.15394028640E+02 -0.15355012634E+02  0.40659138347E+02  0.00000000000E+00 0. -1.
         11    1    3    3    0    0 -0.58931308835E+01  0.21184756780E+01  0.61828156818E+01  0.88002352710E+01  0.51100000000E-03 0. -1.
        -11    1    3    3    0    0 -0.12765867792E+02  0.41755032927E+01  0.10749445899E-01  0.13431393227E+02  0.51100000000E-03 0.  1.
        -12    1    3    3    0    0 -0.15698140326E+02 -0.21688007611E+02  0.91614475062E+01  0.28297233155E+02  0.00000000000E+00 0.  1.
</event>
<event>
 7    1  0.5121289E-013  0.5052886E+02  0.7816164E-02  0.1300439E+00
        -11   -1    0    0    0    0  0.00000000000E+00  0.00000000000E+00  0.45593999997E+02  0.45594000000E+02  0.51100000000E-03 0.  1.
         11   -1    0    0    0    0 -0.00000000000E+00 -0.00000000000E+00 -0.45593999997E+02  0.45594000000E+02  0.51100000000E-03 0. -1.
    9900012    2    1    2    0    0  0.13452434036E+02 -0.33407324967E+02  0.18871889342E+02  0.50528861417E+02  0.30000004764E+02 0.  0.
         12    1    1    2    0    0 -0.13452434036E+02  0.33407324967E+02 -0.18871889342E+02  0.40659138583E+02  0.00000000000E+00 0. -1.
         11    1    3    3    0    0  0.69915425234E+01  0.34255269625E+01  0.18803328411E+00  0.77878917946E+01  0.51100000000E-03 0. -1.
        -11    1    3    3    0    0 -0.24999405480E+00 -0.38712324967E+01 -0.66407899760E+00  0.39357260128E+01  0.51100000000E-03 0.  1.
        -12    1    3    3    0    0  0.67108855670E+01 -0.32961619433E+02  0.19347935055E+02  0.38805243610E+02  0.00000000000E+00 0.  1.
</event>
<event>
 7    1  0.5121289E-013  0.5052887E+02  0.7816164E-02  0.1300439E+00
        -11   -1    0    0    0    0  0.00000000000E+00  0.00000000000E+00  0.45593999997E+02  0.45594000000E+02  0.51100000000E-03 0. -1.
         11   -1    0    0    0    0 -0.00000000000E+00 -0.00000000000E+00 -0.45593999997E+02  0.45594000000E+02  0.51100000000E-03 0.  1.
    9900012    2    1    2    0    0  0.38060457413E+02 -0.13844875474E+02  0.35896575705E+01  0.50528872650E+02  0.30000038907E+02 0.  0.
         12    1    1    2    0    0 -0.38060457413E+02  0.13844875474E+02 -0.35896575705E+01  0.40659127350E+02  0.00000000000E+00 0. -1.
         11    1    3    3    0    0 -0.58124180636E+00 -0.54525325277E+01 -0.25853021293E+01  0.60623213676E+01  0.51100000000E-03 0. -1.
        -11    1    3    3    0    0  0.21892886973E+02 -0.60472866184E+01  0.13067716209E+02  0.26203690249E+02  0.51100000000E-03 0.  1.
        -12    1    3    3    0    0  0.16748812246E+02 -0.23450563279E+01 -0.68927565090E+01  0.18262861034E+02  0.00000000000E+00 0.  1.
</event>
<event>
 7    1  0.5121289E-013  0.5052887E+02  0.7816164E-02  0.1300439E+00
        -11   -1    0    0    0    0  0.00000000000E+00  0.00000000000E+00  0.45593999997E+02  0.45594000000E+02  0.51100000000E-03 0.  1.
         11   -1    0    0    0    0 -0.00000000000E+00 -0.00000000000E+00 -0.45593999997E+02  0.45594000000E+02  0.51100000000E-03 0. -1.
    9900012    2    1    2    0    0  0.20160906914E+02 -0.30992170756E+02  0.16917084422E+02  0.50528873581E+02  0.30000041738E+02 0.  0.
         12    1    1    2    0    0 -0.20160906914E+02  0.30992170756E+02 -0.16917084422E+02  0.40659126419E+02  0.00000000000E+00 0. -1.
         11    1    3    3    0    0  0.79218909561E+01 -0.15405175498E+02  0.87332737643E+00  0.17344696290E+02  0.51100000000E-03 0. -1.
        -11    1    3    3    0    0  0.10396500041E+02 -0.20725758176E+02  0.10671445616E+02  0.25524968499E+02  0.51100000000E-03 0.  1.
         12    1    3    3    0    0  0.18425159164E+01  0.51387629175E+01  0.53723114294E+01  0.76592087920E+01  0.00000000000E+00 0. -1.
</event>
<event>
 7    1  0.5121289E-013  0.5052884E+02  0.7816164E-02  0.1300439E+00
        -11   -1    0    0    0    0  0.00000000000E+00  0.00000000000E+00  0.45593999997E+02  0.45594000000E+02  0.51100000000E-03 0.  1.
         11   -1    0    0    0    0 -0.00000000000E+00 -0.00000000000E+00 -0.45593999997E+02  0.45594000000E+02  0.51100000000E-03 0. -1.
    9900012    2    1    2    0    0  0.97406884503E+01  0.31979266667E+02  0.23143307934E+02  0.50528841005E+02  0.29999942718E+02 0.  0.
         12    1    1    2    0    0 -0.97406884503E+01 -0.31979266667E+02 -0.23143307934E+02  0.40659158995E+02  0.00000000000E+00 0. -1.
         11    1    3    3    0    0  0.46996181473E+01 -0.21445346700E+01  0.14351518260E+01  0.53614457664E+01  0.51100000000E-03 0. -1.
        -11    1    3    3    0    0 -0.30882997321E+01  0.14242805178E+02  0.18341024657E+02  0.23426230604E+02  0.51100000000E-03 0.  1.
         12    1    3    3    0    0  0.81293700350E+01  0.19880996159E+02  0.33671314514E+01  0.21741164635E+02  0.00000000000E+00 0. -1.
</event>
<event>
 7    1  0.5121289E-013  0.5052885E+02  0.7816164E-02  0.1300439E+00
        -11   -1    0    0    0    0  0.00000000000E+00  0.00000000000E+00  0.45593999997E+02  0.45594000000E+02  0.51100000000E-03 0. -1.
         11   -1    0    0    0    0 -0.00000000000E+00 -0.00000000000E+00 -0.45593999997E+02  0.45594000000E+02  0.51100000000E-03 0.  1.
    9900012    2    1    2    0    0 -0.13060229474E+02 -0.38053122682E+02  0.58785013458E+01  0.50528849519E+02  0.29999968599E+02 0.  0.
         12    1    1    2    0    0  0.13060229474E+02  0.38053122682E+02 -0.58785013458E+01  0.40659150481E+02  0.00000000000E+00 0. -1.
         11    1    3    3    0    0  0.43200444744E+01 -0.92236045104E+01 -0.34906536127E+01  0.10766723147E+02  0.51100000000E-03 0. -1.
        -11    1    3    3    0    0 -0.11372272117E+01 -0.86136764718E+01 -0.50910560480E+01  0.10070132076E+02  0.51100000000E-03 0.  1.
         12    1    3    3    0    0 -0.16243046737E+02 -0.20215841699E+02  0.14460211006E+02  0.29691994296E+02  0.00000000000E+00 0. -1.
</event>
<event>
 7    1  0.5121289E-013  0.5052885E+02  0.7816164E-02  0.1300439E+00
        -11   -1    0    0    0    0  0.00000000000E+00  0.00000000000E+00  0.45593999997E+02  0.45594000000E+02  0.51100000000E-03 0.  1.
         11   -1    0    0    0    0 -0.00000000000E+00 -0.00000000000E+00 -0.45593999997E+02  0.45594000000E+02  0.51100000000E-03 0. -1.
    9900012    2    1    2    0    0  0.75483824074E+01  0.27264791524E+01  0.39859182403E+02  0.50528853583E+02  0.29999980951E+02 0.  0.
         12    1    1    2    0    0 -0.75483824074E+01 -0.27264791524E+01 -0.39859182403E+02  0.40659146417E+02  0.00000000000E+00 0. -1.
         11    1    3    3    0    0 -0.48637786412E+01 -0.25071956035E+01  0.10317073162E+02  0.11678371948E+02  0.51100000000E-03 0. -1.
        -11    1    3    3    0    0  0.28987051245E+01 -0.82351907470E+01  0.10777876360E+02  0.13870237097E+02  0.51100000000E-03 0.  1.
         12    1    3    3    0    0  0.95134559242E+01  0.13468865503E+02  0.18764232881E+02  0.24980244538E+02  0.00000000000E+00 0. -1.
</event>
<event>
 7    1  0.5121289E-013  0.5052885E+02  0.7816164E-02  0.1300439E+00
        -11   -1    0    0    0    0  0.00000000000E+00  0.00000000000E+00  0.45593999997E+02  0.45594000000E+02  0.51100000000E-03 0.  1.
         11   -1    0    0    0    0 -0.00000000000E+00 -0.00000000000E+00 -0.45593999997E+02  0.45594000000E+02  0.51100000000E-03 0. -1.
    9900012    2    1    2    0    0 -0.24100544366E+02  0.12217697495E+02  0.30381867568E+02  0.50528852841E+02  0.29999978694E+02 0.  0.
         12    1    1    2    0    0  0.24100544366E+02 -0.12217697495E+02 -0.30381867568E+02  0.40659147159E+02  0.00000000000E+00 0. -1.
         11    1    3    3    0    0 -0.47207305333E+01 -0.31017097530E+01 -0.19632739983E+01  0.59799954191E+01  0.51100000000E-03 0. -1.
        -11    1    3    3    0    0  0.28333113875E+01  0.49902383956E+00  0.38696732041E+00  0.29028300293E+01  0.51100000000E-03 0.  1.
        -12    1    3    3    0    0 -0.22213125220E+02  0.14820383408E+02  0.31958174246E+02  0.41646027392E+02  0.00000000000E+00 0.  1.
</event>
<event>
 7    1  0.5121289E-013  0.5052886E+02  0.7816164E-02  0.1300439E+00
        -11   -1    0    0    0    0  0.00000000000E+00  0.00000000000E+00  0.45593999997E+02  0.45594000000E+02  0.51100000000E-03 0.  1.
         11   -1    0    0    0    0 -0.00000000000E+00 -0.00000000000E+00 -0.45593999997E+02  0.45594000000E+02  0.51100000000E-03 0. -1.
    9900012    2    1    2    0    0  0.36172955429E+02 -0.13003053588E+02 -0.13251555177E+02  0.50528858080E+02  0.29999994620E+02 0.  0.
         12    1    1    2    0    0 -0.36172955429E+02  0.13003053588E+02  0.13251555177E+02  0.40659141920E+02  0.00000000000E+00 0. -1.
         11    1    3    3    0    0  0.10098303447E+02  0.84610457349E-01 -0.14576347295E+02  0.17732816814E+02  0.51100000000E-03 0.  1.
        -11    1    3    3    0    0  0.11749383938E+02 -0.49603306928E+01 -0.67755988134E+01  0.14441663444E+02  0.51100000000E-03 0. -1.
        -12    1    3    3    0    0  0.14325268045E+02 -0.81273333521E+01  0.81003909319E+01  0.18354377822E+02  0.00000000000E+00 0.  1.
</event>
<event>
 7    1  0.5121289E-013  0.5052886E+02  0.7816164E-02  0.1300439E+00
        -11   -1    0    0    0    0  0.00000000000E+00  0.00000000000E+00  0.45593999997E+02  0.45594000000E+02  0.51100000000E-03 0.  1.
         11   -1    0    0    0    0 -0.00000000000E+00 -0.00000000000E+00 -0.45593999997E+02  0.45594000000E+02  0.51100000000E-03 0. -1.
    9900012    2    1    2    0    0  0.12595053887E+02 -0.25319056107E+02  0.29214311227E+02  0.50528856317E+02  0.29999989262E+02 0.  0.
         12    1    1    2    0    0 -0.12595053887E+02  0.25319056107E+02 -0.29214311227E+02  0.40659143683E+02  0.00000000000E+00 0. -1.
         11    1    3    3    0    0  0.10419115843E+02 -0.55443803241E+01  0.15143877652E+02  0.19199873925E+02  0.51100000000E-03 0. -1.
        -11    1    3    3    0    0  0.65830697339E+01 -0.16245184133E+02  0.17462379753E+02  0.24742221435E+02  0.51100000000E-03 0.  1.
         12    1    3    3    0    0 -0.44071316897E+01 -0.35294916494E+01 -0.33919461783E+01  0.65867609574E+01  0.00000000000E+00 0. -1.
</event>
<event>
 7    1  0.5121289E-013  0.5052886E+02  0.7816164E-02  0.1300439E+00
        -11   -1    0    0    0    0  0.00000000000E+00  0.00000000000E+00  0.45593999997E+02  0.45594000000E+02  0.51100000000E-03 0.  1.
         11   -1    0    0    0    0 -0.00000000000E+00 -0.00000000000E+00 -0.45593999997E+02  0.45594000000E+02  0.51100000000E-03 0. -1.
    9900012    2    1    2    0    0  0.23214199990E+02  0.11398038286E+02  0.31374377264E+02  0.50528857035E+02  0.29999991444E+02 0.  0.
         12    1    1    2    0    0 -0.23214199990E+02 -0.11398038286E+02 -0.31374377264E+02  0.40659142965E+02  0.00000000000E+00 0. -1.
         11    1    3    3    0    0  0.43839423496E-01 -0.53898435136E+01  0.23719907283E+01  0.58888602694E+01  0.51100000000E-03 0. -1.
        -11    1    3    3    0    0 -0.41449500956E+00  0.41104620258E+01 -0.11758426859E+01  0.42953824581E+01  0.51100000000E-03 0.  1.
         12    1    3    3    0    0  0.23584855576E+02  0.12677419774E+02  0.30178229222E+02  0.40344614308E+02  0.00000000000E+00 0. -1.
</event>
<event>
 7    1  0.5121289E-013  0.5052886E+02  0.7816164E-02  0.1300439E+00
        -11   -1    0    0    0    0  0.00000000000E+00  0.00000000000E+00  0.45593999997E+02  0.45594000000E+02  0.51100000000E-03 0.  1.
         11   -1    0    0    0    0 -0.00000000000E+00 -0.00000000000E+00 -0.45593999997E+02  0.45594000000E+02  0.51100000000E-03 0. -1.
    9900012    2    1    2    0    0  0.24350254355E+02 -0.15898214212E+02  0.28416155628E+02  0.50528855851E+02  0.29999987844E+02 0.  0.
         12    1    1    2    0    0 -0.24350254355E+02  0.15898214212E+02 -0.28416155628E+02  0.40659144149E+02  0.00000000000E+00 0. -1.
         11    1    3    3    0    0 -0.14673927671E+01 -0.20518810796E+01  0.16893138236E+01  0.30359906050E+01  0.51100000000E-03 0. -1.
        -11    1    3    3    0    0  0.12699891255E+02 -0.12106778358E+02  0.29166337944E+02  0.34037282345E+02  0.51100000000E-03 0.  1.
        -12    1    3    3    0    0  0.13117755867E+02 -0.17395547739E+01 -0.24394961393E+01  0.13455582901E+02  0.00000000000E+00 0.  1.
</event>
<event>
 7    1  0.5121289E-013  0.5052886E+02  0.7816164E-02  0.1300439E+00
        -11   -1    0    0    0    0  0.00000000000E+00  0.00000000000E+00  0.45593999997E+02  0.45594000000E+02  0.51100000000E-03 0. -1.
         11   -1    0    0    0    0 -0.00000000000E+00 -0.00000000000E+00 -0.45593999997E+02  0.45594000000E+02  0.51100000000E-03 0.  1.
    9900012    2    1    2    0    0 -0.26272246527E+02 -0.59297790293E+01 -0.30459353709E+02  0.50528862709E+02  0.30000008689E+02 0.  0.
         12    1    1    2    0    0  0.26272246527E+02  0.59297790293E+01  0.30459353709E+02  0.40659137291E+02  0.00000000000E+00 0. -1.
         11    1    3    3    0    0 -0.13269619647E+01  0.51612285643E+01 -0.10109441562E+02  0.11428032083E+02  0.51100000000E-03 0.  1.
        -11    1    3    3    0    0 -0.13253877459E+01  0.45216240746E+01 -0.10280188832E+01  0.48227129330E+01  0.51100000000E-03 0. -1.
        -12    1    3    3    0    0 -0.23619896816E+02 -0.15612631668E+02 -0.19321893264E+02  0.34278117692E+02  0.00000000000E+00 0.  1.
</event>
<event>
 7    1  0.5121289E-013  0.5052886E+02  0.7816164E-02  0.1300439E+00
        -11   -1    0    0    0    0  0.00000000000E+00  0.00000000000E+00  0.45593999997E+02  0.45594000000E+02  0.51100000000E-03 0.  1.
         11   -1    0    0    0    0 -0.00000000000E+00 -0.00000000000E+00 -0.45593999997E+02  0.45594000000E+02  0.51100000000E-03 0. -1.
    9900012    2    1    2    0    0 -0.25056436865E+02  0.28733794991E+02 -0.14131860247E+02  0.50528862319E+02  0.30000007505E+02 0.  0.
         12    1    1    2    0    0  0.25056436865E+02 -0.28733794991E+02  0.14131860247E+02  0.40659137681E+02  0.00000000000E+00 0. -1.
         11    1    3    3    0    0 -0.18195901771E+01  0.20263861781E+01 -0.11059978321E+02  0.11390358646E+02  0.51100000000E-03 0. -1.
        -11    1    3    3    0    0 -0.87276285120E+01  0.36186005185E+01 -0.67650716806E+01  0.11620325480E+02  0.51100000000E-03 0.  1.
        -12    1    3    3    0    0 -0.14509218176E+02  0.23088808294E+02  0.36931897550E+01  0.27518178193E+02  0.00000000000E+00 0.  1.
</event>
<event>
 7    1  0.5121289E-013  0.5052886E+02  0.7816164E-02  0.1300439E+00
        -11   -1    0    0    0    0  0.00000000000E+00  0.00000000000E+00  0.45593999997E+02  0.45594000000E+02  0.51100000000E-03 0.  1.
         11   -1    0    0    0    0 -0.00000000000E+00 -0.00000000000E+00 -0.45593999997E+02  0.45594000000E+02  0.51100000000E-03 0. -1.
    9900012    2    1    2    0    0 -0.58418991285E-01  0.30509354674E+02  0.26876418378E+02  0.50528855884E+02  0.29999987945E+02 0.  0.
         12    1    1    2    0    0  0.58418991285E-01 -0.30509354674E+02 -0.26876418378E+02  0.40659144116E+02  0.00000000000E+00 0. -1.
         11    1    3    3    0    0 -0.68308634953E+01  0.59817359738E+01  0.73695819842E+01  0.11694126741E+02  0.51100000000E-03 0. -1.
        -11    1    3    3    0    0 -0.65790308762E+01  0.16872485404E+02  0.11875746936E+02  0.21656356493E+02  0.51100000000E-03 0.  1.
        -12    1    3    3    0    0  0.13351475380E+02  0.76551332958E+01  0.76310894577E+01  0.17178372650E+02  0.00000000000E+00 0.  1.
</event>
<event>
 7    1  0.5121289E-013  0.5052886E+02  0.7816164E-02  0.1300439E+00
        -11   -1    0    0    0    0  0.00000000000E+00  0.00000000000E+00  0.45593999997E+02  0.45594000000E+02  0.51100000000E-03 0. -1.
         11   -1    0    0    0    0 -0.00000000000E+00 -0.00000000000E+00 -0.45593999997E+02  0.45594000000E+02  0.51100000000E-03 0.  1.
    9900012    2    1    2    0    0 -0.18612132448E+02  0.18909006230E+02 -0.30809145726E+02  0.50528862635E+02  0.30000008465E+02 0.  0.
         12    1    1    2    0    0  0.18612132448E+02 -0.18909006230E+02  0.30809145726E+02  0.40659137365E+02  0.00000000000E+00 0. -1.
         11    1    3    3    0    0  0.34610895421E+01  0.30984842091E+01 -0.17400418700E+01  0.49605938337E+01  0.51100000000E-03 0. -1.
        -11    1    3    3    0    0 -0.20353331315E+00  0.99774158362E+01 -0.18188022954E+01  0.10143879664E+02  0.51100000000E-03 0.  1.
         12    1    3    3    0    0 -0.21869688677E+02  0.58331061849E+01 -0.27250301561E+02  0.35424389138E+02  0.00000000000E+00 0. -1.
</event>
<event>
 7    1  0.5121289E-013  0.5052888E+02  0.7816164E-02  0.1300439E+00
        -11   -1    0    0    0    0  0.00000000000E+00  0.00000000000E+00  0.45593999997E+02  0.45594000000E+02  0.51100000000E-03 0.  1.
         11   -1    0    0    0    0 -0.00000000000E+00 -0.00000000000E+00 -0.45593999997E+02  0.45594000000E+02  0.51100000000E-03 0. -1.
    9900012    2    1    2    0    0 -0.74523451658E+01 -0.37268933980E+01  0.39796195567E+02  0.50528876000E+02  0.30000049089E+02 0.  0.
         12    1    1    2    0    0  0.74523451658E+01  0.37268933980E+01 -0.39796195567E+02  0.40659124000E+02  0.00000000000E+00 0. -1.
         11    1    3    3    0    0 -0.10184251795E+02  0.16508454417E+01  0.14945930417E+02  0.18161087841E+02  0.51100000000E-03 0. -1.
        -11    1    3    3    0    0 -0.16501622673E+01  0.43023175022E+01  0.20286846984E+02  0.20803584600E+02  0.51100000000E-03 0.  1.
         12    1    3    3    0    0  0.43820688961E+01 -0.96800563419E+01  0.45634181660E+01  0.11564203559E+02  0.00000000000E+00 0. -1.
</event>
<event>
 7    1  0.5121289E-013  0.5052886E+02  0.7816164E-02  0.1300439E+00
        -11   -1    0    0    0    0  0.00000000000E+00  0.00000000000E+00  0.45593999997E+02  0.45594000000E+02  0.51100000000E-03 0.  1.
         11   -1    0    0    0    0 -0.00000000000E+00 -0.00000000000E+00 -0.45593999997E+02  0.45594000000E+02  0.51100000000E-03 0. -1.
    9900012    2    1    2    0    0 -0.13458597329E+02  0.22238585482E+02  0.31264635720E+02  0.50528856219E+02  0.29999988964E+02 0.  0.
         12    1    1    2    0    0  0.13458597329E+02 -0.22238585482E+02 -0.31264635720E+02  0.40659143781E+02  0.00000000000E+00 0. -1.
         11    1    3    3    0    0 -0.71600199687E+01  0.96300025134E+01  0.79606260823E+01  0.14400500069E+02  0.51100000000E-03 0. -1.
        -11    1    3    3    0    0 -0.12264791108E+02  0.16037118975E+02  0.20266008685E+02  0.28606387297E+02  0.51100000000E-03 0.  1.
         12    1    3    3    0    0  0.59662137479E+01 -0.34285360065E+01  0.30380009526E+01  0.75219688527E+01  0.00000000000E+00 0. -1.
</event>
<event>
 7    1  0.5121289E-013  0.5052886E+02  0.7816164E-02  0.1300439E+00
        -11   -1    0    0    0    0  0.00000000000E+00  0.00000000000E+00  0.45593999997E+02  0.45594000000E+02  0.51100000000E-03 0.  1.
         11   -1    0    0    0    0 -0.00000000000E+00 -0.00000000000E+00 -0.45593999997E+02  0.45594000000E+02  0.51100000000E-03 0. -1.
    9900012    2    1    2    0    0  0.47699950992E+01 -0.20933255440E+02  0.34528421573E+02  0.50528856712E+02  0.29999990462E+02 0.  0.
         12    1    1    2    0    0 -0.47699950992E+01  0.20933255440E+02 -0.34528421573E+02  0.40659143288E+02  0.00000000000E+00 0. -1.
         11    1    3    3    0    0 -0.23417298278E+01  0.21973531741E+01  0.11377307304E+01  0.34068300566E+01  0.51100000000E-03 0. -1.
        -11    1    3    3    0    0 -0.40587872347E+00  0.63363916328E+00  0.17600043745E+02  0.17616122622E+02  0.51100000000E-03 0.  1.
        -12    1    3    3    0    0  0.75176036505E+01 -0.23764247778E+02  0.15790647097E+02  0.29505904034E+02  0.00000000000E+00 0.  1.
</event>
<event>
 7    1  0.5121289E-013  0.5052886E+02  0.7816164E-02  0.1300439E+00
        -11   -1    0    0    0    0  0.00000000000E+00  0.00000000000E+00  0.45593999997E+02  0.45594000000E+02  0.51100000000E-03 0.  1.
         11   -1    0    0    0    0 -0.00000000000E+00 -0.00000000000E+00 -0.45593999997E+02  0.45594000000E+02  0.51100000000E-03 0. -1.
    9900012    2    1    2    0    0 -0.37018710005E+02  0.16812400126E+02 -0.35219065782E+00  0.50528859248E+02  0.29999998169E+02 0.  0.
         12    1    1    2    0    0  0.37018710005E+02 -0.16812400126E+02  0.35219065782E+00  0.40659140752E+02  0.00000000000E+00 0. -1.
         11    1    3    3    0    0 -0.14115303506E+02  0.16418616847E+02 -0.97564070431E+01  0.23748689456E+02  0.51100000000E-03 0. -1.
        -11    1    3    3    0    0 -0.42382465080E+01  0.34821044616E+01 -0.34678828311E+00  0.54961847966E+01  0.51100000000E-03 0.  1.
        -12    1    3    3    0    0 -0.18665159992E+02 -0.30883211818E+01  0.97510046684E+01  0.21283984995E+02  0.00000000000E+00 0.  1.
</event>
<event>
 7    1  0.5121289E-013  0.5052886E+02  0.7816164E-02  0.1300439E+00
        -11   -1    0    0    0    0  0.00000000000E+00  0.00000000000E+00  0.45593999997E+02  0.45594000000E+02  0.51100000000E-03 0.  1.
         11   -1    0    0    0    0 -0.00000000000E+00 -0.00000000000E+00 -0.45593999997E+02  0.45594000000E+02  0.51100000000E-03 0. -1.
    9900012    2    1    2    0    0  0.16955809106E+01  0.35290367605E+02  0.20121651082E+02  0.50528857331E+02  0.29999992344E+02 0.  0.
         12    1    1    2    0    0 -0.16955809106E+01 -0.35290367605E+02 -0.20121651082E+02  0.40659142669E+02  0.00000000000E+00 0. -1.
         11    1    3    3    0    0 -0.57059435928E+00  0.67563893801E+01 -0.15396859403E+01  0.69530574882E+01  0.51100000000E-03 0. -1.
        -11    1    3    3    0    0  0.47024878244E+00  0.24012126175E+02  0.28968643190E+01  0.24190807355E+02  0.51100000000E-03 0.  1.
         12    1    3    3    0    0  0.17959264875E+01  0.45218520495E+01  0.18764472703E+02  0.19384992487E+02  0.00000000000E+00 0. -1.
</event>
<event>
 7    1  0.5121289E-013  0.5052886E+02  0.7816164E-02  0.1300439E+00
        -11   -1    0    0    0    0  0.00000000000E+00  0.00000000000E+00  0.45593999997E+02  0.45594000000E+02  0.51100000000E-03 0. -1.
         11   -1    0    0    0    0 -0.00000000000E+00 -0.00000000000E+00 -0.45593999997E+02  0.45594000000E+02  0.51100000000E-03 0.  1.
    9900012    2    1    2    0    0 -0.31349607962E+02 -0.15414075570E+02 -0.20803219897E+02  0.50528860767E+02  0.30000002788E+02 0.  0.
         12    1    1    2    0    0  0.31349607962E+02  0.15414075570E+02  0.20803219897E+02  0.40659139233E+02  0.00000000000E+00 0. -1.
         11    1    3    3    0    0 -0.91177009564E+01  0.21087821186E+01  0.36436320006E+01  0.10042683266E+02  0.51100000000E-03 0. -1.
        -11    1    3    3    0    0  0.14780763480E+00 -0.65986211870E+01 -0.90716369909E+01  0.11218656186E+02  0.51100000000E-03 0.  1.
        -12    1    3    3    0    0 -0.22379714640E+02 -0.10924236502E+02 -0.15375214907E+02  0.29267521316E+02  0.00000000000E+00 0.  1.
</event>
<event>
 7    1  0.5121289E-013  0.5052886E+02  0.7816164E-02  0.1300439E+00
        -11   -1    0    0    0    0  0.00000000000E+00  0.00000000000E+00  0.45593999997E+02  0.45594000000E+02  0.51100000000E-03 0.  1.
         11   -1    0    0    0    0 -0.00000000000E+00 -0.00000000000E+00 -0.45593999997E+02  0.45594000000E+02  0.51100000000E-03 0. -1.
    9900012    2    1    2    0    0  0.38595154711E+02 -0.10839800577E+02  0.67881315368E+01  0.50528856213E+02  0.29999988946E+02 0.  0.
         12    1    1    2    0    0 -0.38595154711E+02  0.10839800577E+02 -0.67881315368E+01  0.40659143787E+02  0.00000000000E+00 0. -1.
         11    1    3    3    0    0 -0.22106726427E+01 -0.31439326782E+00  0.66610900527E+01  0.70253852287E+01  0.51100000000E-03 0. -1.
        -11    1    3    3    0    0  0.61082761292E+01 -0.74955334582E+00  0.38565866648E+01  0.72626529900E+01  0.51100000000E-03 0.  1.
         12    1    3    3    0    0  0.34697551224E+02 -0.97758539638E+01 -0.37295451807E+01  0.36240817995E+02  0.00000000000E+00 0. -1.
</event>
<event>
 7    1  0.5121289E-013  0.5052886E+02  0.7816164E-02  0.1300439E+00
        -11   -1    0    0    0    0  0.00000000000E+00  0.00000000000E+00  0.45593999997E+02  0.45594000000E+02  0.51100000000E-03 0. -1.
         11   -1    0    0    0    0 -0.00000000000E+00 -0.00000000000E+00 -0.45593999997E+02  0.45594000000E+02  0.51100000000E-03 0.  1.
    9900012    2    1    2    0    0 -0.18017598713E+02 -0.28123464655E+02 -0.23186266231E+02  0.50528855035E+02  0.29999985365E+02 0.  0.
         12    1    1    2    0    0  0.18017598713E+02  0.28123464655E+02  0.23186266231E+02  0.40659144965E+02  0.00000000000E+00 0. -1.
         11    1    3    3    0    0 -0.65839433897E+01  0.11385689991E+01 -0.42363604570E+01  0.79114726889E+01  0.51100000000E-03 0.  1.
        -11    1    3    3    0    0 -0.12430195214E+01  0.23957967861E+01  0.19573089814E+01  0.33340663582E+01  0.51100000000E-03 0. -1.
        -12    1    3    3    0    0 -0.10190635802E+02 -0.31657830440E+02 -0.20907214755E+02  0.39283315988E+02  0.00000000000E+00 0.  1.
</event>
<event>
 7    1  0.5121289E-013  0.5052886E+02  0.7816164E-02  0.1300439E+00
        -11   -1    0    0    0    0  0.00000000000E+00  0.00000000000E+00  0.45593999997E+02  0.45594000000E+02  0.51100000000E-03 0.  1.
         11   -1    0    0    0    0 -0.00000000000E+00 -0.00000000000E+00 -0.45593999997E+02  0.45594000000E+02  0.51100000000E-03 0. -1.
    9900012    2    1    2    0    0  0.23991184560E+02  0.11743414582E+02  0.30654220889E+02  0.50528856121E+02  0.29999988666E+02 0.  0.
         12    1    1    2    0    0 -0.23991184560E+02 -0.11743414582E+02 -0.30654220889E+02  0.40659143879E+02  0.00000000000E+00 0. -1.
         11    1    3    3    0    0  0.77275865821E+01  0.35087295985E+01  0.16748755546E+02  0.18776250701E+02  0.51100000000E-03 0.  1.
        -11    1    3    3    0    0  0.45834596290E+01  0.12917245273E+02  0.10237014048E+01  0.13744500443E+02  0.51100000000E-03 0. -1.
         12    1    3    3    0    0  0.11680138349E+02 -0.46825602890E+01  0.12881763938E+02  0.18008104977E+02  0.00000000000E+00 0. -1.
</event>
<event>
 7    1  0.5121289E-013  0.5052886E+02  0.7816164E-02  0.1300439E+00
        -11   -1    0    0    0    0  0.00000000000E+00  0.00000000000E+00  0.45593999997E+02  0.45594000000E+02  0.51100000000E-03 0.  1.
         11   -1    0    0    0    0 -0.00000000000E+00 -0.00000000000E+00 -0.45593999997E+02  0.45594000000E+02  0.51100000000E-03 0. -1.
    9900012    2    1    2    0    0  0.16830733348E+01  0.81553513214E+01  0.39797277901E+02  0.50528858108E+02  0.29999994705E+02 0.  0.
         12    1    1    2    0    0 -0.16830733348E+01 -0.81553513214E+01 -0.39797277901E+02  0.40659141892E+02  0.00000000000E+00 0. -1.
         11    1    3    3    0    0 -0.58263516898E+01  0.35653441249E+01  0.82598560264E+01  0.10718361562E+02  0.51100000000E-03 0. -1.
        -11    1    3    3    0    0 -0.74646684486E+01 -0.22276458696E+01  0.11378273299E+02  0.13789444684E+02  0.51100000000E-03 0.  1.
        -12    1    3    3    0    0  0.14974093473E+02  0.68176530661E+01  0.20159148576E+02  0.26021051862E+02  0.00000000000E+00 0.  1.
</event>
<event>
 7    1  0.5121289E-013  0.5052886E+02  0.7816164E-02  0.1300439E+00
        -11   -1    0    0    0    0  0.00000000000E+00  0.00000000000E+00  0.45593999997E+02  0.45594000000E+02  0.51100000000E-03 0.  1.
         11   -1    0    0    0    0 -0.00000000000E+00 -0.00000000000E+00 -0.45593999997E+02  0.45594000000E+02  0.51100000000E-03 0. -1.
    9900012    2    1    2    0    0  0.29185679262E+02  0.28307340398E+02  0.23686971731E+00  0.50528862015E+02  0.30000006582E+02 0.  0.
         12    1    1    2    0    0 -0.29185679262E+02 -0.28307340398E+02 -0.23686971731E+00  0.40659137985E+02  0.00000000000E+00 0. -1.
         11    1    3    3    0    0  0.88592486458E+01  0.60414695381E-01 -0.73764554399E+01  0.11528314344E+02  0.51100000000E-03 0. -1.
        -11    1    3    3    0    0 -0.13619652037E+01 -0.11050808618E+01  0.40066231051E+00  0.17990785073E+01  0.51100000000E-03 0.  1.
        -12    1    3    3    0    0  0.21688395820E+02  0.29352006564E+02  0.72126628467E+01  0.37201469164E+02  0.00000000000E+00 0.  1.
</event>
<event>
 7    1  0.5121289E-013  0.5052885E+02  0.7816164E-02  0.1300439E+00
        -11   -1    0    0    0    0  0.00000000000E+00  0.00000000000E+00  0.45593999997E+02  0.45594000000E+02  0.51100000000E-03 0. -1.
         11   -1    0    0    0    0 -0.00000000000E+00 -0.00000000000E+00 -0.45593999997E+02  0.45594000000E+02  0.51100000000E-03 0.  1.
    9900012    2    1    2    0    0 -0.18908724773E+02 -0.12893714280E+02 -0.33606225425E+02  0.50528854316E+02  0.29999983178E+02 0.  0.
         12    1    1    2    0    0  0.18908724773E+02  0.12893714280E+02  0.33606225425E+02  0.40659145684E+02  0.00000000000E+00 0. -1.
         11    1    3    3    0    0 -0.41556282841E+01 -0.67229844110E+01 -0.12674312577E+02  0.14936732085E+02  0.51100000000E-03 0. -1.
        -11    1    3    3    0    0 -0.93631168700E+01 -0.90244688382E+01 -0.25056115345E+02  0.28229734532E+02  0.51100000000E-03 0.  1.
         12    1    3    3    0    0 -0.53899796185E+01  0.28537389692E+01  0.41242024961E+01  0.73623876984E+01  0.00000000000E+00 0. -1.
</event>
<event>
 7    1  0.5121289E-013  0.5052881E+02  0.7816164E-02  0.1300439E+00
        -11   -1    0    0    0    0  0.00000000000E+00  0.00000000000E+00  0.45593999997E+02  0.45594000000E+02  0.51100000000E-03 0.  1.
         11   -1    0    0    0    0 -0.00000000000E+00 -0.00000000000E+00 -0.45593999997E+02  0.45594000000E+02  0.51100000000E-03 0. -1.
    9900012    2    1    2    0    0  0.31472993354E+01 -0.40493495542E+02 -0.18818632792E+01  0.50528805668E+02  0.29999835308E+02 0.  0.
         12    1    1    2    0    0 -0.31472993354E+01  0.40493495542E+02  0.18818632792E+01  0.40659194332E+02  0.00000000000E+00 0. -1.
         11    1    3    3    0    0  0.58396864551E+01 -0.21407038282E+01  0.23578388738E+00  0.62241581822E+01  0.51100000000E-03 0. -1.
        -11    1    3    3    0    0 -0.94871978507E+01 -0.76459099396E+01  0.27212948525E+01  0.12484883171E+02  0.51100000000E-03 0.  1.
        -12    1    3    3    0    0  0.67948107310E+01 -0.30706881774E+02 -0.48389420191E+01  0.31819764315E+02  0.00000000000E+00 0.  1.
</event>
<event>
 7    1  0.5352418E-013  0.5052886E+02  0.7816164E-02  0.1300439E+00
        -11   -1    0    0    0    0  0.00000000000E+00  0.00000000000E+00  0.45593999997E+02  0.45594000000E+02  0.51100000000E-03 0. -1.
         11   -1    0    0    0    0 -0.00000000000E+00 -0.00000000000E+00 -0.45593999997E+02  0.45594000000E+02  0.51100000000E-03 0.  1.
    9900012    2    1    2    0    0 -0.21182493374E+02 -0.53742759817E+01 -0.34286802053E+02  0.50528860033E+02  0.30000000555E+02 0.  0.
         12    1    1    2    0    0  0.21182493374E+02  0.53742759817E+01  0.34286802053E+02  0.40659139967E+02  0.00000000000E+00 0. -1.
         11    1    3    3    0    0 -0.14316317706E+02 -0.47713959493E+01 -0.17153376462E+02  0.22846476671E+02  0.51100000000E-03 0. -1.
        -11    1    3    3    0    0 -0.72316913076E+01 -0.43169883890E+01 -0.20806210883E+02  0.22446205904E+02  0.51100000000E-03 0.  1.
         12    1    3    3    0    0  0.36551563931E+00  0.37141083566E+01  0.36727852920E+01  0.52361774577E+01  0.00000000000E+00 0. -1.
</event>
<event>
 7    1  0.5121289E-013  0.5052885E+02  0.7816164E-02  0.1300439E+00
        -11   -1    0    0    0    0  0.00000000000E+00  0.00000000000E+00  0.45593999997E+02  0.45594000000E+02  0.51100000000E-03 0.  1.
         11   -1    0    0    0    0 -0.00000000000E+00 -0.00000000000E+00 -0.45593999997E+02  0.45594000000E+02  0.51100000000E-03 0. -1.
    9900012    2    1    2    0    0  0.36053624749E+02  0.11557154862E+02 -0.14823443265E+02  0.50528853965E+02  0.29999982113E+02 0.  0.
         12    1    1    2    0    0 -0.36053624749E+02 -0.11557154862E+02  0.14823443265E+02  0.40659146035E+02  0.00000000000E+00 0. -1.
         11    1    3    3    0    0 -0.34859765441E+00 -0.22419540752E+01 -0.10622267431E+01  0.25052353811E+01  0.51100000000E-03 0. -1.
        -11    1    3    3    0    0  0.23346670758E+02 -0.42527816194E+01 -0.72301291240E+01  0.24807820429E+02  0.51100000000E-03 0.  1.
         12    1    3    3    0    0  0.13055551645E+02  0.18051890556E+02 -0.65310873975E+01  0.23215798156E+02  0.00000000000E+00 0. -1.
</event>
<event>
 7    1  0.5121289E-013  0.5052886E+02  0.7816164E-02  0.1300439E+00
        -11   -1    0    0    0    0  0.00000000000E+00  0.00000000000E+00  0.45593999997E+02  0.45594000000E+02  0.51100000000E-03 0. -1.
         11   -1    0    0    0    0 -0.00000000000E+00 -0.00000000000E+00 -0.45593999997E+02  0.45594000000E+02  0.51100000000E-03 0.  1.
    9900012    2    1    2    0    0  0.20797710249E+02  0.31851503272E+02 -0.14356275403E+02  0.50528860121E+02  0.30000000823E+02 0.  0.
         12    1    1    2    0    0 -0.20797710249E+02 -0.31851503272E+02  0.14356275403E+02  0.40659139879E+02  0.00000000000E+00 0. -1.
         11    1    3    3    0    0  0.15635038022E+02  0.24661196979E+02 -0.16727426337E+02  0.33651684096E+02  0.51100000000E-03 0. -1.
        -11    1    3    3    0    0  0.34084568044E+01 -0.14409965082E+01 -0.44132475502E+01  0.57594099459E+01  0.51100000000E-03 0.  1.
         12    1    3    3    0    0  0.17542154222E+01  0.86313028017E+01  0.67843984840E+01  0.11117766079E+02  0.00000000000E+00 0. -1.
</event>
<event>
 7    1  0.5121289E-013  0.5052886E+02  0.7816164E-02  0.1300439E+00
        -11   -1    0    0    0    0  0.00000000000E+00  0.00000000000E+00  0.45593999997E+02  0.45594000000E+02  0.51100000000E-03 0.  1.
         11   -1    0    0    0    0 -0.00000000000E+00 -0.00000000000E+00 -0.45593999997E+02  0.45594000000E+02  0.51100000000E-03 0. -1.
    9900012    2    1    2    0    0 -0.37955612219E+02  0.13845971099E+02  0.45635506312E+01  0.50528863156E+02  0.30000010048E+02 0.  0.
         12    1    1    2    0    0  0.37955612219E+02 -0.13845971099E+02 -0.45635506312E+01  0.40659136844E+02  0.00000000000E+00 0. -1.
         11    1    3    3    0    0 -0.24355250019E+02  0.38564898434E+01 -0.82787711291E+01  0.26011320017E+02  0.51100000000E-03 0. -1.
        -11    1    3    3    0    0 -0.76704329817E+01 -0.46231657331E+00  0.11844914453E+01  0.77751076511E+01  0.51100000000E-03 0.  1.
         12    1    3    3    0    0 -0.59299292185E+01  0.10451797829E+02  0.11657830315E+02  0.16742435487E+02  0.00000000000E+00 0. -1.
</event>
<event>
 7    1  0.5121289E-013  0.5052890E+02  0.7816164E-02  0.1300439E+00
        -11   -1    0    0    0    0  0.00000000000E+00  0.00000000000E+00  0.45593999997E+02  0.45594000000E+02  0.51100000000E-03 0. -1.
         11   -1    0    0    0    0 -0.00000000000E+00 -0.00000000000E+00 -0.45593999997E+02  0.45594000000E+02  0.51100000000E-03 0.  1.
    9900012    2    1    2    0    0 -0.25034378159E+02  0.19680493429E+02 -0.25280837300E+02  0.50528897132E+02  0.30000113322E+02 0.  0.
         12    1    1    2    0    0  0.25034378159E+02 -0.19680493429E+02  0.25280837300E+02  0.40659102868E+02  0.00000000000E+00 0. -1.
         11    1    3    3    0    0  0.51199568954E-01  0.67950316563E+01 -0.10737320105E+02  0.12706892614E+02  0.51100000000E-03 0.  1.
        -11    1    3    3    0    0 -0.17148250080E+02  0.85013897400E+01  0.17038544214E+01  0.19215598572E+02  0.51100000000E-03 0. -1.
         12    1    3    3    0    0 -0.79373276481E+01  0.43840720329E+01 -0.16247371617E+02  0.18606405946E+02  0.00000000000E+00 0. -1.
</event>
<event>
 7    1  0.5121289E-013  0.5052884E+02  0.7816164E-02  0.1300439E+00
        -11   -1    0    0    0    0  0.00000000000E+00  0.00000000000E+00  0.45593999997E+02  0.45594000000E+02  0.51100000000E-03 0.  1.
         11   -1    0    0    0    0 -0.00000000000E+00 -0.00000000000E+00 -0.45593999997E+02  0.45594000000E+02  0.51100000000E-03 0. -1.
    9900012    2    1    2    0    0  0.71046726264E+00 -0.39485968674E+02  0.96706144723E+01  0.50528840268E+02  0.29999940478E+02 0.  0.
         12    1    1    2    0    0 -0.71046726264E+00  0.39485968674E+02 -0.96706144723E+01  0.40659159732E+02  0.00000000000E+00 0. -1.
         11    1    3    3    0    0  0.40309153332E+01 -0.69313265283E+01 -0.10014796806E+01  0.80805029346E+01  0.51100000000E-03 0. -1.
        -11    1    3    3    0    0  0.97268227790E+01 -0.74726979790E+01  0.64623185077E+01  0.13864121221E+02  0.51100000000E-03 0.  1.
         12    1    3    3    0    0 -0.13047270850E+02 -0.25081944167E+02  0.42097756452E+01  0.28584216113E+02  0.00000000000E+00 0. -1.
</event>
<event>
 7    1  0.5121289E-013  0.5052886E+02  0.7816164E-02  0.1300439E+00
        -11   -1    0    0    0    0  0.00000000000E+00  0.00000000000E+00  0.45593999997E+02  0.45594000000E+02  0.51100000000E-03 0. -1.
         11   -1    0    0    0    0 -0.00000000000E+00 -0.00000000000E+00 -0.45593999997E+02  0.45594000000E+02  0.51100000000E-03 0.  1.
    9900012    2    1    2    0    0 -0.22086664420E+02  0.18749819354E+02 -0.28526995802E+02  0.50528856373E+02  0.29999989432E+02 0.  0.
         12    1    1    2    0    0  0.22086664420E+02 -0.18749819354E+02  0.28526995802E+02  0.40659143627E+02  0.00000000000E+00 0. -1.
         11    1    3    3    0    0 -0.15420618918E+02 -0.89120471889E+00 -0.81428184485E+01  0.17461249274E+02  0.51100000000E-03 0. -1.
        -11    1    3    3    0    0  0.43798137053E+01  0.28475837347E+01 -0.13748465587E+01  0.54020093058E+01  0.51100000000E-03 0.  1.
        -12    1    3    3    0    0 -0.11045859207E+02  0.16793440338E+02 -0.19009330795E+02  0.27665597793E+02  0.00000000000E+00 0.  1.
</event>
<event>
 7    1  0.5121289E-013  0.5052886E+02  0.7816164E-02  0.1300439E+00
        -11   -1    0    0    0    0  0.00000000000E+00  0.00000000000E+00  0.45593999997E+02  0.45594000000E+02  0.51100000000E-03 0.  1.
         11   -1    0    0    0    0 -0.00000000000E+00 -0.00000000000E+00 -0.45593999997E+02  0.45594000000E+02  0.51100000000E-03 0. -1.
    9900012    2    1    2    0    0  0.23274141228E+02  0.75817362271E+01  0.32465330211E+02  0.50528855397E+02  0.29999986466E+02 0.  0.
         12    1    1    2    0    0 -0.23274141228E+02 -0.75817362271E+01 -0.32465330211E+02  0.40659144603E+02  0.00000000000E+00 0. -1.
         11    1    3    3    0    0  0.26558288777E+02  0.61322785466E+01  0.16262690757E+02  0.31739922083E+02  0.51100000000E-03 0. -1.
        -11    1    3    3    0    0  0.28651913616E+01 -0.63086645871E+00  0.62786559225E+01  0.69302838674E+01  0.51100000000E-03 0.  1.
        -12    1    3    3    0    0 -0.61493389109E+01  0.20803241392E+01  0.99239835317E+01  0.11858649447E+02  0.00000000000E+00 0.  1.
</event>
<event>
 7    1  0.5121289E-013  0.5052886E+02  0.7816164E-02  0.1300439E+00
        -11   -1    0    0    0    0  0.00000000000E+00  0.00000000000E+00  0.45593999997E+02  0.45594000000E+02  0.51100000000E-03 0.  1.
         11   -1    0    0    0    0 -0.00000000000E+00 -0.00000000000E+00 -0.45593999997E+02  0.45594000000E+02  0.51100000000E-03 0. -1.
    9900012    2    1    2    0    0  0.25961326903E+02  0.31169212192E+02  0.27668115178E+01  0.50528861676E+02  0.30000005552E+02 0.  0.
         12    1    1    2    0    0 -0.25961326903E+02 -0.31169212192E+02 -0.27668115178E+01  0.40659138324E+02  0.00000000000E+00 0. -1.
         11    1    3    3    0    0  0.76583932325E+01  0.10680487560E+01 -0.23910514633E+01  0.80937532956E+01  0.51100000000E-03 0. -1.
        -11    1    3    3    0    0  0.10393768822E+02 -0.58170590414E+00  0.65137458311E+00  0.10430393146E+02  0.51100000000E-03 0.  1.
         12    1    3    3    0    0  0.79091648488E+01  0.30682869340E+02  0.45064883980E+01  0.32004715234E+02  0.00000000000E+00 0. -1.
</event>
<event>
 7    1  0.5121289E-013  0.5052886E+02  0.7816164E-02  0.1300439E+00
        -11   -1    0    0    0    0  0.00000000000E+00  0.00000000000E+00  0.45593999997E+02  0.45594000000E+02  0.51100000000E-03 0.  1.
         11   -1    0    0    0    0 -0.00000000000E+00 -0.00000000000E+00 -0.45593999997E+02  0.45594000000E+02  0.51100000000E-03 0. -1.
    9900012    2    1    2    0    0 -0.18916052325E+02  0.35080246400E+02  0.80451816331E+01  0.50528859938E+02  0.30000000267E+02 0.  0.
         12    1    1    2    0    0  0.18916052325E+02 -0.35080246400E+02 -0.80451816331E+01  0.40659140062E+02  0.00000000000E+00 0. -1.
         11    1    3    3    0    0  0.43238252816E+01  0.30325001349E+00 -0.14074966345E+01  0.45572439779E+01  0.51100000000E-03 0.  1.
        -11    1    3    3    0    0  0.20587165821E+01  0.23608557826E+01  0.30213414014E+01  0.43520636618E+01  0.51100000000E-03 0. -1.
        -12    1    3    3    0    0 -0.25298594189E+02  0.32416140604E+02  0.64313368663E+01  0.41619552298E+02  0.00000000000E+00 0.  1.
</event>
<event>
 7    1  0.5121289E-013  0.5052884E+02  0.7816164E-02  0.1300439E+00
        -11   -1    0    0    0    0  0.00000000000E+00  0.00000000000E+00  0.45593999997E+02  0.45594000000E+02  0.51100000000E-03 0.  1.
         11   -1    0    0    0    0 -0.00000000000E+00 -0.00000000000E+00 -0.45593999997E+02  0.45594000000E+02  0.51100000000E-03 0. -1.
    9900012    2    1    2    0    0 -0.21126252548E+02  0.30248785632E+02  0.17083913348E+02  0.50528835299E+02  0.29999925374E+02 0.  0.
         12    1    1    2    0    0  0.21126252548E+02 -0.30248785632E+02 -0.17083913348E+02  0.40659164701E+02  0.00000000000E+00 0. -1.
         11    1    3    3    0    0 -0.53609258818E+01  0.89885972040E+01  0.74530738147E+01  0.12848451874E+02  0.51100000000E-03 0. -1.
        -11    1    3    3    0    0 -0.12310530410E+02  0.27031327636E+02  0.78795492414E+01  0.30729938647E+02  0.51100000000E-03 0.  1.
         12    1    3    3    0    0 -0.34547962565E+01 -0.57711392079E+01  0.17512902920E+01  0.69504447784E+01  0.00000000000E+00 0. -1.
</event>
<event>
 7    1  0.5121289E-013  0.5052885E+02  0.7816164E-02  0.1300439E+00
        -11   -1    0    0    0    0  0.00000000000E+00  0.00000000000E+00  0.45593999997E+02  0.45594000000E+02  0.51100000000E-03 0.  1.
         11   -1    0    0    0    0 -0.00000000000E+00 -0.00000000000E+00 -0.45593999997E+02  0.45594000000E+02  0.51100000000E-03 0. -1.
    9900012    2    1    2    0    0  0.31815350220E+02 -0.18164319293E+02 -0.17635392708E+02  0.50528854892E+02  0.29999984928E+02 0.  0.
         12    1    1    2    0    0 -0.31815350220E+02  0.18164319293E+02  0.17635392708E+02  0.40659145108E+02  0.00000000000E+00 0. -1.
         11    1    3    3    0    0  0.58821782607E+01  0.61000188155E+00 -0.82571466788E+01  0.10156406595E+02  0.51100000000E-03 0. -1.
        -11    1    3    3    0    0  0.54695256138E+01  0.26716547483E+01 -0.88297687788E+01  0.10724656940E+02  0.51100000000E-03 0.  1.
        -12    1    3    3    0    0  0.20463646345E+02 -0.21445975923E+02 -0.54847725022E+00  0.29647791357E+02  0.00000000000E+00 0.  1.
</event>
<event>
 7    1  0.7351687E-013  0.5052886E+02  0.7816164E-02  0.1300439E+00
        -11   -1    0    0    0    0  0.00000000000E+00  0.00000000000E+00  0.45593999997E+02  0.45594000000E+02  0.51100000000E-03 0.  1.
         11   -1    0    0    0    0 -0.00000000000E+00 -0.00000000000E+00 -0.45593999997E+02  0.45594000000E+02  0.51100000000E-03 0. -1.
    9900012    2    1    2    0    0 -0.33896036953E+02 -0.99753852639E+01  0.20117562644E+02  0.50528856391E+02  0.29999989487E+02 0.  0.
         12    1    1    2    0    0  0.33896036953E+02  0.99753852639E+01 -0.20117562644E+02  0.40659143609E+02  0.00000000000E+00 0. -1.
         11    1    3    3    0    0  0.40116050808E+01 -0.11749578559E+01  0.16833229386E+01  0.45063375001E+01  0.51100000000E-03 0. -1.
        -11    1    3    3    0    0 -0.17463794428E+02 -0.12292757341E+02  0.10704126096E+02  0.23888790564E+02  0.51100000000E-03 0.  1.
        -12    1    3    3    0    0 -0.20443847605E+02  0.34923299326E+01  0.77301136085E+01  0.22133728327E+02  0.00000000000E+00 0.  1.
</event>
<event>
 7    1  0.5121289E-013  0.5052886E+02  0.7816164E-02  0.1300439E+00
        -11   -1    0    0    0    0  0.00000000000E+00  0.00000000000E+00  0.45593999997E+02  0.45594000000E+02  0.51100000000E-03 0.  1.
         11   -1    0    0    0    0 -0.00000000000E+00 -0.00000000000E+00 -0.45593999997E+02  0.45594000000E+02  0.51100000000E-03 0. -1.
    9900012    2    1    2    0    0  0.22430466371E+02  0.18212988954E+02  0.28606415087E+02  0.50528858686E+02  0.29999996462E+02 0.  0.
         12    1    1    2    0    0 -0.22430466371E+02 -0.18212988954E+02 -0.28606415087E+02  0.40659141314E+02  0.00000000000E+00 0. -1.
         11    1    3    3    0    0  0.52079142780E+01 -0.29705711023E+01  0.15201233285E+02  0.16340873827E+02  0.51100000000E-03 0. -1.
        -11    1    3    3    0    0  0.55567812468E+01  0.16971373662E+02  0.12407183100E+02  0.21744965728E+02  0.51100000000E-03 0.  1.
         12    1    3    3    0    0  0.11665770846E+02  0.42121863948E+01  0.99799870215E+00  0.12443019130E+02  0.00000000000E+00 0. -1.
</event>
<event>
 7    1  0.5121289E-013  0.5052886E+02  0.7816164E-02  0.1300439E+00
        -11   -1    0    0    0    0  0.00000000000E+00  0.00000000000E+00  0.45593999997E+02  0.45594000000E+02  0.51100000000E-03 0. -1.
         11   -1    0    0    0    0 -0.00000000000E+00 -0.00000000000E+00 -0.45593999997E+02  0.45594000000E+02  0.51100000000E-03 0.  1.
    9900012    2    1    2    0    0 -0.39682621504E+01 -0.40175725073E+02 -0.48300979725E+01  0.50528857903E+02  0.29999994081E+02 0.  0.
         12    1    1    2    0    0  0.39682621504E+01  0.40175725073E+02  0.48300979725E+01  0.40659142097E+02  0.00000000000E+00 0. -1.
         11    1    3    3    0    0  0.70693513993E+01 -0.17864391504E+02 -0.18746481706E+01  0.19303536439E+02  0.51100000000E-03 0. -1.
        -11    1    3    3    0    0  0.20759759198E+01 -0.13279857791E+02 -0.64731357195E+01  0.14918638855E+02  0.51100000000E-03 0.  1.
         12    1    3    3    0    0 -0.13113589470E+02 -0.90314757783E+01  0.35176859176E+01  0.16306682609E+02  0.00000000000E+00 0. -1.
</event>
<event>
 7    1  0.5121289E-013  0.5052885E+02  0.7816164E-02  0.1300439E+00
        -11   -1    0    0    0    0  0.00000000000E+00  0.00000000000E+00  0.45593999997E+02  0.45594000000E+02  0.51100000000E-03 0. -1.
         11   -1    0    0    0    0 -0.00000000000E+00 -0.00000000000E+00 -0.45593999997E+02  0.45594000000E+02  0.51100000000E-03 0.  1.
    9900012    2    1    2    0    0  0.27009396748E+02  0.24756185119E+02 -0.17629239165E+02  0.50528852347E+02  0.29999977193E+02 0.  0.
         12    1    1    2    0    0 -0.27009396748E+02 -0.24756185119E+02  0.17629239165E+02  0.40659147653E+02  0.00000000000E+00 0. -1.
         11    1    3    3    0    0 -0.34662952244E+01  0.63073904687E+01 -0.21104415112E+01  0.75001560477E+01  0.51100000000E-03 0. -1.
        -11    1    3    3    0    0 -0.17075216998E+01 -0.33989429410E+00 -0.34371384706E+01  0.38529313015E+01  0.51100000000E-03 0.  1.
         12    1    3    3    0    0  0.32183213672E+02  0.18788688944E+02 -0.12081659184E+02  0.39175764998E+02  0.00000000000E+00 0. -1.
</event>
<event>
 7    1  0.5121289E-013  0.5052890E+02  0.7816164E-02  0.1300439E+00
        -11   -1    0    0    0    0  0.00000000000E+00  0.00000000000E+00  0.45593999997E+02  0.45594000000E+02  0.51100000000E-03 0.  1.
         11   -1    0    0    0    0 -0.00000000000E+00 -0.00000000000E+00 -0.45593999997E+02  0.45594000000E+02  0.51100000000E-03 0. -1.
    9900012    2    1    2    0    0  0.26377016188E+02 -0.20342892744E+02  0.23314844489E+02  0.50528902104E+02  0.30000128436E+02 0.  0.
         12    1    1    2    0    0 -0.26377016188E+02  0.20342892744E+02 -0.23314844489E+02  0.40659097896E+02  0.00000000000E+00 0. -1.
         11    1    3    3    0    0 -0.99366560942E+00 -0.87378710177E+01  0.74093030884E+01  0.11499371017E+02  0.51100000000E-03 0. -1.
        -11    1    3    3    0    0  0.20394745340E+02  0.16935312491E+01  0.10984922495E+02  0.23226756296E+02  0.51100000000E-03 0.  1.
         12    1    3    3    0    0  0.69759364576E+01 -0.13298552975E+02  0.49206189052E+01  0.15802774791E+02  0.00000000000E+00 0. -1.
</event>
<event>
 7    1  0.5121289E-013  0.5052886E+02  0.7816164E-02  0.1300439E+00
        -11   -1    0    0    0    0  0.00000000000E+00  0.00000000000E+00  0.45593999997E+02  0.45594000000E+02  0.51100000000E-03 0.  1.
         11   -1    0    0    0    0 -0.00000000000E+00 -0.00000000000E+00 -0.45593999997E+02  0.45594000000E+02  0.51100000000E-03 0. -1.
    9900012    2    1    2    0    0 -0.62206104260E+01  0.29686029118E+02  0.27077840933E+02  0.50528858489E+02  0.29999995862E+02 0.  0.
         12    1    1    2    0    0  0.62206104260E+01 -0.29686029118E+02 -0.27077840933E+02  0.40659141511E+02  0.00000000000E+00 0. -1.
         11    1    3    3    0    0 -0.12649202373E+01  0.26707169381E+01  0.13442219817E+02  0.13763212781E+02  0.51100000000E-03 0. -1.
        -11    1    3    3    0    0  0.31267423200E+01 -0.97272988598E+00  0.56979994907E+01  0.65719037899E+01  0.51100000000E-03 0.  1.
        -12    1    3    3    0    0 -0.80824325087E+01  0.27988042066E+02  0.79376216245E+01  0.30193741918E+02  0.00000000000E+00 0.  1.
</event>
<event>
 7    1  0.5121289E-013  0.5052887E+02  0.7816164E-02  0.1300439E+00
        -11   -1    0    0    0    0  0.00000000000E+00  0.00000000000E+00  0.45593999997E+02  0.45594000000E+02  0.51100000000E-03 0.  1.
         11   -1    0    0    0    0 -0.00000000000E+00 -0.00000000000E+00 -0.45593999997E+02  0.45594000000E+02  0.51100000000E-03 0. -1.
    9900012    2    1    2    0    0  0.34186047405E+02 -0.88640501226E+01  0.20147153672E+02  0.50528867903E+02  0.30000024479E+02 0.  0.
         12    1    1    2    0    0 -0.34186047405E+02  0.88640501226E+01 -0.20147153672E+02  0.40659132097E+02  0.00000000000E+00 0. -1.
         11    1    3    3    0    0  0.19040689533E+01 -0.84601878296E+01  0.70202758951E+01  0.11157263580E+02  0.51100000000E-03 0. -1.
        -11    1    3    3    0    0  0.61491340093E+01 -0.99583661396E+00  0.11625189328E+02  0.13188956244E+02  0.51100000000E-03 0.  1.
        -12    1    3    3    0    0  0.26132844443E+02  0.59197432096E+00  0.15016884488E+01  0.26182648079E+02  0.00000000000E+00 0.  1.
</event>
<event>
 7    1  0.5121289E-013  0.5052885E+02  0.7816164E-02  0.1300439E+00
        -11   -1    0    0    0    0  0.00000000000E+00  0.00000000000E+00  0.45593999997E+02  0.45594000000E+02  0.51100000000E-03 0.  1.
         11   -1    0    0    0    0 -0.00000000000E+00 -0.00000000000E+00 -0.45593999997E+02  0.45594000000E+02  0.51100000000E-03 0. -1.
    9900012    2    1    2    0    0  0.23309594834E+02 -0.21594801758E+02  0.25367177819E+02  0.50528851155E+02  0.29999973570E+02 0.  0.
         12    1    1    2    0    0 -0.23309594834E+02  0.21594801758E+02 -0.25367177819E+02  0.40659148845E+02  0.00000000000E+00 0. -1.
         11    1    3    3    0    0  0.80562617060E+01 -0.16970278092E+02  0.18835699851E+02  0.26602204426E+02  0.51100000000E-03 0.  1.
        -11    1    3    3    0    0  0.10275370226E+02 -0.90525749602E+01  0.94651214155E+01  0.16646947779E+02  0.51100000000E-03 0. -1.
         12    1    3    3    0    0  0.49779629025E+01  0.44280512939E+01 -0.29336434475E+01  0.72796989497E+01  0.00000000000E+00 0. -1.
</event>
<event>
 7    1  0.5121289E-013  0.5052886E+02  0.7816164E-02  0.1300439E+00
        -11   -1    0    0    0    0  0.00000000000E+00  0.00000000000E+00  0.45593999997E+02  0.45594000000E+02  0.51100000000E-03 0.  1.
         11   -1    0    0    0    0 -0.00000000000E+00 -0.00000000000E+00 -0.45593999997E+02  0.45594000000E+02  0.51100000000E-03 0. -1.
    9900012    2    1    2    0    0  0.16218334948E+02 -0.14602898936E+02  0.34305780476E+02  0.50528860561E+02  0.30000002162E+02 0.  0.
         12    1    1    2    0    0 -0.16218334948E+02  0.14602898936E+02 -0.34305780476E+02  0.40659139439E+02  0.00000000000E+00 0. -1.
         11    1    3    3    0    0 -0.94134260101E+00  0.61870956621E+00  0.72693221368E+00  0.13406558560E+01  0.51100000000E-03 0. -1.
        -11    1    3    3    0    0 -0.52647932670E+01 -0.11081329933E+02  0.17134843769E+02  0.21074078686E+02  0.51100000000E-03 0.  1.
         12    1    3    3    0    0  0.22424470816E+02 -0.41402785690E+01  0.16444004493E+02  0.28114126019E+02  0.00000000000E+00 0. -1.
</event>
<event>
 7    1  0.5121289E-013  0.5052886E+02  0.7816164E-02  0.1300439E+00
        -11   -1    0    0    0    0  0.00000000000E+00  0.00000000000E+00  0.45593999997E+02  0.45594000000E+02  0.51100000000E-03 0. -1.
         11   -1    0    0    0    0 -0.00000000000E+00 -0.00000000000E+00 -0.45593999997E+02  0.45594000000E+02  0.51100000000E-03 0.  1.
    9900012    2    1    2    0    0 -0.22101853914E+02 -0.17953782101E+02 -0.29023016267E+02  0.50528859436E+02  0.29999998741E+02 0.  0.
         12    1    1    2    0    0  0.22101853914E+02  0.17953782101E+02  0.29023016267E+02  0.40659140564E+02  0.00000000000E+00 0. -1.
         11    1    3    3    0    0 -0.74732563920E+01 -0.12080170199E+02 -0.95389477203E+01  0.17110569745E+02  0.51100000000E-03 0. -1.
        -11    1    3    3    0    0 -0.14570928173E+02 -0.52673335818E+01 -0.16584517745E+01  0.15582272409E+02  0.51100000000E-03 0.  1.
        -12    1    3    3    0    0 -0.57669349351E-01 -0.60627832031E+00 -0.17825616772E+02  0.17836017282E+02  0.00000000000E+00 0.  1.
</event>
<event>
 7    1  0.5121289E-013  0.5052887E+02  0.7816164E-02  0.1300439E+00
        -11   -1    0    0    0    0  0.00000000000E+00  0.00000000000E+00  0.45593999997E+02  0.45594000000E+02  0.51100000000E-03 0.  1.
         11   -1    0    0    0    0 -0.00000000000E+00 -0.00000000000E+00 -0.45593999997E+02  0.45594000000E+02  0.51100000000E-03 0. -1.
    9900012    2    1    2    0    0 -0.16401022125E+02  0.13250524832E+02  0.34764852516E+02  0.50528869347E+02  0.30000028866E+02 0.  0.
         12    1    1    2    0    0  0.16401022125E+02 -0.13250524832E+02 -0.34764852516E+02  0.40659130653E+02  0.00000000000E+00 0. -1.
         11    1    3    3    0    0 -0.95591228330E+01  0.88001118585E+01  0.24831033516E+00  0.12995401354E+02  0.51100000000E-03 0. -1.
        -11    1    3    3    0    0 -0.68263691202E+01  0.11479557880E+01  0.70901246599E+01  0.99089346456E+01  0.51100000000E-03 0.  1.
         12    1    3    3    0    0 -0.15530171795E-01  0.33024571855E+01  0.27426417520E+02  0.27624533347E+02  0.00000000000E+00 0. -1.
</event>
<event>
 7    1  0.5121289E-013  0.5052887E+02  0.7816164E-02  0.1300439E+00
        -11   -1    0    0    0    0  0.00000000000E+00  0.00000000000E+00  0.45593999997E+02  0.45594000000E+02  0.51100000000E-03 0.  1.
         11   -1    0    0    0    0 -0.00000000000E+00 -0.00000000000E+00 -0.45593999997E+02  0.45594000000E+02  0.51100000000E-03 0. -1.
    9900012    2    1    2    0    0  0.58559905824E+01  0.39987519887E+02  0.44576747795E+01  0.50528865272E+02  0.30000016480E+02 0.  0.
         12    1    1    2    0    0 -0.58559905824E+01 -0.39987519887E+02 -0.44576747795E+01  0.40659134728E+02  0.00000000000E+00 0. -1.
         11    1    3    3    0    0 -0.20266710462E+01  0.84232252336E+01  0.70320354584E+01  0.11158299235E+02  0.51100000000E-03 0. -1.
        -11    1    3    3    0    0 -0.21637473244E+01  0.25951033279E+02  0.36358082696E+01  0.26293669062E+02  0.51100000000E-03 0.  1.
         12    1    3    3    0    0  0.10046408953E+02  0.56132613744E+01 -0.62101689485E+01  0.13076896974E+02  0.00000000000E+00 0. -1.
</event>
<event>
 7    1  0.5121289E-013  0.5052886E+02  0.7816164E-02  0.1300439E+00
        -11   -1    0    0    0    0  0.00000000000E+00  0.00000000000E+00  0.45593999997E+02  0.45594000000E+02  0.51100000000E-03 0.  1.
         11   -1    0    0    0    0 -0.00000000000E+00 -0.00000000000E+00 -0.45593999997E+02  0.45594000000E+02  0.51100000000E-03 0. -1.
    9900012    2    1    2    0    0 -0.37155277156E+00  0.34416647116E+02  0.21645369816E+02  0.50528859765E+02  0.29999999741E+02 0.  0.
         12    1    1    2    0    0  0.37155277156E+00 -0.34416647116E+02 -0.21645369816E+02  0.40659140235E+02  0.00000000000E+00 0. -1.
         11    1    3    3    0    0 -0.40849303853E+01  0.11783293474E+02  0.69550896949E+01  0.14279563518E+02  0.51100000000E-03 0. -1.
        -11    1    3    3    0    0  0.12107652790E+02  0.21491784688E+02  0.10912265860E+02  0.26973498320E+02  0.51100000000E-03 0.  1.
         12    1    3    3    0    0 -0.83942751762E+01  0.11415689543E+01  0.37780142609E+01  0.92757979262E+01  0.00000000000E+00 0. -1.
</event>
<event>
 7    1  0.5121289E-013  0.5052885E+02  0.7816164E-02  0.1300439E+00
        -11   -1    0    0    0    0  0.00000000000E+00  0.00000000000E+00  0.45593999997E+02  0.45594000000E+02  0.51100000000E-03 0. -1.
         11   -1    0    0    0    0 -0.00000000000E+00 -0.00000000000E+00 -0.45593999997E+02  0.45594000000E+02  0.51100000000E-03 0.  1.
    9900012    2    1    2    0    0 -0.38443712037E+02  0.12237017345E+02 -0.50500635547E+01  0.50528846903E+02  0.29999960646E+02 0.  0.
         12    1    1    2    0    0  0.38443712037E+02 -0.12237017345E+02  0.50500635547E+01  0.40659153097E+02  0.00000000000E+00 0. -1.
         11    1    3    3    0    0 -0.73661755446E+01 -0.99373525776E+00  0.38318550815E+01  0.83624856079E+01  0.51100000000E-03 0.  1.
        -11    1    3    3    0    0 -0.18364048412E+02  0.12520650957E+01  0.58518887967E+01  0.19314516402E+02  0.51100000000E-03 0. -1.
         12    1    3    3    0    0 -0.12713488081E+02  0.11978687507E+02 -0.14733807433E+02  0.22851844893E+02  0.00000000000E+00 0. -1.
</event>
<event>
 7    1  0.5121289E-013  0.5052886E+02  0.7816164E-02  0.1300439E+00
        -11   -1    0    0    0    0  0.00000000000E+00  0.00000000000E+00  0.45593999997E+02  0.45594000000E+02  0.51100000000E-03 0. -1.
         11   -1    0    0    0    0 -0.00000000000E+00 -0.00000000000E+00 -0.45593999997E+02  0.45594000000E+02  0.51100000000E-03 0.  1.
    9900012    2    1    2    0    0  0.15533388693E+02 -0.36626280050E+02 -0.83901821602E+01  0.50528859438E+02  0.29999998748E+02 0.  0.
         12    1    1    2    0    0 -0.15533388693E+02  0.36626280050E+02  0.83901821602E+01  0.40659140562E+02  0.00000000000E+00 0. -1.
         11    1    3    3    0    0  0.14939468496E+02 -0.15440239234E+02 -0.20836288548E+01  0.21585416744E+02  0.51100000000E-03 0. -1.
        -11    1    3    3    0    0  0.93387990085E+01 -0.76281120617E+01 -0.36025632869E+01  0.12584900597E+02  0.51100000000E-03 0.  1.
        -12    1    3    3    0    0 -0.87448788111E+01 -0.13557928754E+02 -0.27039900184E+01  0.16358542097E+02  0.00000000000E+00 0.  1.
</event>
<event>
 7    1  0.5121289E-013  0.5052880E+02  0.7816164E-02  0.1300439E+00
        -11   -1    0    0    0    0  0.00000000000E+00  0.00000000000E+00  0.45593999997E+02  0.45594000000E+02  0.51100000000E-03 0.  1.
         11   -1    0    0    0    0 -0.00000000000E+00 -0.00000000000E+00 -0.45593999997E+02  0.45594000000E+02  0.51100000000E-03 0. -1.
    9900012    2    1    2    0    0  0.20075033566E+01 -0.49110382184E+01  0.40311563631E+02  0.50528800199E+02  0.29999818684E+02 0.  0.
         12    1    1    2    0    0 -0.20075033566E+01  0.49110382184E+01 -0.40311563631E+02  0.40659199801E+02  0.00000000000E+00 0. -1.
         11    1    3    3    0    0 -0.49446954430E+00 -0.10495367379E+01 -0.13699943949E+01  0.17952471690E+01  0.51100000000E-03 0. -1.
        -11    1    3    3    0    0 -0.10404379721E+02 -0.39021464451E+01  0.11931642462E+02  0.16304660572E+02  0.51100000000E-03 0.  1.
         12    1    3    3    0    0  0.12906352622E+02  0.40644964580E-01  0.29749915564E+02  0.32428892458E+02  0.00000000000E+00 0. -1.
</event>
<event>
 7    1  0.5121289E-013  0.5052887E+02  0.7816164E-02  0.1300439E+00
        -11   -1    0    0    0    0  0.00000000000E+00  0.00000000000E+00  0.45593999997E+02  0.45594000000E+02  0.51100000000E-03 0.  1.
         11   -1    0    0    0    0 -0.00000000000E+00 -0.00000000000E+00 -0.45593999997E+02  0.45594000000E+02  0.51100000000E-03 0. -1.
    9900012    2    1    2    0    0  0.72354532813E+01 -0.40010116769E+02 -0.62628825241E-01  0.50528866334E+02  0.30000019709E+02 0.  0.
         12    1    1    2    0    0 -0.72354532813E+01  0.40010116769E+02  0.62628825241E-01  0.40659133666E+02  0.00000000000E+00 0. -1.
         11    1    3    3    0    0  0.76403735515E+01 -0.64665142688E+01 -0.46013510982E+01  0.11016512469E+02  0.51100000000E-03 0. -1.
        -11    1    3    3    0    0 -0.77693674038E+01 -0.53457032332E+01 -0.20084299533E+01  0.96422717267E+01  0.51100000000E-03 0.  1.
        -12    1    3    3    0    0  0.73644471335E+01 -0.28197899267E+02  0.65471522263E+01  0.29870082138E+02  0.00000000000E+00 0.  1.
</event>
<event>
 7    1  0.5121289E-013  0.5052887E+02  0.7816164E-02  0.1300439E+00
        -11   -1    0    0    0    0  0.00000000000E+00  0.00000000000E+00  0.45593999997E+02  0.45594000000E+02  0.51100000000E-03 0. -1.
         11   -1    0    0    0    0 -0.00000000000E+00 -0.00000000000E+00 -0.45593999997E+02  0.45594000000E+02  0.51100000000E-03 0.  1.
    9900012    2    1    2    0    0 -0.66505784329E+01  0.39951578844E+02  0.35785783383E+01  0.50528867341E+02  0.30000022770E+02 0.  0.
         12    1    1    2    0    0  0.66505784329E+01 -0.39951578844E+02 -0.35785783383E+01  0.40659132659E+02  0.00000000000E+00 0. -1.
         11    1    3    3    0    0 -0.34883302371E+01  0.28379279069E+02 -0.31789056762E+00  0.28594632066E+02  0.51100000000E-03 0. -1.
        -11    1    3    3    0    0 -0.79672650891E+01 -0.79527862096E+00 -0.31685704667E+00  0.80131254660E+01  0.51100000000E-03 0.  1.
         12    1    3    3    0    0  0.48050168933E+01  0.12367578396E+02  0.42133259526E+01  0.13921109809E+02  0.00000000000E+00 0. -1.
</event>
<event>
 7    1  0.5121289E-013  0.5052885E+02  0.7816164E-02  0.1300439E+00
        -11   -1    0    0    0    0  0.00000000000E+00  0.00000000000E+00  0.45593999997E+02  0.45594000000E+02  0.51100000000E-03 0.  1.
         11   -1    0    0    0    0 -0.00000000000E+00 -0.00000000000E+00 -0.45593999997E+02  0.45594000000E+02  0.51100000000E-03 0. -1.
    9900012    2    1    2    0    0  0.81678576182E+01 -0.81218680351E+01  0.38993435415E+02  0.50528847968E+02  0.29999963884E+02 0.  0.
         12    1    1    2    0    0 -0.81678576182E+01  0.81218680351E+01 -0.38993435415E+02  0.40659152032E+02  0.00000000000E+00 0. -1.
         11    1    3    3    0    0  0.14915971485E+02 -0.27944219266E+01  0.36175866680E+02  0.39229941748E+02  0.51100000000E-03 0.  1.
        -11    1    3    3    0    0 -0.52747680512E+01 -0.23784632836E+01  0.47425725430E+01  0.74814610987E+01  0.51100000000E-03 0. -1.
        -12    1    3    3    0    0 -0.14733458154E+01 -0.29489828249E+01 -0.19250038081E+01  0.38174451213E+01  0.00000000000E+00 0.  1.
</event>
<event>
 7    1  0.5121289E-013  0.5052886E+02  0.7816164E-02  0.1300439E+00
        -11   -1    0    0    0    0  0.00000000000E+00  0.00000000000E+00  0.45593999997E+02  0.45594000000E+02  0.51100000000E-03 0.  1.
         11   -1    0    0    0    0 -0.00000000000E+00 -0.00000000000E+00 -0.45593999997E+02  0.45594000000E+02  0.51100000000E-03 0. -1.
    9900012    2    1    2    0    0  0.51864186271E+01  0.28401998895E+02  0.28628541014E+02  0.50528857855E+02  0.29999993936E+02 0.  0.
         12    1    1    2    0    0 -0.51864186271E+01 -0.28401998895E+02 -0.28628541014E+02  0.40659142145E+02  0.00000000000E+00 0. -1.
         11    1    3    3    0    0  0.63399792754E+01  0.41480556101E+01  0.14867783356E+02  0.16686901592E+02  0.51100000000E-03 0.  1.
        -11    1    3    3    0    0 -0.35552222626E+01  0.22337344767E+02  0.17788870850E+02  0.28775692919E+02  0.51100000000E-03 0. -1.
         12    1    3    3    0    0  0.24016616143E+01  0.19165985174E+01 -0.40281131919E+01  0.50662633442E+01  0.00000000000E+00 0. -1.
</event>
<event>
 7    1  0.5121289E-013  0.5052886E+02  0.7816164E-02  0.1300439E+00
        -11   -1    0    0    0    0  0.00000000000E+00  0.00000000000E+00  0.45593999997E+02  0.45594000000E+02  0.51100000000E-03 0.  1.
         11   -1    0    0    0    0 -0.00000000000E+00 -0.00000000000E+00 -0.45593999997E+02  0.45594000000E+02  0.51100000000E-03 0. -1.
    9900012    2    1    2    0    0 -0.40603585823E+02  0.81047601656E+00  0.19641358227E+01  0.50528857331E+02  0.29999992343E+02 0.  0.
         12    1    1    2    0    0  0.40603585823E+02 -0.81047601656E+00 -0.19641358227E+01  0.40659142669E+02  0.00000000000E+00 0. -1.
         11    1    3    3    0    0 -0.29143046434E+01 -0.42229732767E+01  0.88460551252E+00  0.52066497889E+01  0.51100000000E-03 0.  1.
        -11    1    3    3    0    0 -0.32546713298E+02 -0.58983828055E+01 -0.85153322311E+00  0.33087831227E+02  0.51100000000E-03 0. -1.
         12    1    3    3    0    0 -0.51425678820E+01  0.10931832099E+02  0.19310635333E+01  0.12234376315E+02  0.00000000000E+00 0. -1.
</event>
<event>
 7    1  0.5121289E-013  0.5052886E+02  0.7816164E-02  0.1300439E+00
        -11   -1    0    0    0    0  0.00000000000E+00  0.00000000000E+00  0.45593999997E+02  0.45594000000E+02  0.51100000000E-03 0. -1.
         11   -1    0    0    0    0 -0.00000000000E+00 -0.00000000000E+00 -0.45593999997E+02  0.45594000000E+02  0.51100000000E-03 0.  1.
    9900012    2    1    2    0    0  0.32552087975E+02 -0.33272109707E+01 -0.24134144998E+02  0.50528859341E+02  0.29999998452E+02 0.  0.
         12    1    1    2    0    0 -0.32552087975E+02  0.33272109707E+01  0.24134144998E+02  0.40659140659E+02  0.00000000000E+00 0. -1.
         11    1    3    3    0    0  0.23193994322E+01  0.34205677232E+01  0.53139471936E+01  0.67318594988E+01  0.51100000000E-03 0. -1.
        -11    1    3    3    0    0  0.32052095935E+01 -0.13534409872E+01 -0.21365013033E-01  0.34793142670E+01  0.51100000000E-03 0.  1.
        -12    1    3    3    0    0  0.27027478949E+02 -0.53943377067E+01 -0.29426727179E+02  0.40317685575E+02  0.00000000000E+00 0.  1.
</event>
<event>
 7    1  0.5121289E-013  0.5052888E+02  0.7816164E-02  0.1300439E+00
        -11   -1    0    0    0    0  0.00000000000E+00  0.00000000000E+00  0.45593999997E+02  0.45594000000E+02  0.51100000000E-03 0.  1.
         11   -1    0    0    0    0 -0.00000000000E+00 -0.00000000000E+00 -0.45593999997E+02  0.45594000000E+02  0.51100000000E-03 0. -1.
    9900012    2    1    2    0    0  0.29213715173E+01  0.45133119750E+01  0.40302100950E+02  0.50528883709E+02  0.30000072523E+02 0.  0.
         12    1    1    2    0    0 -0.29213715173E+01 -0.45133119750E+01 -0.40302100950E+02  0.40659116291E+02  0.00000000000E+00 0. -1.
         11    1    3    3    0    0 -0.13929431209E+00 -0.13631127694E+01 -0.38891209161E+00  0.14243357061E+01  0.51100000000E-03 0. -1.
        -11    1    3    3    0    0 -0.65742583017E+01 -0.28570278951E+01  0.87823342373E+00  0.72218262800E+01  0.51100000000E-03 0.  1.
        -12    1    3    3    0    0  0.96349241311E+01  0.87334526396E+01  0.39812779618E+02  0.41882721723E+02  0.00000000000E+00 0.  1.
</event>
<event>
 7    1  0.5121289E-013  0.5052877E+02  0.7816164E-02  0.1300439E+00
        -11   -1    0    0    0    0  0.00000000000E+00  0.00000000000E+00  0.45593999997E+02  0.45594000000E+02  0.51100000000E-03 0.  1.
         11   -1    0    0    0    0 -0.00000000000E+00 -0.00000000000E+00 -0.45593999997E+02  0.45594000000E+02  0.51100000000E-03 0. -1.
    9900012    2    1    2    0    0 -0.84953756297E+01 -0.31357685163E+02  0.24447845385E+02  0.50528770177E+02  0.29999727428E+02 0.  0.
         12    1    1    2    0    0  0.84953756297E+01  0.31357685163E+02 -0.24447845385E+02  0.40659229823E+02  0.00000000000E+00 0. -1.
         11    1    3    3    0    0 -0.70262502668E+01 -0.40512022227E+01 -0.76805123793E+00  0.81467990786E+01  0.51100000000E-03 0. -1.
        -11    1    3    3    0    0 -0.93174212417E+01 -0.17337114724E+02  0.86085107975E+01  0.21482465966E+02  0.51100000000E-03 0.  1.
        -12    1    3    3    0    0  0.78482958788E+01 -0.99693682161E+01  0.16607385825E+02  0.20899505132E+02  0.00000000000E+00 0.  1.
</event>
<event>
 7    1  0.5121289E-013  0.5052886E+02  0.7816164E-02  0.1300439E+00
        -11   -1    0    0    0    0  0.00000000000E+00  0.00000000000E+00  0.45593999997E+02  0.45594000000E+02  0.51100000000E-03 0.  1.
         11   -1    0    0    0    0 -0.00000000000E+00 -0.00000000000E+00 -0.45593999997E+02  0.45594000000E+02  0.51100000000E-03 0. -1.
    9900012    2    1    2    0    0 -0.22706408215E+02 -0.21232470233E+02  0.26206245290E+02  0.50528855168E+02  0.29999985770E+02 0.  0.
         12    1    1    2    0    0  0.22706408215E+02  0.21232470233E+02 -0.26206245290E+02  0.40659144832E+02  0.00000000000E+00 0. -1.
         11    1    3    3    0    0 -0.54728868332E+00  0.22176405702E+00  0.35531197125E+01  0.36018556541E+01  0.51100000000E-03 0. -1.
        -11    1    3    3    0    0 -0.20169758242E+02 -0.63164327395E+00  0.11184507134E+02  0.23071872938E+02  0.51100000000E-03 0.  1.
        -12    1    3    3    0    0 -0.19893612897E+01 -0.20822591016E+02  0.11468618443E+02  0.23855126576E+02  0.00000000000E+00 0.  1.
</event>
<event>
 7    1  0.5121289E-013  0.5052886E+02  0.7816164E-02  0.1300439E+00
        -11   -1    0    0    0    0  0.00000000000E+00  0.00000000000E+00  0.45593999997E+02  0.45594000000E+02  0.51100000000E-03 0.  1.
         11   -1    0    0    0    0 -0.00000000000E+00 -0.00000000000E+00 -0.45593999997E+02  0.45594000000E+02  0.51100000000E-03 0. -1.
    9900012    2    1    2    0    0 -0.18064822617E+02  0.10138404098E+02  0.34986289439E+02  0.50528862004E+02  0.30000006547E+02 0.  0.
         12    1    1    2    0    0  0.18064822617E+02 -0.10138404098E+02 -0.34986289439E+02  0.40659137996E+02  0.00000000000E+00 0. -1.
         11    1    3    3    0    0 -0.59084267826E+01 -0.49353152121E+01  0.36736478028E+01  0.85300956460E+01  0.51100000000E-03 0. -1.
        -11    1    3    3    0    0  0.20637696354E+01 -0.25335609433E+01  0.11381077751E+02  0.11840903986E+02  0.51100000000E-03 0.  1.
        -12    1    3    3    0    0 -0.14220165470E+02  0.17607280254E+02  0.19931563885E+02  0.30157862372E+02  0.00000000000E+00 0.  1.
</event>
<event>
 7    1  0.5121289E-013  0.5052881E+02  0.7816164E-02  0.1300439E+00
        -11   -1    0    0    0    0  0.00000000000E+00  0.00000000000E+00  0.45593999997E+02  0.45594000000E+02  0.51100000000E-03 0.  1.
         11   -1    0    0    0    0 -0.00000000000E+00 -0.00000000000E+00 -0.45593999997E+02  0.45594000000E+02  0.51100000000E-03 0. -1.
    9900012    2    1    2    0    0 -0.23474109134E+02  0.66674571780E+01  0.32522001951E+02  0.50528814128E+02  0.29999861024E+02 0.  0.
         12    1    1    2    0    0  0.23474109134E+02 -0.66674571780E+01 -0.32522001951E+02  0.40659185872E+02  0.00000000000E+00 0. -1.
         11    1    3    3    0    0 -0.14932711680E+01 -0.16148901554E+01  0.11239475138E+01  0.24700176659E+01  0.51100000000E-03 0. -1.
        -11    1    3    3    0    0 -0.26172342343E+02  0.12060988846E+02  0.19226728978E+02  0.34642835668E+02  0.51100000000E-03 0.  1.
        -12    1    3    3    0    0  0.41915043769E+01 -0.37786415121E+01  0.12171325459E+02  0.13415960795E+02  0.00000000000E+00 0.  1.
</event>
<event>
 7    1  0.5121289E-013  0.5052886E+02  0.7816164E-02  0.1300439E+00
        -11   -1    0    0    0    0  0.00000000000E+00  0.00000000000E+00  0.45593999997E+02  0.45594000000E+02  0.51100000000E-03 0.  1.
         11   -1    0    0    0    0 -0.00000000000E+00 -0.00000000000E+00 -0.45593999997E+02  0.45594000000E+02  0.51100000000E-03 0. -1.
    9900012    2    1    2    0    0  0.15498652092E+02 -0.30178075248E+02  0.22410740063E+02  0.50528859422E+02  0.29999998698E+02 0.  0.
         12    1    1    2    0    0 -0.15498652092E+02  0.30178075248E+02 -0.22410740063E+02  0.40659140578E+02  0.00000000000E+00 0. -1.
         11    1    3    3    0    0 -0.45562273535E+01 -0.63513043999E+01  0.59142406489E+01  0.98018629858E+01  0.51100000000E-03 0. -1.
        -11    1    3    3    0    0  0.12253364599E+01 -0.13322425901E+02 -0.32099441716E+00  0.13382507949E+02  0.51100000000E-03 0.  1.
        -12    1    3    3    0    0  0.18829542986E+02 -0.10504344947E+02  0.16817493832E+02  0.27344488487E+02  0.00000000000E+00 0.  1.
</event>
<event>
 7    1  0.5121289E-013  0.5052883E+02  0.7816164E-02  0.1300439E+00
        -11   -1    0    0    0    0  0.00000000000E+00  0.00000000000E+00  0.45593999997E+02  0.45594000000E+02  0.51100000000E-03 0.  1.
         11   -1    0    0    0    0 -0.00000000000E+00 -0.00000000000E+00 -0.45593999997E+02  0.45594000000E+02  0.51100000000E-03 0. -1.
    9900012    2    1    2    0    0 -0.22106166953E+02  0.95041944841E+01  0.32774315785E+02  0.50528829997E+02  0.29999909259E+02 0.  0.
         12    1    1    2    0    0  0.22106166953E+02 -0.95041944841E+01 -0.32774315785E+02  0.40659170003E+02  0.00000000000E+00 0. -1.
         11    1    3    3    0    0 -0.16618720175E+01 -0.55176370747E+01  0.78869612319E+01  0.97678193690E+01  0.51100000000E-03 0. -1.
        -11    1    3    3    0    0  0.46168338246E+00  0.94722928835E+01  0.12963654578E+02  0.16062186162E+02  0.51100000000E-03 0.  1.
        -12    1    3    3    0    0 -0.20905978318E+02  0.55495386753E+01  0.11923699976E+02  0.24698824467E+02  0.00000000000E+00 0.  1.
</event>
<event>
 7    1  0.5121289E-013  0.5052889E+02  0.7816164E-02  0.1300439E+00
        -11   -1    0    0    0    0  0.00000000000E+00  0.00000000000E+00  0.45593999997E+02  0.45594000000E+02  0.51100000000E-03 0. -1.
         11   -1    0    0    0    0 -0.00000000000E+00 -0.00000000000E+00 -0.45593999997E+02  0.45594000000E+02  0.51100000000E-03 0.  1.
    9900012    2    1    2    0    0  0.60014322829E+01  0.35951093344E+02 -0.18018470038E+02  0.50528885836E+02  0.30000078988E+02 0.  0.
         12    1    1    2    0    0 -0.60014322829E+01 -0.35951093344E+02  0.18018470038E+02  0.40659114164E+02  0.00000000000E+00 0. -1.
         11    1    3    3    0    0  0.86859529827E+01  0.68444450227E+01  0.57337749250E+00  0.11073435280E+02  0.51100000000E-03 0. -1.
        -11    1    3    3    0    0 -0.33568125027E+01  0.17521420110E+02 -0.36006695250E+00  0.17843710414E+02  0.51100000000E-03 0.  1.
        -12    1    3    3    0    0  0.67229180299E+00  0.11585228211E+02 -0.18231780578E+02  0.21611740143E+02  0.00000000000E+00 0.  1.
</event>
<event>
 7    1  0.5121289E-013  0.5052885E+02  0.7816164E-02  0.1300439E+00
        -11   -1    0    0    0    0  0.00000000000E+00  0.00000000000E+00  0.45593999997E+02  0.45594000000E+02  0.51100000000E-03 0.  1.
         11   -1    0    0    0    0 -0.00000000000E+00 -0.00000000000E+00 -0.45593999997E+02  0.45594000000E+02  0.51100000000E-03 0. -1.
    9900012    2    1    2    0    0  0.51527727134E+01 -0.26159026037E+02  0.30697242413E+02  0.50528850949E+02  0.29999972943E+02 0.  0.
         12    1    1    2    0    0 -0.51527727134E+01  0.26159026037E+02 -0.30697242413E+02  0.40659149051E+02  0.00000000000E+00 0. -1.
         11    1    3    3    0    0 -0.51927086364E+01 -0.16357620758E+02  0.13342532237E+02  0.21738425578E+02  0.51100000000E-03 0. -1.
        -11    1    3    3    0    0 -0.39630717810E+01 -0.25247241013E+01  0.10170556186E+02  0.11203587957E+02  0.51100000000E-03 0.  1.
         12    1    3    3    0    0  0.14308553131E+02 -0.72766811773E+01  0.71841539905E+01  0.17586837414E+02  0.00000000000E+00 0. -1.
</event>
<event>
 7    1  0.5121289E-013  0.5052886E+02  0.7816164E-02  0.1300439E+00
        -11   -1    0    0    0    0  0.00000000000E+00  0.00000000000E+00  0.45593999997E+02  0.45594000000E+02  0.51100000000E-03 0. -1.
         11   -1    0    0    0    0 -0.00000000000E+00 -0.00000000000E+00 -0.45593999997E+02  0.45594000000E+02  0.51100000000E-03 0.  1.
    9900012    2    1    2    0    0  0.25874281344E+02  0.25469291398E+02 -0.18303063983E+02  0.50528863382E+02  0.30000010735E+02 0.  0.
         12    1    1    2    0    0 -0.25874281344E+02 -0.25469291398E+02  0.18303063983E+02  0.40659136618E+02  0.00000000000E+00 0. -1.
         11    1    3    3    0    0  0.49473703335E+01 -0.79445338422E+00  0.14025053401E+01  0.52033307493E+01  0.51100000000E-03 0. -1.
        -11    1    3    3    0    0 -0.13989541241E+01 -0.33097305398E+01 -0.62578759550E+00  0.36473276879E+01  0.51100000000E-03 0.  1.
        -12    1    3    3    0    0  0.22325865134E+02  0.29573475322E+02 -0.19079781727E+02  0.41678204945E+02  0.00000000000E+00 0.  1.
</event>
<event>
 7    1  0.5121289E-013  0.5052883E+02  0.7816164E-02  0.1300439E+00
        -11   -1    0    0    0    0  0.00000000000E+00  0.00000000000E+00  0.45593999997E+02  0.45594000000E+02  0.51100000000E-03 0.  1.
         11   -1    0    0    0    0 -0.00000000000E+00 -0.00000000000E+00 -0.45593999997E+02  0.45594000000E+02  0.51100000000E-03 0. -1.
    9900012    2    1    2    0    0  0.11030885529E+02 -0.31091981167E+02  0.23765017699E+02  0.50528833817E+02  0.29999920871E+02 0.  0.
         12    1    1    2    0    0 -0.11030885529E+02  0.31091981167E+02 -0.23765017699E+02  0.40659166183E+02  0.00000000000E+00 0. -1.
         11    1    3    3    0    0  0.50579509717E+01 -0.21112561318E+02  0.37453906962E+01  0.22030684628E+02  0.51100000000E-03 0. -1.
        -11    1    3    3    0    0 -0.22280829310E+01 -0.11632478756E+02  0.10537683883E+02  0.15853128948E+02  0.51100000000E-03 0.  1.
        -12    1    3    3    0    0  0.82010174882E+01  0.16530589069E+01  0.94819431190E+01  0.12645020241E+02  0.00000000000E+00 0.  1.
</event>
<event>
 7    1  0.5121289E-013  0.5052887E+02  0.7816164E-02  0.1300439E+00
        -11   -1    0    0    0    0  0.00000000000E+00  0.00000000000E+00  0.45593999997E+02  0.45594000000E+02  0.51100000000E-03 0. -1.
         11   -1    0    0    0    0 -0.00000000000E+00 -0.00000000000E+00 -0.45593999997E+02  0.45594000000E+02  0.51100000000E-03 0.  1.
    9900012    2    1    2    0    0 -0.25908731245E+02 -0.30628418392E+02  0.66183300218E+01  0.50528872363E+02  0.30000038034E+02 0.  0.
         12    1    1    2    0    0  0.25908731245E+02  0.30628418392E+02 -0.66183300218E+01  0.40659127637E+02  0.00000000000E+00 0. -1.
         11    1    3    3    0    0  0.29214257734E+01 -0.42189921657E+01  0.61248492618E+01  0.79905195191E+01  0.51100000000E-03 0. -1.
        -11    1    3    3    0    0 -0.15200547604E+02 -0.24348136518E+02 -0.60721863027E+00  0.28709878337E+02  0.51100000000E-03 0.  1.
         12    1    3    3    0    0 -0.13629609414E+02 -0.20612897085E+01  0.11006993902E+01  0.13828474507E+02  0.00000000000E+00 0. -1.
</event>
<event>
 7    1  0.5121289E-013  0.5052885E+02  0.7816164E-02  0.1300439E+00
        -11   -1    0    0    0    0  0.00000000000E+00  0.00000000000E+00  0.45593999997E+02  0.45594000000E+02  0.51100000000E-03 0. -1.
         11   -1    0    0    0    0 -0.00000000000E+00 -0.00000000000E+00 -0.45593999997E+02  0.45594000000E+02  0.51100000000E-03 0.  1.
    9900012    2    1    2    0    0  0.25237063002E+02 -0.13451711616E+02 -0.28901702882E+02  0.50528851905E+02  0.29999975850E+02 0.  0.
         12    1    1    2    0    0 -0.25237063002E+02  0.13451711616E+02  0.28901702882E+02  0.40659148095E+02  0.00000000000E+00 0. -1.
         11    1    3    3    0    0  0.12635251009E+02 -0.70406354959E+00 -0.30353818702E+01  0.13013793333E+02  0.51100000000E-03 0.  1.
        -11    1    3    3    0    0  0.10375904722E+02 -0.14495152593E+02 -0.81967122723E+01  0.19620268598E+02  0.51100000000E-03 0. -1.
        -12    1    3    3    0    0  0.22259072706E+01  0.17475045271E+01 -0.17669608739E+02  0.17894789975E+02  0.00000000000E+00 0.  1.
</event>
<event>
 7    1  0.5121289E-013  0.5052886E+02  0.7816164E-02  0.1300439E+00
        -11   -1    0    0    0    0  0.00000000000E+00  0.00000000000E+00  0.45593999997E+02  0.45594000000E+02  0.51100000000E-03 0.  1.
         11   -1    0    0    0    0 -0.00000000000E+00 -0.00000000000E+00 -0.45593999997E+02  0.45594000000E+02  0.51100000000E-03 0. -1.
    9900012    2    1    2    0    0  0.37119483200E+02 -0.62004436707E+01  0.15390378401E+02  0.50528864716E+02  0.30000014790E+02 0.  0.
         12    1    1    2    0    0 -0.37119483200E+02  0.62004436707E+01 -0.15390378401E+02  0.40659135284E+02  0.00000000000E+00 0. -1.
         11    1    3    3    0    0  0.17241997343E+02 -0.10102818548E+02  0.82920616773E+00  0.20001024927E+02  0.51100000000E-03 0. -1.
        -11    1    3    3    0    0  0.15940335314E+02 -0.43997795673E+01  0.50197624614E+01  0.17281503569E+02  0.51100000000E-03 0.  1.
         12    1    3    3    0    0  0.39371505429E+01  0.83021544448E+01  0.95414097716E+01  0.13246336220E+02  0.00000000000E+00 0. -1.
</event>
<event>
 7    1  0.5121289E-013  0.5052886E+02  0.7816164E-02  0.1300439E+00
        -11   -1    0    0    0    0  0.00000000000E+00  0.00000000000E+00  0.45593999997E+02  0.45594000000E+02  0.51100000000E-03 0.  1.
         11   -1    0    0    0    0 -0.00000000000E+00 -0.00000000000E+00 -0.45593999997E+02  0.45594000000E+02  0.51100000000E-03 0. -1.
    9900012    2    1    2    0    0 -0.34359393453E+01 -0.36658892140E+02  0.17247769600E+02  0.50528860704E+02  0.30000002597E+02 0.  0.
         12    1    1    2    0    0  0.34359393453E+01  0.36658892140E+02 -0.17247769600E+02  0.40659139296E+02  0.00000000000E+00 0. -1.
         11    1    3    3    0    0 -0.36635075109E+00 -0.48677816032E+01  0.68650019782E+01  0.84236430973E+01  0.51100000000E-03 0. -1.
        -11    1    3    3    0    0  0.42967255688E+01 -0.27419934205E+02  0.15832587285E+02  0.31952863140E+02  0.51100000000E-03 0.  1.
         12    1    3    3    0    0 -0.73663141629E+01 -0.43711763312E+01 -0.54498196635E+01  0.10152354467E+02  0.00000000000E+00 0. -1.
</event>
<event>
 7    1  0.5121289E-013  0.5052886E+02  0.7816164E-02  0.1300439E+00
        -11   -1    0    0    0    0  0.00000000000E+00  0.00000000000E+00  0.45593999997E+02  0.45594000000E+02  0.51100000000E-03 0. -1.
         11   -1    0    0    0    0 -0.00000000000E+00 -0.00000000000E+00 -0.45593999997E+02  0.45594000000E+02  0.51100000000E-03 0.  1.
    9900012    2    1    2    0    0 -0.34448967002E+02 -0.21553127509E+02  0.13773725883E+01  0.50528858492E+02  0.29999995873E+02 0.  0.
         12    1    1    2    0    0  0.34448967002E+02  0.21553127509E+02 -0.13773725883E+01  0.40659141508E+02  0.00000000000E+00 0. -1.
         11    1    3    3    0    0 -0.12612720935E+02 -0.34677261710E+01 -0.81058940403E+00  0.13105834946E+02  0.51100000000E-03 0.  1.
        -11    1    3    3    0    0 -0.21731051009E+02 -0.11406729326E+02  0.10555441449E+02  0.26716463020E+02  0.51100000000E-03 0. -1.
         12    1    3    3    0    0 -0.10519505716E+00 -0.66786720124E+01 -0.83674794562E+01  0.10706560526E+02  0.00000000000E+00 0. -1.
</event>
<event>
 7    1  0.5121289E-013  0.5052887E+02  0.7816164E-02  0.1300439E+00
        -11   -1    0    0    0    0  0.00000000000E+00  0.00000000000E+00  0.45593999997E+02  0.45594000000E+02  0.51100000000E-03 0.  1.
         11   -1    0    0    0    0 -0.00000000000E+00 -0.00000000000E+00 -0.45593999997E+02  0.45594000000E+02  0.51100000000E-03 0. -1.
    9900012    2    1    2    0    0 -0.37247614761E+02 -0.15962250043E+02  0.33146462122E+01  0.50528866815E+02  0.30000021172E+02 0.  0.
         12    1    1    2    0    0  0.37247614761E+02  0.15962250043E+02 -0.33146462122E+01  0.40659133185E+02  0.00000000000E+00 0. -1.
         11    1    3    3    0    0 -0.11817996017E+02 -0.11878877516E+02  0.24766790012E+01  0.16938320461E+02  0.51100000000E-03 0. -1.
        -11    1    3    3    0    0 -0.11377092568E+02 -0.72624992994E+01  0.97488031827E+01  0.16649963818E+02  0.51100000000E-03 0.  1.
         12    1    3    3    0    0 -0.14052526176E+02  0.31791267730E+01 -0.89108359717E+01  0.16940582536E+02  0.00000000000E+00 0. -1.
</event>
<event>
 7    1  0.5121289E-013  0.5052886E+02  0.7816164E-02  0.1300439E+00
        -11   -1    0    0    0    0  0.00000000000E+00  0.00000000000E+00  0.45593999997E+02  0.45594000000E+02  0.51100000000E-03 0. -1.
         11   -1    0    0    0    0 -0.00000000000E+00 -0.00000000000E+00 -0.45593999997E+02  0.45594000000E+02  0.51100000000E-03 0.  1.
    9900012    2    1    2    0    0 -0.25250985485E+02  0.13307936438E+02 -0.28956044718E+02  0.50528856306E+02  0.29999989228E+02 0.  0.
         12    1    1    2    0    0  0.25250985485E+02 -0.13307936438E+02  0.28956044718E+02  0.40659143694E+02  0.00000000000E+00 0. -1.
         11    1    3    3    0    0 -0.12702465641E+02  0.12221812579E+01 -0.17543784022E+02  0.21694024949E+02  0.51100000000E-03 0.  1.
        -11    1    3    3    0    0 -0.87016802720E+00 -0.37255367414E+01 -0.80226027116E+01  0.88881365278E+01  0.51100000000E-03 0. -1.
        -12    1    3    3    0    0 -0.11678351817E+02  0.15811291922E+02 -0.33896579842E+01  0.19946694830E+02  0.00000000000E+00 0.  1.
</event>
<event>
 7    1  0.5121289E-013  0.5052879E+02  0.7816164E-02  0.1300439E+00
        -11   -1    0    0    0    0  0.00000000000E+00  0.00000000000E+00  0.45593999997E+02  0.45594000000E+02  0.51100000000E-03 0.  1.
         11   -1    0    0    0    0 -0.00000000000E+00 -0.00000000000E+00 -0.45593999997E+02  0.45594000000E+02  0.51100000000E-03 0. -1.
    9900012    2    1    2    0    0  0.14020325002E+01  0.28816917222E+02  0.28649443362E+02  0.50528794176E+02  0.29999800377E+02 0.  0.
         12    1    1    2    0    0 -0.14020325002E+01 -0.28816917222E+02 -0.28649443362E+02  0.40659205824E+02  0.00000000000E+00 0. -1.
         11    1    3    3    0    0 -0.71327517503E+01  0.89705535976E+01  0.10967370752E+02  0.15862856012E+02  0.51100000000E-03 0. -1.
        -11    1    3    3    0    0 -0.35295320160E+01  0.18669712005E+01  0.11463054811E+02  0.12138566785E+02  0.51100000000E-03 0.  1.
        -12    1    3    3    0    0  0.12064316267E+02  0.17979392424E+02  0.62190177984E+01  0.22527371380E+02  0.00000000000E+00 0.  1.
</event>
<event>
 7    1  0.5121289E-013  0.5052886E+02  0.7816164E-02  0.1300439E+00
        -11   -1    0    0    0    0  0.00000000000E+00  0.00000000000E+00  0.45593999997E+02  0.45594000000E+02  0.51100000000E-03 0.  1.
         11   -1    0    0    0    0 -0.00000000000E+00 -0.00000000000E+00 -0.45593999997E+02  0.45594000000E+02  0.51100000000E-03 0. -1.
    9900012    2    1    2    0    0  0.98795387308E+01 -0.11492376161E+02  0.37729113188E+02  0.50528856166E+02  0.29999988802E+02 0.  0.
         12    1    1    2    0    0 -0.98795387308E+01  0.11492376161E+02 -0.37729113188E+02  0.40659143834E+02  0.00000000000E+00 0. -1.
         11    1    3    3    0    0  0.75637640769E+01 -0.70918857885E+01  0.17163175288E+01  0.10509572644E+02  0.51100000000E-03 0. -1.
        -11    1    3    3    0    0  0.88256297298E+01 -0.37102810421E+01  0.13337136887E+02  0.16417586490E+02  0.51100000000E-03 0.  1.
        -12    1    3    3    0    0 -0.65098550759E+01 -0.69020933069E+00  0.22675658772E+02  0.23601697032E+02  0.00000000000E+00 0.  1.
</event>
<event>
 7    1  0.5121289E-013  0.5052885E+02  0.7816164E-02  0.1300439E+00
        -11   -1    0    0    0    0  0.00000000000E+00  0.00000000000E+00  0.45593999997E+02  0.45594000000E+02  0.51100000000E-03 0.  1.
         11   -1    0    0    0    0 -0.00000000000E+00 -0.00000000000E+00 -0.45593999997E+02  0.45594000000E+02  0.51100000000E-03 0. -1.
    9900012    2    1    2    0    0  0.36303127521E+02 -0.15049934299E+02  0.10428264675E+02  0.50528852267E+02  0.29999976952E+02 0.  0.
         12    1    1    2    0    0 -0.36303127521E+02  0.15049934299E+02 -0.10428264675E+02  0.40659147733E+02  0.00000000000E+00 0. -1.
         11    1    3    3    0    0  0.19098186384E+02  0.11167188476E+01  0.89454541761E+01  0.21118923619E+02  0.51100000000E-03 0. -1.
        -11    1    3    3    0    0  0.23746981093E+01 -0.12586235395E+02 -0.36417042463E+01  0.13315949932E+02  0.51100000000E-03 0.  1.
         12    1    3    3    0    0  0.14830243028E+02 -0.35804177519E+01  0.51245147455E+01  0.16093978716E+02  0.00000000000E+00 0. -1.
</event>
<event>
 7    1  0.5121289E-013  0.5052880E+02  0.7816164E-02  0.1300439E+00
        -11   -1    0    0    0    0  0.00000000000E+00  0.00000000000E+00  0.45593999997E+02  0.45594000000E+02  0.51100000000E-03 0.  1.
         11   -1    0    0    0    0 -0.00000000000E+00 -0.00000000000E+00 -0.45593999997E+02  0.45594000000E+02  0.51100000000E-03 0. -1.
    9900012    2    1    2    0    0  0.36569077069E+02  0.17772415764E+02  0.12144393309E+00  0.50528795527E+02  0.29999804484E+02 0.  0.
         12    1    1    2    0    0 -0.36569077069E+02 -0.17772415764E+02 -0.12144393309E+00  0.40659204473E+02  0.00000000000E+00 0. -1.
         11    1    3    3    0    0 -0.25614742599E+00  0.15945982510E+01  0.12897484454E-01  0.16150918526E+01  0.51100000000E-03 0. -1.
        -11    1    3    3    0    0  0.32700858114E+02  0.18419057251E+02  0.92349645930E+01  0.38650903777E+02  0.51100000000E-03 0.  1.
         12    1    3    3    0    0  0.41243663802E+01 -0.22412397388E+01 -0.91264181444E+01  0.10262799898E+02  0.00000000000E+00 0. -1.
</event>
<event>
 7    1  0.5121289E-013  0.5052886E+02  0.7816164E-02  0.1300439E+00
        -11   -1    0    0    0    0  0.00000000000E+00  0.00000000000E+00  0.45593999997E+02  0.45594000000E+02  0.51100000000E-03 0.  1.
         11   -1    0    0    0    0 -0.00000000000E+00 -0.00000000000E+00 -0.45593999997E+02  0.45594000000E+02  0.51100000000E-03 0. -1.
    9900012    2    1    2    0    0 -0.12220452211E+02  0.63341086682E+01  0.38258406409E+02  0.50528855324E+02  0.29999986243E+02 0.  0.
         12    1    1    2    0    0  0.12220452211E+02 -0.63341086682E+01 -0.38258406409E+02  0.40659144676E+02  0.00000000000E+00 0. -1.
         11    1    3    3    0    0  0.65466101744E+01  0.53135643012E+01  0.72157539657E+01  0.11097710391E+02  0.51100000000E-03 0. -1.
        -11    1    3    3    0    0 -0.74661043756E+01 -0.32531335489E+01  0.26330393660E+01  0.85591173025E+01  0.51100000000E-03 0.  1.
        -12    1    3    3    0    0 -0.11300958009E+02  0.42736779159E+01  0.28409613077E+02  0.30872027631E+02  0.00000000000E+00 0.  1.
</event>
<event>
 7    1  0.5121289E-013  0.5052886E+02  0.7816164E-02  0.1300439E+00
        -11   -1    0    0    0    0  0.00000000000E+00  0.00000000000E+00  0.45593999997E+02  0.45594000000E+02  0.51100000000E-03 0.  1.
         11   -1    0    0    0    0 -0.00000000000E+00 -0.00000000000E+00 -0.45593999997E+02  0.45594000000E+02  0.51100000000E-03 0. -1.
    9900012    2    1    2    0    0  0.28764156494E+01 -0.25921603601E+02  0.31192341078E+02  0.50528862747E+02  0.30000008807E+02 0.  0.
         12    1    1    2    0    0 -0.28764156494E+01  0.25921603601E+02 -0.31192341078E+02  0.40659137253E+02  0.00000000000E+00 0. -1.
         11    1    3    3    0    0 -0.47983283653E+00 -0.45414824894E+01 -0.30267622356E+01  0.54787400600E+01  0.51100000000E-03 0. -1.
        -11    1    3    3    0    0  0.64220549854E+01 -0.21618645489E+02  0.18898122243E+02  0.29423589985E+02  0.51100000000E-03 0.  1.
        -12    1    3    3    0    0 -0.30658064994E+01  0.23852437727E+00  0.15320981070E+02  0.15626532703E+02  0.00000000000E+00 0.  1.
</event>
<event>
 7    1  0.5121289E-013  0.5052888E+02  0.7816164E-02  0.1300439E+00
        -11   -1    0    0    0    0  0.00000000000E+00  0.00000000000E+00  0.45593999997E+02  0.45594000000E+02  0.51100000000E-03 0.  1.
         11   -1    0    0    0    0 -0.00000000000E+00 -0.00000000000E+00 -0.45593999997E+02  0.45594000000E+02  0.51100000000E-03 0. -1.
    9900012    2    1    2    0    0 -0.38015562921E+02  0.67381107810E+01 -0.12750627296E+02  0.50528884693E+02  0.30000075512E+02 0.  0.
         12    1    1    2    0    0  0.38015562921E+02 -0.67381107810E+01  0.12750627296E+02  0.40659115307E+02  0.00000000000E+00 0. -1.
         11    1    3    3    0    0 -0.29670167869E+02  0.29697596611E+01 -0.90502310474E+01  0.31161595211E+02  0.51100000000E-03 0. -1.
        -11    1    3    3    0    0 -0.95942959704E+01  0.55522794782E+01  0.36740355561E+01  0.11678050355E+02  0.51100000000E-03 0.  1.
         12    1    3    3    0    0  0.12489009186E+01 -0.17839283583E+01 -0.73744318050E+01  0.76892391261E+01  0.00000000000E+00 0. -1.
</event>
<event>
 7    1  0.5121289E-013  0.5052883E+02  0.7816164E-02  0.1300439E+00
        -11   -1    0    0    0    0  0.00000000000E+00  0.00000000000E+00  0.45593999997E+02  0.45594000000E+02  0.51100000000E-03 0.  1.
         11   -1    0    0    0    0 -0.00000000000E+00 -0.00000000000E+00 -0.45593999997E+02  0.45594000000E+02  0.51100000000E-03 0. -1.
    9900012    2    1    2    0    0  0.11972460888E+02  0.30719030857E+02  0.23794320350E+02  0.50528826897E+02  0.29999899837E+02 0.  0.
         12    1    1    2    0    0 -0.11972460888E+02 -0.30719030857E+02 -0.23794320350E+02  0.40659173103E+02  0.00000000000E+00 0. -1.
         11    1    3    3    0    0  0.38874166622E+01  0.92458842950E+01  0.89684462419E+01  0.13454791450E+02  0.51100000000E-03 0. -1.
        -11    1    3    3    0    0  0.73718857584E+01  0.16932476042E+02  0.21894140035E+02  0.28642744503E+02  0.51100000000E-03 0.  1.
         12    1    3    3    0    0  0.71315846756E+00  0.45406705195E+01 -0.70682659274E+01  0.84312909443E+01  0.00000000000E+00 0. -1.
</event>
<event>
 7    1  0.5121289E-013  0.5052886E+02  0.7816164E-02  0.1300439E+00
        -11   -1    0    0    0    0  0.00000000000E+00  0.00000000000E+00  0.45593999997E+02  0.45594000000E+02  0.51100000000E-03 0. -1.
         11   -1    0    0    0    0 -0.00000000000E+00 -0.00000000000E+00 -0.45593999997E+02  0.45594000000E+02  0.51100000000E-03 0.  1.
    9900012    2    1    2    0    0 -0.29574745937E+02  0.39460172993E+01 -0.27621175379E+02  0.50528856144E+02  0.29999988735E+02 0.  0.
         12    1    1    2    0    0  0.29574745937E+02 -0.39460172993E+01  0.27621175379E+02  0.40659143856E+02  0.00000000000E+00 0. -1.
         11    1    3    3    0    0 -0.45269602237E+01  0.83072924254E+01 -0.24196727588E+01  0.97652082839E+01  0.51100000000E-03 0. -1.
        -11    1    3    3    0    0 -0.12460853015E+02  0.61043165018E+01 -0.49694725021E+01  0.14738765044E+02  0.51100000000E-03 0.  1.
         12    1    3    3    0    0 -0.12586932699E+02 -0.10465591628E+02 -0.20232030119E+02  0.26024882816E+02  0.00000000000E+00 0. -1.
</event>
<event>
 7    1  0.5121289E-013  0.5052887E+02  0.7816164E-02  0.1300439E+00
        -11   -1    0    0    0    0  0.00000000000E+00  0.00000000000E+00  0.45593999997E+02  0.45594000000E+02  0.51100000000E-03 0. -1.
         11   -1    0    0    0    0 -0.00000000000E+00 -0.00000000000E+00 -0.45593999997E+02  0.45594000000E+02  0.51100000000E-03 0.  1.
    9900012    2    1    2    0    0  0.12616249864E+02  0.38248677740E+02 -0.55707797878E+01  0.50528871912E+02  0.30000036662E+02 0.  0.
         12    1    1    2    0    0 -0.12616249864E+02 -0.38248677740E+02  0.55707797878E+01  0.40659128088E+02  0.00000000000E+00 0. -1.
         11    1    3    3    0    0  0.26651337607E+00  0.35794023075E+01 -0.16580519425E+01  0.39537686786E+01  0.51100000000E-03 0. -1.
        -11    1    3    3    0    0  0.11526363296E+02  0.39686323083E+02 -0.34709757690E+01  0.41471785152E+02  0.51100000000E-03 0.  1.
         12    1    3    3    0    0  0.82337319234E+00 -0.50170476503E+01 -0.44175207628E+00  0.51033180811E+01  0.00000000000E+00 0. -1.
</event>
<event>
 7    1  0.5121289E-013  0.5052886E+02  0.7816164E-02  0.1300439E+00
        -11   -1    0    0    0    0  0.00000000000E+00  0.00000000000E+00  0.45593999997E+02  0.45594000000E+02  0.51100000000E-03 0. -1.
         11   -1    0    0    0    0 -0.00000000000E+00 -0.00000000000E+00 -0.45593999997E+02  0.45594000000E+02  0.51100000000E-03 0.  1.
    9900012    2    1    2    0    0  0.20370492009E+02 -0.33371065377E+02 -0.11161564557E+02  0.50528862374E+02  0.30000007673E+02 0.  0.
         12    1    1    2    0    0 -0.20370492009E+02  0.33371065377E+02  0.11161564557E+02  0.40659137626E+02  0.00000000000E+00 0. -1.
         11    1    3    3    0    0 -0.36910392344E+01  0.36183538984E-01  0.22374963602E+01  0.43164186662E+01  0.51100000000E-03 0. -1.
        -11    1    3    3    0    0 -0.23788779962E+01 -0.41660750889E+01 -0.17163988891E+01  0.50952200713E+01  0.51100000000E-03 0.  1.
        -12    1    3    3    0    0  0.26440409240E+02 -0.29241173827E+02 -0.11682662028E+02  0.41117223637E+02  0.00000000000E+00 0.  1.
</event>
<event>
 7    1  0.5121289E-013  0.5052884E+02  0.7816164E-02  0.1300439E+00
        -11   -1    0    0    0    0  0.00000000000E+00  0.00000000000E+00  0.45593999997E+02  0.45594000000E+02  0.51100000000E-03 0. -1.
         11   -1    0    0    0    0 -0.00000000000E+00 -0.00000000000E+00 -0.45593999997E+02  0.45594000000E+02  0.51100000000E-03 0.  1.
    9900012    2    1    2    0    0  0.23905017131E+01 -0.28760644551E+02 -0.28640493199E+02  0.50528843293E+02  0.29999949673E+02 0.  0.
         12    1    1    2    0    0 -0.23905017131E+01  0.28760644551E+02  0.28640493199E+02  0.40659156707E+02  0.00000000000E+00 0. -1.
         11    1    3    3    0    0  0.94157699170E+00 -0.23054849921E+02 -0.94296086532E+01  0.24926495777E+02  0.51100000000E-03 0. -1.
        -11    1    3    3    0    0 -0.18119998054E+01 -0.36652805631E+01  0.16357438435E+01  0.44037805445E+01  0.51100000000E-03 0.  1.
         12    1    3    3    0    0  0.32609245268E+01 -0.20405140673E+01 -0.20846628390E+02  0.21198566971E+02  0.00000000000E+00 0. -1.
</event>
<event>
 7    1  0.5121289E-013  0.5052886E+02  0.7816164E-02  0.1300439E+00
        -11   -1    0    0    0    0  0.00000000000E+00  0.00000000000E+00  0.45593999997E+02  0.45594000000E+02  0.51100000000E-03 0.  1.
         11   -1    0    0    0    0 -0.00000000000E+00 -0.00000000000E+00 -0.45593999997E+02  0.45594000000E+02  0.51100000000E-03 0. -1.
    9900012    2    1    2    0    0 -0.13534588482E+02 -0.38104273361E+02  0.42479465280E+01  0.50528858550E+02  0.29999996049E+02 0.  0.
         12    1    1    2    0    0  0.13534588482E+02  0.38104273361E+02 -0.42479465280E+01  0.40659141450E+02  0.00000000000E+00 0. -1.
         11    1    3    3    0    0  0.21337385058E+01 -0.43443388053E+01 -0.11902881550E+01  0.49842658255E+01  0.51100000000E-03 0. -1.
        -11    1    3    3    0    0  0.65324504256E+01 -0.12539895162E+02 -0.96833084423E+00  0.14172492517E+02  0.51100000000E-03 0.  1.
         12    1    3    3    0    0 -0.22200777414E+02 -0.21220039393E+02  0.64065655273E+01  0.31372100208E+02  0.00000000000E+00 0. -1.
</event>
<event>
 7    1  0.5121289E-013  0.5052887E+02  0.7816164E-02  0.1300439E+00
        -11   -1    0    0    0    0  0.00000000000E+00  0.00000000000E+00  0.45593999997E+02  0.45594000000E+02  0.51100000000E-03 0.  1.
         11   -1    0    0    0    0 -0.00000000000E+00 -0.00000000000E+00 -0.45593999997E+02  0.45594000000E+02  0.51100000000E-03 0. -1.
    9900012    2    1    2    0    0  0.76210689036E+01 -0.31562440669E+02  0.24472363437E+02  0.50528869114E+02  0.30000028159E+02 0.  0.
         12    1    1    2    0    0 -0.76210689036E+01  0.31562440669E+02 -0.24472363437E+02  0.40659130886E+02  0.00000000000E+00 0. -1.
         11    1    3    3    0    0  0.15807632649E+01  0.19010499256E+00  0.74668937709E-01  0.15939034222E+01  0.51100000000E-03 0. -1.
        -11    1    3    3    0    0  0.50224917392E+01 -0.29447848753E+02  0.61315079734E+01  0.30495845779E+02  0.51100000000E-03 0.  1.
         12    1    3    3    0    0  0.10178138995E+01 -0.23046969081E+01  0.18266186526E+02  0.18439119913E+02  0.00000000000E+00 0. -1.
</event>
<event>
 7    1  0.5121289E-013  0.5052886E+02  0.7816164E-02  0.1300439E+00
        -11   -1    0    0    0    0  0.00000000000E+00  0.00000000000E+00  0.45593999997E+02  0.45594000000E+02  0.51100000000E-03 0. -1.
         11   -1    0    0    0    0 -0.00000000000E+00 -0.00000000000E+00 -0.45593999997E+02  0.45594000000E+02  0.51100000000E-03 0.  1.
    9900012    2    1    2    0    0  0.27568770175E+02 -0.19587678358E+02 -0.22571031928E+02  0.50528859396E+02  0.29999998619E+02 0.  0.
         12    1    1    2    0    0 -0.27568770175E+02  0.19587678358E+02  0.22571031928E+02  0.40659140604E+02  0.00000000000E+00 0. -1.
         11    1    3    3    0    0  0.18166058797E+02 -0.41393058304E+01 -0.97039111417E+01  0.21007271043E+02  0.51100000000E-03 0. -1.
        -11    1    3    3    0    0  0.14231698829E+02 -0.11592009774E+02 -0.14191260847E+02  0.23201461740E+02  0.51100000000E-03 0.  1.
        -12    1    3    3    0    0 -0.48289874520E+01 -0.38563627531E+01  0.13241400609E+01  0.63201266123E+01  0.00000000000E+00 0.  1.
</event>
<event>
 7    1  0.5121289E-013  0.5052886E+02  0.7816164E-02  0.1300439E+00
        -11   -1    0    0    0    0  0.00000000000E+00  0.00000000000E+00  0.45593999997E+02  0.45594000000E+02  0.51100000000E-03 0.  1.
         11   -1    0    0    0    0 -0.00000000000E+00 -0.00000000000E+00 -0.45593999997E+02  0.45594000000E+02  0.51100000000E-03 0. -1.
    9900012    2    1    2    0    0  0.19701600375E+01  0.14394384527E+01  0.40585858837E+02  0.50528862636E+02  0.30000008469E+02 0.  0.
         12    1    1    2    0    0 -0.19701600375E+01 -0.14394384527E+01 -0.40585858837E+02  0.40659137364E+02  0.00000000000E+00 0. -1.
         11    1    3    3    0    0 -0.11166919723E+01  0.52949358997E+01  0.49605251661E-01  0.54116363593E+01  0.51100000000E-03 0. -1.
        -11    1    3    3    0    0  0.97097688124E+01  0.24029628482E+01  0.27058882760E+02  0.28848517766E+02  0.51100000000E-03 0.  1.
        -12    1    3    3    0    0 -0.66229168026E+01 -0.62584602952E+01  0.13477370825E+02  0.16268708511E+02  0.00000000000E+00 0.  1.
</event>
<event>
 7    1  0.5121289E-013  0.5052885E+02  0.7816164E-02  0.1300439E+00
        -11   -1    0    0    0    0  0.00000000000E+00  0.00000000000E+00  0.45593999997E+02  0.45594000000E+02  0.51100000000E-03 0.  1.
         11   -1    0    0    0    0 -0.00000000000E+00 -0.00000000000E+00 -0.45593999997E+02  0.45594000000E+02  0.51100000000E-03 0. -1.
    9900012    2    1    2    0    0 -0.22942884530E+02  0.13188957333E+02  0.30868142610E+02  0.50528846366E+02  0.29999959013E+02 0.  0.
         12    1    1    2    0    0  0.22942884530E+02 -0.13188957333E+02 -0.30868142610E+02  0.40659153634E+02  0.00000000000E+00 0. -1.
         11    1    3    3    0    0 -0.64053608661E+01 -0.11493905823E-02  0.47634941832E+01  0.79824511424E+01  0.51100000000E-03 0.  1.
        -11    1    3    3    0    0  0.25740528849E+01  0.94191344509E+01  0.19790974937E+02  0.22068722919E+02  0.51100000000E-03 0. -1.
         12    1    3    3    0    0 -0.19111576549E+02  0.37709722729E+01  0.63136734894E+01  0.20477672304E+02  0.00000000000E+00 0. -1.
</event>
<event>
 7    1  0.5121289E-013  0.5052886E+02  0.7816164E-02  0.1300439E+00
        -11   -1    0    0    0    0  0.00000000000E+00  0.00000000000E+00  0.45593999997E+02  0.45594000000E+02  0.51100000000E-03 0.  1.
         11   -1    0    0    0    0 -0.00000000000E+00 -0.00000000000E+00 -0.45593999997E+02  0.45594000000E+02  0.51100000000E-03 0. -1.
    9900012    2    1    2    0    0  0.23853570799E+02  0.28599608749E+02  0.16316727865E+02  0.50528855043E+02  0.29999985389E+02 0.  0.
         12    1    1    2    0    0 -0.23853570799E+02 -0.28599608749E+02 -0.16316727865E+02  0.40659144957E+02  0.00000000000E+00 0. -1.
         11    1    3    3    0    0  0.95483463582E-01  0.23281647361E+02  0.79632321606E+01  0.24606041690E+02  0.51100000000E-03 0. -1.
        -11    1    3    3    0    0  0.37312099180E+01  0.20166271414E+01  0.13348451650E+01  0.44464057795E+01  0.51100000000E-03 0.  1.
        -12    1    3    3    0    0  0.20026877417E+02  0.33013342460E+01  0.70186505394E+01  0.21476407574E+02  0.00000000000E+00 0.  1.
</event>
<event>
 7    1  0.5121289E-013  0.5052886E+02  0.7816164E-02  0.1300439E+00
        -11   -1    0    0    0    0  0.00000000000E+00  0.00000000000E+00  0.45593999997E+02  0.45594000000E+02  0.51100000000E-03 0.  1.
         11   -1    0    0    0    0 -0.00000000000E+00 -0.00000000000E+00 -0.45593999997E+02  0.45594000000E+02  0.51100000000E-03 0. -1.
    9900012    2    1    2    0    0 -0.10823971212E+00 -0.37758587312E+02  0.15081211129E+02  0.50528861289E+02  0.30000004375E+02 0.  0.
         12    1    1    2    0    0  0.10823971212E+00  0.37758587312E+02 -0.15081211129E+02  0.40659138711E+02  0.00000000000E+00 0. -1.
         11    1    3    3    0    0  0.51126183724E+01 -0.12473137898E+02 -0.15681619272E+00  0.13481195319E+02  0.51100000000E-03 0. -1.
        -11    1    3    3    0    0 -0.12789700096E+02 -0.87495985519E+01  0.56902309793E+01  0.16507896057E+02  0.51100000000E-03 0.  1.
         12    1    3    3    0    0  0.75688420115E+01 -0.16535850862E+02  0.95477963419E+01  0.20539769914E+02  0.00000000000E+00 0. -1.
</event>
<event>
 7    1  0.5121289E-013  0.5052884E+02  0.7816164E-02  0.1300439E+00
        -11   -1    0    0    0    0  0.00000000000E+00  0.00000000000E+00  0.45593999997E+02  0.45594000000E+02  0.51100000000E-03 0.  1.
         11   -1    0    0    0    0 -0.00000000000E+00 -0.00000000000E+00 -0.45593999997E+02  0.45594000000E+02  0.51100000000E-03 0. -1.
    9900012    2    1    2    0    0  0.53902787294E+01  0.37762792192E+02  0.14074232474E+02  0.50528836228E+02  0.29999928197E+02 0.  0.
         12    1    1    2    0    0 -0.53902787294E+01 -0.37762792192E+02 -0.14074232474E+02  0.40659163772E+02  0.00000000000E+00 0. -1.
         11    1    3    3    0    0  0.69454752731E+01  0.41237833389E+01 -0.25581473945E+01  0.84728586763E+01  0.51100000000E-03 0. -1.
        -11    1    3    3    0    0  0.44506386769E+01  0.18446734048E+02  0.17338574502E+02  0.25704403275E+02  0.51100000000E-03 0.  1.
         12    1    3    3    0    0 -0.60058352207E+01  0.15192274805E+02 -0.70619463400E+00  0.16351574276E+02  0.00000000000E+00 0. -1.
</event>
<event>
 7    1  0.5121289E-013  0.5052889E+02  0.7816164E-02  0.1300439E+00
        -11   -1    0    0    0    0  0.00000000000E+00  0.00000000000E+00  0.45593999997E+02  0.45594000000E+02  0.51100000000E-03 0.  1.
         11   -1    0    0    0    0 -0.00000000000E+00 -0.00000000000E+00 -0.45593999997E+02  0.45594000000E+02  0.51100000000E-03 0. -1.
    9900012    2    1    2    0    0 -0.21011044987E+02 -0.13387088883E+02  0.32132311787E+02  0.50528885142E+02  0.30000076878E+02 0.  0.
         12    1    1    2    0    0  0.21011044987E+02  0.13387088883E+02 -0.32132311787E+02  0.40659114858E+02  0.00000000000E+00 0. -1.
         11    1    3    3    0    0 -0.17987491460E+02 -0.73327851682E+01  0.22476495912E+01  0.19554322190E+02  0.51100000000E-03 0. -1.
        -11    1    3    3    0    0 -0.20288863299E+01 -0.83052219689E+00  0.41210392912E+01  0.46678808853E+01  0.51100000000E-03 0.  1.
         12    1    3    3    0    0 -0.99466719728E+00 -0.52237815184E+01  0.25763622905E+02  0.26306682067E+02  0.00000000000E+00 0. -1.
</event>
<event>
 7    1  0.5121289E-013  0.5052886E+02  0.7816164E-02  0.1300439E+00
        -11   -1    0    0    0    0  0.00000000000E+00  0.00000000000E+00  0.45593999997E+02  0.45594000000E+02  0.51100000000E-03 0.  1.
         11   -1    0    0    0    0 -0.00000000000E+00 -0.00000000000E+00 -0.45593999997E+02  0.45594000000E+02  0.51100000000E-03 0. -1.
    9900012    2    1    2    0    0  0.14353708388E+02 -0.37958907623E+02  0.25015804887E+01  0.50528861823E+02  0.30000005996E+02 0.  0.
         12    1    1    2    0    0 -0.14353708388E+02  0.37958907623E+02 -0.25015804887E+01  0.40659138177E+02  0.00000000000E+00 0. -1.
         11    1    3    3    0    0 -0.29599306994E+01 -0.24187568409E+02  0.35827179793E+01  0.24629972059E+02  0.51100000000E-03 0.  1.
        -11    1    3    3    0    0  0.23381413780E+01  0.18784087601E+01  0.25491952219E+01  0.39362064369E+01  0.51100000000E-03 0. -1.
        -12    1    3    3    0    0  0.14975497709E+02 -0.15649747974E+02 -0.36303327125E+01  0.21962683326E+02  0.00000000000E+00 0.  1.
</event>
<event>
 7    1  0.5121289E-013  0.5052886E+02  0.7816164E-02  0.1300439E+00
        -11   -1    0    0    0    0  0.00000000000E+00  0.00000000000E+00  0.45593999997E+02  0.45594000000E+02  0.51100000000E-03 0. -1.
         11   -1    0    0    0    0 -0.00000000000E+00 -0.00000000000E+00 -0.45593999997E+02  0.45594000000E+02  0.51100000000E-03 0.  1.
    9900012    2    1    2    0    0 -0.25723380979E+02 -0.32319074990E+01 -0.31321364437E+02  0.50528862955E+02  0.30000009438E+02 0.  0.
         12    1    1    2    0    0  0.25723380979E+02  0.32319074990E+01  0.31321364437E+02  0.40659137045E+02  0.00000000000E+00 0. -1.
         11    1    3    3    0    0  0.11296650690E+01  0.17875718673E+01 -0.25702937003E+01  0.33283579008E+01  0.51100000000E-03 0. -1.
        -11    1    3    3    0    0  0.28431891949E+01 -0.41084778803E+01  0.10654686521E+01  0.51086729197E+01  0.51100000000E-03 0.  1.
        -12    1    3    3    0    0 -0.29696235243E+02 -0.91100148598E+00 -0.29816539388E+02  0.42091832134E+02  0.00000000000E+00 0.  1.
</event>
<event>
 7    1  0.5121289E-013  0.5052886E+02  0.7816164E-02  0.1300439E+00
        -11   -1    0    0    0    0  0.00000000000E+00  0.00000000000E+00  0.45593999997E+02  0.45594000000E+02  0.51100000000E-03 0.  1.
         11   -1    0    0    0    0 -0.00000000000E+00 -0.00000000000E+00 -0.45593999997E+02  0.45594000000E+02  0.51100000000E-03 0. -1.
    9900012    2    1    2    0    0  0.36515323161E+02  0.13505253093E+02 -0.11721989881E+02  0.50528859165E+02  0.29999997918E+02 0.  0.
         12    1    1    2    0    0 -0.36515323161E+02 -0.13505253093E+02  0.11721989881E+02  0.40659140835E+02  0.00000000000E+00 0. -1.
         11    1    3    3    0    0  0.50657594292E-01  0.78841435927E+01 -0.30335092551E+00  0.78901399498E+01  0.51100000000E-03 0. -1.
        -11    1    3    3    0    0  0.15143845628E+02 -0.69273292547E-01  0.40664912902E+01  0.15680472278E+02  0.51100000000E-03 0.  1.
        -12    1    3    3    0    0  0.21320819939E+02  0.56903827929E+01 -0.15485130245E+02  0.26958246937E+02  0.00000000000E+00 0.  1.
</event>
<event>
 7    1  0.5121289E-013  0.5052886E+02  0.7816164E-02  0.1300439E+00
        -11   -1    0    0    0    0  0.00000000000E+00  0.00000000000E+00  0.45593999997E+02  0.45594000000E+02  0.51100000000E-03 0.  1.
         11   -1    0    0    0    0 -0.00000000000E+00 -0.00000000000E+00 -0.45593999997E+02  0.45594000000E+02  0.51100000000E-03 0. -1.
    9900012    2    1    2    0    0 -0.75314160488E+01 -0.31403135703E+02  0.24703976368E+02  0.50528860707E+02  0.30000002604E+02 0.  0.
         12    1    1    2    0    0  0.75314160488E+01  0.31403135703E+02 -0.24703976368E+02  0.40659139293E+02  0.00000000000E+00 0. -1.
         11    1    3    3    0    0 -0.12877910170E+02 -0.12780602460E+02  0.40070622819E+01  0.18580659783E+02  0.51100000000E-03 0. -1.
        -11    1    3    3    0    0 -0.29945344293E+01 -0.14858122659E+02  0.12134424006E+02  0.19415851555E+02  0.51100000000E-03 0.  1.
        -12    1    3    3    0    0  0.83410285504E+01 -0.37644105847E+01  0.85624900796E+01  0.12532349368E+02  0.00000000000E+00 0.  1.
</event>
<event>
 7    1  0.5121289E-013  0.5052884E+02  0.7816164E-02  0.1300439E+00
        -11   -1    0    0    0    0  0.00000000000E+00  0.00000000000E+00  0.45593999997E+02  0.45594000000E+02  0.51100000000E-03 0.  1.
         11   -1    0    0    0    0 -0.00000000000E+00 -0.00000000000E+00 -0.45593999997E+02  0.45594000000E+02  0.51100000000E-03 0. -1.
    9900012    2    1    2    0    0 -0.17694029162E+02  0.85726663540E+01  0.35589297284E+02  0.50528839192E+02  0.29999937209E+02 0.  0.
         12    1    1    2    0    0  0.17694029162E+02 -0.85726663540E+01 -0.35589297284E+02  0.40659160808E+02  0.00000000000E+00 0. -1.
         11    1    3    3    0    0  0.35930716610E+00  0.14786349405E+01  0.12044200633E+01  0.19406418724E+01  0.51100000000E-03 0. -1.
        -11    1    3    3    0    0 -0.51145877526E+01  0.14401686439E+02  0.29004085265E+02  0.32784211787E+02  0.51100000000E-03 0.  1.
         12    1    3    3    0    0 -0.12938748575E+02 -0.73076550254E+01  0.53807919562E+01  0.15803985533E+02  0.00000000000E+00 0. -1.
</event>
<event>
 7    1  0.5121289E-013  0.5052886E+02  0.7816164E-02  0.1300439E+00
        -11   -1    0    0    0    0  0.00000000000E+00  0.00000000000E+00  0.45593999997E+02  0.45594000000E+02  0.51100000000E-03 0.  1.
         11   -1    0    0    0    0 -0.00000000000E+00 -0.00000000000E+00 -0.45593999997E+02  0.45594000000E+02  0.51100000000E-03 0. -1.
    9900012    2    1    2    0    0  0.22507597213E+01  0.37235018374E+02 -0.16175692407E+02  0.50528861575E+02  0.30000005242E+02 0.  0.
         12    1    1    2    0    0 -0.22507597213E+01 -0.37235018374E+02  0.16175692407E+02  0.40659138425E+02  0.00000000000E+00 0. -1.
         11    1    3    3    0    0  0.27373409658E+01  0.32036885616E+02 -0.17148348907E+02  0.36440649638E+02  0.51100000000E-03 0.  1.
        -11    1    3    3    0    0 -0.60462625346E+01  0.87828359185E-01 -0.13339398245E+01  0.61922855372E+01  0.51100000000E-03 0. -1.
        -12    1    3    3    0    0  0.55596812900E+01  0.51103043991E+01  0.23065963248E+01  0.78959263993E+01  0.00000000000E+00 0.  1.
</event>
<event>
 7    1  0.5121289E-013  0.5052886E+02  0.7816164E-02  0.1300439E+00
        -11   -1    0    0    0    0  0.00000000000E+00  0.00000000000E+00  0.45593999997E+02  0.45594000000E+02  0.51100000000E-03 0. -1.
         11   -1    0    0    0    0 -0.00000000000E+00 -0.00000000000E+00 -0.45593999997E+02  0.45594000000E+02  0.51100000000E-03 0.  1.
    9900012    2    1    2    0    0  0.10862628420E+02 -0.28003461580E+01 -0.39081033597E+02  0.50528858078E+02  0.29999994615E+02 0.  0.
         12    1    1    2    0    0 -0.10862628420E+02  0.28003461580E+01  0.39081033597E+02  0.40659141922E+02  0.00000000000E+00 0. -1.
         11    1    3    3    0    0 -0.47772207232E+01 -0.12886207159E+01 -0.12165207151E+02  0.13132960308E+02  0.51100000000E-03 0. -1.
        -11    1    3    3    0    0  0.14799679971E+02  0.15927958650E+01 -0.29648648683E+02  0.33175441141E+02  0.51100000000E-03 0.  1.
         12    1    3    3    0    0  0.84016917231E+00 -0.31045213070E+01  0.27328222363E+01  0.42204566292E+01  0.00000000000E+00 0. -1.
</event>
<event>
 7    1  0.5121289E-013  0.5052887E+02  0.7816164E-02  0.1300439E+00
        -11   -1    0    0    0    0  0.00000000000E+00  0.00000000000E+00  0.45593999997E+02  0.45594000000E+02  0.51100000000E-03 0.  1.
         11   -1    0    0    0    0 -0.00000000000E+00 -0.00000000000E+00 -0.45593999997E+02  0.45594000000E+02  0.51100000000E-03 0. -1.
    9900012    2    1    2    0    0 -0.29353915360E+02 -0.26363676558E+02  0.98218589825E+01  0.50528871843E+02  0.30000036454E+02 0.  0.
         12    1    1    2    0    0  0.29353915360E+02  0.26363676558E+02 -0.98218589825E+01  0.40659128157E+02  0.00000000000E+00 0. -1.
         11    1    3    3    0    0 -0.13341444319E+02 -0.34821364376E+01 -0.41535957825E+01  0.14400408636E+02  0.51100000000E-03 0. -1.
        -11    1    3    3    0    0 -0.11910031733E+02 -0.25326206910E+01  0.25751693114E+01  0.12445662726E+02  0.51100000000E-03 0.  1.
         12    1    3    3    0    0 -0.41024393080E+01 -0.20348919429E+02  0.11400285454E+02  0.23682800481E+02  0.00000000000E+00 0. -1.
</event>
<event>
 7    1  0.5121289E-013  0.5052885E+02  0.7816164E-02  0.1300439E+00
        -11   -1    0    0    0    0  0.00000000000E+00  0.00000000000E+00  0.45593999997E+02  0.45594000000E+02  0.51100000000E-03 0. -1.
         11   -1    0    0    0    0 -0.00000000000E+00 -0.00000000000E+00 -0.45593999997E+02  0.45594000000E+02  0.51100000000E-03 0.  1.
    9900012    2    1    2    0    0  0.42946313492E+01 -0.14516011669E+02  0.37736025617E+02  0.50528854872E+02  0.29999984868E+02 0.  0.
         12    1    1    2    0    0 -0.42946313492E+01  0.14516011669E+02 -0.37736025617E+02  0.40659145128E+02  0.00000000000E+00 0. -1.
         11    1    3    3    0    0  0.74233109492E+01  0.29242898346E+00  0.14567798379E+02  0.16352730965E+02  0.51100000000E-03 0. -1.
        -11    1    3    3    0    0 -0.94556485258E+00  0.46518855448E+01  0.84024321323E+01  0.96506475436E+01  0.51100000000E-03 0.  1.
        -12    1    3    3    0    0 -0.21831147474E+01 -0.19460326197E+02  0.14765795106E+02  0.24525476363E+02  0.00000000000E+00 0.  1.
</event>
<event>
 7    1  0.5121289E-013  0.5052885E+02  0.7816164E-02  0.1300439E+00
        -11   -1    0    0    0    0  0.00000000000E+00  0.00000000000E+00  0.45593999997E+02  0.45594000000E+02  0.51100000000E-03 0. -1.
         11   -1    0    0    0    0 -0.00000000000E+00 -0.00000000000E+00 -0.45593999997E+02  0.45594000000E+02  0.51100000000E-03 0.  1.
    9900012    2    1    2    0    0 -0.85641344325E+01  0.35536542386E+02  0.17803826051E+02  0.50528850164E+02  0.29999970558E+02 0.  0.
         12    1    1    2    0    0  0.85641344325E+01 -0.35536542386E+02 -0.17803826051E+02  0.40659149836E+02  0.00000000000E+00 0. -1.
         11    1    3    3    0    0 -0.42897534873E+01  0.73471552137E+01 -0.62673673842E+00  0.85308542313E+01  0.51100000000E-03 0. -1.
        -11    1    3    3    0    0 -0.90196715274E+01  0.20412141543E+02  0.10100754329E+01  0.22338984970E+02  0.51100000000E-03 0.  1.
         12    1    3    3    0    0  0.47452905822E+01  0.77772456296E+01  0.17420487357E+02  0.19659010963E+02  0.00000000000E+00 0. -1.
</event>
<event>
 7    1  0.5121289E-013  0.5052886E+02  0.7816164E-02  0.1300439E+00
        -11   -1    0    0    0    0  0.00000000000E+00  0.00000000000E+00  0.45593999997E+02  0.45594000000E+02  0.51100000000E-03 0.  1.
         11   -1    0    0    0    0 -0.00000000000E+00 -0.00000000000E+00 -0.45593999997E+02  0.45594000000E+02  0.51100000000E-03 0. -1.
    9900012    2    1    2    0    0  0.55017610617E+01  0.39110260343E+02  0.96583644514E+01  0.50528857821E+02  0.29999993833E+02 0.  0.
         12    1    1    2    0    0 -0.55017610617E+01 -0.39110260343E+02 -0.96583644514E+01  0.40659142179E+02  0.00000000000E+00 0. -1.
         11    1    3    3    0    0  0.50725272542E+01  0.11897842810E+02 -0.25285278764E-01  0.12934057209E+02  0.51100000000E-03 0. -1.
        -11    1    3    3    0    0 -0.17052959817E+01  0.30079725219E+02  0.12911869232E+02  0.32778259120E+02  0.51100000000E-03 0.  1.
         12    1    3    3    0    0  0.21345297892E+01 -0.28673076860E+01 -0.32282195023E+01  0.48165414918E+01  0.00000000000E+00 0. -1.
</event>
<event>
 7    1  0.5121289E-013  0.5052888E+02  0.7816164E-02  0.1300439E+00
        -11   -1    0    0    0    0  0.00000000000E+00  0.00000000000E+00  0.45593999997E+02  0.45594000000E+02  0.51100000000E-03 0.  1.
         11   -1    0    0    0    0 -0.00000000000E+00 -0.00000000000E+00 -0.45593999997E+02  0.45594000000E+02  0.51100000000E-03 0. -1.
    9900012    2    1    2    0    0  0.73807250164E+01  0.53823685243E+01  0.39619678681E+02  0.50528881325E+02  0.30000065275E+02 0.  0.
         12    1    1    2    0    0 -0.73807250164E+01 -0.53823685243E+01 -0.39619678681E+02  0.40659118675E+02  0.00000000000E+00 0. -1.
         11    1    3    3    0    0 -0.25080418595E+01 -0.73799996445E+01  0.30550874075E+01  0.83718712394E+01  0.51100000000E-03 0. -1.
        -11    1    3    3    0    0  0.11313672189E+02  0.38742123121E+01  0.19906783903E+02  0.23222591265E+02  0.51100000000E-03 0.  1.
        -12    1    3    3    0    0 -0.14249053133E+01  0.88881558567E+01  0.16657807370E+02  0.18934418820E+02  0.00000000000E+00 0.  1.
</event>
<event>
 7    1  0.5121289E-013  0.5052886E+02  0.7816164E-02  0.1300439E+00
        -11   -1    0    0    0    0  0.00000000000E+00  0.00000000000E+00  0.45593999997E+02  0.45594000000E+02  0.51100000000E-03 0.  1.
         11   -1    0    0    0    0 -0.00000000000E+00 -0.00000000000E+00 -0.45593999997E+02  0.45594000000E+02  0.51100000000E-03 0. -1.
    9900012    2    1    2    0    0  0.25147932491E+02 -0.22871028433E+02  0.22308373247E+02  0.50528856292E+02  0.29999989184E+02 0.  0.
         12    1    1    2    0    0 -0.25147932491E+02  0.22871028433E+02 -0.22308373247E+02  0.40659143708E+02  0.00000000000E+00 0. -1.
         11    1    3    3    0    0 -0.15888475418E+01 -0.18810600116E+01  0.18984207086E-02  0.24622808824E+01  0.51100000000E-03 0. -1.
        -11    1    3    3    0    0 -0.32134590320E+01 -0.57935532471E+01  0.10599658281E+02  0.12499773363E+02  0.51100000000E-03 0.  1.
         12    1    3    3    0    0  0.29950239065E+02 -0.15196415174E+02  0.11706816545E+02  0.35566802047E+02  0.00000000000E+00 0. -1.
</event>
<event>
 7    1  0.5121289E-013  0.5052886E+02  0.7816164E-02  0.1300439E+00
        -11   -1    0    0    0    0  0.00000000000E+00  0.00000000000E+00  0.45593999997E+02  0.45594000000E+02  0.51100000000E-03 0. -1.
         11   -1    0    0    0    0 -0.00000000000E+00 -0.00000000000E+00 -0.45593999997E+02  0.45594000000E+02  0.51100000000E-03 0.  1.
    9900012    2    1    2    0    0 -0.14515956308E+02  0.12225020922E+02 -0.35958333537E+02  0.50528857426E+02  0.29999992632E+02 0.  0.
         12    1    1    2    0    0  0.14515956308E+02 -0.12225020922E+02  0.35958333537E+02  0.40659142574E+02  0.00000000000E+00 0. -1.
         11    1    3    3    0    0 -0.17825479076E+01 -0.15215580987E+01  0.10290587966E+01  0.25596051177E+01  0.51100000000E-03 0. -1.
        -11    1    3    3    0    0 -0.15055063355E+02  0.15988991358E+01 -0.96212173226E+01  0.17938205989E+02  0.51100000000E-03 0.  1.
        -12    1    3    3    0    0  0.23216549545E+01  0.12147679885E+02 -0.27366175011E+02  0.30031046320E+02  0.00000000000E+00 0.  1.
</event>
<event>
 7    1  0.5121289E-013  0.5052886E+02  0.7816164E-02  0.1300439E+00
        -11   -1    0    0    0    0  0.00000000000E+00  0.00000000000E+00  0.45593999997E+02  0.45594000000E+02  0.51100000000E-03 0.  1.
         11   -1    0    0    0    0 -0.00000000000E+00 -0.00000000000E+00 -0.45593999997E+02  0.45594000000E+02  0.51100000000E-03 0. -1.
    9900012    2    1    2    0    0 -0.32740966830E+02  0.80784249354E+01  0.22714178006E+02  0.50528859073E+02  0.29999997639E+02 0.  0.
         12    1    1    2    0    0  0.32740966830E+02 -0.80784249354E+01 -0.22714178006E+02  0.40659140927E+02  0.00000000000E+00 0. -1.
         11    1    3    3    0    0 -0.11822230098E+02  0.84984753251E+01  0.10285267334E+02  0.17826270831E+02  0.51100000000E-03 0. -1.
        -11    1    3    3    0    0 -0.11412748226E+02  0.10342821986E+02  0.35052538148E+01  0.15795935973E+02  0.51100000000E-03 0.  1.
         12    1    3    3    0    0 -0.95059885064E+01 -0.10762872375E+02  0.89236568574E+01  0.16906652270E+02  0.00000000000E+00 0. -1.
</event>
<event>
 7    1  0.5121289E-013  0.5052887E+02  0.7816164E-02  0.1300439E+00
        -11   -1    0    0    0    0  0.00000000000E+00  0.00000000000E+00  0.45593999997E+02  0.45594000000E+02  0.51100000000E-03 0.  1.
         11   -1    0    0    0    0 -0.00000000000E+00 -0.00000000000E+00 -0.45593999997E+02  0.45594000000E+02  0.51100000000E-03 0. -1.
    9900012    2    1    2    0    0  0.31785999375E+02  0.13569183107E+02  0.21417110586E+02  0.50528866803E+02  0.30000021135E+02 0.  0.
         12    1    1    2    0    0 -0.31785999375E+02 -0.13569183107E+02 -0.21417110586E+02  0.40659133197E+02  0.00000000000E+00 0. -1.
         11    1    3    3    0    0 -0.13860009993E+01  0.70982492732E+01  0.45305540989E+01  0.85341702713E+01  0.51100000000E-03 0. -1.
        -11    1    3    3    0    0  0.22369795558E+02  0.11738684723E+02  0.16087105200E+02  0.29949948686E+02  0.51100000000E-03 0.  1.
        -12    1    3    3    0    0  0.10802204816E+02 -0.52677508887E+01  0.79945128763E+00  0.12044747846E+02  0.00000000000E+00 0.  1.
</event>
<event>
 7    1  0.5121289E-013  0.5052887E+02  0.7816164E-02  0.1300439E+00
        -11   -1    0    0    0    0  0.00000000000E+00  0.00000000000E+00  0.45593999997E+02  0.45594000000E+02  0.51100000000E-03 0. -1.
         11   -1    0    0    0    0 -0.00000000000E+00 -0.00000000000E+00 -0.45593999997E+02  0.45594000000E+02  0.51100000000E-03 0.  1.
    9900012    2    1    2    0    0  0.19446428033E+02 -0.35652849765E+02 -0.19686183508E+01  0.50528871655E+02  0.30000035881E+02 0.  0.
         12    1    1    2    0    0 -0.19446428033E+02  0.35652849765E+02  0.19686183508E+01  0.40659128345E+02  0.00000000000E+00 0. -1.
         11    1    3    3    0    0  0.14331858054E+01 -0.16051499004E+01  0.50446504224E+01  0.54844348753E+01  0.51100000000E-03 0. -1.
        -11    1    3    3    0    0  0.81549712480E+01  0.88038940857E+00 -0.12551939158E+01  0.82978402970E+01  0.51100000000E-03 0.  1.
        -12    1    3    3    0    0  0.98582709799E+01 -0.34928089273E+02 -0.57580748575E+01  0.36746596482E+02  0.00000000000E+00 0.  1.
</event>
<event>
 7    1  0.5121289E-013  0.5052884E+02  0.7816164E-02  0.1300439E+00
        -11   -1    0    0    0    0  0.00000000000E+00  0.00000000000E+00  0.45593999997E+02  0.45594000000E+02  0.51100000000E-03 0.  1.
         11   -1    0    0    0    0 -0.00000000000E+00 -0.00000000000E+00 -0.45593999997E+02  0.45594000000E+02  0.51100000000E-03 0. -1.
    9900012    2    1    2    0    0 -0.19745546275E+02  0.20651729256E+02  0.28927269569E+02  0.50528838134E+02  0.29999933991E+02 0.  0.
         12    1    1    2    0    0  0.19745546275E+02 -0.20651729256E+02 -0.28927269569E+02  0.40659161866E+02  0.00000000000E+00 0. -1.
         11    1    3    3    0    0 -0.19490567464E+02  0.55527207369E+01  0.18375887439E+02  0.27356684139E+02  0.51100000000E-03 0. -1.
        -11    1    3    3    0    0 -0.28636966531E+01  0.30652714455E+00  0.72384874887E+01  0.77904055604E+01  0.51100000000E-03 0.  1.
         12    1    3    3    0    0  0.26087178421E+01  0.14792481374E+02  0.33128946416E+01  0.15381748434E+02  0.00000000000E+00 0. -1.
</event>
<event>
 7    1  0.5121289E-013  0.5052887E+02  0.7816164E-02  0.1300439E+00
        -11   -1    0    0    0    0  0.00000000000E+00  0.00000000000E+00  0.45593999997E+02  0.45594000000E+02  0.51100000000E-03 0.  1.
         11   -1    0    0    0    0 -0.00000000000E+00 -0.00000000000E+00 -0.45593999997E+02  0.45594000000E+02  0.51100000000E-03 0. -1.
    9900012    2    1    2    0    0 -0.19998772321E+02 -0.23501557141E+02  0.26474348999E+02  0.50528865266E+02  0.30000016463E+02 0.  0.
         12    1    1    2    0    0  0.19998772321E+02  0.23501557141E+02 -0.26474348999E+02  0.40659134734E+02  0.00000000000E+00 0. -1.
         11    1    3    3    0    0 -0.10997144008E+02 -0.18823902774E+02  0.82509509233E+01  0.23309969613E+02  0.51100000000E-03 0. -1.
        -11    1    3    3    0    0 -0.76845303004E+01  0.36746586391E+01  0.17407955035E+01  0.86939916780E+01  0.51100000000E-03 0.  1.
        -12    1    3    3    0    0 -0.13170980119E+01 -0.83523130068E+01  0.16482602572E+02  0.18524903975E+02  0.00000000000E+00 0.  1.
</event>
<event>
 7    1  0.5121289E-013  0.5052886E+02  0.7816164E-02  0.1300439E+00
        -11   -1    0    0    0    0  0.00000000000E+00  0.00000000000E+00  0.45593999997E+02  0.45594000000E+02  0.51100000000E-03 0.  1.
         11   -1    0    0    0    0 -0.00000000000E+00 -0.00000000000E+00 -0.45593999997E+02  0.45594000000E+02  0.51100000000E-03 0. -1.
    9900012    2    1    2    0    0  0.10176364384E+02 -0.49320711335E+01  0.39054860115E+02  0.50528858146E+02  0.29999994821E+02 0.  0.
         12    1    1    2    0    0 -0.10176364384E+02  0.49320711335E+01 -0.39054860115E+02  0.40659141854E+02  0.00000000000E+00 0. -1.
         11    1    3    3    0    0  0.86622098590E+01  0.61710202890E+01  0.36149242339E+02  0.37681336136E+02  0.51100000000E-03 0. -1.
        -11    1    3    3    0    0 -0.14201730072E+01 -0.30039481735E+01  0.26149521456E+01  0.42283059237E+01  0.51100000000E-03 0.  1.
        -12    1    3    3    0    0  0.29343275318E+01 -0.80991432489E+01  0.29066562962E+00  0.86192160861E+01  0.00000000000E+00 0.  1.
</event>
<event>
 7    1  0.5121289E-013  0.5052885E+02  0.7816164E-02  0.1300439E+00
        -11   -1    0    0    0    0  0.00000000000E+00  0.00000000000E+00  0.45593999997E+02  0.45594000000E+02  0.51100000000E-03 0.  1.
         11   -1    0    0    0    0 -0.00000000000E+00 -0.00000000000E+00 -0.45593999997E+02  0.45594000000E+02  0.51100000000E-03 0. -1.
    9900012    2    1    2    0    0  0.27762137892E+02  0.17739641385E+01  0.29652704376E+02  0.50528854339E+02  0.29999983249E+02 0.  0.
         12    1    1    2    0    0 -0.27762137892E+02 -0.17739641385E+01 -0.29652704376E+02  0.40659145661E+02  0.00000000000E+00 0. -1.
         11    1    3    3    0    0  0.11397871028E+02  0.44790107967E+00  0.25825734023E+02  0.28232616199E+02  0.51100000000E-03 0.  1.
        -11    1    3    3    0    0  0.11188823358E+02  0.36531990575E+01  0.88434859782E+01  0.14722189918E+02  0.51100000000E-03 0. -1.
         12    1    3    3    0    0  0.51754435058E+01 -0.23271359987E+01 -0.50165156256E+01  0.75740482214E+01  0.00000000000E+00 0. -1.
</event>
<event>
 7    1  0.5121289E-013  0.5052886E+02  0.7816164E-02  0.1300439E+00
        -11   -1    0    0    0    0  0.00000000000E+00  0.00000000000E+00  0.45593999997E+02  0.45594000000E+02  0.51100000000E-03 0.  1.
         11   -1    0    0    0    0 -0.00000000000E+00 -0.00000000000E+00 -0.45593999997E+02  0.45594000000E+02  0.51100000000E-03 0. -1.
    9900012    2    1    2    0    0  0.17759971373E+02  0.38191688275E+00  0.36573259961E+02  0.50528858496E+02  0.29999995884E+02 0.  0.
         12    1    1    2    0    0 -0.17759971373E+02 -0.38191688275E+00 -0.36573259961E+02  0.40659141504E+02  0.00000000000E+00 0. -1.
         11    1    3    3    0    0  0.22883757023E+01  0.42529696194E+00 -0.10769283088E+01  0.25646277906E+01  0.51100000000E-03 0. -1.
        -11    1    3    3    0    0  0.22637745455E+01 -0.11095366100E+02  0.87051652146E+01  0.14283267335E+02  0.51100000000E-03 0.  1.
        -12    1    3    3    0    0  0.13207821125E+02  0.11051986021E+02  0.28945023055E+02  0.33680963370E+02  0.00000000000E+00 0.  1.
</event>
<event>
 7    1  0.5121289E-013  0.5052886E+02  0.7816164E-02  0.1300439E+00
        -11   -1    0    0    0    0  0.00000000000E+00  0.00000000000E+00  0.45593999997E+02  0.45594000000E+02  0.51100000000E-03 0. -1.
         11   -1    0    0    0    0 -0.00000000000E+00 -0.00000000000E+00 -0.45593999997E+02  0.45594000000E+02  0.51100000000E-03 0.  1.
    9900012    2    1    2    0    0 -0.21160439015E+02  0.66088517818E+00 -0.34712596495E+02  0.50528864447E+02  0.30000013972E+02 0.  0.
         12    1    1    2    0    0  0.21160439015E+02 -0.66088517818E+00  0.34712596495E+02  0.40659135553E+02  0.00000000000E+00 0. -1.
         11    1    3    3    0    0 -0.16984367099E+02 -0.78871465801E+01 -0.92281011830E+01  0.20876629485E+02  0.51100000000E-03 0. -1.
        -11    1    3    3    0    0  0.30822295307E+01  0.26970354980E+01 -0.23782322130E+01  0.47360456161E+01  0.51100000000E-03 0.  1.
        -12    1    3    3    0    0 -0.72583014471E+01  0.58509962603E+01 -0.23106263099E+02  0.24916189346E+02  0.00000000000E+00 0.  1.
</event>
<event>
 7    1  0.5121289E-013  0.5052886E+02  0.7816164E-02  0.1300439E+00
        -11   -1    0    0    0    0  0.00000000000E+00  0.00000000000E+00  0.45593999997E+02  0.45594000000E+02  0.51100000000E-03 0.  1.
         11   -1    0    0    0    0 -0.00000000000E+00 -0.00000000000E+00 -0.45593999997E+02  0.45594000000E+02  0.51100000000E-03 0. -1.
    9900012    2    1    2    0    0  0.73995409423E+01  0.34889021300E+02  0.19523542202E+02  0.50528859410E+02  0.29999998663E+02 0.  0.
         12    1    1    2    0    0 -0.73995409423E+01 -0.34889021300E+02 -0.19523542202E+02  0.40659140590E+02  0.00000000000E+00 0. -1.
         11    1    3    3    0    0  0.82047948468E+01  0.99800508250E+01  0.28022463587E+01  0.13220161038E+02  0.51100000000E-03 0. -1.
        -11    1    3    3    0    0  0.10629439660E+02  0.11120017711E+02  0.87979997236E+01  0.17721303021E+02  0.51100000000E-03 0.  1.
        -12    1    3    3    0    0 -0.11434693564E+02  0.13788952764E+02  0.79232961196E+01  0.19587395351E+02  0.00000000000E+00 0.  1.
</event>
<event>
 7    1  0.5121289E-013  0.5052886E+02  0.7816164E-02  0.1300439E+00
        -11   -1    0    0    0    0  0.00000000000E+00  0.00000000000E+00  0.45593999997E+02  0.45594000000E+02  0.51100000000E-03 0.  1.
         11   -1    0    0    0    0 -0.00000000000E+00 -0.00000000000E+00 -0.45593999997E+02  0.45594000000E+02  0.51100000000E-03 0. -1.
    9900012    2    1    2    0    0  0.30668761266E+02 -0.20727842310E+02  0.16821100343E+02  0.50528858578E+02  0.29999996135E+02 0.  0.
         12    1    1    2    0    0 -0.30668761266E+02  0.20727842310E+02 -0.16821100343E+02  0.40659141422E+02  0.00000000000E+00 0. -1.
         11    1    3    3    0    0 -0.13546398122E+01 -0.22541459684E+01  0.21241248770E+01  0.33805517038E+01  0.51100000000E-03 0. -1.
        -11    1    3    3    0    0  0.77979176387E+01 -0.10645792754E+02  0.17073531729E+02  0.21578830108E+02  0.51100000000E-03 0.  1.
        -12    1    3    3    0    0  0.24225483439E+02 -0.78279035875E+01 -0.23765562635E+01  0.25569476767E+02  0.00000000000E+00 0.  1.
</event>
<event>
 7    1  0.5121289E-013  0.5052888E+02  0.7816164E-02  0.1300439E+00
        -11   -1    0    0    0    0  0.00000000000E+00  0.00000000000E+00  0.45593999997E+02  0.45594000000E+02  0.51100000000E-03 0. -1.
         11   -1    0    0    0    0 -0.00000000000E+00 -0.00000000000E+00 -0.45593999997E+02  0.45594000000E+02  0.51100000000E-03 0.  1.
    9900012    2    1    2    0    0  0.14611329275E+02  0.24949048037E+02 -0.28587028625E+02  0.50528878677E+02  0.30000057225E+02 0.  0.
         12    1    1    2    0    0 -0.14611329275E+02 -0.24949048037E+02  0.28587028625E+02  0.40659121323E+02  0.00000000000E+00 0. -1.
         11    1    3    3    0    0 -0.85612205746E+01  0.55043897881E+01 -0.49194898440E+01  0.11304609027E+02  0.51100000000E-03 0. -1.
        -11    1    3    3    0    0  0.80896033644E+01  0.11519904455E+02 -0.87191312518E+01  0.16558174153E+02  0.51100000000E-03 0.  1.
        -12    1    3    3    0    0  0.15082946486E+02  0.79247537945E+01 -0.14948407530E+02  0.22666095497E+02  0.00000000000E+00 0.  1.
</event>
<event>
 7    1  0.5121289E-013  0.5052887E+02  0.7816164E-02  0.1300439E+00
        -11   -1    0    0    0    0  0.00000000000E+00  0.00000000000E+00  0.45593999997E+02  0.45594000000E+02  0.51100000000E-03 0.  1.
         11   -1    0    0    0    0 -0.00000000000E+00 -0.00000000000E+00 -0.45593999997E+02  0.45594000000E+02  0.51100000000E-03 0. -1.
    9900012    2    1    2    0    0 -0.24060042911E+02 -0.31872648216E+02 -0.76428838379E+01  0.50528867661E+02  0.30000023742E+02 0.  0.
         12    1    1    2    0    0  0.24060042911E+02  0.31872648216E+02  0.76428838379E+01  0.40659132339E+02  0.00000000000E+00 0. -1.
         11    1    3    3    0    0 -0.11158368678E+02 -0.12777735037E+01  0.72762995253E+00  0.11254836395E+02  0.51100000000E-03 0. -1.
        -11    1    3    3    0    0 -0.12795631906E+02 -0.71466328499E+01 -0.98182013474E+00  0.14688993431E+02  0.51100000000E-03 0.  1.
         12    1    3    3    0    0 -0.10604232740E+00 -0.23448241862E+02 -0.73886936557E+01  0.24585037835E+02  0.00000000000E+00 0. -1.
</event>
<event>
 7    1  0.5121289E-013  0.5052886E+02  0.7816164E-02  0.1300439E+00
        -11   -1    0    0    0    0  0.00000000000E+00  0.00000000000E+00  0.45593999997E+02  0.45594000000E+02  0.51100000000E-03 0.  1.
         11   -1    0    0    0    0 -0.00000000000E+00 -0.00000000000E+00 -0.45593999997E+02  0.45594000000E+02  0.51100000000E-03 0. -1.
    9900012    2    1    2    0    0 -0.20537941417E+02 -0.23012038512E+02  0.26491603480E+02  0.50528855775E+02  0.29999987615E+02 0.  0.
         12    1    1    2    0    0  0.20537941417E+02  0.23012038512E+02 -0.26491603480E+02  0.40659144225E+02  0.00000000000E+00 0. -1.
         11    1    3    3    0    0 -0.17854796173E+00 -0.12036750156E+02  0.77540138526E+01  0.14319216626E+02  0.51100000000E-03 0. -1.
        -11    1    3    3    0    0  0.18844857741E+01 -0.83800971081E+01  0.51128213616E+01  0.99959119999E+01  0.51100000000E-03 0.  1.
         12    1    3    3    0    0 -0.22243879230E+02 -0.25951912485E+01  0.13624768265E+02  0.26213727150E+02  0.00000000000E+00 0. -1.
</event>
<event>
 7    1  0.5121289E-013  0.5052887E+02  0.7816164E-02  0.1300439E+00
        -11   -1    0    0    0    0  0.00000000000E+00  0.00000000000E+00  0.45593999997E+02  0.45594000000E+02  0.51100000000E-03 0.  1.
         11   -1    0    0    0    0 -0.00000000000E+00 -0.00000000000E+00 -0.45593999997E+02  0.45594000000E+02  0.51100000000E-03 0. -1.
    9900012    2    1    2    0    0 -0.98276584322E+01 -0.21625911906E+02  0.32998519151E+02  0.50528865699E+02  0.30000017777E+02 0.  0.
         12    1    1    2    0    0  0.98276584322E+01  0.21625911906E+02 -0.32998519151E+02  0.40659134301E+02  0.00000000000E+00 0. -1.
         11    1    3    3    0    0  0.21666080069E+00  0.17173124046E+01  0.90819144934E+01  0.92453920915E+01  0.51100000000E-03 0. -1.
        -11    1    3    3    0    0  0.42271716460E+01 -0.17608080523E+00 -0.10452692449E+01  0.43580468825E+01  0.51100000000E-03 0.  1.
        -12    1    3    3    0    0 -0.14271490879E+02 -0.23167143505E+02  0.24961873902E+02  0.36925426725E+02  0.00000000000E+00 0.  1.
</event>
<event>
 7    1  0.5121289E-013  0.5052886E+02  0.7816164E-02  0.1300439E+00
        -11   -1    0    0    0    0  0.00000000000E+00  0.00000000000E+00  0.45593999997E+02  0.45594000000E+02  0.51100000000E-03 0.  1.
         11   -1    0    0    0    0 -0.00000000000E+00 -0.00000000000E+00 -0.45593999997E+02  0.45594000000E+02  0.51100000000E-03 0. -1.
    9900012    2    1    2    0    0 -0.18537302716E+02  0.33900173685E+02  0.12661447855E+02  0.50528860442E+02  0.30000001798E+02 0.  0.
         12    1    1    2    0    0  0.18537302716E+02 -0.33900173685E+02 -0.12661447855E+02  0.40659139558E+02  0.00000000000E+00 0. -1.
         11    1    3    3    0    0  0.51608856059E+01  0.14349756688E+02  0.72386808767E+01  0.16880425301E+02  0.51100000000E-03 0. -1.
        -11    1    3    3    0    0 -0.17931672438E+02  0.18923924502E+02  0.80442060796E+01  0.27283127510E+02  0.51100000000E-03 0.  1.
        -12    1    3    3    0    0 -0.57665158834E+01  0.62649249497E+00 -0.26214391012E+01  0.63653076313E+01  0.00000000000E+00 0.  1.
</event>
<event>
 7    1  0.5121289E-013  0.5052885E+02  0.7816164E-02  0.1300439E+00
        -11   -1    0    0    0    0  0.00000000000E+00  0.00000000000E+00  0.45593999997E+02  0.45594000000E+02  0.51100000000E-03 0.  1.
         11   -1    0    0    0    0 -0.00000000000E+00 -0.00000000000E+00 -0.45593999997E+02  0.45594000000E+02  0.51100000000E-03 0. -1.
    9900012    2    1    2    0    0 -0.38712126535E+02 -0.68345530875E+01 -0.10383969471E+02  0.50528847540E+02  0.29999962582E+02 0.  0.
         12    1    1    2    0    0  0.38712126535E+02  0.68345530875E+01  0.10383969471E+02  0.40659152460E+02  0.00000000000E+00 0. -1.
         11    1    3    3    0    0 -0.12715106396E+02  0.10046906405E+02  0.17965380280E+01  0.16304656026E+02  0.51100000000E-03 0. -1.
        -11    1    3    3    0    0 -0.72370573586E+01 -0.87302828132E+00 -0.34273254593E+01  0.80550442368E+01  0.51100000000E-03 0.  1.
        -12    1    3    3    0    0 -0.18759962781E+02 -0.16008431211E+02 -0.87531820400E+01  0.26169147277E+02  0.00000000000E+00 0.  1.
</event>
<event>
 7    1  0.5121289E-013  0.5052885E+02  0.7816164E-02  0.1300439E+00
        -11   -1    0    0    0    0  0.00000000000E+00  0.00000000000E+00  0.45593999997E+02  0.45594000000E+02  0.51100000000E-03 0. -1.
         11   -1    0    0    0    0 -0.00000000000E+00 -0.00000000000E+00 -0.45593999997E+02  0.45594000000E+02  0.51100000000E-03 0.  1.
    9900012    2    1    2    0    0  0.18316671213E+02 -0.36283366925E+02 -0.10878770305E+01  0.50528848064E+02  0.29999964175E+02 0.  0.
         12    1    1    2    0    0 -0.18316671213E+02  0.36283366925E+02  0.10878770305E+01  0.40659151936E+02  0.00000000000E+00 0. -1.
         11    1    3    3    0    0  0.95780526584E+01 -0.14650479158E+02  0.12518216703E+02  0.21519325779E+02  0.51100000000E-03 0. -1.
        -11    1    3    3    0    0  0.22338684670E+00 -0.10490088213E+02 -0.17332518594E+01  0.10634661004E+02  0.51100000000E-03 0.  1.
        -12    1    3    3    0    0  0.85152317076E+01 -0.11142799555E+02 -0.11872841874E+02  0.18374861282E+02  0.00000000000E+00 0.  1.
</event>
<event>
 7    1  0.5121289E-013  0.5052873E+02  0.7816164E-02  0.1300439E+00
        -11   -1    0    0    0    0  0.00000000000E+00  0.00000000000E+00  0.45593999997E+02  0.45594000000E+02  0.51100000000E-03 0. -1.
         11   -1    0    0    0    0 -0.00000000000E+00 -0.00000000000E+00 -0.45593999997E+02  0.45594000000E+02  0.51100000000E-03 0.  1.
    9900012    2    1    2    0    0 -0.36370002388E+02 -0.36518130513E+01 -0.17806283314E+02  0.50528726301E+02  0.29999594060E+02 0.  0.
         12    1    1    2    0    0  0.36370002388E+02  0.36518130513E+01  0.17806283314E+02  0.40659273699E+02  0.00000000000E+00 0. -1.
         11    1    3    3    0    0 -0.32215234074E+01 -0.42562120535E+01 -0.83848926388E+01  0.99398178521E+01  0.51100000000E-03 0. -1.
        -11    1    3    3    0    0 -0.56940435385E+01  0.46987184961E+01 -0.10470099553E+02  0.12811052737E+02  0.51100000000E-03 0.  1.
        -12    1    3    3    0    0 -0.27454435443E+02 -0.40943194938E+01  0.10487088778E+01  0.27777855711E+02  0.00000000000E+00 0.  1.
</event>
<event>
 7    1  0.5121289E-013  0.5052886E+02  0.7816164E-02  0.1300439E+00
        -11   -1    0    0    0    0  0.00000000000E+00  0.00000000000E+00  0.45593999997E+02  0.45594000000E+02  0.51100000000E-03 0. -1.
         11   -1    0    0    0    0 -0.00000000000E+00 -0.00000000000E+00 -0.45593999997E+02  0.45594000000E+02  0.51100000000E-03 0.  1.
    9900012    2    1    2    0    0  0.12185342642E+02  0.10236766689E+02 -0.37415130842E+02  0.50528856090E+02  0.29999988572E+02 0.  0.
         12    1    1    2    0    0 -0.12185342642E+02 -0.10236766689E+02  0.37415130842E+02  0.40659143910E+02  0.00000000000E+00 0. -1.
         11    1    3    3    0    0  0.54775075910E+01  0.11913224031E+02 -0.17344230653E+02  0.21742822573E+02  0.51100000000E-03 0. -1.
        -11    1    3    3    0    0  0.12307154266E+02 -0.51601026807E+01 -0.97074791803E+01  0.16502359168E+02  0.51100000000E-03 0.  1.
         12    1    3    3    0    0 -0.55993192154E+01  0.34836453383E+01 -0.10363421008E+02  0.12283674349E+02  0.00000000000E+00 0. -1.
</event>
<event>
 7    1  0.5121289E-013  0.5052886E+02  0.7816164E-02  0.1300439E+00
        -11   -1    0    0    0    0  0.00000000000E+00  0.00000000000E+00  0.45593999997E+02  0.45594000000E+02  0.51100000000E-03 0.  1.
         11   -1    0    0    0    0 -0.00000000000E+00 -0.00000000000E+00 -0.45593999997E+02  0.45594000000E+02  0.51100000000E-03 0. -1.
    9900012    2    1    2    0    0 -0.18665186930E+02 -0.11128639505E+02  0.34364655074E+02  0.50528864019E+02  0.30000012673E+02 0.  0.
         12    1    1    2    0    0  0.18665186930E+02  0.11128639505E+02 -0.34364655074E+02  0.40659135981E+02  0.00000000000E+00 0. -1.
         11    1    3    3    0    0 -0.21943115464E+02 -0.63018680992E+01  0.15378901716E+02  0.27526795600E+02  0.51100000000E-03 0. -1.
        -11    1    3    3    0    0 -0.33488618322E+01 -0.48841949575E+01  0.11948807710E+02  0.13335825505E+02  0.51100000000E-03 0.  1.
         12    1    3    3    0    0  0.66267903658E+01  0.57423551597E-01  0.70369456479E+01  0.96662429138E+01  0.00000000000E+00 0. -1.
</event>
<event>
 7    1  0.5121289E-013  0.5052892E+02  0.7816164E-02  0.1300439E+00
        -11   -1    0    0    0    0  0.00000000000E+00  0.00000000000E+00  0.45593999997E+02  0.45594000000E+02  0.51100000000E-03 0.  1.
         11   -1    0    0    0    0 -0.00000000000E+00 -0.00000000000E+00 -0.45593999997E+02  0.45594000000E+02  0.51100000000E-03 0. -1.
    9900012    2    1    2    0    0  0.22442559474E+02 -0.33880212371E+02  0.12741817140E+01  0.50528919770E+02  0.30000182133E+02 0.  0.
         12    1    1    2    0    0 -0.22442559474E+02  0.33880212371E+02 -0.12741817140E+01  0.40659080230E+02  0.00000000000E+00 0. -1.
         11    1    3    3    0    0  0.12154401387E+02 -0.98967853082E+01  0.71662334920E+01  0.17234579636E+02  0.51100000000E-03 0. -1.
        -11    1    3    3    0    0  0.88574431050E+00 -0.55790537906E+01  0.69547610209E+01  0.89598596697E+01  0.51100000000E-03 0.  1.
        -12    1    3    3    0    0  0.94024137764E+01 -0.18404373272E+02 -0.12846812799E+02  0.24334480464E+02  0.00000000000E+00 0.  1.
</event>
<event>
 7    1  0.5121289E-013  0.5052887E+02  0.7816164E-02  0.1300439E+00
        -11   -1    0    0    0    0  0.00000000000E+00  0.00000000000E+00  0.45593999997E+02  0.45594000000E+02  0.51100000000E-03 0.  1.
         11   -1    0    0    0    0 -0.00000000000E+00 -0.00000000000E+00 -0.45593999997E+02  0.45594000000E+02  0.51100000000E-03 0. -1.
    9900012    2    1    2    0    0  0.18534989730E+02  0.31676418346E+02 -0.17499232775E+02  0.50528874686E+02  0.30000045096E+02 0.  0.
         12    1    1    2    0    0 -0.18534989730E+02 -0.31676418346E+02  0.17499232775E+02  0.40659125314E+02  0.00000000000E+00 0. -1.
         11    1    3    3    0    0  0.22503030083E+01  0.14541638568E+02 -0.12530549849E+02  0.19327125903E+02  0.51100000000E-03 0. -1.
        -11    1    3    3    0    0  0.26983017185E+01 -0.40011272335E+01  0.18476574504E+01  0.51675612834E+01  0.51100000000E-03 0.  1.
         12    1    3    3    0    0  0.13586385003E+02  0.21135907012E+02 -0.68163403767E+01  0.26034187500E+02  0.00000000000E+00 0. -1.
</event>
<event>
 7    1  0.5121289E-013  0.5052886E+02  0.7816164E-02  0.1300439E+00
        -11   -1    0    0    0    0  0.00000000000E+00  0.00000000000E+00  0.45593999997E+02  0.45594000000E+02  0.51100000000E-03 0.  1.
         11   -1    0    0    0    0 -0.00000000000E+00 -0.00000000000E+00 -0.45593999997E+02  0.45594000000E+02  0.51100000000E-03 0. -1.
    9900012    2    1    2    0    0  0.11564454014E+02  0.87483565724E+00  0.38970033644E+02  0.50528862574E+02  0.30000008279E+02 0.  0.
         12    1    1    2    0    0 -0.11564454014E+02 -0.87483565724E+00 -0.38970033644E+02  0.40659137426E+02  0.00000000000E+00 0. -1.
         11    1    3    3    0    0  0.92160745702E+01  0.22718255487E+01  0.16314684015E+02  0.18875013552E+02  0.51100000000E-03 0. -1.
        -11    1    3    3    0    0 -0.43424299239E+01  0.13164390722E+01  0.23900290471E+02  0.24327219207E+02  0.51100000000E-03 0.  1.
         12    1    3    3    0    0  0.66908093679E+01 -0.27134289637E+01 -0.12449408430E+01  0.73266298147E+01  0.00000000000E+00 0. -1.
</event>
<event>
 7    1  0.5121289E-013  0.5052888E+02  0.7816164E-02  0.1300439E+00
        -11   -1    0    0    0    0  0.00000000000E+00  0.00000000000E+00  0.45593999997E+02  0.45594000000E+02  0.51100000000E-03 0.  1.
         11   -1    0    0    0    0 -0.00000000000E+00 -0.00000000000E+00 -0.45593999997E+02  0.45594000000E+02  0.51100000000E-03 0. -1.
    9900012    2    1    2    0    0 -0.28345906640E+02  0.23506898562E+02  0.17236573026E+02  0.50528878601E+02  0.30000056995E+02 0.  0.
         12    1    1    2    0    0  0.28345906640E+02 -0.23506898562E+02 -0.17236573026E+02  0.40659121399E+02  0.00000000000E+00 0. -1.
         11    1    3    3    0    0  0.23616341197E+01 -0.89834758807E+00 -0.78919254057E+00  0.26471058217E+01  0.51100000000E-03 0. -1.
        -11    1    3    3    0    0 -0.86308264116E+01  0.13766807758E+02  0.16759158504E+02  0.23342783776E+02  0.51100000000E-03 0.  1.
        -12    1    3    3    0    0 -0.22076714348E+02  0.10638438392E+02  0.12666070629E+01  0.24538989003E+02  0.00000000000E+00 0.  1.
</event>
<event>
 7    1  0.5121289E-013  0.5052887E+02  0.7816164E-02  0.1300439E+00
        -11   -1    0    0    0    0  0.00000000000E+00  0.00000000000E+00  0.45593999997E+02  0.45594000000E+02  0.51100000000E-03 0.  1.
         11   -1    0    0    0    0 -0.00000000000E+00 -0.00000000000E+00 -0.45593999997E+02  0.45594000000E+02  0.51100000000E-03 0. -1.
    9900012    2    1    2    0    0  0.21253351046E+01  0.54514556719E+01  0.40235918279E+02  0.50528873866E+02  0.30000042602E+02 0.  0.
         12    1    1    2    0    0 -0.21253351046E+01 -0.54514556719E+01 -0.40235918279E+02  0.40659126134E+02  0.00000000000E+00 0. -1.
         11    1    3    3    0    0 -0.67099032641E+01 -0.14646104750E+01  0.69956924749E+01  0.98034483281E+01  0.51100000000E-03 0. -1.
        -11    1    3    3    0    0 -0.29054719728E+01 -0.42764588967E+01  0.20351885753E+01  0.55562452140E+01  0.51100000000E-03 0.  1.
        -12    1    3    3    0    0  0.11740710341E+02  0.11192525044E+02  0.31205037229E+02  0.35169180324E+02  0.00000000000E+00 0.  1.
</event>
<event>
 7    1  0.5121289E-013  0.5052886E+02  0.7816164E-02  0.1300439E+00
        -11   -1    0    0    0    0  0.00000000000E+00  0.00000000000E+00  0.45593999997E+02  0.45594000000E+02  0.51100000000E-03 0.  1.
         11   -1    0    0    0    0 -0.00000000000E+00 -0.00000000000E+00 -0.45593999997E+02  0.45594000000E+02  0.51100000000E-03 0. -1.
    9900012    2    1    2    0    0  0.26294380945E+01  0.11741477301E+02  0.38837986494E+02  0.50528862912E+02  0.30000009306E+02 0.  0.
         12    1    1    2    0    0 -0.26294380945E+01 -0.11741477301E+02 -0.38837986494E+02  0.40659137088E+02  0.00000000000E+00 0. -1.
         11    1    3    3    0    0  0.13901793896E+01 -0.35372493072E+01  0.18802208668E+02  0.19182486347E+02  0.51100000000E-03 0. -1.
        -11    1    3    3    0    0 -0.52122816625E+01  0.17148896481E+01  0.14216152681E+02  0.15238363558E+02  0.51100000000E-03 0.  1.
         12    1    3    3    0    0  0.64515403673E+01  0.13563836960E+02  0.58196251451E+01  0.16108013006E+02  0.00000000000E+00 0. -1.
</event>
<event>
 7    1  0.5121289E-013  0.5052886E+02  0.7816164E-02  0.1300439E+00
        -11   -1    0    0    0    0  0.00000000000E+00  0.00000000000E+00  0.45593999997E+02  0.45594000000E+02  0.51100000000E-03 0.  1.
         11   -1    0    0    0    0 -0.00000000000E+00 -0.00000000000E+00 -0.45593999997E+02  0.45594000000E+02  0.51100000000E-03 0. -1.
    9900012    2    1    2    0    0  0.24341332896E+02 -0.21414355545E+02  0.24537539106E+02  0.50528856675E+02  0.29999990349E+02 0.  0.
         12    1    1    2    0    0 -0.24341332896E+02  0.21414355545E+02 -0.24537539106E+02  0.40659143325E+02  0.00000000000E+00 0. -1.
         11    1    3    3    0    0  0.43422426449E+01  0.54750022192E+01  0.64218233432E+01  0.94905498155E+01  0.51100000000E-03 0. -1.
        -11    1    3    3    0    0  0.68300766566E+01 -0.10961798873E+02  0.15548174704E+02  0.20212786016E+02  0.51100000000E-03 0.  1.
        -12    1    3    3    0    0  0.13169013594E+02 -0.15927558892E+02  0.25675410592E+01  0.20825520843E+02  0.00000000000E+00 0.  1.
</event>
<event>
 7    1  0.5121289E-013  0.5052885E+02  0.7816164E-02  0.1300439E+00
        -11   -1    0    0    0    0  0.00000000000E+00  0.00000000000E+00  0.45593999997E+02  0.45594000000E+02  0.51100000000E-03 0. -1.
         11   -1    0    0    0    0 -0.00000000000E+00 -0.00000000000E+00 -0.45593999997E+02  0.45594000000E+02  0.51100000000E-03 0.  1.
    9900012    2    1    2    0    0  0.35140273783E+02  0.57775339491E+01 -0.19620080347E+02  0.50528852285E+02  0.29999977006E+02 0.  0.
         12    1    1    2    0    0 -0.35140273783E+02 -0.57775339491E+01  0.19620080347E+02  0.40659147715E+02  0.00000000000E+00 0. -1.
         11    1    3    3    0    0  0.15177557340E+02  0.16112389248E+01 -0.20679792529E+01  0.15402301001E+02  0.51100000000E-03 0. -1.
        -11    1    3    3    0    0  0.17098505079E+02  0.66516416833E+01 -0.12500986094E+01  0.18389289268E+02  0.51100000000E-03 0.  1.
        -12    1    3    3    0    0  0.28642113641E+01 -0.24853466589E+01 -0.16302002485E+02  0.16737262016E+02  0.00000000000E+00 0.  1.
</event>
<event>
 7    1  0.5121289E-013  0.5052887E+02  0.7816164E-02  0.1300439E+00
        -11   -1    0    0    0    0  0.00000000000E+00  0.00000000000E+00  0.45593999997E+02  0.45594000000E+02  0.51100000000E-03 0.  1.
         11   -1    0    0    0    0 -0.00000000000E+00 -0.00000000000E+00 -0.45593999997E+02  0.45594000000E+02  0.51100000000E-03 0. -1.
    9900012    2    1    2    0    0 -0.71961515846E+01 -0.36002068237E+02 -0.17470877323E+02  0.50528867331E+02  0.30000022739E+02 0.  0.
         12    1    1    2    0    0  0.71961515846E+01  0.36002068237E+02  0.17470877323E+02  0.40659132669E+02  0.00000000000E+00 0. -1.
         11    1    3    3    0    0 -0.15622097766E+01 -0.10197989736E+01  0.16457480878E+01  0.24877653351E+01  0.51100000000E-03 0. -1.
        -11    1    3    3    0    0 -0.15379305410E+02 -0.26005927363E+02 -0.95064958362E+01  0.31673407715E+02  0.51100000000E-03 0.  1.
        -12    1    3    3    0    0  0.97453636022E+01 -0.89763419004E+01 -0.96101295745E+01  0.16367694281E+02  0.00000000000E+00 0.  1.
</event>
<event>
 7    1  0.5121289E-013  0.5052886E+02  0.7816164E-02  0.1300439E+00
        -11   -1    0    0    0    0  0.00000000000E+00  0.00000000000E+00  0.45593999997E+02  0.45594000000E+02  0.51100000000E-03 0.  1.
         11   -1    0    0    0    0 -0.00000000000E+00 -0.00000000000E+00 -0.45593999997E+02  0.45594000000E+02  0.51100000000E-03 0. -1.
    9900012    2    1    2    0    0  0.17156663837E+02 -0.91054777554E+01  0.35719814758E+02  0.50528855819E+02  0.29999987749E+02 0.  0.
         12    1    1    2    0    0 -0.17156663837E+02  0.91054777554E+01 -0.35719814758E+02  0.40659144181E+02  0.00000000000E+00 0. -1.
         11    1    3    3    0    0  0.59298881848E+01 -0.54878222627E+01 -0.11416554034E+01  0.81598495325E+01  0.51100000000E-03 0. -1.
        -11    1    3    3    0    0  0.93830655464E+01 -0.31910021048E+01  0.62885196881E+01  0.11737542060E+02  0.51100000000E-03 0.  1.
        -12    1    3    3    0    0  0.18437101059E+01 -0.42665338793E+00  0.30572950473E+02  0.30631464227E+02  0.00000000000E+00 0.  1.
</event>
<event>
 7    1  0.5121289E-013  0.5052887E+02  0.7816164E-02  0.1300439E+00
        -11   -1    0    0    0    0  0.00000000000E+00  0.00000000000E+00  0.45593999997E+02  0.45594000000E+02  0.51100000000E-03 0.  1.
         11   -1    0    0    0    0 -0.00000000000E+00 -0.00000000000E+00 -0.45593999997E+02  0.45594000000E+02  0.51100000000E-03 0. -1.
    9900012    2    1    2    0    0 -0.17950028597E+02 -0.33900928096E+02  0.13479174343E+02  0.50528873185E+02  0.30000040533E+02 0.  0.
         12    1    1    2    0    0  0.17950028597E+02  0.33900928096E+02 -0.13479174343E+02  0.40659126815E+02  0.00000000000E+00 0. -1.
         11    1    3    3    0    0 -0.12232268032E+02 -0.29046305364E+02  0.65851125473E+01  0.32197514563E+02  0.51100000000E-03 0. -1.
        -11    1    3    3    0    0 -0.95201712165E+01 -0.20056779499E+01 -0.27235858873E+00  0.97329637569E+01  0.51100000000E-03 0.  1.
         12    1    3    3    0    0  0.38024106523E+01 -0.28489447827E+01  0.71664203840E+01  0.85983948656E+01  0.00000000000E+00 0. -1.
</event>
<event>
 7    1  0.5121289E-013  0.5052885E+02  0.7816164E-02  0.1300439E+00
        -11   -1    0    0    0    0  0.00000000000E+00  0.00000000000E+00  0.45593999997E+02  0.45594000000E+02  0.51100000000E-03 0.  1.
         11   -1    0    0    0    0 -0.00000000000E+00 -0.00000000000E+00 -0.45593999997E+02  0.45594000000E+02  0.51100000000E-03 0. -1.
    9900012    2    1    2    0    0  0.45105149650E+01  0.20965817871E+02  0.34543541859E+02  0.50528849143E+02  0.29999967456E+02 0.  0.
         12    1    1    2    0    0 -0.45105149650E+01 -0.20965817871E+02 -0.34543541859E+02  0.40659150857E+02  0.00000000000E+00 0. -1.
         11    1    3    3    0    0  0.44251329051E+00  0.66843234491E+01  0.17864315485E+02  0.19079039965E+02  0.51100000000E-03 0. -1.
        -11    1    3    3    0    0  0.32544731777E+01 -0.55061119004E+01  0.67384133499E+01  0.92905908671E+01  0.51100000000E-03 0.  1.
         12    1    3    3    0    0  0.81352849677E+00  0.19787606322E+02  0.99408130241E+01  0.22159218311E+02  0.00000000000E+00 0. -1.
</event>
<event>
 7    1  0.5121289E-013  0.5052884E+02  0.7816164E-02  0.1300439E+00
        -11   -1    0    0    0    0  0.00000000000E+00  0.00000000000E+00  0.45593999997E+02  0.45594000000E+02  0.51100000000E-03 0.  1.
         11   -1    0    0    0    0 -0.00000000000E+00 -0.00000000000E+00 -0.45593999997E+02  0.45594000000E+02  0.51100000000E-03 0. -1.
    9900012    2    1    2    0    0  0.64296047458E+01 -0.38035617821E+02  0.12849888828E+02  0.50528835189E+02  0.29999925042E+02 0.  0.
         12    1    1    2    0    0 -0.64296047458E+01  0.38035617821E+02 -0.12849888828E+02  0.40659164811E+02  0.00000000000E+00 0. -1.
         11    1    3    3    0    0  0.27831673959E+00 -0.42213438194E+00 -0.50923941670E+01  0.51174345386E+01  0.51100000000E-03 0. -1.
        -11    1    3    3    0    0 -0.12923294545E+01 -0.32352389554E+01 -0.28934283792E+01  0.45286658702E+01  0.51100000000E-03 0.  1.
        -12    1    3    3    0    0  0.74436174607E+01 -0.34378244483E+02  0.20835711374E+02  0.40882734781E+02  0.00000000000E+00 0.  1.
</event>
<event>
 7    1  0.5121289E-013  0.5052884E+02  0.7816164E-02  0.1300439E+00
        -11   -1    0    0    0    0  0.00000000000E+00  0.00000000000E+00  0.45593999997E+02  0.45594000000E+02  0.51100000000E-03 0.  1.
         11   -1    0    0    0    0 -0.00000000000E+00 -0.00000000000E+00 -0.45593999997E+02  0.45594000000E+02  0.51100000000E-03 0. -1.
    9900012    2    1    2    0    0  0.81800841356E+01  0.19286776785E+02  0.34846426072E+02  0.50528844264E+02  0.29999952624E+02 0.  0.
         12    1    1    2    0    0 -0.81800841356E+01 -0.19286776785E+02 -0.34846426072E+02  0.40659155736E+02  0.00000000000E+00 0. -1.
         11    1    3    3    0    0  0.77922531690E+01  0.48794733497E+01  0.41984637508E+01  0.10107203755E+02  0.51100000000E-03 0. -1.
        -11    1    3    3    0    0  0.89624106343E+01  0.99473606597E+01  0.75228076898E+01  0.15357975917E+02  0.51100000000E-03 0.  1.
        -12    1    3    3    0    0 -0.85745796677E+01  0.44599427754E+01  0.23125154631E+02  0.25063664591E+02  0.00000000000E+00 0.  1.
</event>
<event>
 7    1  0.5121289E-013  0.5052887E+02  0.7816164E-02  0.1300439E+00
        -11   -1    0    0    0    0  0.00000000000E+00  0.00000000000E+00  0.45593999997E+02  0.45594000000E+02  0.51100000000E-03 0. -1.
         11   -1    0    0    0    0 -0.00000000000E+00 -0.00000000000E+00 -0.45593999997E+02  0.45594000000E+02  0.51100000000E-03 0.  1.
    9900012    2    1    2    0    0  0.91260535894E+01  0.39428494774E+02 -0.39081264005E+01  0.50528874256E+02  0.30000043789E+02 0.  0.
         12    1    1    2    0    0 -0.91260535894E+01 -0.39428494774E+02  0.39081264005E+01  0.40659125744E+02  0.00000000000E+00 0. -1.
         11    1    3    3    0    0 -0.30545106029E+01  0.11264381885E+01 -0.94043729712E+01  0.99519409795E+01  0.51100000000E-03 0. -1.
        -11    1    3    3    0    0  0.11158290900E+01  0.32488163149E+01  0.72109241431E+00  0.35099653185E+01  0.51100000000E-03 0.  1.
         12    1    3    3    0    0  0.11064735102E+02  0.35053240271E+02  0.47751541565E+01  0.37066967958E+02  0.00000000000E+00 0. -1.
</event>
<event>
 7    1  0.5121289E-013  0.5052887E+02  0.7816164E-02  0.1300439E+00
        -11   -1    0    0    0    0  0.00000000000E+00  0.00000000000E+00  0.45593999997E+02  0.45594000000E+02  0.51100000000E-03 0.  1.
         11   -1    0    0    0    0 -0.00000000000E+00 -0.00000000000E+00 -0.45593999997E+02  0.45594000000E+02  0.51100000000E-03 0. -1.
    9900012    2    1    2    0    0 -0.28611783675E+02 -0.27924360962E+02  0.74000771861E+01  0.50528865201E+02  0.30000016265E+02 0.  0.
         12    1    1    2    0    0  0.28611783675E+02  0.27924360962E+02 -0.74000771861E+01  0.40659134799E+02  0.00000000000E+00 0. -1.
         11    1    3    3    0    0 -0.12038656915E+02  0.13953512534E+01 -0.47320688706E+01  0.13010332105E+02  0.51100000000E-03 0. -1.
        -11    1    3    3    0    0  0.10446762726E+01 -0.13075644624E+01 -0.96183451528E+00  0.19303365597E+01  0.51100000000E-03 0.  1.
         12    1    3    3    0    0 -0.17617803033E+02 -0.28012147753E+02  0.13093980572E+02  0.35588196536E+02  0.00000000000E+00 0. -1.
</event>
<event>
 7    1  0.5121289E-013  0.5052886E+02  0.7816164E-02  0.1300439E+00
        -11   -1    0    0    0    0  0.00000000000E+00  0.00000000000E+00  0.45593999997E+02  0.45594000000E+02  0.51100000000E-03 0.  1.
         11   -1    0    0    0    0 -0.00000000000E+00 -0.00000000000E+00 -0.45593999997E+02  0.45594000000E+02  0.51100000000E-03 0. -1.
    9900012    2    1    2    0    0 -0.19714684918E+02  0.32288874366E+01  0.35412862302E+02  0.50528864103E+02  0.30000012927E+02 0.  0.
         12    1    1    2    0    0  0.19714684918E+02 -0.32288874366E+01 -0.35412862302E+02  0.40659135897E+02  0.00000000000E+00 0. -1.
         11    1    3    3    0    0  0.12205958484E+01  0.82852428705E+01  0.15750368315E+02  0.17838419379E+02  0.51100000000E-03 0. -1.
        -11    1    3    3    0    0 -0.20384845410E+01  0.15633537036E+01  0.10247561580E+02  0.10564658661E+02  0.51100000000E-03 0.  1.
         12    1    3    3    0    0 -0.18896796225E+02 -0.66197091375E+01  0.94149324077E+01  0.22125786063E+02  0.00000000000E+00 0. -1.
</event>
<event>
 7    1  0.5121289E-013  0.5052884E+02  0.7816164E-02  0.1300439E+00
        -11   -1    0    0    0    0  0.00000000000E+00  0.00000000000E+00  0.45593999997E+02  0.45594000000E+02  0.51100000000E-03 0.  1.
         11   -1    0    0    0    0 -0.00000000000E+00 -0.00000000000E+00 -0.45593999997E+02  0.45594000000E+02  0.51100000000E-03 0. -1.
    9900012    2    1    2    0    0 -0.27387811247E+02  0.19116277079E+02  0.23187122284E+02  0.50528844893E+02  0.29999954536E+02 0.  0.
         12    1    1    2    0    0  0.27387811247E+02 -0.19116277079E+02 -0.23187122284E+02  0.40659155107E+02  0.00000000000E+00 0. -1.
         11    1    3    3    0    0 -0.56737179008E+01  0.18565113342E+00 -0.14522894829E+01  0.58595807157E+01  0.51100000000E-03 0. -1.
        -11    1    3    3    0    0 -0.22354652177E+02  0.47724853354E+01  0.12774519463E+02  0.26185786947E+02  0.51100000000E-03 0.  1.
        -12    1    3    3    0    0  0.64055883118E+00  0.14158140610E+02  0.11864892303E+02  0.18483477230E+02  0.00000000000E+00 0.  1.
</event>
<event>
 7    1  0.5121289E-013  0.5052886E+02  0.7816164E-02  0.1300439E+00
        -11   -1    0    0    0    0  0.00000000000E+00  0.00000000000E+00  0.45593999997E+02  0.45594000000E+02  0.51100000000E-03 0.  1.
         11   -1    0    0    0    0 -0.00000000000E+00 -0.00000000000E+00 -0.45593999997E+02  0.45594000000E+02  0.51100000000E-03 0. -1.
    9900012    2    1    2    0    0 -0.37940340995E+02  0.95244403979E+01  0.11089693859E+02  0.50528858967E+02  0.29999997315E+02 0.  0.
         12    1    1    2    0    0  0.37940340995E+02 -0.95244403979E+01 -0.11089693859E+02  0.40659141033E+02  0.00000000000E+00 0. -1.
         11    1    3    3    0    0 -0.62889033277E+01 -0.29703859031E+01  0.92091471662E+00  0.70158094084E+01  0.51100000000E-03 0. -1.
        -11    1    3    3    0    0 -0.15698407965E+02  0.11856774457E+02  0.17139509562E+02  0.26091874242E+02  0.51100000000E-03 0.  1.
         12    1    3    3    0    0 -0.15953029701E+02  0.63805184434E+00 -0.69707304197E+01  0.17421175316E+02  0.00000000000E+00 0. -1.
</event>
<event>
 7    1  0.5121289E-013  0.5052886E+02  0.7816164E-02  0.1300439E+00
        -11   -1    0    0    0    0  0.00000000000E+00  0.00000000000E+00  0.45593999997E+02  0.45594000000E+02  0.51100000000E-03 0.  1.
         11   -1    0    0    0    0 -0.00000000000E+00 -0.00000000000E+00 -0.45593999997E+02  0.45594000000E+02  0.51100000000E-03 0. -1.
    9900012    2    1    2    0    0 -0.15668195218E+02 -0.37478567346E+02  0.17407186027E+01  0.50528862615E+02  0.30000008403E+02 0.  0.
         12    1    1    2    0    0  0.15668195218E+02  0.37478567346E+02 -0.17407186027E+01  0.40659137385E+02  0.00000000000E+00 0. -1.
         11    1    3    3    0    0  0.43061590506E+01 -0.20869755371E+01  0.25765341996E+01  0.54347954335E+01  0.51100000000E-03 0. -1.
        -11    1    3    3    0    0 -0.49964549412E+01 -0.25508336788E+02 -0.54659213542E+01  0.26561553121E+02  0.51100000000E-03 0.  1.
        -12    1    3    3    0    0 -0.14977899328E+02 -0.98832550205E+01  0.46301057573E+01  0.18532514060E+02  0.00000000000E+00 0.  1.
</event>
<event>
 7    1  0.5121289E-013  0.5052886E+02  0.7816164E-02  0.1300439E+00
        -11   -1    0    0    0    0  0.00000000000E+00  0.00000000000E+00  0.45593999997E+02  0.45594000000E+02  0.51100000000E-03 0. -1.
         11   -1    0    0    0    0 -0.00000000000E+00 -0.00000000000E+00 -0.45593999997E+02  0.45594000000E+02  0.51100000000E-03 0.  1.
    9900012    2    1    2    0    0 -0.12837764964E+02  0.29843058940E+02 -0.24448905995E+02  0.50528863505E+02  0.30000011111E+02 0.  0.
         12    1    1    2    0    0  0.12837764964E+02 -0.29843058940E+02  0.24448905995E+02  0.40659136495E+02  0.00000000000E+00 0. -1.
         11    1    3    3    0    0 -0.41902509990E+01  0.87357050966E+01  0.52186947675E+01  0.11004795423E+02  0.51100000000E-03 0. -1.
        -11    1    3    3    0    0  0.23476936882E+01  0.10690062829E+02 -0.13278243705E+02  0.17207581617E+02  0.51100000000E-03 0.  1.
        -12    1    3    3    0    0 -0.10995207653E+02  0.10417291014E+02 -0.16389357057E+02  0.22316486465E+02  0.00000000000E+00 0.  1.
</event>
<event>
 7    1  0.5121289E-013  0.5052887E+02  0.7816164E-02  0.1300439E+00
        -11   -1    0    0    0    0  0.00000000000E+00  0.00000000000E+00  0.45593999997E+02  0.45594000000E+02  0.51100000000E-03 0.  1.
         11   -1    0    0    0    0 -0.00000000000E+00 -0.00000000000E+00 -0.45593999997E+02  0.45594000000E+02  0.51100000000E-03 0. -1.
    9900012    2    1    2    0    0  0.38115980637E+02 -0.13480039302E+02  0.43157520240E+01  0.50528866278E+02  0.30000019538E+02 0.  0.
         12    1    1    2    0    0 -0.38115980637E+02  0.13480039302E+02 -0.43157520240E+01  0.40659133722E+02  0.00000000000E+00 0. -1.
         11    1    3    3    0    0  0.92953114572E+00  0.15000679081E+01  0.15760571553E+01  0.23660490903E+01  0.51100000000E-03 0.  1.
        -11    1    3    3    0    0  0.96072272594E+01  0.77473419120E+01  0.10298065487E+01  0.12384693137E+02  0.51100000000E-03 0. -1.
        -12    1    3    3    0    0  0.27579222232E+02 -0.22727449122E+02  0.17098883200E+01  0.35778124050E+02  0.00000000000E+00 0.  1.
</event>
<event>
 7    1  0.5121289E-013  0.5052886E+02  0.7816164E-02  0.1300439E+00
        -11   -1    0    0    0    0  0.00000000000E+00  0.00000000000E+00  0.45593999997E+02  0.45594000000E+02  0.51100000000E-03 0.  1.
         11   -1    0    0    0    0 -0.00000000000E+00 -0.00000000000E+00 -0.45593999997E+02  0.45594000000E+02  0.51100000000E-03 0. -1.
    9900012    2    1    2    0    0 -0.11728517613E+02  0.28106582559E+02  0.26937473779E+02  0.50528860780E+02  0.30000002826E+02 0.  0.
         12    1    1    2    0    0  0.11728517613E+02 -0.28106582559E+02 -0.26937473779E+02  0.40659139220E+02  0.00000000000E+00 0. -1.
         11    1    3    3    0    0 -0.65752669433E+01  0.81569890008E+01  0.24195818814E+02  0.26366802105E+02  0.51100000000E-03 0. -1.
        -11    1    3    3    0    0  0.17160328073E+01  0.57467102540E+01  0.55098550669E+01  0.81441973489E+01  0.51100000000E-03 0.  1.
         12    1    3    3    0    0 -0.68692834772E+01  0.14202883304E+02 -0.27682001016E+01  0.16017861325E+02  0.00000000000E+00 0. -1.
</event>
<event>
 7    1  0.5121289E-013  0.5052894E+02  0.7816164E-02  0.1300438E+00
        -11   -1    0    0    0    0  0.00000000000E+00  0.00000000000E+00  0.45593999997E+02  0.45594000000E+02  0.51100000000E-03 0.  1.
         11   -1    0    0    0    0 -0.00000000000E+00 -0.00000000000E+00 -0.45593999997E+02  0.45594000000E+02  0.51100000000E-03 0. -1.
    9900012    2    1    2    0    0 -0.12246348408E+02 -0.32224086540E+02  0.21559081557E+02  0.50528944424E+02  0.30000257071E+02 0.  0.
         12    1    1    2    0    0  0.12246348408E+02  0.32224086540E+02 -0.21559081557E+02  0.40659055576E+02  0.00000000000E+00 0. -1.
         11    1    3    3    0    0 -0.23619009257E+00 -0.15168799009E+01 -0.20883039744E+01  0.25918572770E+01  0.51100000000E-03 0. -1.
        -11    1    3    3    0    0 -0.12478886949E+02 -0.14445975677E+02 -0.17466542411E+00  0.19090294419E+02  0.51100000000E-03 0.  1.
        -12    1    3    3    0    0  0.46872863317E+00 -0.16261230963E+02  0.23822050956E+02  0.28846792728E+02  0.00000000000E+00 0.  1.
</event>
<event>
 7    1  0.5121289E-013  0.5052885E+02  0.7816164E-02  0.1300439E+00
        -11   -1    0    0    0    0  0.00000000000E+00  0.00000000000E+00  0.45593999997E+02  0.45594000000E+02  0.51100000000E-03 0.  1.
         11   -1    0    0    0    0 -0.00000000000E+00 -0.00000000000E+00 -0.45593999997E+02  0.45594000000E+02  0.51100000000E-03 0. -1.
    9900012    2    1    2    0    0 -0.20749634146E+02 -0.71688021411E+00  0.34958620657E+02  0.50528851058E+02  0.29999973276E+02 0.  0.
         12    1    1    2    0    0  0.20749634146E+02  0.71688021411E+00 -0.34958620657E+02  0.40659148942E+02  0.00000000000E+00 0. -1.
         11    1    3    3    0    0 -0.15163049672E+02  0.52623799019E+01  0.12597208833E+02  0.20403440598E+02  0.51100000000E-03 0. -1.
        -11    1    3    3    0    0 -0.10971109571E+02 -0.24308998761E+00  0.74436717979E+01  0.13260188085E+02  0.51100000000E-03 0.  1.
         12    1    3    3    0    0  0.53845250972E+01 -0.57361701284E+01  0.14917740026E+02  0.16865222375E+02  0.00000000000E+00 0. -1.
</event>
<event>
 7    1  0.5121289E-013  0.5052886E+02  0.7816164E-02  0.1300439E+00
        -11   -1    0    0    0    0  0.00000000000E+00  0.00000000000E+00  0.45593999997E+02  0.45594000000E+02  0.51100000000E-03 0.  1.
         11   -1    0    0    0    0 -0.00000000000E+00 -0.00000000000E+00 -0.45593999997E+02  0.45594000000E+02  0.51100000000E-03 0. -1.
    9900012    2    1    2    0    0  0.25943733784E+02  0.15910034291E+02  0.26962181011E+02  0.50528859347E+02  0.29999998470E+02 0.  0.
         12    1    1    2    0    0 -0.25943733784E+02 -0.15910034291E+02 -0.26962181011E+02  0.40659140653E+02  0.00000000000E+00 0. -1.
         11    1    3    3    0    0  0.78683853793E+01  0.29760755212E+01  0.13798307699E+02  0.16160501527E+02  0.51100000000E-03 0. -1.
        -11    1    3    3    0    0  0.69282842268E+01  0.69479096382E+01  0.18258968183E+02  0.20728349911E+02  0.51100000000E-03 0.  1.
        -12    1    3    3    0    0  0.11147064178E+02  0.59860491319E+01 -0.50950948713E+01  0.13640007908E+02  0.00000000000E+00 0.  1.
</event>
<event>
 7    1  0.5121289E-013  0.5052885E+02  0.7816164E-02  0.1300439E+00
        -11   -1    0    0    0    0  0.00000000000E+00  0.00000000000E+00  0.45593999997E+02  0.45594000000E+02  0.51100000000E-03 0.  1.
         11   -1    0    0    0    0 -0.00000000000E+00 -0.00000000000E+00 -0.45593999997E+02  0.45594000000E+02  0.51100000000E-03 0. -1.
    9900012    2    1    2    0    0  0.24249768238E+02  0.35041127332E+01  0.32447442752E+02  0.50528848425E+02  0.29999965274E+02 0.  0.
         12    1    1    2    0    0 -0.24249768238E+02 -0.35041127332E+01 -0.32447442752E+02  0.40659151575E+02  0.00000000000E+00 0. -1.
         11    1    3    3    0    0  0.25309817227E+02  0.16164145868E+01  0.18680880796E+02  0.31498808736E+02  0.51100000000E-03 0. -1.
        -11    1    3    3    0    0  0.51620264403E+01  0.40338092361E+01  0.71466313735E+01  0.96949715922E+01  0.51100000000E-03 0.  1.
         12    1    3    3    0    0 -0.62220754301E+01 -0.21461110898E+01  0.66199305821E+01  0.93350680972E+01  0.00000000000E+00 0. -1.
</event>
<event>
 7    1  0.5121289E-013  0.5052886E+02  0.7816164E-02  0.1300439E+00
        -11   -1    0    0    0    0  0.00000000000E+00  0.00000000000E+00  0.45593999997E+02  0.45594000000E+02  0.51100000000E-03 0. -1.
         11   -1    0    0    0    0 -0.00000000000E+00 -0.00000000000E+00 -0.45593999997E+02  0.45594000000E+02  0.51100000000E-03 0.  1.
    9900012    2    1    2    0    0 -0.67015505214E+01  0.39726126921E+02 -0.54854261360E+01  0.50528857861E+02  0.29999993956E+02 0.  0.
         12    1    1    2    0    0  0.67015505214E+01 -0.39726126921E+02  0.54854261360E+01  0.40659142139E+02  0.00000000000E+00 0. -1.
         11    1    3    3    0    0  0.10814996883E+01  0.18038201290E+02  0.42142305561E+01  0.18555486703E+02  0.51100000000E-03 0. -1.
        -11    1    3    3    0    0 -0.19283909896E+01  0.74098727250E+00 -0.10010466760E+02  0.10221408854E+02  0.51100000000E-03 0.  1.
         12    1    3    3    0    0 -0.58546592201E+01  0.20946938359E+02  0.31081006774E+00  0.21751962304E+02  0.00000000000E+00 0. -1.
</event>
<event>
 7    1  0.5121289E-013  0.5052886E+02  0.7816164E-02  0.1300439E+00
        -11   -1    0    0    0    0  0.00000000000E+00  0.00000000000E+00  0.45593999997E+02  0.45594000000E+02  0.51100000000E-03 0.  1.
         11   -1    0    0    0    0 -0.00000000000E+00 -0.00000000000E+00 -0.45593999997E+02  0.45594000000E+02  0.51100000000E-03 0. -1.
    9900012    2    1    2    0    0  0.34439150167E+02 -0.21077288724E+02 -0.47810251033E+01  0.50528863693E+02  0.30000011681E+02 0.  0.
         12    1    1    2    0    0 -0.34439150167E+02  0.21077288724E+02  0.47810251033E+01  0.40659136307E+02  0.00000000000E+00 0. -1.
         11    1    3    3    0    0  0.16176783556E+01 -0.19302569263E+01  0.19965669856E+01  0.32138847292E+01  0.51100000000E-03 0. -1.
        -11    1    3    3    0    0  0.29931699704E+02 -0.14899987910E+02  0.56117276695E+01  0.33902916904E+02  0.51100000000E-03 0.  1.
        -12    1    3    3    0    0  0.28897721075E+01 -0.42470438869E+01 -0.12389319758E+02  0.13412062060E+02  0.00000000000E+00 0.  1.
</event>
<event>
 7    1  0.5121289E-013  0.5052886E+02  0.7816164E-02  0.1300439E+00
        -11   -1    0    0    0    0  0.00000000000E+00  0.00000000000E+00  0.45593999997E+02  0.45594000000E+02  0.51100000000E-03 0.  1.
         11   -1    0    0    0    0 -0.00000000000E+00 -0.00000000000E+00 -0.45593999997E+02  0.45594000000E+02  0.51100000000E-03 0. -1.
    9900012    2    1    2    0    0  0.25439863513E+01  0.11306605545E+02  0.38972487987E+02  0.50528855697E+02  0.29999987378E+02 0.  0.
         12    1    1    2    0    0 -0.25439863513E+01 -0.11306605545E+02 -0.38972487987E+02  0.40659144303E+02  0.00000000000E+00 0. -1.
         11    1    3    3    0    0 -0.19507467068E+00  0.79263423388E+01  0.29484314540E+02  0.30531782803E+02  0.51100000000E-03 0. -1.
        -11    1    3    3    0    0  0.62767875216E+00  0.45319290993E+00  0.14111013382E+02  0.14132234903E+02  0.51100000000E-03 0.  1.
         12    1    3    3    0    0  0.21113822699E+01  0.29270702959E+01 -0.46228399343E+01  0.58648379913E+01  0.00000000000E+00 0. -1.
</event>
<event>
 7    1  0.5121289E-013  0.5052888E+02  0.7816164E-02  0.1300439E+00
        -11   -1    0    0    0    0  0.00000000000E+00  0.00000000000E+00  0.45593999997E+02  0.45594000000E+02  0.51100000000E-03 0.  1.
         11   -1    0    0    0    0 -0.00000000000E+00 -0.00000000000E+00 -0.45593999997E+02  0.45594000000E+02  0.51100000000E-03 0. -1.
    9900012    2    1    2    0    0  0.23721966031E+01 -0.63719985584E+01  0.40086583008E+02  0.50528882700E+02  0.30000069455E+02 0.  0.
         12    1    1    2    0    0 -0.23721966031E+01  0.63719985584E+01 -0.40086583008E+02  0.40659117300E+02  0.00000000000E+00 0. -1.
         11    1    3    3    0    0  0.40745012107E+01 -0.38719120444E+01  0.28418551948E+02  0.28969075893E+02  0.51100000000E-03 0. -1.
        -11    1    3    3    0    0  0.68917177247E+00 -0.63127368447E+01  0.14781091874E+02  0.16087457271E+02  0.51100000000E-03 0.  1.
         12    1    3    3    0    0 -0.23914763800E+01  0.38126503307E+01 -0.31130608137E+01  0.54723495365E+01  0.00000000000E+00 0. -1.
</event>
<event>
 7    1  0.5121289E-013  0.5052886E+02  0.7816164E-02  0.1300439E+00
        -11   -1    0    0    0    0  0.00000000000E+00  0.00000000000E+00  0.45593999997E+02  0.45594000000E+02  0.51100000000E-03 0. -1.
         11   -1    0    0    0    0 -0.00000000000E+00 -0.00000000000E+00 -0.45593999997E+02  0.45594000000E+02  0.51100000000E-03 0.  1.
    9900012    2    1    2    0    0 -0.11456443421E+02  0.18048389144E+02 -0.34585705740E+02  0.50528862182E+02  0.30000007089E+02 0.  0.
         12    1    1    2    0    0  0.11456443421E+02 -0.18048389144E+02  0.34585705740E+02  0.40659137818E+02  0.00000000000E+00 0. -1.
         11    1    3    3    0    0 -0.79942278000E+01  0.17379812518E+02 -0.14571731619E+02  0.24047888139E+02  0.51100000000E-03 0. -1.
        -11    1    3    3    0    0 -0.10185070771E+02 -0.83293815061E+00 -0.97819170958E+01  0.14146213448E+02  0.51100000000E-03 0.  1.
         12    1    3    3    0    0  0.67228551503E+01  0.15015147766E+01 -0.10232057025E+02  0.12334760596E+02  0.00000000000E+00 0. -1.
</event>
<event>
 7    1  0.5121289E-013  0.5052886E+02  0.7816164E-02  0.1300439E+00
        -11   -1    0    0    0    0  0.00000000000E+00  0.00000000000E+00  0.45593999997E+02  0.45594000000E+02  0.51100000000E-03 0. -1.
         11   -1    0    0    0    0 -0.00000000000E+00 -0.00000000000E+00 -0.45593999997E+02  0.45594000000E+02  0.51100000000E-03 0.  1.
    9900012    2    1    2    0    0 -0.19852792125E+02  0.32772639524E+02 -0.13600981578E+02  0.50528856423E+02  0.29999989584E+02 0.  0.
         12    1    1    2    0    0  0.19852792125E+02 -0.32772639524E+02  0.13600981578E+02  0.40659143577E+02  0.00000000000E+00 0. -1.
         11    1    3    3    0    0 -0.16871915199E+01  0.16283111629E+02  0.36080728813E+01  0.16763189724E+02  0.51100000000E-03 0. -1.
        -11    1    3    3    0    0 -0.77710133998E+01  0.13088786208E+02 -0.24837361350E+01  0.15423161774E+02  0.51100000000E-03 0.  1.
         12    1    3    3    0    0 -0.10394587205E+02  0.34007416871E+01 -0.14725318324E+02  0.18342504925E+02  0.00000000000E+00 0. -1.
</event>
<event>
 7    1  0.5121289E-013  0.5052885E+02  0.7816164E-02  0.1300439E+00
        -11   -1    0    0    0    0  0.00000000000E+00  0.00000000000E+00  0.45593999997E+02  0.45594000000E+02  0.51100000000E-03 0.  1.
         11   -1    0    0    0    0 -0.00000000000E+00 -0.00000000000E+00 -0.45593999997E+02  0.45594000000E+02  0.51100000000E-03 0. -1.
    9900012    2    1    2    0    0 -0.36264812019E+02 -0.44626480266E+01  0.17835763804E+02  0.50528852337E+02  0.29999977164E+02 0.  0.
         12    1    1    2    0    0  0.36264812019E+02  0.44626480266E+01 -0.17835763804E+02  0.40659147663E+02  0.00000000000E+00 0. -1.
         11    1    3    3    0    0 -0.57958500188E+01  0.77788330268E+01  0.10796594859E+02  0.14514426668E+02  0.51100000000E-03 0. -1.
        -11    1    3    3    0    0 -0.53437226647E+01  0.22983563983E+01 -0.97797175644E+00  0.58986645156E+01  0.51100000000E-03 0.  1.
        -12    1    3    3    0    0 -0.25125239336E+02 -0.14539837452E+02  0.80171407014E+01  0.30115761153E+02  0.00000000000E+00 0.  1.
</event>
<event>
 7    1  0.5121289E-013  0.5052886E+02  0.7816164E-02  0.1300439E+00
        -11   -1    0    0    0    0  0.00000000000E+00  0.00000000000E+00  0.45593999997E+02  0.45594000000E+02  0.51100000000E-03 0. -1.
         11   -1    0    0    0    0 -0.00000000000E+00 -0.00000000000E+00 -0.45593999997E+02  0.45594000000E+02  0.51100000000E-03 0.  1.
    9900012    2    1    2    0    0  0.26882169804E+02  0.11960790235E+02 -0.28061615501E+02  0.50528858089E+02  0.29999994647E+02 0.  0.
         12    1    1    2    0    0 -0.26882169804E+02 -0.11960790235E+02  0.28061615501E+02  0.40659141911E+02  0.00000000000E+00 0. -1.
         11    1    3    3    0    0  0.46160055558E+00 -0.37564540163E+01 -0.35583443015E+01  0.51947893391E+01  0.51100000000E-03 0. -1.
        -11    1    3    3    0    0  0.24595516335E+02  0.16210420234E+02 -0.28453297592E+02  0.40954942218E+02  0.51100000000E-03 0.  1.
         12    1    3    3    0    0  0.18250529135E+01 -0.49317598323E+00  0.39500263921E+01  0.43791265322E+01  0.00000000000E+00 0. -1.
</event>
<event>
 7    1  0.5121289E-013  0.5052885E+02  0.7816164E-02  0.1300439E+00
        -11   -1    0    0    0    0  0.00000000000E+00  0.00000000000E+00  0.45593999997E+02  0.45594000000E+02  0.51100000000E-03 0.  1.
         11   -1    0    0    0    0 -0.00000000000E+00 -0.00000000000E+00 -0.45593999997E+02  0.45594000000E+02  0.51100000000E-03 0. -1.
    9900012    2    1    2    0    0  0.32932796328E+02  0.20177047233E+02  0.12707649058E+02  0.50528847850E+02  0.29999963524E+02 0.  0.
         12    1    1    2    0    0 -0.32932796328E+02 -0.20177047233E+02 -0.12707649058E+02  0.40659152150E+02  0.00000000000E+00 0. -1.
         11    1    3    3    0    0  0.46004606789E+01 -0.91033857778E+00 -0.24920552267E+01  0.53106773860E+01  0.51100000000E-03 0. -1.
        -11    1    3    3    0    0  0.54263876353E+01 -0.53405378228E+01  0.26539326075E+01  0.80629018072E+01  0.51100000000E-03 0.  1.
         12    1    3    3    0    0  0.22905948013E+02  0.26427923633E+02  0.12545771677E+02  0.37155268657E+02  0.00000000000E+00 0. -1.
</event>
<event>
 7    1  0.5121289E-013  0.5052887E+02  0.7816164E-02  0.1300439E+00
        -11   -1    0    0    0    0  0.00000000000E+00  0.00000000000E+00  0.45593999997E+02  0.45594000000E+02  0.51100000000E-03 0.  1.
         11   -1    0    0    0    0 -0.00000000000E+00 -0.00000000000E+00 -0.45593999997E+02  0.45594000000E+02  0.51100000000E-03 0. -1.
    9900012    2    1    2    0    0  0.12001275634E+02  0.29087106391E+02  0.25750230755E+02  0.50528871148E+02  0.30000034342E+02 0.  0.
         12    1    1    2    0    0 -0.12001275634E+02 -0.29087106391E+02 -0.25750230755E+02  0.40659128852E+02  0.00000000000E+00 0. -1.
         11    1    3    3    0    0  0.12963904080E+02  0.21381514008E+02  0.10886624002E+02  0.27271790053E+02  0.51100000000E-03 0.  1.
        -11    1    3    3    0    0 -0.53435387863E+01  0.47262534036E+00 -0.83191188875E+00  0.54285227388E+01  0.51100000000E-03 0. -1.
        -12    1    3    3    0    0  0.43809103407E+01  0.72329670432E+01  0.15695518641E+02  0.17828558357E+02  0.00000000000E+00 0.  1.
</event>
<event>
 7    1  0.5121289E-013  0.5052885E+02  0.7816164E-02  0.1300439E+00
        -11   -1    0    0    0    0  0.00000000000E+00  0.00000000000E+00  0.45593999997E+02  0.45594000000E+02  0.51100000000E-03 0.  1.
         11   -1    0    0    0    0 -0.00000000000E+00 -0.00000000000E+00 -0.45593999997E+02  0.45594000000E+02  0.51100000000E-03 0. -1.
    9900012    2    1    2    0    0 -0.29863297251E+02 -0.65941436922E+00 -0.27584693062E+02  0.50528848001E+02  0.29999963983E+02 0.  0.
         12    1    1    2    0    0  0.29863297251E+02  0.65941436922E+00  0.27584693062E+02  0.40659151999E+02  0.00000000000E+00 0. -1.
         11    1    3    3    0    0 -0.56502388453E+01  0.60382589481E+01 -0.36430644511E+01  0.90364644075E+01  0.51100000000E-03 0. -1.
        -11    1    3    3    0    0 -0.46369309655E+01 -0.51215053537E+01  0.35017755595E+01  0.77455392451E+01  0.51100000000E-03 0.  1.
         12    1    3    3    0    0 -0.19576127440E+02 -0.15761679636E+01 -0.27443404170E+02  0.33746844348E+02  0.00000000000E+00 0. -1.
</event>
<event>
 7    1  0.5121289E-013  0.5052884E+02  0.7816164E-02  0.1300439E+00
        -11   -1    0    0    0    0  0.00000000000E+00  0.00000000000E+00  0.45593999997E+02  0.45594000000E+02  0.51100000000E-03 0. -1.
         11   -1    0    0    0    0 -0.00000000000E+00 -0.00000000000E+00 -0.45593999997E+02  0.45594000000E+02  0.51100000000E-03 0.  1.
    9900012    2    1    2    0    0 -0.11782972667E+02 -0.38589363564E+02 -0.50189887851E+01  0.50528835307E+02  0.29999925398E+02 0.  0.
         12    1    1    2    0    0  0.11782972667E+02  0.38589363564E+02  0.50189887851E+01  0.40659164693E+02  0.00000000000E+00 0. -1.
         11    1    3    3    0    0 -0.27643842436E+01 -0.21372384199E+02  0.35805350065E+01  0.21845843032E+02  0.51100000000E-03 0. -1.
        -11    1    3    3    0    0 -0.13221868559E+02 -0.78281608093E+01 -0.14250828827E+00  0.15366138706E+02  0.51100000000E-03 0.  1.
        -12    1    3    3    0    0  0.42032801351E+01 -0.93888185557E+01 -0.84570155033E+01  0.13316853569E+02  0.00000000000E+00 0.  1.
</event>
<event>
 7    1  0.5121289E-013  0.5052886E+02  0.7816164E-02  0.1300439E+00
        -11   -1    0    0    0    0  0.00000000000E+00  0.00000000000E+00  0.45593999997E+02  0.45594000000E+02  0.51100000000E-03 0.  1.
         11   -1    0    0    0    0 -0.00000000000E+00 -0.00000000000E+00 -0.45593999997E+02  0.45594000000E+02  0.51100000000E-03 0. -1.
    9900012    2    1    2    0    0 -0.14250702733E+02 -0.32322906999E+02  0.20132380738E+02  0.50528860812E+02  0.30000002926E+02 0.  0.
         12    1    1    2    0    0  0.14250702733E+02  0.32322906999E+02 -0.20132380738E+02  0.40659139188E+02  0.00000000000E+00 0. -1.
         11    1    3    3    0    0  0.48203365136E+01 -0.19727750942E+01  0.10851391171E+01  0.53202455622E+01  0.51100000000E-03 0.  1.
        -11    1    3    3    0    0 -0.13496856465E+02 -0.93610310565E+01  0.15767919695E+00  0.16426165099E+02  0.51100000000E-03 0. -1.
        -12    1    3    3    0    0 -0.55741827817E+01 -0.20989100849E+02  0.18889562424E+02  0.28782450151E+02  0.00000000000E+00 0.  1.
</event>
<event>
 7    1  0.5121289E-013  0.5052886E+02  0.7816164E-02  0.1300439E+00
        -11   -1    0    0    0    0  0.00000000000E+00  0.00000000000E+00  0.45593999997E+02  0.45594000000E+02  0.51100000000E-03 0.  1.
         11   -1    0    0    0    0 -0.00000000000E+00 -0.00000000000E+00 -0.45593999997E+02  0.45594000000E+02  0.51100000000E-03 0. -1.
    9900012    2    1    2    0    0 -0.78067239729E+01 -0.25460349531E+02  0.30724444790E+02  0.50528857792E+02  0.29999993746E+02 0.  0.
         12    1    1    2    0    0  0.78067239729E+01  0.25460349531E+02 -0.30724444790E+02  0.40659142208E+02  0.00000000000E+00 0. -1.
         11    1    3    3    0    0 -0.52533282181E+01 -0.10772984607E+01  0.12455758926E+02  0.13561119423E+02  0.51100000000E-03 0. -1.
        -11    1    3    3    0    0 -0.78308807656E+01 -0.93388584029E+01  0.17077325735E+02  0.20980277032E+02  0.51100000000E-03 0.  1.
         12    1    3    3    0    0  0.52774850108E+01 -0.15044192667E+02  0.11913601295E+01  0.15987461337E+02  0.00000000000E+00 0. -1.
</event>
<event>
 7    1  0.5121289E-013  0.5052887E+02  0.7816164E-02  0.1300439E+00
        -11   -1    0    0    0    0  0.00000000000E+00  0.00000000000E+00  0.45593999997E+02  0.45594000000E+02  0.51100000000E-03 0.  1.
         11   -1    0    0    0    0 -0.00000000000E+00 -0.00000000000E+00 -0.45593999997E+02  0.45594000000E+02  0.51100000000E-03 0. -1.
    9900012    2    1    2    0    0  0.15187598725E+02 -0.20006442364E+02  0.31972545086E+02  0.50528873960E+02  0.30000042889E+02 0.  0.
         12    1    1    2    0    0 -0.15187598725E+02  0.20006442364E+02 -0.31972545086E+02  0.40659126040E+02  0.00000000000E+00 0. -1.
         11    1    3    3    0    0 -0.36020496282E+01 -0.66010221909E+01  0.31543098348E+01  0.81546260665E+01  0.51100000000E-03 0. -1.
        -11    1    3    3    0    0 -0.24331173468E+01 -0.28371342614E+01  0.13828126373E+02  0.14324331401E+02  0.51100000000E-03 0.  1.
        -12    1    3    3    0    0  0.21222765700E+02 -0.10568285911E+02  0.14990108878E+02  0.28049916492E+02  0.00000000000E+00 0.  1.
</event>
<event>
 7    1  0.5121289E-013  0.5052886E+02  0.7816164E-02  0.1300439E+00
        -11   -1    0    0    0    0  0.00000000000E+00  0.00000000000E+00  0.45593999997E+02  0.45594000000E+02  0.51100000000E-03 0.  1.
         11   -1    0    0    0    0 -0.00000000000E+00 -0.00000000000E+00 -0.45593999997E+02  0.45594000000E+02  0.51100000000E-03 0. -1.
    9900012    2    1    2    0    0  0.34679386340E+01  0.25542604349E+02  0.31443831282E+02  0.50528858826E+02  0.29999996889E+02 0.  0.
         12    1    1    2    0    0 -0.34679386340E+01 -0.25542604349E+02 -0.31443831282E+02  0.40659141174E+02  0.00000000000E+00 0. -1.
         11    1    3    3    0    0  0.54767890090E+00  0.33304908899E+01 -0.12282181821E+01  0.35917463594E+01  0.51100000000E-03 0. -1.
        -11    1    3    3    0    0  0.39594262398E+01  0.22479731788E+02  0.11177123875E+02  0.25415418466E+02  0.51100000000E-03 0.  1.
        -12    1    3    3    0    0 -0.10391665067E+01 -0.26761832945E+00  0.21494925589E+02  0.21521694001E+02  0.00000000000E+00 0.  1.
</event>
<event>
 7    1  0.5121289E-013  0.5052885E+02  0.7816164E-02  0.1300439E+00
        -11   -1    0    0    0    0  0.00000000000E+00  0.00000000000E+00  0.45593999997E+02  0.45594000000E+02  0.51100000000E-03 0.  1.
         11   -1    0    0    0    0 -0.00000000000E+00 -0.00000000000E+00 -0.45593999997E+02  0.45594000000E+02  0.51100000000E-03 0. -1.
    9900012    2    1    2    0    0 -0.33906198885E+02 -0.18843677635E+02  0.12184074848E+02  0.50528853556E+02  0.29999980870E+02 0.  0.
         12    1    1    2    0    0  0.33906198885E+02  0.18843677635E+02 -0.12184074848E+02  0.40659146444E+02  0.00000000000E+00 0. -1.
         11    1    3    3    0    0 -0.63369415758E+01  0.43120447567E+01  0.85795364227E+00  0.77127584710E+01  0.51100000000E-03 0. -1.
        -11    1    3    3    0    0 -0.40997971882E+01 -0.10625359628E+02 -0.40498485024E+01  0.12087509147E+02  0.51100000000E-03 0.  1.
        -12    1    3    3    0    0 -0.23469460121E+02 -0.12530362763E+02  0.15375969708E+02  0.30728585939E+02  0.00000000000E+00 0.  1.
</event>
<event>
 7    1  0.5121289E-013  0.5052884E+02  0.7816164E-02  0.1300439E+00
        -11   -1    0    0    0    0  0.00000000000E+00  0.00000000000E+00  0.45593999997E+02  0.45594000000E+02  0.51100000000E-03 0.  1.
         11   -1    0    0    0    0 -0.00000000000E+00 -0.00000000000E+00 -0.45593999997E+02  0.45594000000E+02  0.51100000000E-03 0. -1.
    9900012    2    1    2    0    0 -0.13367279735E+02 -0.29399771098E+02  0.24700949876E+02  0.50528835807E+02  0.29999926920E+02 0.  0.
         12    1    1    2    0    0  0.13367279735E+02  0.29399771098E+02 -0.24700949876E+02  0.40659164193E+02  0.00000000000E+00 0. -1.
         11    1    3    3    0    0 -0.18731352075E+01  0.20404864287E+01  0.91360195068E+01  0.95466786403E+01  0.51100000000E-03 0. -1.
        -11    1    3    3    0    0 -0.93658945956E-01 -0.11656355499E+01  0.75687458998E+01  0.76585503191E+01  0.51100000000E-03 0.  1.
        -12    1    3    3    0    0 -0.11400485581E+02 -0.30274621976E+02  0.79961844690E+01  0.33323606848E+02  0.00000000000E+00 0.  1.
</event>
<event>
 7    1  0.5121289E-013  0.5052883E+02  0.7816164E-02  0.1300439E+00
        -11   -1    0    0    0    0  0.00000000000E+00  0.00000000000E+00  0.45593999997E+02  0.45594000000E+02  0.51100000000E-03 0.  1.
         11   -1    0    0    0    0 -0.00000000000E+00 -0.00000000000E+00 -0.45593999997E+02  0.45594000000E+02  0.51100000000E-03 0. -1.
    9900012    2    1    2    0    0  0.14545041279E+02 -0.35426781070E+02  0.13658452842E+02  0.50528826658E+02  0.29999899111E+02 0.  0.
         12    1    1    2    0    0 -0.14545041279E+02  0.35426781070E+02 -0.13658452842E+02  0.40659173342E+02  0.00000000000E+00 0. -1.
         11    1    3    3    0    0  0.95279858716E+01 -0.12406252108E+02  0.12885419176E+02  0.20266515086E+02  0.51100000000E-03 0.  1.
        -11    1    3    3    0    0 -0.38661683072E+01  0.12689036506E+01  0.16345269610E+01  0.43850943549E+01  0.51100000000E-03 0. -1.
         12    1    3    3    0    0  0.88832237140E+01 -0.24289432613E+02 -0.86149329561E+00  0.25877217217E+02  0.00000000000E+00 0. -1.
</event>
<event>
 7    1  0.5121289E-013  0.5052886E+02  0.7816164E-02  0.1300439E+00
        -11   -1    0    0    0    0  0.00000000000E+00  0.00000000000E+00  0.45593999997E+02  0.45594000000E+02  0.51100000000E-03 0.  1.
         11   -1    0    0    0    0 -0.00000000000E+00 -0.00000000000E+00 -0.45593999997E+02  0.45594000000E+02  0.51100000000E-03 0. -1.
    9900012    2    1    2    0    0 -0.39080459650E+02 -0.10422202033E+02  0.41546627703E+01  0.50528857800E+02  0.29999993770E+02 0.  0.
         12    1    1    2    0    0  0.39080459650E+02  0.10422202033E+02 -0.41546627703E+01  0.40659142200E+02  0.00000000000E+00 0. -1.
         11    1    3    3    0    0 -0.10782166779E+02 -0.63459209020E+01 -0.90344492706E+01  0.15432015631E+02  0.51100000000E-03 0. -1.
        -11    1    3    3    0    0 -0.70400881947E+01  0.19723436952E+01 -0.27880878842E+01  0.78247310339E+01  0.51100000000E-03 0.  1.
        -12    1    3    3    0    0 -0.21258204676E+02 -0.60486248260E+01  0.15977199925E+02  0.27272111135E+02  0.00000000000E+00 0.  1.
</event>
<event>
 7    1  0.5121289E-013  0.5052886E+02  0.7816164E-02  0.1300439E+00
        -11   -1    0    0    0    0  0.00000000000E+00  0.00000000000E+00  0.45593999997E+02  0.45594000000E+02  0.51100000000E-03 0. -1.
         11   -1    0    0    0    0 -0.00000000000E+00 -0.00000000000E+00 -0.45593999997E+02  0.45594000000E+02  0.51100000000E-03 0.  1.
    9900012    2    1    2    0    0  0.27377245738E+02 -0.21404513743E+02 -0.21106853013E+02  0.50528855434E+02  0.29999986576E+02 0.  0.
         12    1    1    2    0    0 -0.27377245738E+02  0.21404513743E+02  0.21106853013E+02  0.40659144566E+02  0.00000000000E+00 0. -1.
         11    1    3    3    0    0  0.44706956750E+01 -0.13004238075E+02  0.48301438138E+00  0.13759746759E+02  0.51100000000E-03 0. -1.
        -11    1    3    3    0    0  0.19139683279E+02 -0.93598198035E+01 -0.82046731451E+01  0.22830908095E+02  0.51100000000E-03 0.  1.
         12    1    3    3    0    0  0.37668667847E+01  0.95954413545E+00 -0.13385194249E+02  0.13938200580E+02  0.00000000000E+00 0. -1.
</event>
<event>
 7    1  0.5121289E-013  0.5052886E+02  0.7816164E-02  0.1300439E+00
        -11   -1    0    0    0    0  0.00000000000E+00  0.00000000000E+00  0.45593999997E+02  0.45594000000E+02  0.51100000000E-03 0.  1.
         11   -1    0    0    0    0 -0.00000000000E+00 -0.00000000000E+00 -0.45593999997E+02  0.45594000000E+02  0.51100000000E-03 0. -1.
    9900012    2    1    2    0    0  0.18115189629E+02  0.12123151418E+02  0.34322508209E+02  0.50528862462E+02  0.30000007938E+02 0.  0.
         12    1    1    2    0    0 -0.18115189629E+02 -0.12123151418E+02 -0.34322508209E+02  0.40659137538E+02  0.00000000000E+00 0. -1.
         11    1    3    3    0    0  0.28892006336E+01  0.66391375337E+01 -0.20677680321E+01  0.75300260550E+01  0.51100000000E-03 0. -1.
        -11    1    3    3    0    0 -0.21855310418E+01 -0.21480645390E+01  0.18699124037E+01  0.35898885578E+01  0.51100000000E-03 0.  1.
        -12    1    3    3    0    0  0.17411520037E+02  0.76320784228E+01  0.34520363838E+02  0.39408947849E+02  0.00000000000E+00 0.  1.
</event>
<event>
 7    1  0.5121289E-013  0.5052887E+02  0.7816164E-02  0.1300439E+00
        -11   -1    0    0    0    0  0.00000000000E+00  0.00000000000E+00  0.45593999997E+02  0.45594000000E+02  0.51100000000E-03 0.  1.
         11   -1    0    0    0    0 -0.00000000000E+00 -0.00000000000E+00 -0.45593999997E+02  0.45594000000E+02  0.51100000000E-03 0. -1.
    9900012    2    1    2    0    0 -0.92599003701E+01 -0.32052631124E+02  0.23238924733E+02  0.50528873846E+02  0.30000042543E+02 0.  0.
         12    1    1    2    0    0  0.92599003701E+01  0.32052631124E+02 -0.23238924733E+02  0.40659126154E+02  0.00000000000E+00 0. -1.
         11    1    3    3    0    0 -0.28175569068E+01 -0.67715920849E+00  0.12051436547E+02  0.12394930198E+02  0.51100000000E-03 0. -1.
        -11    1    3    3    0    0 -0.55116379506E+01 -0.74649254967E+01  0.10750520193E+02  0.14201301005E+02  0.51100000000E-03 0.  1.
         12    1    3    3    0    0 -0.93070551270E+00 -0.23910546419E+02  0.43696799299E+00  0.23932642642E+02  0.00000000000E+00 0. -1.
</event>
<event>
 7    1  0.5121289E-013  0.5052886E+02  0.7816164E-02  0.1300439E+00
        -11   -1    0    0    0    0  0.00000000000E+00  0.00000000000E+00  0.45593999997E+02  0.45594000000E+02  0.51100000000E-03 0.  1.
         11   -1    0    0    0    0 -0.00000000000E+00 -0.00000000000E+00 -0.45593999997E+02  0.45594000000E+02  0.51100000000E-03 0. -1.
    9900012    2    1    2    0    0  0.33706807030E+02 -0.34403591689E+01  0.22476227058E+02  0.50528859648E+02  0.29999999387E+02 0.  0.
         12    1    1    2    0    0 -0.33706807030E+02  0.34403591689E+01 -0.22476227058E+02  0.40659140352E+02  0.00000000000E+00 0. -1.
         11    1    3    3    0    0  0.28450709708E+01  0.45199654719E+01 -0.35058405398E+01  0.63886958644E+01  0.51100000000E-03 0. -1.
        -11    1    3    3    0    0  0.13072684233E+02  0.33012655768E+01  0.49012037827E+01  0.14346261752E+02  0.51100000000E-03 0.  1.
        -12    1    3    3    0    0  0.17789051826E+02 -0.11261590218E+02  0.21080863815E+02  0.29793902032E+02  0.00000000000E+00 0.  1.
</event>
<event>
 7    1  0.5121289E-013  0.5052886E+02  0.7816164E-02  0.1300439E+00
        -11   -1    0    0    0    0  0.00000000000E+00  0.00000000000E+00  0.45593999997E+02  0.45594000000E+02  0.51100000000E-03 0. -1.
         11   -1    0    0    0    0 -0.00000000000E+00 -0.00000000000E+00 -0.45593999997E+02  0.45594000000E+02  0.51100000000E-03 0.  1.
    9900012    2    1    2    0    0 -0.29972946235E+02  0.26730748736E+02  0.63447197427E+01  0.50528857084E+02  0.29999991594E+02 0.  0.
         12    1    1    2    0    0  0.29972946235E+02 -0.26730748736E+02 -0.63447197427E+01  0.40659142916E+02  0.00000000000E+00 0. -1.
         11    1    3    3    0    0 -0.57469013033E+01  0.23238550134E+01 -0.57396623378E+01  0.84481300135E+01  0.51100000000E-03 0. -1.
        -11    1    3    3    0    0 -0.12338284588E+02  0.10959875271E+02 -0.50585316653E+01  0.17260963919E+02  0.51100000000E-03 0.  1.
        -12    1    3    3    0    0 -0.11887760344E+02  0.13447018451E+02  0.17142913746E+02  0.24819763152E+02  0.00000000000E+00 0.  1.
</event>
<event>
 7    1  0.5121289E-013  0.5052886E+02  0.7816164E-02  0.1300439E+00
        -11   -1    0    0    0    0  0.00000000000E+00  0.00000000000E+00  0.45593999997E+02  0.45594000000E+02  0.51100000000E-03 0.  1.
         11   -1    0    0    0    0 -0.00000000000E+00 -0.00000000000E+00 -0.45593999997E+02  0.45594000000E+02  0.51100000000E-03 0. -1.
    9900012    2    1    2    0    0  0.30292226383E+02 -0.24948229368E+01  0.27005970548E+02  0.50528861224E+02  0.30000004177E+02 0.  0.
         12    1    1    2    0    0 -0.30292226383E+02  0.24948229368E+01 -0.27005970548E+02  0.40659138776E+02  0.00000000000E+00 0. -1.
         11    1    3    3    0    0  0.83734223271E+01 -0.48338756040E+00  0.10920051647E+02  0.13769364300E+02  0.51100000000E-03 0. -1.
        -11    1    3    3    0    0  0.12730541348E+02  0.20708641464E+00  0.22136206157E+02  0.25536663663E+02  0.51100000000E-03 0.  1.
         12    1    3    3    0    0  0.91882627082E+01 -0.22185217910E+01 -0.60502872549E+01  0.11222833261E+02  0.00000000000E+00 0. -1.
</event>
<event>
 7    1  0.5121289E-013  0.5052885E+02  0.7816164E-02  0.1300439E+00
        -11   -1    0    0    0    0  0.00000000000E+00  0.00000000000E+00  0.45593999997E+02  0.45594000000E+02  0.51100000000E-03 0. -1.
         11   -1    0    0    0    0 -0.00000000000E+00 -0.00000000000E+00 -0.45593999997E+02  0.45594000000E+02  0.51100000000E-03 0.  1.
    9900012    2    1    2    0    0 -0.21506812150E+02 -0.20640062405E+02 -0.27651612405E+02  0.50528845882E+02  0.29999957543E+02 0.  0.
         12    1    1    2    0    0  0.21506812150E+02  0.20640062405E+02  0.27651612405E+02  0.40659154118E+02  0.00000000000E+00 0. -1.
         11    1    3    3    0    0  0.10006926760E+01 -0.96777031575E+01 -0.18514724326E+02  0.20915409185E+02  0.51100000000E-03 0. -1.
        -11    1    3    3    0    0 -0.75281882210E+01 -0.52184704246E+01 -0.99825576238E+01  0.13548339693E+02  0.51100000000E-03 0.  1.
         12    1    3    3    0    0 -0.14979316605E+02 -0.57438888230E+01  0.84566954463E+00  0.16065097004E+02  0.00000000000E+00 0. -1.
</event>
<event>
 7    1  0.5121289E-013  0.5052886E+02  0.7816164E-02  0.1300439E+00
        -11   -1    0    0    0    0  0.00000000000E+00  0.00000000000E+00  0.45593999997E+02  0.45594000000E+02  0.51100000000E-03 0.  1.
         11   -1    0    0    0    0 -0.00000000000E+00 -0.00000000000E+00 -0.45593999997E+02  0.45594000000E+02  0.51100000000E-03 0. -1.
    9900012    2    1    2    0    0 -0.19237446346E+02  0.32547576452E+00  0.35818713534E+02  0.50528861844E+02  0.30000006060E+02 0.  0.
         12    1    1    2    0    0  0.19237446346E+02 -0.32547576452E+00 -0.35818713534E+02  0.40659138156E+02  0.00000000000E+00 0. -1.
         11    1    3    3    0    0 -0.14206412627E+02  0.75397878928E+01  0.29079324219E+02  0.33230673458E+02  0.51100000000E-03 0. -1.
        -11    1    3    3    0    0 -0.85007785798E+01 -0.85335405137E+01  0.62000234892E+01  0.13547134077E+02  0.51100000000E-03 0.  1.
         12    1    3    3    0    0  0.34697448609E+01  0.13192283854E+01  0.53936582549E+00  0.37510543087E+01  0.00000000000E+00 0. -1.
</event>
<event>
 7    1  0.5121289E-013  0.5052887E+02  0.7816164E-02  0.1300439E+00
        -11   -1    0    0    0    0  0.00000000000E+00  0.00000000000E+00  0.45593999997E+02  0.45594000000E+02  0.51100000000E-03 0. -1.
         11   -1    0    0    0    0 -0.00000000000E+00 -0.00000000000E+00 -0.45593999997E+02  0.45594000000E+02  0.51100000000E-03 0.  1.
    9900012    2    1    2    0    0  0.39845839773E+02  0.76641075530E+01 -0.25952647066E+01  0.50528869529E+02  0.30000029420E+02 0.  0.
         12    1    1    2    0    0 -0.39845839773E+02 -0.76641075530E+01  0.25952647066E+01  0.40659130471E+02  0.00000000000E+00 0. -1.
         11    1    3    3    0    0  0.73669966184E+00  0.12983866290E+01 -0.70741558871E+01  0.72299526974E+01  0.51100000000E-03 0. -1.
        -11    1    3    3    0    0  0.19164265409E+02 -0.39688249455E+01 -0.26086407750E+01  0.19744002813E+02  0.51100000000E-03 0.  1.
         12    1    3    3    0    0  0.19944874702E+02  0.10334545869E+02  0.70875319555E+01  0.23554914018E+02  0.00000000000E+00 0. -1.
</event>
<event>
 7    1  0.5121289E-013  0.5052886E+02  0.7816164E-02  0.1300439E+00
        -11   -1    0    0    0    0  0.00000000000E+00  0.00000000000E+00  0.45593999997E+02  0.45594000000E+02  0.51100000000E-03 0.  1.
         11   -1    0    0    0    0 -0.00000000000E+00 -0.00000000000E+00 -0.45593999997E+02  0.45594000000E+02  0.51100000000E-03 0. -1.
    9900012    2    1    2    0    0 -0.12997241717E+02 -0.15846088619E+02  0.35116080202E+02  0.50528857049E+02  0.29999991485E+02 0.  0.
         12    1    1    2    0    0  0.12997241717E+02  0.15846088619E+02 -0.35116080202E+02  0.40659142951E+02  0.00000000000E+00 0. -1.
         11    1    3    3    0    0  0.49576543232E+00  0.37771296466E+01  0.34744029514E+00  0.38253374689E+01  0.51100000000E-03 0. -1.
        -11    1    3    3    0    0  0.37355034854E+01  0.81177906789E+00  0.17002147899E+01  0.41837425993E+01  0.51100000000E-03 0.  1.
        -12    1    3    3    0    0 -0.17228510635E+02 -0.20434997334E+02  0.33068425117E+02  0.42519776980E+02  0.00000000000E+00 0.  1.
</event>
<event>
 7    1  0.5121289E-013  0.5052884E+02  0.7816164E-02  0.1300439E+00
        -11   -1    0    0    0    0  0.00000000000E+00  0.00000000000E+00  0.45593999997E+02  0.45594000000E+02  0.51100000000E-03 0.  1.
         11   -1    0    0    0    0 -0.00000000000E+00 -0.00000000000E+00 -0.45593999997E+02  0.45594000000E+02  0.51100000000E-03 0. -1.
    9900012    2    1    2    0    0 -0.32121587965E+02 -0.19069088052E+02  0.16054297905E+02  0.50528843420E+02  0.29999950060E+02 0.  0.
         12    1    1    2    0    0  0.32121587965E+02  0.19069088052E+02 -0.16054297905E+02  0.40659156580E+02  0.00000000000E+00 0. -1.
         11    1    3    3    0    0 -0.82129985039E+01  0.38798736397E+00 -0.47377596734E+01  0.94894807869E+01  0.51100000000E-03 0. -1.
        -11    1    3    3    0    0 -0.10743108999E+02 -0.18330282228E+02  0.81615280070E+01  0.22760144489E+02  0.51100000000E-03 0.  1.
        -12    1    3    3    0    0 -0.13165480463E+02 -0.11267931889E+01  0.12630529571E+02  0.18279218144E+02  0.00000000000E+00 0.  1.
</event>
<event>
 7    1  0.5121289E-013  0.5052886E+02  0.7816164E-02  0.1300439E+00
        -11   -1    0    0    0    0  0.00000000000E+00  0.00000000000E+00  0.45593999997E+02  0.45594000000E+02  0.51100000000E-03 0.  1.
         11   -1    0    0    0    0 -0.00000000000E+00 -0.00000000000E+00 -0.45593999997E+02  0.45594000000E+02  0.51100000000E-03 0. -1.
    9900012    2    1    2    0    0  0.39508799369E+01 -0.10948833105E+02  0.38957398411E+02  0.50528864623E+02  0.30000014508E+02 0.  0.
         12    1    1    2    0    0 -0.39508799369E+01  0.10948833105E+02 -0.38957398411E+02  0.40659135377E+02  0.00000000000E+00 0. -1.
         11    1    3    3    0    0  0.10441219846E+02 -0.64086860245E+01  0.19165617190E+02  0.22746674724E+02  0.51100000000E-03 0. -1.
        -11    1    3    3    0    0 -0.19095459980E+01  0.43063089059E+01  0.16699499866E+02  0.17351194724E+02  0.51100000000E-03 0.  1.
         12    1    3    3    0    0 -0.45807939110E+01 -0.88464559865E+01  0.30922813552E+01  0.10430995176E+02  0.00000000000E+00 0. -1.
</event>
<event>
 7    1  0.5121289E-013  0.5052886E+02  0.7816164E-02  0.1300439E+00
        -11   -1    0    0    0    0  0.00000000000E+00  0.00000000000E+00  0.45593999997E+02  0.45594000000E+02  0.51100000000E-03 0.  1.
         11   -1    0    0    0    0 -0.00000000000E+00 -0.00000000000E+00 -0.45593999997E+02  0.45594000000E+02  0.51100000000E-03 0. -1.
    9900012    2    1    2    0    0 -0.38123017750E+02  0.13326278862E+02 -0.47128798869E+01  0.50528862927E+02  0.30000009354E+02 0.  0.
         12    1    1    2    0    0  0.38123017750E+02 -0.13326278862E+02  0.47128798869E+01  0.40659137073E+02  0.00000000000E+00 0. -1.
         11    1    3    3    0    0 -0.16275834896E+01 -0.37288459537E+01  0.15240788700E+01  0.43446676311E+01  0.51100000000E-03 0. -1.
        -11    1    3    3    0    0 -0.74906071285E+01  0.14844613348E+02 -0.12877679328E+01  0.16677232597E+02  0.51100000000E-03 0.  1.
        -12    1    3    3    0    0 -0.29004827132E+02  0.22105114680E+01 -0.49491908241E+01  0.29506962699E+02  0.00000000000E+00 0.  1.
</event>
<event>
 7    1  0.5121289E-013  0.5052882E+02  0.7816164E-02  0.1300439E+00
        -11   -1    0    0    0    0  0.00000000000E+00  0.00000000000E+00  0.45593999997E+02  0.45594000000E+02  0.51100000000E-03 0. -1.
         11   -1    0    0    0    0 -0.00000000000E+00 -0.00000000000E+00 -0.45593999997E+02  0.45594000000E+02  0.51100000000E-03 0.  1.
    9900012    2    1    2    0    0  0.78788291788E+01 -0.32363990909E+02 -0.23316624742E+02  0.50528820887E+02  0.29999881567E+02 0.  0.
         12    1    1    2    0    0 -0.78788291788E+01  0.32363990909E+02  0.23316624742E+02  0.40659179113E+02  0.00000000000E+00 0. -1.
         11    1    3    3    0    0 -0.44678723392E+01 -0.33327466632E+01 -0.67556296166E+01  0.87582883795E+01  0.51100000000E-03 0. -1.
        -11    1    3    3    0    0 -0.46803525251E+01 -0.14230929525E+02 -0.10853853012E+02  0.18499491354E+02  0.51100000000E-03 0.  1.
        -12    1    3    3    0    0  0.17027054043E+02 -0.14800314721E+02 -0.57071421134E+01  0.23271041153E+02  0.00000000000E+00 0.  1.
</event>
<event>
 7    1  0.5121289E-013  0.5052889E+02  0.7816164E-02  0.1300439E+00
        -11   -1    0    0    0    0  0.00000000000E+00  0.00000000000E+00  0.45593999997E+02  0.45594000000E+02  0.51100000000E-03 0. -1.
         11   -1    0    0    0    0 -0.00000000000E+00 -0.00000000000E+00 -0.45593999997E+02  0.45594000000E+02  0.51100000000E-03 0.  1.
    9900012    2    1    2    0    0  0.10693240685E+02 -0.38234007644E+02 -0.87737557281E+01  0.50528886306E+02  0.30000080414E+02 0.  0.
         12    1    1    2    0    0 -0.10693240685E+02  0.38234007644E+02  0.87737557281E+01  0.40659113694E+02  0.00000000000E+00 0. -1.
         11    1    3    3    0    0  0.88172711350E+01 -0.14479050058E+01 -0.47836336617E+01  0.10135277522E+02  0.51100000000E-03 0. -1.
        -11    1    3    3    0    0  0.50620794946E+01 -0.30175939535E+02 -0.85306087669E+01  0.31764496877E+02  0.51100000000E-03 0.  1.
         12    1    3    3    0    0 -0.31861099447E+01 -0.66101631029E+01  0.45404867005E+01  0.86291119071E+01  0.00000000000E+00 0. -1.
</event>
<event>
 7    1  0.5121289E-013  0.5052887E+02  0.7816164E-02  0.1300439E+00
        -11   -1    0    0    0    0  0.00000000000E+00  0.00000000000E+00  0.45593999997E+02  0.45594000000E+02  0.51100000000E-03 0. -1.
         11   -1    0    0    0    0 -0.00000000000E+00 -0.00000000000E+00 -0.45593999997E+02  0.45594000000E+02  0.51100000000E-03 0.  1.
    9900012    2    1    2    0    0  0.22761284698E+01 -0.11039263844E+02 -0.39065565173E+02  0.50528874465E+02  0.30000044423E+02 0.  0.
         12    1    1    2    0    0 -0.22761284698E+01  0.11039263844E+02  0.39065565173E+02  0.40659125535E+02  0.00000000000E+00 0. -1.
         11    1    3    3    0    0  0.17273631225E+01  0.66924512851E+01 -0.55780872750E+01  0.88818773617E+01  0.51100000000E-03 0. -1.
        -11    1    3    3    0    0  0.37909996251E+01 -0.59319484879E+01 -0.26784783285E+02  0.27694481524E+02  0.51100000000E-03 0.  1.
         12    1    3    3    0    0 -0.32422342778E+01 -0.11799766641E+02 -0.67026946129E+01  0.13952515578E+02  0.00000000000E+00 0. -1.
</event>
<event>
 7    1  0.5121289E-013  0.5052891E+02  0.7816164E-02  0.1300439E+00
        -11   -1    0    0    0    0  0.00000000000E+00  0.00000000000E+00  0.45593999997E+02  0.45594000000E+02  0.51100000000E-03 0. -1.
         11   -1    0    0    0    0 -0.00000000000E+00 -0.00000000000E+00 -0.45593999997E+02  0.45594000000E+02  0.51100000000E-03 0.  1.
    9900012    2    1    2    0    0  0.68322216441E+01 -0.27568555802E+02 -0.29093932882E+02  0.50528911814E+02  0.30000157948E+02 0.  0.
         12    1    1    2    0    0 -0.68322216441E+01  0.27568555802E+02  0.29093932882E+02  0.40659088186E+02  0.00000000000E+00 0. -1.
         11    1    3    3    0    0  0.23017879187E+01 -0.48472310639E+01 -0.92503176076E+01  0.10694028834E+02  0.51100000000E-03 0. -1.
        -11    1    3    3    0    0  0.13757213151E+02 -0.21037185187E+02 -0.13767670258E+02  0.28659602560E+02  0.51100000000E-03 0.  1.
         12    1    3    3    0    0 -0.92267794260E+01 -0.16841395505E+01 -0.60759450166E+01  0.11175280419E+02  0.00000000000E+00 0. -1.
</event>
<event>
 7    1  0.5121289E-013  0.5052886E+02  0.7816164E-02  0.1300439E+00
        -11   -1    0    0    0    0  0.00000000000E+00  0.00000000000E+00  0.45593999997E+02  0.45594000000E+02  0.51100000000E-03 0. -1.
         11   -1    0    0    0    0 -0.00000000000E+00 -0.00000000000E+00 -0.45593999997E+02  0.45594000000E+02  0.51100000000E-03 0.  1.
    9900012    2    1    2    0    0  0.26289192761E+02  0.24493728035E+02 -0.19028962292E+02  0.50528858654E+02  0.29999996365E+02 0.  0.
         12    1    1    2    0    0 -0.26289192761E+02 -0.24493728035E+02  0.19028962292E+02  0.40659141346E+02  0.00000000000E+00 0. -1.
         11    1    3    3    0    0  0.59247441151E+01  0.91923289129E+01 -0.12025479459E+02  0.16254650416E+02  0.51100000000E-03 0. -1.
        -11    1    3    3    0    0  0.38047613313E+01  0.86243109118E+01 -0.12441629241E+02  0.15609262824E+02  0.51100000000E-03 0.  1.
         12    1    3    3    0    0  0.16559687315E+02  0.66770882106E+01  0.54381464080E+01  0.18664945413E+02  0.00000000000E+00 0. -1.
</event>
<event>
 7    1  0.5121289E-013  0.5052886E+02  0.7816164E-02  0.1300439E+00
        -11   -1    0    0    0    0  0.00000000000E+00  0.00000000000E+00  0.45593999997E+02  0.45594000000E+02  0.51100000000E-03 0.  1.
         11   -1    0    0    0    0 -0.00000000000E+00 -0.00000000000E+00 -0.45593999997E+02  0.45594000000E+02  0.51100000000E-03 0. -1.
    9900012    2    1    2    0    0 -0.27431458993E+02 -0.33836621787E+01  0.29819984226E+02  0.50528861156E+02  0.30000003970E+02 0.  0.
         12    1    1    2    0    0  0.27431458993E+02  0.33836621787E+01 -0.29819984226E+02  0.40659138844E+02  0.00000000000E+00 0. -1.
         11    1    3    3    0    0 -0.18790635692E+02 -0.31729681178E+01  0.10809800158E+00  0.19056951535E+02  0.51100000000E-03 0. -1.
        -11    1    3    3    0    0 -0.20621796211E+01 -0.18292060039E+01  0.38352373744E+01  0.47230948935E+01  0.51100000000E-03 0.  1.
        -12    1    3    3    0    0 -0.65786436805E+01  0.16185119430E+01  0.25876648851E+02  0.26748814727E+02  0.00000000000E+00 0.  1.
</event>
<event>
 7    1  0.5121289E-013  0.5052886E+02  0.7816164E-02  0.1300439E+00
        -11   -1    0    0    0    0  0.00000000000E+00  0.00000000000E+00  0.45593999997E+02  0.45594000000E+02  0.51100000000E-03 0.  1.
         11   -1    0    0    0    0 -0.00000000000E+00 -0.00000000000E+00 -0.45593999997E+02  0.45594000000E+02  0.51100000000E-03 0. -1.
    9900012    2    1    2    0    0  0.19289108123E+02  0.13952637550E+02  0.32960880753E+02  0.50528862690E+02  0.30000008633E+02 0.  0.
         12    1    1    2    0    0 -0.19289108123E+02 -0.13952637550E+02 -0.32960880753E+02  0.40659137310E+02  0.00000000000E+00 0. -1.
         11    1    3    3    0    0 -0.56945024747E+01  0.41085379821E+01  0.41380835990E+01  0.81505324315E+01  0.51100000000E-03 0. -1.
        -11    1    3    3    0    0  0.73499079996E+00  0.65283112759E+01  0.54408521363E+01  0.85300604817E+01  0.51100000000E-03 0.  1.
        -12    1    3    3    0    0  0.24248619797E+02  0.33157882921E+01  0.23381945018E+02  0.33848269777E+02  0.00000000000E+00 0.  1.
</event>
<event>
 7    1  0.5121289E-013  0.5052885E+02  0.7816164E-02  0.1300439E+00
        -11   -1    0    0    0    0  0.00000000000E+00  0.00000000000E+00  0.45593999997E+02  0.45594000000E+02  0.51100000000E-03 0. -1.
         11   -1    0    0    0    0 -0.00000000000E+00 -0.00000000000E+00 -0.45593999997E+02  0.45594000000E+02  0.51100000000E-03 0.  1.
    9900012    2    1    2    0    0  0.23859554404E+02 -0.20238342849E+02 -0.25967238479E+02  0.50528851806E+02  0.29999975548E+02 0.  0.
         12    1    1    2    0    0 -0.23859554404E+02  0.20238342849E+02  0.25967238479E+02  0.40659148194E+02  0.00000000000E+00 0. -1.
         11    1    3    3    0    0  0.80415372056E+00 -0.14844338068E+02 -0.10228013985E+02  0.18044758414E+02  0.51100000000E-03 0.  1.
        -11    1    3    3    0    0 -0.83728654577E+00 -0.25702690453E+01 -0.59021623269E+01  0.64917526231E+01  0.51100000000E-03 0. -1.
         12    1    3    3    0    0  0.23892687229E+02 -0.28237357361E+01 -0.98370621680E+01  0.25992340769E+02  0.00000000000E+00 0. -1.
</event>
<event>
 7    1  0.5121289E-013  0.5052884E+02  0.7816164E-02  0.1300439E+00
        -11   -1    0    0    0    0  0.00000000000E+00  0.00000000000E+00  0.45593999997E+02  0.45594000000E+02  0.51100000000E-03 0.  1.
         11   -1    0    0    0    0 -0.00000000000E+00 -0.00000000000E+00 -0.45593999997E+02  0.45594000000E+02  0.51100000000E-03 0. -1.
    9900012    2    1    2    0    0  0.28437457840E+02 -0.27998297962E+02 -0.77828789678E+01  0.50528844793E+02  0.29999954231E+02 0.  0.
         12    1    1    2    0    0 -0.28437457840E+02  0.27998297962E+02  0.77828789678E+01  0.40659155207E+02  0.00000000000E+00 0. -1.
         11    1    3    3    0    0  0.18669018224E+02 -0.20170969639E+02 -0.99981405564E+01  0.29246590784E+02  0.51100000000E-03 0.  1.
        -11    1    3    3    0    0  0.93432957945E+01 -0.31758488549E+01 -0.62023437282E+01  0.11655567778E+02  0.51100000000E-03 0. -1.
         12    1    3    3    0    0  0.42514382160E+00 -0.46514794676E+01  0.84176053169E+01  0.96266862303E+01  0.00000000000E+00 0. -1.
</event>
<event>
 7    1  0.5121289E-013  0.5052886E+02  0.7816164E-02  0.1300439E+00
        -11   -1    0    0    0    0  0.00000000000E+00  0.00000000000E+00  0.45593999997E+02  0.45594000000E+02  0.51100000000E-03 0.  1.
         11   -1    0    0    0    0 -0.00000000000E+00 -0.00000000000E+00 -0.45593999997E+02  0.45594000000E+02  0.51100000000E-03 0. -1.
    9900012    2    1    2    0    0  0.78452454174E+01 -0.23747250240E+02  0.32057540283E+02  0.50528860085E+02  0.30000000716E+02 0.  0.
         12    1    1    2    0    0 -0.78452454174E+01  0.23747250240E+02 -0.32057540283E+02  0.40659139915E+02  0.00000000000E+00 0. -1.
         11    1    3    3    0    0  0.22511764580E+01 -0.19422294245E+02  0.61862275934E+01  0.20507625930E+02  0.51100000000E-03 0. -1.
        -11    1    3    3    0    0  0.26616968775E+01 -0.58970523883E+01  0.34075486057E+01  0.73124034967E+01  0.51100000000E-03 0.  1.
         12    1    3    3    0    0  0.29323720819E+01  0.15720963931E+01  0.22463764084E+02  0.22708830659E+02  0.00000000000E+00 0. -1.
</event>
<event>
 7    1  0.5121289E-013  0.5052886E+02  0.7816164E-02  0.1300439E+00
        -11   -1    0    0    0    0  0.00000000000E+00  0.00000000000E+00  0.45593999997E+02  0.45594000000E+02  0.51100000000E-03 0.  1.
         11   -1    0    0    0    0 -0.00000000000E+00 -0.00000000000E+00 -0.45593999997E+02  0.45594000000E+02  0.51100000000E-03 0. -1.
    9900012    2    1    2    0    0  0.10070005502E+02  0.25845156094E+02  0.29728583062E+02  0.50528858897E+02  0.29999997104E+02 0.  0.
         12    1    1    2    0    0 -0.10070005502E+02 -0.25845156094E+02 -0.29728583062E+02  0.40659141103E+02  0.00000000000E+00 0. -1.
         11    1    3    3    0    0  0.19653208327E+01  0.14588950911E+01 -0.36649295216E+01  0.44071044374E+01  0.51100000000E-03 0. -1.
        -11    1    3    3    0    0  0.63704986502E+01 -0.69020248725E+00  0.45305129554E+01  0.78476225971E+01  0.51100000000E-03 0.  1.
        -12    1    3    3    0    0  0.17341860187E+01  0.25076463490E+02  0.28862999628E+02  0.38274131863E+02  0.00000000000E+00 0.  1.
</event>
<event>
 7    1  0.5121289E-013  0.5052886E+02  0.7816164E-02  0.1300439E+00
        -11   -1    0    0    0    0  0.00000000000E+00  0.00000000000E+00  0.45593999997E+02  0.45594000000E+02  0.51100000000E-03 0.  1.
         11   -1    0    0    0    0 -0.00000000000E+00 -0.00000000000E+00 -0.45593999997E+02  0.45594000000E+02  0.51100000000E-03 0. -1.
    9900012    2    1    2    0    0  0.25592175384E+02  0.20092454689E+02  0.24382356502E+02  0.50528862222E+02  0.30000007209E+02 0.  0.
         12    1    1    2    0    0 -0.25592175384E+02 -0.20092454689E+02 -0.24382356502E+02  0.40659137778E+02  0.00000000000E+00 0. -1.
         11    1    3    3    0    0  0.23869933642E+01  0.10283248447E+02  0.28408175925E+01  0.10932208413E+02  0.51100000000E-03 0. -1.
        -11    1    3    3    0    0  0.76919679761E+01 -0.18574465526E+01  0.18273025193E+02  0.19912808165E+02  0.51100000000E-03 0.  1.
         12    1    3    3    0    0  0.15513214044E+02  0.11666652795E+02  0.32685137160E+01  0.19683845643E+02  0.00000000000E+00 0. -1.
</event>
