<event>
 7    1  0.6830263E-012  0.5930194E+02  0.7816164E-02  0.1266605E+00
        -11   -1    0    0    0    0  0.00000000000E+00  0.00000000000E+00  0.45593999997E+02  0.45594000000E+02  0.51100000000E-03 0.  1.
         11   -1    0    0    0    0 -0.00000000000E+00 -0.00000000000E+00 -0.45593999997E+02  0.45594000000E+02  0.51100000000E-03 0. -1.
    9900012    2    1    2    0    0  0.12768900950E+02 -0.74839157240E+00 -0.29208148312E+02  0.59301939578E+02  0.49999991885E+02 0.  0.
        -12    1    1    2    0    0 -0.12768900950E+02  0.74839157240E+00  0.29208148312E+02  0.31886060422E+02  0.00000000000E+00 0.  1.
         11    1    3    3    0    0  0.63761691985E+01 -0.30437416503E+01 -0.71841279904E+00  0.71018317421E+01  0.51100000000E-03 0. -1.
        -11    1    3    3    0    0  0.17503550831E+02  0.12791212564E+00  0.38619999997E+01  0.17925002021E+02  0.51100000000E-03 0.  1.
         12    1    3    3    0    0 -0.11110819080E+02  0.21674379523E+01 -0.32351735513E+02  0.34275105814E+02  0.00000000000E+00 0. -1.
</event>
<event>
 7    1  0.6830263E-012  0.5930194E+02  0.7816164E-02  0.1266605E+00
        -11   -1    0    0    0    0  0.00000000000E+00  0.00000000000E+00  0.45593999997E+02  0.45594000000E+02  0.51100000000E-03 0.  1.
         11   -1    0    0    0    0 -0.00000000000E+00 -0.00000000000E+00 -0.45593999997E+02  0.45594000000E+02  0.51100000000E-03 0. -1.
    9900012    2    1    2    0    0 -0.20635654273E+02 -0.97104693592E+01 -0.22284467933E+02  0.59301937943E+02  0.49999988904E+02 0.  0.
        -12    1    1    2    0    0  0.20635654273E+02  0.97104693592E+01  0.22284467933E+02  0.31886062057E+02  0.00000000000E+00 0.  1.
         11    1    3    3    0    0 -0.37045467070E+00  0.10709965203E+01 -0.11788784850E+02  0.11843129599E+02  0.51100000000E-03 0. -1.
        -11    1    3    3    0    0  0.35905378995E+01 -0.24519395835E+01 -0.19996386557E+02  0.20463612725E+02  0.51100000000E-03 0.  1.
        -12    1    3    3    0    0 -0.23855737501E+02 -0.83295262960E+01  0.95007034742E+01  0.26995195620E+02  0.00000000000E+00 0.  1.
</event>
<event>
 7    1  0.6830263E-012  0.5930198E+02  0.7816164E-02  0.1266605E+00
        -11   -1    0    0    0    0  0.00000000000E+00  0.00000000000E+00  0.45593999997E+02  0.45594000000E+02  0.51100000000E-03 0.  1.
         11   -1    0    0    0    0 -0.00000000000E+00 -0.00000000000E+00 -0.45593999997E+02  0.45594000000E+02  0.51100000000E-03 0. -1.
    9900012    2    1    2    0    0  0.18087091947E+02 -0.38017273254E+01 -0.25983114564E+02  0.59301980050E+02  0.50000065697E+02 0.  0.
        -12    1    1    2    0    0 -0.18087091947E+02  0.38017273254E+01  0.25983114564E+02  0.31886019950E+02  0.00000000000E+00 0.  1.
         11    1    3    3    0    0  0.31068182474E+01  0.32221846976E+01 -0.11604181502E+02  0.12437516732E+02  0.51100000000E-03 0. -1.
        -11    1    3    3    0    0 -0.18692237179E+01 -0.11857547535E+02  0.10825091855E+02  0.16164097401E+02  0.51100000000E-03 0.  1.
         12    1    3    3    0    0  0.16849497418E+02  0.48336355121E+01 -0.25204024917E+02  0.30700365918E+02  0.00000000000E+00 0. -1.
</event>
<event>
 7    1  0.6830263E-012  0.5930195E+02  0.7816164E-02  0.1266605E+00
        -11   -1    0    0    0    0  0.00000000000E+00  0.00000000000E+00  0.45593999997E+02  0.45594000000E+02  0.51100000000E-03 0. -1.
         11   -1    0    0    0    0 -0.00000000000E+00 -0.00000000000E+00 -0.45593999997E+02  0.45594000000E+02  0.51100000000E-03 0.  1.
    9900012    2    1    2    0    0 -0.14668001903E+02  0.18361745860E+02  0.21550319093E+02  0.59301949071E+02  0.50000009197E+02 0.  0.
        -12    1    1    2    0    0  0.14668001903E+02 -0.18361745860E+02 -0.21550319093E+02  0.31886050929E+02  0.00000000000E+00 0.  1.
         11    1    3    3    0    0 -0.85664624028E+01  0.29361361036E+02  0.72662672874E+01  0.31436800736E+02  0.51100000000E-03 0. -1.
        -11    1    3    3    0    0  0.41402145406E+01 -0.37955664854E+01  0.14278482018E+02  0.15343492118E+02  0.51100000000E-03 0.  1.
        -12    1    3    3    0    0 -0.10241754041E+02 -0.72040486905E+01  0.55697875706E-02  0.12521656216E+02  0.00000000000E+00 0.  1.
</event>
<event>
 7    1  0.6830263E-012  0.5930199E+02  0.7816164E-02  0.1266605E+00
        -11   -1    0    0    0    0  0.00000000000E+00  0.00000000000E+00  0.45593999997E+02  0.45594000000E+02  0.51100000000E-03 0. -1.
         11   -1    0    0    0    0 -0.00000000000E+00 -0.00000000000E+00 -0.45593999997E+02  0.45594000000E+02  0.51100000000E-03 0.  1.
    9900012    2    1    2    0    0 -0.18966007996E+02 -0.22448684194E+02  0.12371942605E+02  0.59301986684E+02  0.50000077794E+02 0.  0.
        -12    1    1    2    0    0  0.18966007996E+02  0.22448684194E+02 -0.12371942605E+02  0.31886013316E+02  0.00000000000E+00 0.  1.
         11    1    3    3    0    0 -0.23311743694E+02  0.68328554020E+01  0.60516822955E+01  0.25034938903E+02  0.51100000000E-03 0.  1.
        -11    1    3    3    0    0 -0.51717691359E+01 -0.56589865315E+01  0.41230867243E+01  0.87046636325E+01  0.51100000000E-03 0. -1.
         12    1    3    3    0    0  0.95175048340E+01 -0.23622553065E+02  0.21971735853E+01  0.25562384148E+02  0.00000000000E+00 0. -1.
</event>
<event>
 7    1  0.6830263E-012  0.5930195E+02  0.7816164E-02  0.1266605E+00
        -11   -1    0    0    0    0  0.00000000000E+00  0.00000000000E+00  0.45593999997E+02  0.45594000000E+02  0.51100000000E-03 0.  1.
         11   -1    0    0    0    0 -0.00000000000E+00 -0.00000000000E+00 -0.45593999997E+02  0.45594000000E+02  0.51100000000E-03 0. -1.
    9900012    2    1    2    0    0  0.27123068224E+02 -0.16099106143E+02 -0.46774301727E+01  0.59301946598E+02  0.50000004688E+02 0.  0.
        -12    1    1    2    0    0 -0.27123068224E+02  0.16099106143E+02  0.46774301727E+01  0.31886053402E+02  0.00000000000E+00 0.  1.
         11    1    3    3    0    0  0.76793509276E+01 -0.12254843436E+02  0.25671140360E+01  0.14688216129E+02  0.51100000000E-03 0. -1.
        -11    1    3    3    0    0 -0.10444828792E+02  0.15802358145E+00  0.55819572017E+01  0.11843887301E+02  0.51100000000E-03 0.  1.
        -12    1    3    3    0    0  0.29888546089E+02 -0.40022862889E+01 -0.12826501410E+02  0.32769843168E+02  0.00000000000E+00 0.  1.
</event>
<event>
 7    1  0.6830263E-012  0.5930204E+02  0.7816164E-02  0.1266604E+00
        -11   -1    0    0    0    0  0.00000000000E+00  0.00000000000E+00  0.45593999997E+02  0.45594000000E+02  0.51100000000E-03 0. -1.
         11   -1    0    0    0    0 -0.00000000000E+00 -0.00000000000E+00 -0.45593999997E+02  0.45594000000E+02  0.51100000000E-03 0.  1.
    9900012    2    1    2    0    0  0.18360604090E+02  0.22532084365E+02  0.13111359429E+02  0.59302041422E+02  0.50000177623E+02 0.  0.
        -12    1    1    2    0    0 -0.18360604090E+02 -0.22532084365E+02 -0.13111359429E+02  0.31885958578E+02  0.00000000000E+00 0.  1.
         11    1    3    3    0    0 -0.29100835631E+01  0.17438214251E+02 -0.87373249573E+01  0.19720566683E+02  0.51100000000E-03 0. -1.
        -11    1    3    3    0    0  0.76086908340E+01  0.12883672263E+02  0.34089711216E+01  0.15346083265E+02  0.51100000000E-03 0.  1.
         12    1    3    3    0    0  0.13661996820E+02 -0.77898021498E+01  0.18439713265E+02  0.24235391474E+02  0.00000000000E+00 0. -1.
</event>
<event>
 7    1  0.6830263E-012  0.5930199E+02  0.7816164E-02  0.1266605E+00
        -11   -1    0    0    0    0  0.00000000000E+00  0.00000000000E+00  0.45593999997E+02  0.45594000000E+02  0.51100000000E-03 0.  1.
         11   -1    0    0    0    0 -0.00000000000E+00 -0.00000000000E+00 -0.45593999997E+02  0.45594000000E+02  0.51100000000E-03 0. -1.
    9900012    2    1    2    0    0  0.16015777898E+02 -0.26002159590E+02 -0.91706007347E+01  0.59301994247E+02  0.50000091588E+02 0.  0.
        -12    1    1    2    0    0 -0.16015777898E+02  0.26002159590E+02  0.91706007347E+01  0.31886005753E+02  0.00000000000E+00 0.  1.
         11    1    3    3    0    0  0.76122906599E+01 -0.12240671901E+02  0.13550960181E+02  0.19784072881E+02  0.51100000000E-03 0.  1.
        -11    1    3    3    0    0  0.12613149410E+02 -0.46755620658E+01  0.12785947760E+01  0.13512483988E+02  0.51100000000E-03 0. -1.
         12    1    3    3    0    0 -0.42096621712E+01 -0.90859256230E+01 -0.24000155691E+02  0.26005437378E+02  0.00000000000E+00 0. -1.
</event>
<event>
 7    1  0.6830263E-012  0.5930194E+02  0.7816164E-02  0.1266605E+00
        -11   -1    0    0    0    0  0.00000000000E+00  0.00000000000E+00  0.45593999997E+02  0.45594000000E+02  0.51100000000E-03 0.  1.
         11   -1    0    0    0    0 -0.00000000000E+00 -0.00000000000E+00 -0.45593999997E+02  0.45594000000E+02  0.51100000000E-03 0. -1.
    9900012    2    1    2    0    0  0.15492735705E+02  0.16852270662E+02 -0.22196776027E+02  0.59301941101E+02  0.49999994663E+02 0.  0.
        -12    1    1    2    0    0 -0.15492735705E+02 -0.16852270662E+02  0.22196776027E+02  0.31886058899E+02  0.00000000000E+00 0.  1.
         11    1    3    3    0    0  0.69521032842E+01  0.29098809112E+02 -0.23286460260E+02  0.37912157199E+02  0.51100000000E-03 0.  1.
        -11    1    3    3    0    0  0.23101941450E+01 -0.52408155216E+01 -0.69734655362E+01  0.90239883735E+01  0.51100000000E-03 0. -1.
        -12    1    3    3    0    0  0.62304382757E+01 -0.70057229286E+01  0.80631497690E+01  0.12365795529E+02  0.00000000000E+00 0.  1.
</event>
<event>
 7    1  0.6830263E-012  0.5930192E+02  0.7816164E-02  0.1266605E+00
        -11   -1    0    0    0    0  0.00000000000E+00  0.00000000000E+00  0.45593999997E+02  0.45594000000E+02  0.51100000000E-03 0. -1.
         11   -1    0    0    0    0 -0.00000000000E+00 -0.00000000000E+00 -0.45593999997E+02  0.45594000000E+02  0.51100000000E-03 0.  1.
    9900012    2    1    2    0    0  0.33168928460E+01 -0.31645285601E+02 -0.20727091507E+01  0.59301921500E+02  0.49999958914E+02 0.  0.
        -12    1    1    2    0    0 -0.33168928460E+01  0.31645285601E+02  0.20727091507E+01  0.31886078500E+02  0.00000000000E+00 0.  1.
         11    1    3    3    0    0  0.12295556897E+02 -0.39383512515E+01  0.61511506193E+01  0.14301328057E+02  0.51100000000E-03 0. -1.
        -11    1    3    3    0    0 -0.88170385569E+00  0.75936406499E+01  0.76987014112E+00  0.76833248210E+01  0.51100000000E-03 0.  1.
        -12    1    3    3    0    0 -0.80969601956E+01 -0.35300574999E+02 -0.89937299111E+01  0.37317268622E+02  0.00000000000E+00 0.  1.
</event>
<event>
 7    1  0.6830263E-012  0.5930212E+02  0.7816164E-02  0.1266604E+00
        -11   -1    0    0    0    0  0.00000000000E+00  0.00000000000E+00  0.45593999997E+02  0.45594000000E+02  0.51100000000E-03 0.  1.
         11   -1    0    0    0    0 -0.00000000000E+00 -0.00000000000E+00 -0.45593999997E+02  0.45594000000E+02  0.51100000000E-03 0. -1.
    9900012    2    1    2    0    0  0.16988970354E+02  0.21911875225E+02 -0.15746547592E+02  0.59302123023E+02  0.50000326443E+02 0.  0.
        -12    1    1    2    0    0 -0.16988970354E+02 -0.21911875225E+02  0.15746547592E+02  0.31885876977E+02  0.00000000000E+00 0.  1.
         11    1    3    3    0    0  0.63767263017E+01  0.12924297983E+02 -0.24301279588E+02  0.28253359208E+02  0.51100000000E-03 0. -1.
        -11    1    3    3    0    0 -0.51472883203E+01 -0.23588462598E+01 -0.48475886817E+01  0.74537137735E+01  0.51100000000E-03 0.  1.
        -12    1    3    3    0    0  0.15759532373E+02  0.11346423502E+02  0.13402320678E+02  0.23595050041E+02  0.00000000000E+00 0.  1.
</event>
<event>
 7    1  0.6830263E-012  0.5930191E+02  0.7816164E-02  0.1266605E+00
        -11   -1    0    0    0    0  0.00000000000E+00  0.00000000000E+00  0.45593999997E+02  0.45594000000E+02  0.51100000000E-03 0. -1.
         11   -1    0    0    0    0 -0.00000000000E+00 -0.00000000000E+00 -0.45593999997E+02  0.45594000000E+02  0.51100000000E-03 0.  1.
    9900012    2    1    2    0    0 -0.61645862386E+01 -0.30283023691E+02 -0.78523464479E+01  0.59301905976E+02  0.49999930603E+02 0.  0.
        -12    1    1    2    0    0  0.61645862386E+01  0.30283023691E+02  0.78523464479E+01  0.31886094024E+02  0.00000000000E+00 0.  1.
         11    1    3    3    0    0 -0.19726989860E+02 -0.15050000296E+02  0.10066972035E+02  0.26776866210E+02  0.51100000000E-03 0. -1.
        -11    1    3    3    0    0 -0.29634925505E+01 -0.34242867168E+01  0.11419659420E+01  0.46703441083E+01  0.51100000000E-03 0.  1.
        -12    1    3    3    0    0  0.16525896172E+02 -0.11808736679E+02 -0.19061284425E+02  0.27854695657E+02  0.00000000000E+00 0.  1.
</event>
<event>
 7    1  0.6830263E-012  0.5930197E+02  0.7816164E-02  0.1266605E+00
        -11   -1    0    0    0    0  0.00000000000E+00  0.00000000000E+00  0.45593999997E+02  0.45594000000E+02  0.51100000000E-03 0.  1.
         11   -1    0    0    0    0 -0.00000000000E+00 -0.00000000000E+00 -0.45593999997E+02  0.45594000000E+02  0.51100000000E-03 0. -1.
    9900012    2    1    2    0    0  0.25456403204E+02  0.55771310153E+01 -0.18373508943E+02  0.59301973509E+02  0.50000053768E+02 0.  0.
        -12    1    1    2    0    0 -0.25456403204E+02 -0.55771310153E+01  0.18373508943E+02  0.31886026491E+02  0.00000000000E+00 0.  1.
         11    1    3    3    0    0 -0.53145806944E+01 -0.21307559168E+01  0.72748499655E+00  0.57718388245E+01  0.51100000000E-03 0. -1.
        -11    1    3    3    0    0  0.10734879818E+02 -0.14457044645E+02  0.11240804180E+00  0.18007121380E+02  0.51100000000E-03 0.  1.
         12    1    3    3    0    0  0.20036104081E+02  0.22164931577E+02 -0.19213401982E+02  0.35523013305E+02  0.00000000000E+00 0. -1.
</event>
<event>
 7    1  0.6830263E-012  0.5930194E+02  0.7816164E-02  0.1266605E+00
        -11   -1    0    0    0    0  0.00000000000E+00  0.00000000000E+00  0.45593999997E+02  0.45594000000E+02  0.51100000000E-03 0. -1.
         11   -1    0    0    0    0 -0.00000000000E+00 -0.00000000000E+00 -0.45593999997E+02  0.45594000000E+02  0.51100000000E-03 0.  1.
    9900012    2    1    2    0    0 -0.13531735832E+02 -0.21111903865E+02  0.19695186730E+02  0.59301941295E+02  0.49999995016E+02 0.  0.
        -12    1    1    2    0    0  0.13531735832E+02  0.21111903865E+02 -0.19695186730E+02  0.31886058705E+02  0.00000000000E+00 0.  1.
         11    1    3    3    0    0 -0.86632424368E+01  0.49473188317E+01 -0.74483850052E+01  0.12450147493E+02  0.51100000000E-03 0. -1.
        -11    1    3    3    0    0 -0.27568783674E+01  0.54298815142E+01  0.17267812684E+01  0.63297523966E+01  0.51100000000E-03 0.  1.
         12    1    3    3    0    0 -0.21116150276E+01 -0.31489104211E+02  0.25416790466E+02  0.40522041406E+02  0.00000000000E+00 0. -1.
</event>
<event>
 7    1  0.6830263E-012  0.5930195E+02  0.7816164E-02  0.1266605E+00
        -11   -1    0    0    0    0  0.00000000000E+00  0.00000000000E+00  0.45593999997E+02  0.45594000000E+02  0.51100000000E-03 0. -1.
         11   -1    0    0    0    0 -0.00000000000E+00 -0.00000000000E+00 -0.45593999997E+02  0.45594000000E+02  0.51100000000E-03 0.  1.
    9900012    2    1    2    0    0  0.29096932647E+02  0.39174196070E+00 -0.13035912841E+02  0.59301953290E+02  0.50000016892E+02 0.  0.
        -12    1    1    2    0    0 -0.29096932647E+02 -0.39174196070E+00  0.13035912841E+02  0.31886046710E+02  0.00000000000E+00 0.  1.
         11    1    3    3    0    0  0.19700681270E+01 -0.52482915539E+01 -0.18246829074E+02  0.19088543794E+02  0.51100000000E-03 0. -1.
        -11    1    3    3    0    0  0.11464743373E+01 -0.96310976499E+01  0.20358247934E+01  0.99104504538E+01  0.51100000000E-03 0.  1.
         12    1    3    3    0    0  0.25980390182E+02  0.15271131164E+02  0.31750914395E+01  0.30302959042E+02  0.00000000000E+00 0. -1.
</event>
<event>
 7    1  0.6830263E-012  0.5930194E+02  0.7816164E-02  0.1266605E+00
        -11   -1    0    0    0    0  0.00000000000E+00  0.00000000000E+00  0.45593999997E+02  0.45594000000E+02  0.51100000000E-03 0.  1.
         11   -1    0    0    0    0 -0.00000000000E+00 -0.00000000000E+00 -0.45593999997E+02  0.45594000000E+02  0.51100000000E-03 0. -1.
    9900012    2    1    2    0    0 -0.13927316205E+02  0.24694831353E+02 -0.14591643452E+02  0.59301938925E+02  0.49999990694E+02 0.  0.
        -12    1    1    2    0    0  0.13927316205E+02 -0.24694831353E+02  0.14591643452E+02  0.31886061075E+02  0.00000000000E+00 0.  1.
         11    1    3    3    0    0  0.60511813136E-01  0.15414198722E+02 -0.51552164157E+01  0.16253536245E+02  0.51100000000E-03 0. -1.
        -11    1    3    3    0    0 -0.24736543802E+01  0.20643321112E+02 -0.15329851007E+02  0.25831569923E+02  0.51100000000E-03 0.  1.
        -12    1    3    3    0    0 -0.11514173638E+02 -0.11362688480E+02  0.58934239706E+01  0.17216832757E+02  0.00000000000E+00 0.  1.
</event>
<event>
 7    1  0.6830263E-012  0.5930193E+02  0.7816164E-02  0.1266605E+00
        -11   -1    0    0    0    0  0.00000000000E+00  0.00000000000E+00  0.45593999997E+02  0.45594000000E+02  0.51100000000E-03 0.  1.
         11   -1    0    0    0    0 -0.00000000000E+00 -0.00000000000E+00 -0.45593999997E+02  0.45594000000E+02  0.51100000000E-03 0. -1.
    9900012    2    1    2    0    0  0.27143549287E+02  0.99039154467E+01  0.13485602720E+02  0.59301932669E+02  0.49999979285E+02 0.  0.
        -12    1    1    2    0    0 -0.27143549287E+02 -0.99039154467E+01 -0.13485602720E+02  0.31886067331E+02  0.00000000000E+00 0.  1.
         11    1    3    3    0    0  0.12737673030E+02 -0.13279973679E+01 -0.86458510044E+01  0.15451945867E+02  0.51100000000E-03 0. -1.
        -11    1    3    3    0    0  0.24201461098E+02  0.34111663424E+01  0.10003915241E+02  0.26408807158E+02  0.51100000000E-03 0.  1.
        -12    1    3    3    0    0 -0.97955848401E+01  0.78207464722E+01  0.12127538483E+02  0.17441179645E+02  0.00000000000E+00 0.  1.
</event>
<event>
 7    1  0.6830263E-012  0.5930197E+02  0.7816164E-02  0.1266605E+00
        -11   -1    0    0    0    0  0.00000000000E+00  0.00000000000E+00  0.45593999997E+02  0.45594000000E+02  0.51100000000E-03 0.  1.
         11   -1    0    0    0    0 -0.00000000000E+00 -0.00000000000E+00 -0.45593999997E+02  0.45594000000E+02  0.51100000000E-03 0. -1.
    9900012    2    1    2    0    0 -0.50697535860E+01  0.18550511771E+02 -0.25434134380E+02  0.59301967320E+02  0.50000042480E+02 0.  0.
        -12    1    1    2    0    0  0.50697535860E+01 -0.18550511771E+02  0.25434134380E+02  0.31886032680E+02  0.00000000000E+00 0.  1.
         11    1    3    3    0    0  0.30051317709E+01  0.21090900221E+02 -0.14783349235E+01  0.21355148408E+02  0.51100000000E-03 0. -1.
        -11    1    3    3    0    0  0.56784223756E+01  0.64485758790E+01  0.36056420676E+00  0.85999196712E+01  0.51100000000E-03 0.  1.
        -12    1    3    3    0    0 -0.13753307732E+02 -0.89889643292E+01 -0.24316363663E+02  0.29346899242E+02  0.00000000000E+00 0.  1.
</event>
<event>
 7    1  0.6830263E-012  0.5930196E+02  0.7816164E-02  0.1266605E+00
        -11   -1    0    0    0    0  0.00000000000E+00  0.00000000000E+00  0.45593999997E+02  0.45594000000E+02  0.51100000000E-03 0.  1.
         11   -1    0    0    0    0 -0.00000000000E+00 -0.00000000000E+00 -0.45593999997E+02  0.45594000000E+02  0.51100000000E-03 0. -1.
    9900012    2    1    2    0    0 -0.10547740060E+02 -0.29975185344E+02 -0.26369039591E+01  0.59301955729E+02  0.50000021340E+02 0.  0.
        -12    1    1    2    0    0  0.10547740060E+02  0.29975185344E+02  0.26369039591E+01  0.31886044271E+02  0.00000000000E+00 0.  1.
         11    1    3    3    0    0 -0.17840243991E+02 -0.30108794783E+02 -0.23945118338E+01  0.35079160710E+02  0.51100000000E-03 0. -1.
        -11    1    3    3    0    0 -0.77664942817E+01  0.22639518302E+01 -0.32520501901E+01  0.87189300959E+01  0.51100000000E-03 0.  1.
        -12    1    3    3    0    0  0.15058998213E+02 -0.21303423916E+01  0.30096580649E+01  0.15503864923E+02  0.00000000000E+00 0.  1.
</event>
<event>
 7    1  0.6830263E-012  0.5930194E+02  0.7816164E-02  0.1266605E+00
        -11   -1    0    0    0    0  0.00000000000E+00  0.00000000000E+00  0.45593999997E+02  0.45594000000E+02  0.51100000000E-03 0. -1.
         11   -1    0    0    0    0 -0.00000000000E+00 -0.00000000000E+00 -0.45593999997E+02  0.45594000000E+02  0.51100000000E-03 0.  1.
    9900012    2    1    2    0    0  0.19005774838E+02 -0.16588438546E+02  0.19501919360E+02  0.59301943027E+02  0.49999998175E+02 0.  0.
        -12    1    1    2    0    0 -0.19005774838E+02  0.16588438546E+02 -0.19501919360E+02  0.31886056973E+02  0.00000000000E+00 0.  1.
         11    1    3    3    0    0  0.20148943619E+02 -0.10504732430E+00  0.20330970758E+02  0.28624104110E+02  0.51100000000E-03 0. -1.
        -11    1    3    3    0    0  0.45437730416E+00 -0.16629413916E+02  0.10212592046E+02  0.19520269017E+02  0.51100000000E-03 0.  1.
        -12    1    3    3    0    0 -0.15975460853E+01  0.14602269424E+00 -0.11041643444E+02  0.11157569900E+02  0.00000000000E+00 0.  1.
</event>
<event>
 7    1  0.6830263E-012  0.5930196E+02  0.7816164E-02  0.1266605E+00
        -11   -1    0    0    0    0  0.00000000000E+00  0.00000000000E+00  0.45593999997E+02  0.45594000000E+02  0.51100000000E-03 0. -1.
         11   -1    0    0    0    0 -0.00000000000E+00 -0.00000000000E+00 -0.45593999997E+02  0.45594000000E+02  0.51100000000E-03 0.  1.
    9900012    2    1    2    0    0 -0.84564190698E+01 -0.22486545149E+02  0.20965778943E+02  0.59301958808E+02  0.50000026956E+02 0.  0.
        -12    1    1    2    0    0  0.84564190698E+01  0.22486545149E+02 -0.20965778943E+02  0.31886041192E+02  0.00000000000E+00 0.  1.
         11    1    3    3    0    0 -0.17137981047E+01 -0.99413848290E+01  0.64334478181E+01  0.11964843808E+02  0.51100000000E-03 0. -1.
        -11    1    3    3    0    0 -0.52781694035E+01  0.15283703572E+01  0.27560669254E+02  0.28103122214E+02  0.51100000000E-03 0.  1.
         12    1    3    3    0    0 -0.14644515616E+01 -0.14073530677E+02 -0.13028338129E+02  0.19233992786E+02  0.00000000000E+00 0. -1.
</event>
<event>
 7    1  0.6830263E-012  0.5930196E+02  0.7816164E-02  0.1266605E+00
        -11   -1    0    0    0    0  0.00000000000E+00  0.00000000000E+00  0.45593999997E+02  0.45594000000E+02  0.51100000000E-03 0.  1.
         11   -1    0    0    0    0 -0.00000000000E+00 -0.00000000000E+00 -0.45593999997E+02  0.45594000000E+02  0.51100000000E-03 0. -1.
    9900012    2    1    2    0    0 -0.27623869035E+01 -0.33801466123E+01 -0.31585813153E+02  0.59301956579E+02  0.50000022891E+02 0.  0.
        -12    1    1    2    0    0  0.27623869035E+01  0.33801466123E+01  0.31585813153E+02  0.31886043421E+02  0.00000000000E+00 0.  1.
         11    1    3    3    0    0  0.10604970452E+02 -0.18351797229E+02 -0.25889426017E+02  0.33459172727E+02  0.51100000000E-03 0. -1.
        -11    1    3    3    0    0 -0.61956179667E+01 -0.22078125810E+01 -0.11160117077E+01  0.66712518147E+01  0.51100000000E-03 0.  1.
        -12    1    3    3    0    0 -0.71717393885E+01  0.17179463198E+02 -0.45803754283E+01  0.19171532038E+02  0.00000000000E+00 0.  1.
</event>
<event>
 7    1  0.6830263E-012  0.5930194E+02  0.7816164E-02  0.1266605E+00
        -11   -1    0    0    0    0  0.00000000000E+00  0.00000000000E+00  0.45593999997E+02  0.45594000000E+02  0.51100000000E-03 0.  1.
         11   -1    0    0    0    0 -0.00000000000E+00 -0.00000000000E+00 -0.45593999997E+02  0.45594000000E+02  0.51100000000E-03 0. -1.
    9900012    2    1    2    0    0  0.26774052152E+02 -0.55234981325E+01 -0.16412242468E+02  0.59301943437E+02  0.49999998923E+02 0.  0.
        -12    1    1    2    0    0 -0.26774052152E+02  0.55234981325E+01  0.16412242468E+02  0.31886056563E+02  0.00000000000E+00 0.  1.
         11    1    3    3    0    0  0.13389208690E+02  0.84552072062E+00 -0.13149869396E+02  0.18785762695E+02  0.51100000000E-03 0. -1.
        -11    1    3    3    0    0  0.25609863092E+02 -0.58525864467E+01  0.35545119279E+01  0.26509477758E+02  0.51100000000E-03 0.  1.
         12    1    3    3    0    0 -0.12225019630E+02 -0.51643240637E+00 -0.68168849997E+01  0.14006702984E+02  0.00000000000E+00 0. -1.
</event>
<event>
 7    1  0.6830263E-012  0.5930195E+02  0.7816164E-02  0.1266605E+00
        -11   -1    0    0    0    0  0.00000000000E+00  0.00000000000E+00  0.45593999997E+02  0.45594000000E+02  0.51100000000E-03 0. -1.
         11   -1    0    0    0    0 -0.00000000000E+00 -0.00000000000E+00 -0.45593999997E+02  0.45594000000E+02  0.51100000000E-03 0.  1.
    9900012    2    1    2    0    0 -0.44999343724E+01  0.31223623339E+02  0.46428276885E+01  0.59301954263E+02  0.50000018667E+02 0.  0.
        -12    1    1    2    0    0  0.44999343724E+01 -0.31223623339E+02 -0.46428276885E+01  0.31886045737E+02  0.00000000000E+00 0.  1.
         11    1    3    3    0    0  0.51522110304E+01  0.48003168043E+00  0.38946089754E+01  0.64763946952E+01  0.51100000000E-03 0. -1.
        -11    1    3    3    0    0  0.11823005591E+02  0.28873462402E+02  0.17154107440E+01  0.31247446720E+02  0.51100000000E-03 0.  1.
         12    1    3    3    0    0 -0.21475150993E+02  0.18701292571E+01 -0.96719203091E+00  0.21578112847E+02  0.00000000000E+00 0. -1.
</event>
<event>
 7    1  0.6830263E-012  0.5930195E+02  0.7816164E-02  0.1266605E+00
        -11   -1    0    0    0    0  0.00000000000E+00  0.00000000000E+00  0.45593999997E+02  0.45594000000E+02  0.51100000000E-03 0. -1.
         11   -1    0    0    0    0 -0.00000000000E+00 -0.00000000000E+00 -0.45593999997E+02  0.45594000000E+02  0.51100000000E-03 0.  1.
    9900012    2    1    2    0    0 -0.24085376184E+02  0.99039043858E+01  0.18399124246E+02  0.59301945979E+02  0.50000003559E+02 0.  0.
        -12    1    1    2    0    0  0.24085376184E+02 -0.99039043858E+01 -0.18399124246E+02  0.31886054021E+02  0.00000000000E+00 0.  1.
         11    1    3    3    0    0 -0.24734821075E+02 -0.20139402231E+01  0.25564589432E+01  0.24948002153E+02  0.51100000000E-03 0. -1.
        -11    1    3    3    0    0  0.38253511998E+01 -0.56804332630E+01  0.14956031067E+02  0.16449422464E+02  0.51100000000E-03 0.  1.
         12    1    3    3    0    0 -0.31759063093E+01  0.17598277872E+02  0.88663423517E+00  0.17904521362E+02  0.00000000000E+00 0. -1.
</event>
<event>
 7    1  0.6830263E-012  0.5930195E+02  0.7816164E-02  0.1266605E+00
        -11   -1    0    0    0    0  0.00000000000E+00  0.00000000000E+00  0.45593999997E+02  0.45594000000E+02  0.51100000000E-03 0. -1.
         11   -1    0    0    0    0 -0.00000000000E+00 -0.00000000000E+00 -0.45593999997E+02  0.45594000000E+02  0.51100000000E-03 0.  1.
    9900012    2    1    2    0    0 -0.19324906514E+02  0.25338307367E+02 -0.11129158300E+01  0.59301946408E+02  0.50000004341E+02 0.  0.
        -12    1    1    2    0    0  0.19324906514E+02 -0.25338307367E+02  0.11129158300E+01  0.31886053592E+02  0.00000000000E+00 0.  1.
         11    1    3    3    0    0 -0.12072450987E+01  0.13132442172E+02  0.68688057976E+01  0.14869397146E+02  0.51100000000E-03 0. -1.
        -11    1    3    3    0    0  0.27295194687E+01  0.18103930355E+02 -0.12670777947E+02  0.22265470686E+02  0.51100000000E-03 0.  1.
        -12    1    3    3    0    0 -0.20847180884E+02 -0.58980651597E+01  0.46890563190E+01  0.22167078576E+02  0.00000000000E+00 0.  1.
</event>
<event>
 7    1  0.6830263E-012  0.5930197E+02  0.7816164E-02  0.1266605E+00
        -11   -1    0    0    0    0  0.00000000000E+00  0.00000000000E+00  0.45593999997E+02  0.45594000000E+02  0.51100000000E-03 0. -1.
         11   -1    0    0    0    0 -0.00000000000E+00 -0.00000000000E+00 -0.45593999997E+02  0.45594000000E+02  0.51100000000E-03 0.  1.
    9900012    2    1    2    0    0 -0.30588466475E+02  0.27265102324E+00  0.89994718094E+01  0.59301966808E+02  0.50000041545E+02 0.  0.
        -12    1    1    2    0    0  0.30588466475E+02 -0.27265102324E+00 -0.89994718094E+01  0.31886033192E+02  0.00000000000E+00 0.  1.
         11    1    3    3    0    0 -0.44420295113E+01 -0.29205329655E+01  0.76368653542E+01  0.93049906868E+01  0.51100000000E-03 0. -1.
        -11    1    3    3    0    0 -0.25648180596E+02 -0.16244757176E+02  0.28646971300E+01  0.30494717469E+02  0.51100000000E-03 0.  1.
         12    1    3    3    0    0 -0.49825636792E+00  0.19437941165E+02 -0.15020906748E+01  0.19502258652E+02  0.00000000000E+00 0. -1.
</event>
<event>
 7    1  0.6830263E-012  0.5930189E+02  0.7816164E-02  0.1266605E+00
        -11   -1    0    0    0    0  0.00000000000E+00  0.00000000000E+00  0.45593999997E+02  0.45594000000E+02  0.51100000000E-03 0.  1.
         11   -1    0    0    0    0 -0.00000000000E+00 -0.00000000000E+00 -0.45593999997E+02  0.45594000000E+02  0.51100000000E-03 0. -1.
    9900012    2    1    2    0    0  0.31125374701E+02  0.18651356805E+01  0.66675389573E+01  0.59301893980E+02  0.49999908725E+02 0.  0.
        -12    1    1    2    0    0 -0.31125374701E+02 -0.18651356805E+01 -0.66675389573E+01  0.31886106020E+02  0.00000000000E+00 0.  1.
         11    1    3    3    0    0  0.20546661355E+02 -0.29787486357E+01  0.44836814161E+01  0.21240094999E+02  0.51100000000E-03 0.  1.
        -11    1    3    3    0    0  0.18000070576E+02 -0.98638691532E+01  0.55166855049E+01  0.21253994322E+02  0.51100000000E-03 0. -1.
        -12    1    3    3    0    0 -0.74213572293E+01  0.14707753469E+02 -0.33328279637E+01  0.16807804660E+02  0.00000000000E+00 0.  1.
</event>
<event>
 7    1  0.6830263E-012  0.5930190E+02  0.7816164E-02  0.1266605E+00
        -11   -1    0    0    0    0  0.00000000000E+00  0.00000000000E+00  0.45593999997E+02  0.45594000000E+02  0.51100000000E-03 0.  1.
         11   -1    0    0    0    0 -0.00000000000E+00 -0.00000000000E+00 -0.45593999997E+02  0.45594000000E+02  0.51100000000E-03 0. -1.
    9900012    2    1    2    0    0  0.17637013953E+02 -0.20539286689E+02  0.16846269993E+02  0.59301900026E+02  0.49999919752E+02 0.  0.
        -12    1    1    2    0    0 -0.17637013953E+02  0.20539286689E+02 -0.16846269993E+02  0.31886099974E+02  0.00000000000E+00 0.  1.
         11    1    3    3    0    0  0.17030902561E+02 -0.65905575638E+01  0.28812867316E+01  0.18487533761E+02  0.51100000000E-03 0. -1.
        -11    1    3    3    0    0  0.12612846783E+02  0.54648183207E+01 -0.56208723420E+00  0.13757328431E+02  0.51100000000E-03 0.  1.
         12    1    3    3    0    0 -0.12006735391E+02 -0.19413547446E+02  0.14527070495E+02  0.27057037834E+02  0.00000000000E+00 0. -1.
</event>
<event>
 7    1  0.6830263E-012  0.5930193E+02  0.7816164E-02  0.1266605E+00
        -11   -1    0    0    0    0  0.00000000000E+00  0.00000000000E+00  0.45593999997E+02  0.45594000000E+02  0.51100000000E-03 0.  1.
         11   -1    0    0    0    0 -0.00000000000E+00 -0.00000000000E+00 -0.45593999997E+02  0.45594000000E+02  0.51100000000E-03 0. -1.
    9900012    2    1    2    0    0  0.14496810070E+02 -0.32806456538E+01 -0.28209954778E+02  0.59301926446E+02  0.49999967935E+02 0.  0.
        -12    1    1    2    0    0 -0.14496810070E+02  0.32806456538E+01  0.28209954778E+02  0.31886073554E+02  0.00000000000E+00 0.  1.
         11    1    3    3    0    0  0.19036066182E+01 -0.64753218894E+01  0.26010976699E+01  0.72332026846E+01  0.51100000000E-03 0. -1.
        -11    1    3    3    0    0 -0.33508843397E+01 -0.11155394808E+02  0.29993023712E+01  0.12027762641E+02  0.51100000000E-03 0.  1.
         12    1    3    3    0    0  0.15944087792E+02  0.14350071043E+02 -0.33810354819E+02  0.40040961120E+02  0.00000000000E+00 0. -1.
</event>
<event>
 7    1  0.6830263E-012  0.5930195E+02  0.7816164E-02  0.1266605E+00
        -11   -1    0    0    0    0  0.00000000000E+00  0.00000000000E+00  0.45593999997E+02  0.45594000000E+02  0.51100000000E-03 0. -1.
         11   -1    0    0    0    0 -0.00000000000E+00 -0.00000000000E+00 -0.45593999997E+02  0.45594000000E+02  0.51100000000E-03 0.  1.
    9900012    2    1    2    0    0  0.29719888285E+02 -0.30053612763E+01 -0.11154215677E+02  0.59301945314E+02  0.50000002346E+02 0.  0.
        -12    1    1    2    0    0 -0.29719888285E+02  0.30053612763E+01  0.11154215677E+02  0.31886054686E+02  0.00000000000E+00 0.  1.
         11    1    3    3    0    0  0.56504759389E+01  0.22507472028E+01 -0.21525416245E+02  0.22368220450E+02  0.51100000000E-03 0.  1.
        -11    1    3    3    0    0 -0.37877550977E+01 -0.21867077978E+01  0.76034727183E+01  0.87716348141E+01  0.51100000000E-03 0. -1.
        -12    1    3    3    0    0  0.27857167444E+02 -0.30694006814E+01  0.27677278495E+01  0.28162090050E+02  0.00000000000E+00 0.  1.
</event>
<event>
 7    1  0.6830263E-012  0.5930197E+02  0.7816164E-02  0.1266605E+00
        -11   -1    0    0    0    0  0.00000000000E+00  0.00000000000E+00  0.45593999997E+02  0.45594000000E+02  0.51100000000E-03 0. -1.
         11   -1    0    0    0    0 -0.00000000000E+00 -0.00000000000E+00 -0.45593999997E+02  0.45594000000E+02  0.51100000000E-03 0.  1.
    9900012    2    1    2    0    0 -0.21520369167E+02 -0.22426814761E+02  0.71155113180E+01  0.59301971544E+02  0.50000050183E+02 0.  0.
        -12    1    1    2    0    0  0.21520369167E+02  0.22426814761E+02 -0.71155113180E+01  0.31886028456E+02  0.00000000000E+00 0.  1.
         11    1    3    3    0    0 -0.22070530282E+02 -0.18495614146E+02  0.19798306644E+02  0.34945228513E+02  0.51100000000E-03 0. -1.
        -11    1    3    3    0    0 -0.32346166193E+01 -0.15230336979E+01  0.49815174186E+01  0.61317120262E+01  0.51100000000E-03 0.  1.
        -12    1    3    3    0    0  0.37847777347E+01 -0.24081669168E+01 -0.17664312744E+02  0.18225031005E+02  0.00000000000E+00 0.  1.
</event>
<event>
 7    1  0.6830263E-012  0.5930194E+02  0.7816164E-02  0.1266605E+00
        -11   -1    0    0    0    0  0.00000000000E+00  0.00000000000E+00  0.45593999997E+02  0.45594000000E+02  0.51100000000E-03 0.  1.
         11   -1    0    0    0    0 -0.00000000000E+00 -0.00000000000E+00 -0.45593999997E+02  0.45594000000E+02  0.51100000000E-03 0. -1.
    9900012    2    1    2    0    0  0.30589091586E+02  0.89691410651E+01 -0.76352252349E+00  0.59301937494E+02  0.49999988084E+02 0.  0.
        -12    1    1    2    0    0 -0.30589091586E+02 -0.89691410651E+01  0.76352252349E+00  0.31886062506E+02  0.00000000000E+00 0.  1.
         11    1    3    3    0    0  0.23197320292E+02  0.22725219442E+02 -0.20790304983E+01  0.32540338589E+02  0.51100000000E-03 0. -1.
        -11    1    3    3    0    0  0.94394401663E+01  0.28743770192E+01  0.16382549451E+01  0.10002447372E+02  0.51100000000E-03 0.  1.
        -12    1    3    3    0    0 -0.20476688720E+01 -0.16630455396E+02 -0.32274697029E+00  0.16759151533E+02  0.00000000000E+00 0.  1.
</event>
<event>
 7    1  0.6830263E-012  0.5930197E+02  0.7816164E-02  0.1266605E+00
        -11   -1    0    0    0    0  0.00000000000E+00  0.00000000000E+00  0.45593999997E+02  0.45594000000E+02  0.51100000000E-03 0.  1.
         11   -1    0    0    0    0 -0.00000000000E+00 -0.00000000000E+00 -0.45593999997E+02  0.45594000000E+02  0.51100000000E-03 0. -1.
    9900012    2    1    2    0    0  0.18862645751E+02  0.25789605417E+01 -0.25578671936E+02  0.59301970140E+02  0.50000047622E+02 0.  0.
        -12    1    1    2    0    0 -0.18862645751E+02 -0.25789605417E+01  0.25578671936E+02  0.31886029860E+02  0.00000000000E+00 0.  1.
         11    1    3    3    0    0 -0.79388807048E+00 -0.67289346825E+01 -0.99591021490E+01  0.12045436319E+02  0.51100000000E-03 0. -1.
        -11    1    3    3    0    0  0.29822424979E+02  0.78430428935E+01 -0.19262868610E+02  0.36358609171E+02  0.51100000000E-03 0.  1.
         12    1    3    3    0    0 -0.10165891158E+02  0.14648523307E+01  0.36432988231E+01  0.10897924651E+02  0.00000000000E+00 0. -1.
</event>
<event>
 7    1  0.6830263E-012  0.5930194E+02  0.7816164E-02  0.1266605E+00
        -11   -1    0    0    0    0  0.00000000000E+00  0.00000000000E+00  0.45593999997E+02  0.45594000000E+02  0.51100000000E-03 0. -1.
         11   -1    0    0    0    0 -0.00000000000E+00 -0.00000000000E+00 -0.45593999997E+02  0.45594000000E+02  0.51100000000E-03 0.  1.
    9900012    2    1    2    0    0  0.30474478108E+02  0.76099505942E+01 -0.54877997510E+01  0.59301935488E+02  0.49999984425E+02 0.  0.
        -12    1    1    2    0    0 -0.30474478108E+02 -0.76099505942E+01  0.54877997510E+01  0.31886064512E+02  0.00000000000E+00 0.  1.
         11    1    3    3    0    0  0.13660461120E+02  0.20527576429E-01 -0.18784694542E+00  0.13661768046E+02  0.51100000000E-03 0. -1.
        -11    1    3    3    0    0  0.24606518873E+02  0.16066798493E+02 -0.12634030562E+02  0.31988146451E+02  0.51100000000E-03 0.  1.
         12    1    3    3    0    0 -0.77925018862E+01 -0.84773754751E+01  0.73340777565E+01  0.13652020991E+02  0.00000000000E+00 0. -1.
</event>
<event>
 7    1  0.6830263E-012  0.5930193E+02  0.7816164E-02  0.1266605E+00
        -11   -1    0    0    0    0  0.00000000000E+00  0.00000000000E+00  0.45593999997E+02  0.45594000000E+02  0.51100000000E-03 0. -1.
         11   -1    0    0    0    0 -0.00000000000E+00 -0.00000000000E+00 -0.45593999997E+02  0.45594000000E+02  0.51100000000E-03 0.  1.
    9900012    2    1    2    0    0  0.97015208853E+01  0.22691583634E+02  0.20191428293E+02  0.59301933265E+02  0.49999980372E+02 0.  0.
        -12    1    1    2    0    0 -0.97015208853E+01 -0.22691583634E+02 -0.20191428293E+02  0.31886066735E+02  0.00000000000E+00 0.  1.
         11    1    3    3    0    0  0.26599113416E+01 -0.39113962048E+01  0.29387194342E+01  0.55686821412E+01  0.51100000000E-03 0. -1.
        -11    1    3    3    0    0 -0.83259103535E+01 -0.76368110185E+01  0.10843519962E+02  0.15659616572E+02  0.51100000000E-03 0.  1.
        -12    1    3    3    0    0  0.15367519897E+02  0.34239790857E+02  0.64091888968E+01  0.38073634552E+02  0.00000000000E+00 0.  1.
</event>
<event>
 7    1  0.6830263E-012  0.5930194E+02  0.7816164E-02  0.1266605E+00
        -11   -1    0    0    0    0  0.00000000000E+00  0.00000000000E+00  0.45593999997E+02  0.45594000000E+02  0.51100000000E-03 0. -1.
         11   -1    0    0    0    0 -0.00000000000E+00 -0.00000000000E+00 -0.45593999997E+02  0.45594000000E+02  0.51100000000E-03 0.  1.
    9900012    2    1    2    0    0  0.25276006702E+02  0.19433453137E+02 -0.43040391177E+00  0.59301939360E+02  0.49999991488E+02 0.  0.
        -12    1    1    2    0    0 -0.25276006702E+02 -0.19433453137E+02  0.43040391177E+00  0.31886060640E+02  0.00000000000E+00 0.  1.
         11    1    3    3    0    0  0.30253675066E+02  0.18006400006E+02  0.91087565301E-01  0.35206868555E+02  0.51100000000E-03 0. -1.
        -11    1    3    3    0    0  0.46470493627E+01  0.93035142989E+01 -0.40611345157E+01  0.11164374586E+02  0.51100000000E-03 0.  1.
         12    1    3    3    0    0 -0.96247177275E+01 -0.78764611687E+01  0.35396430386E+01  0.12930696219E+02  0.00000000000E+00 0. -1.
</event>
<event>
 7    1  0.6830263E-012  0.5930192E+02  0.7816164E-02  0.1266605E+00
        -11   -1    0    0    0    0  0.00000000000E+00  0.00000000000E+00  0.45593999997E+02  0.45594000000E+02  0.51100000000E-03 0. -1.
         11   -1    0    0    0    0 -0.00000000000E+00 -0.00000000000E+00 -0.45593999997E+02  0.45594000000E+02  0.51100000000E-03 0.  1.
    9900012    2    1    2    0    0  0.16978570372E+02  0.98215559708E+01  0.25139353080E+02  0.59301923307E+02  0.49999962211E+02 0.  0.
        -12    1    1    2    0    0 -0.16978570372E+02 -0.98215559708E+01 -0.25139353080E+02  0.31886076693E+02  0.00000000000E+00 0.  1.
         11    1    3    3    0    0  0.16455598579E+02  0.43991178066E+00  0.29569657570E+02  0.33842944553E+02  0.51100000000E-03 0. -1.
        -11    1    3    3    0    0 -0.53269156373E+00 -0.77918760492E+01 -0.60872575085E+00  0.78337500578E+01  0.51100000000E-03 0.  1.
         12    1    3    3    0    0  0.10556633570E+01  0.17173520239E+02 -0.38215787396E+01  0.17625228696E+02  0.00000000000E+00 0. -1.
</event>
<event>
 7    1  0.6830263E-012  0.5930193E+02  0.7816164E-02  0.1266605E+00
        -11   -1    0    0    0    0  0.00000000000E+00  0.00000000000E+00  0.45593999997E+02  0.45594000000E+02  0.51100000000E-03 0.  1.
         11   -1    0    0    0    0 -0.00000000000E+00 -0.00000000000E+00 -0.45593999997E+02  0.45594000000E+02  0.51100000000E-03 0. -1.
    9900012    2    1    2    0    0 -0.22465468676E+02  0.17772819493E+02 -0.14005384763E+02  0.59301934110E+02  0.49999981913E+02 0.  0.
        -12    1    1    2    0    0  0.22465468676E+02 -0.17772819493E+02  0.14005384763E+02  0.31886065890E+02  0.00000000000E+00 0.  1.
         11    1    3    3    0    0 -0.16590477863E+02  0.19746280224E+02  0.58521165259E+01  0.26446300431E+02  0.51100000000E-03 0. -1.
        -11    1    3    3    0    0 -0.60929021729E+00 -0.96642298184E+01  0.12672738527E+01  0.97659897517E+01  0.51100000000E-03 0.  1.
        -12    1    3    3    0    0 -0.52657005963E+01  0.76907690869E+01 -0.21124775141E+02  0.23089643927E+02  0.00000000000E+00 0.  1.
</event>
<event>
 7    1  0.6830263E-012  0.5930194E+02  0.7816164E-02  0.1266605E+00
        -11   -1    0    0    0    0  0.00000000000E+00  0.00000000000E+00  0.45593999997E+02  0.45594000000E+02  0.51100000000E-03 0. -1.
         11   -1    0    0    0    0 -0.00000000000E+00 -0.00000000000E+00 -0.45593999997E+02  0.45594000000E+02  0.51100000000E-03 0.  1.
    9900012    2    1    2    0    0  0.53219428364E+01  0.13788892653E+01  0.31408542343E+02  0.59301938103E+02  0.49999989196E+02 0.  0.
        -12    1    1    2    0    0 -0.53219428364E+01 -0.13788892653E+01 -0.31408542343E+02  0.31886061897E+02  0.00000000000E+00 0.  1.
         11    1    3    3    0    0 -0.10938406951E+02  0.15802110687E+02  0.20796270402E+02  0.28316784982E+02  0.51100000000E-03 0. -1.
        -11    1    3    3    0    0  0.37539246299E+00  0.23414427219E+01  0.72730272898E+01  0.76498496547E+01  0.51100000000E-03 0.  1.
        -12    1    3    3    0    0  0.15884957324E+02 -0.16764664144E+02  0.33392446508E+01  0.23335303467E+02  0.00000000000E+00 0.  1.
</event>
<event>
 7    1  0.6830263E-012  0.5930195E+02  0.7816164E-02  0.1266605E+00
        -11   -1    0    0    0    0  0.00000000000E+00  0.00000000000E+00  0.45593999997E+02  0.45594000000E+02  0.51100000000E-03 0.  1.
         11   -1    0    0    0    0 -0.00000000000E+00 -0.00000000000E+00 -0.45593999997E+02  0.45594000000E+02  0.51100000000E-03 0. -1.
    9900012    2    1    2    0    0  0.59089318396E+01  0.31273479508E+02  0.19427661906E+01  0.59301947619E+02  0.50000006549E+02 0.  0.
        -12    1    1    2    0    0 -0.59089318396E+01 -0.31273479508E+02 -0.19427661906E+01  0.31886052381E+02  0.00000000000E+00 0.  1.
         11    1    3    3    0    0 -0.70337381361E+00 -0.83448289162E+01 -0.81409472328E+01  0.11679294776E+02  0.51100000000E-03 0. -1.
        -11    1    3    3    0    0  0.10579646850E+01 -0.28556598593E+01  0.28686044012E+01  0.41836555760E+01  0.51100000000E-03 0.  1.
         12    1    3    3    0    0  0.55543409682E+01  0.42473968283E+02  0.72151090223E+01  0.43438997266E+02  0.00000000000E+00 0. -1.
</event>
<event>
 7    1  0.6830263E-012  0.5930194E+02  0.7816164E-02  0.1266605E+00
        -11   -1    0    0    0    0  0.00000000000E+00  0.00000000000E+00  0.45593999997E+02  0.45594000000E+02  0.51100000000E-03 0.  1.
         11   -1    0    0    0    0 -0.00000000000E+00 -0.00000000000E+00 -0.45593999997E+02  0.45594000000E+02  0.51100000000E-03 0. -1.
    9900012    2    1    2    0    0  0.28065559076E+02 -0.28145135326E+01 -0.14870223648E+02  0.59301942796E+02  0.49999997753E+02 0.  0.
        -12    1    1    2    0    0 -0.28065559076E+02  0.28145135326E+01  0.14870223648E+02  0.31886057204E+02  0.00000000000E+00 0.  1.
         11    1    3    3    0    0  0.67484108773E+01  0.91723271993E+01 -0.68279961687E+01  0.13277581390E+02  0.51100000000E-03 0. -1.
        -11    1    3    3    0    0 -0.10194525387E+02 -0.76208177328E+00 -0.73056261224E+01  0.12565082164E+02  0.51100000000E-03 0.  1.
        -12    1    3    3    0    0  0.31511673585E+02 -0.11224758959E+02 -0.73660135710E+00  0.33459279242E+02  0.00000000000E+00 0.  1.
</event>
<event>
 7    1  0.6830263E-012  0.5930213E+02  0.7816164E-02  0.1266604E+00
        -11   -1    0    0    0    0  0.00000000000E+00  0.00000000000E+00  0.45593999997E+02  0.45594000000E+02  0.51100000000E-03 0. -1.
         11   -1    0    0    0    0 -0.00000000000E+00 -0.00000000000E+00 -0.45593999997E+02  0.45594000000E+02  0.51100000000E-03 0.  1.
    9900012    2    1    2    0    0 -0.90782293160E+01 -0.29393857143E+02  0.83842407502E+01  0.59302131999E+02  0.50000342813E+02 0.  0.
        -12    1    1    2    0    0  0.90782293160E+01  0.29393857143E+02 -0.83842407502E+01  0.31885868001E+02  0.00000000000E+00 0.  1.
         11    1    3    3    0    0 -0.24289265472E+02 -0.14068843195E+02 -0.21912391076E+01  0.28154969279E+02  0.51100000000E-03 0. -1.
        -11    1    3    3    0    0  0.67222261323E+01 -0.10826321772E+00  0.11904917727E+02  0.13672129002E+02  0.51100000000E-03 0.  1.
         12    1    3    3    0    0  0.84888100233E+01 -0.15216750730E+02 -0.13294378695E+01  0.17475033718E+02  0.00000000000E+00 0. -1.
</event>
<event>
 7    1  0.6830263E-012  0.5930195E+02  0.7816164E-02  0.1266605E+00
        -11   -1    0    0    0    0  0.00000000000E+00  0.00000000000E+00  0.45593999997E+02  0.45594000000E+02  0.51100000000E-03 0.  1.
         11   -1    0    0    0    0 -0.00000000000E+00 -0.00000000000E+00 -0.45593999997E+02  0.45594000000E+02  0.51100000000E-03 0. -1.
    9900012    2    1    2    0    0 -0.19215288730E+02 -0.47444097517E+01 -0.24999669452E+02  0.59301949483E+02  0.50000009948E+02 0.  0.
        -12    1    1    2    0    0  0.19215288730E+02  0.47444097517E+01  0.24999669452E+02  0.31886050517E+02  0.00000000000E+00 0.  1.
         11    1    3    3    0    0 -0.12884322225E+02  0.43078942230E+01 -0.23905347908E+02  0.27495988266E+02  0.51100000000E-03 0. -1.
        -11    1    3    3    0    0 -0.62107914901E+00 -0.10240516492E+02 -0.14166795910E+02  0.17491484326E+02  0.51100000000E-03 0.  1.
        -12    1    3    3    0    0 -0.57098873564E+01  0.11882125170E+01  0.13072474366E+02  0.14314476891E+02  0.00000000000E+00 0.  1.
</event>
<event>
 7    1  0.6830263E-012  0.5930194E+02  0.7816164E-02  0.1266605E+00
        -11   -1    0    0    0    0  0.00000000000E+00  0.00000000000E+00  0.45593999997E+02  0.45594000000E+02  0.51100000000E-03 0.  1.
         11   -1    0    0    0    0 -0.00000000000E+00 -0.00000000000E+00 -0.45593999997E+02  0.45594000000E+02  0.51100000000E-03 0. -1.
    9900012    2    1    2    0    0  0.18391569310E+02 -0.10820494494E+02 -0.23693622753E+02  0.59301942202E+02  0.49999996669E+02 0.  0.
        -12    1    1    2    0    0 -0.18391569310E+02  0.10820494494E+02  0.23693622753E+02  0.31886057798E+02  0.00000000000E+00 0.  1.
         11    1    3    3    0    0  0.81438438113E+01  0.59244548809E+01 -0.26086656979E+02  0.27963101227E+02  0.51100000000E-03 0. -1.
        -11    1    3    3    0    0 -0.14941240982E+01 -0.26646225594E+01 -0.91685080596E+01  0.96640654232E+01  0.51100000000E-03 0.  1.
        -12    1    3    3    0    0  0.11741849597E+02 -0.14080326815E+02  0.11561542285E+02  0.21674775551E+02  0.00000000000E+00 0.  1.
</event>
<event>
 7    1  0.6830263E-012  0.5930195E+02  0.7816164E-02  0.1266605E+00
        -11   -1    0    0    0    0  0.00000000000E+00  0.00000000000E+00  0.45593999997E+02  0.45594000000E+02  0.51100000000E-03 0.  1.
         11   -1    0    0    0    0 -0.00000000000E+00 -0.00000000000E+00 -0.45593999997E+02  0.45594000000E+02  0.51100000000E-03 0. -1.
    9900012    2    1    2    0    0  0.21467223187E+02 -0.23574663523E+02 -0.33759211814E+00  0.59301946622E+02  0.50000004731E+02 0.  0.
        -12    1    1    2    0    0 -0.21467223187E+02  0.23574663523E+02  0.33759211814E+00  0.31886053378E+02  0.00000000000E+00 0.  1.
         11    1    3    3    0    0  0.13099525518E+02 -0.14818226673E+02 -0.16570396461E+02  0.25802237300E+02  0.51100000000E-03 0. -1.
        -11    1    3    3    0    0  0.10077168276E+01 -0.91314110860E+01 -0.53929237065E+01  0.10652783110E+02  0.51100000000E-03 0.  1.
        -12    1    3    3    0    0  0.73599808418E+01  0.37497423587E+00  0.21625728049E+02  0.22846926212E+02  0.00000000000E+00 0.  1.
</event>
<event>
 7    1  0.6830263E-012  0.5930196E+02  0.7816164E-02  0.1266605E+00
        -11   -1    0    0    0    0  0.00000000000E+00  0.00000000000E+00  0.45593999997E+02  0.45594000000E+02  0.51100000000E-03 0.  1.
         11   -1    0    0    0    0 -0.00000000000E+00 -0.00000000000E+00 -0.45593999997E+02  0.45594000000E+02  0.51100000000E-03 0. -1.
    9900012    2    1    2    0    0 -0.11784248242E+02  0.27194082255E+02 -0.11761488635E+02  0.59301964950E+02  0.50000038156E+02 0.  0.
        -12    1    1    2    0    0  0.11784248242E+02 -0.27194082255E+02  0.11761488635E+02  0.31886035050E+02  0.00000000000E+00 0.  1.
         11    1    3    3    0    0 -0.44446638337E+01  0.12658077493E+02 -0.15195831924E+02  0.20270551807E+02  0.51100000000E-03 0. -1.
        -11    1    3    3    0    0 -0.88061824945E+01  0.24716031372E+02  0.84813519454E+01  0.27574705583E+02  0.51100000000E-03 0.  1.
         12    1    3    3    0    0  0.14665980864E+01 -0.10180026610E+02 -0.50470086562E+01  0.11456707560E+02  0.00000000000E+00 0. -1.
</event>
<event>
 7    1  0.6830263E-012  0.5930195E+02  0.7816164E-02  0.1266605E+00
        -11   -1    0    0    0    0  0.00000000000E+00  0.00000000000E+00  0.45593999997E+02  0.45594000000E+02  0.51100000000E-03 0. -1.
         11   -1    0    0    0    0 -0.00000000000E+00 -0.00000000000E+00 -0.45593999997E+02  0.45594000000E+02  0.51100000000E-03 0.  1.
    9900012    2    1    2    0    0 -0.61653349794E+01 -0.18612495928E+02  0.25145257486E+02  0.59301947655E+02  0.50000006615E+02 0.  0.
        -12    1    1    2    0    0  0.61653349794E+01  0.18612495928E+02 -0.25145257486E+02  0.31886052345E+02  0.00000000000E+00 0.  1.
         11    1    3    3    0    0 -0.20297807916E+01 -0.13388448341E+02  0.43007453098E+01  0.14207989637E+02  0.51100000000E-03 0. -1.
        -11    1    3    3    0    0  0.15843673056E+02  0.38865281875E+01  0.25465533370E+01  0.16510966399E+02  0.51100000000E-03 0.  1.
         12    1    3    3    0    0 -0.19979227244E+02 -0.91105757747E+01  0.18297958840E+02  0.28582991619E+02  0.00000000000E+00 0. -1.
</event>
<event>
 7    1  0.6830263E-012  0.5930193E+02  0.7816164E-02  0.1266605E+00
        -11   -1    0    0    0    0  0.00000000000E+00  0.00000000000E+00  0.45593999997E+02  0.45594000000E+02  0.51100000000E-03 0. -1.
         11   -1    0    0    0    0 -0.00000000000E+00 -0.00000000000E+00 -0.45593999997E+02  0.45594000000E+02  0.51100000000E-03 0.  1.
    9900012    2    1    2    0    0 -0.14638883851E+02  0.27816316363E+02 -0.53550695270E+01  0.59301934923E+02  0.49999983396E+02 0.  0.
        -12    1    1    2    0    0  0.14638883851E+02 -0.27816316363E+02  0.53550695270E+01  0.31886065077E+02  0.00000000000E+00 0.  1.
         11    1    3    3    0    0 -0.10211561789E+02  0.19800632138E+02  0.88497528871E+01  0.23972049425E+02  0.51100000000E-03 0.  1.
        -11    1    3    3    0    0  0.74631889564E+01  0.16251817084E+02 -0.79571373767E+01  0.19573880132E+02  0.51100000000E-03 0. -1.
        -12    1    3    3    0    0 -0.11890511019E+02 -0.82361328590E+01 -0.62476850373E+01  0.15756005366E+02  0.00000000000E+00 0.  1.
</event>
<event>
 7    1  0.6830263E-012  0.5930195E+02  0.7816164E-02  0.1266605E+00
        -11   -1    0    0    0    0  0.00000000000E+00  0.00000000000E+00  0.45593999997E+02  0.45594000000E+02  0.51100000000E-03 0.  1.
         11   -1    0    0    0    0 -0.00000000000E+00 -0.00000000000E+00 -0.45593999997E+02  0.45594000000E+02  0.51100000000E-03 0. -1.
    9900012    2    1    2    0    0 -0.15774597286E+02 -0.98399132698E+01 -0.25904795214E+02  0.59301949323E+02  0.50000009658E+02 0.  0.
        -12    1    1    2    0    0  0.15774597286E+02  0.98399132698E+01  0.25904795214E+02  0.31886050677E+02  0.00000000000E+00 0.  1.
         11    1    3    3    0    0 -0.33677898000E+01  0.13955113703E+01 -0.12750558024E+02  0.13261455060E+02  0.51100000000E-03 0. -1.
        -11    1    3    3    0    0 -0.14454647889E+02  0.13197590447E+02 -0.50057044525E+01  0.20203225399E+02  0.51100000000E-03 0.  1.
        -12    1    3    3    0    0  0.20478404029E+01 -0.24433015088E+02 -0.81485327368E+01  0.25837268864E+02  0.00000000000E+00 0.  1.
</event>
<event>
 7    1  0.6830263E-012  0.5930195E+02  0.7816164E-02  0.1266605E+00
        -11   -1    0    0    0    0  0.00000000000E+00  0.00000000000E+00  0.45593999997E+02  0.45594000000E+02  0.51100000000E-03 0. -1.
         11   -1    0    0    0    0 -0.00000000000E+00 -0.00000000000E+00 -0.45593999997E+02  0.45594000000E+02  0.51100000000E-03 0.  1.
    9900012    2    1    2    0    0 -0.14825103202E+02  0.28166309832E+02  0.18962034444E+01  0.59301948472E+02  0.50000008106E+02 0.  0.
        -12    1    1    2    0    0  0.14825103202E+02 -0.28166309832E+02 -0.18962034444E+01  0.31886051528E+02  0.00000000000E+00 0.  1.
         11    1    3    3    0    0  0.19162319185E+01  0.98895490972E+01  0.11365577371E+02  0.15187214206E+02  0.51100000000E-03 0. -1.
        -11    1    3    3    0    0  0.39057089335E+01 -0.54160711200E+01  0.60985087219E+01  0.90432404337E+01  0.51100000000E-03 0.  1.
         12    1    3    3    0    0 -0.20647044054E+02  0.23692831855E+02 -0.15567882649E+02  0.35071493832E+02  0.00000000000E+00 0. -1.
</event>
<event>
 7    1  0.6830263E-012  0.5930194E+02  0.7816164E-02  0.1266605E+00
        -11   -1    0    0    0    0  0.00000000000E+00  0.00000000000E+00  0.45593999997E+02  0.45594000000E+02  0.51100000000E-03 0.  1.
         11   -1    0    0    0    0 -0.00000000000E+00 -0.00000000000E+00 -0.45593999997E+02  0.45594000000E+02  0.51100000000E-03 0. -1.
    9900012    2    1    2    0    0 -0.22879441775E+02  0.71548544353E+01  0.21025222397E+02  0.59301940746E+02  0.49999994015E+02 0.  0.
        -12    1    1    2    0    0  0.22879441775E+02 -0.71548544353E+01 -0.21025222397E+02  0.31886059254E+02  0.00000000000E+00 0.  1.
         11    1    3    3    0    0 -0.28295151597E+01 -0.17609120076E+02  0.15171057463E+01  0.17899409934E+02  0.51100000000E-03 0. -1.
        -11    1    3    3    0    0 -0.10016379994E+02  0.47960597585E+01  0.14903346629E+02  0.18586010825E+02  0.51100000000E-03 0.  1.
        -12    1    3    3    0    0 -0.10033546622E+02  0.19967914752E+02  0.46047700220E+01  0.22816519987E+02  0.00000000000E+00 0.  1.
</event>
<event>
 7    1  0.6830263E-012  0.5930195E+02  0.7816164E-02  0.1266605E+00
        -11   -1    0    0    0    0  0.00000000000E+00  0.00000000000E+00  0.45593999997E+02  0.45594000000E+02  0.51100000000E-03 0.  1.
         11   -1    0    0    0    0 -0.00000000000E+00 -0.00000000000E+00 -0.45593999997E+02  0.45594000000E+02  0.51100000000E-03 0. -1.
    9900012    2    1    2    0    0  0.25766350550E+02  0.11932693487E+02 -0.14506077629E+02  0.59301948462E+02  0.50000008087E+02 0.  0.
        -12    1    1    2    0    0 -0.25766350550E+02 -0.11932693487E+02  0.14506077629E+02  0.31886051538E+02  0.00000000000E+00 0.  1.
         11    1    3    3    0    0  0.10163904638E+02  0.52770028037E+01  0.84415277961E+01  0.14227125777E+02  0.51100000000E-03 0. -1.
        -11    1    3    3    0    0  0.32264274012E+01 -0.12030737253E+02 -0.18376838741E+02  0.22200375560E+02  0.51100000000E-03 0.  1.
         12    1    3    3    0    0  0.12376018511E+02  0.18686427936E+02 -0.45707666841E+01  0.22874447125E+02  0.00000000000E+00 0. -1.
</event>
<event>
 7    1  0.6830263E-012  0.5930211E+02  0.7816164E-02  0.1266604E+00
        -11   -1    0    0    0    0  0.00000000000E+00  0.00000000000E+00  0.45593999997E+02  0.45594000000E+02  0.51100000000E-03 0.  1.
         11   -1    0    0    0    0 -0.00000000000E+00 -0.00000000000E+00 -0.45593999997E+02  0.45594000000E+02  0.51100000000E-03 0. -1.
    9900012    2    1    2    0    0  0.21433245936E+02 -0.17860618973E+01 -0.23540090784E+02  0.59302110917E+02  0.50000304366E+02 0.  0.
        -12    1    1    2    0    0 -0.21433245936E+02  0.17860618973E+01  0.23540090784E+02  0.31885889083E+02  0.00000000000E+00 0.  1.
         11    1    3    3    0    0  0.98763824009E+01 -0.49672296351E+00 -0.16076313974E+02  0.18874255860E+02  0.51100000000E-03 0. -1.
        -11    1    3    3    0    0  0.17939523397E+02  0.13869341399E+02 -0.82408038901E+00  0.22690620073E+02  0.51100000000E-03 0.  1.
        -12    1    3    3    0    0 -0.63826598612E+01 -0.15158680332E+02 -0.66396964211E+01  0.17737234984E+02  0.00000000000E+00 0.  1.
</event>
<event>
 7    1  0.6830263E-012  0.5930194E+02  0.7816164E-02  0.1266605E+00
        -11   -1    0    0    0    0  0.00000000000E+00  0.00000000000E+00  0.45593999997E+02  0.45594000000E+02  0.51100000000E-03 0. -1.
         11   -1    0    0    0    0 -0.00000000000E+00 -0.00000000000E+00 -0.45593999997E+02  0.45594000000E+02  0.51100000000E-03 0.  1.
    9900012    2    1    2    0    0 -0.17275025476E+02 -0.19709405660E+02  0.18161314061E+02  0.59301944974E+02  0.50000001727E+02 0.  0.
        -12    1    1    2    0    0  0.17275025476E+02  0.19709405660E+02 -0.18161314061E+02  0.31886055026E+02  0.00000000000E+00 0.  1.
         11    1    3    3    0    0 -0.62170631569E+01 -0.20596732967E+01  0.16250566242E+01  0.67479580377E+01  0.51100000000E-03 0. -1.
        -11    1    3    3    0    0 -0.25594252607E+02 -0.23066820046E+00  0.21406456470E+01  0.25684651805E+02  0.51100000000E-03 0.  1.
         12    1    3    3    0    0  0.14536290287E+02 -0.17419064163E+02  0.14395611790E+02  0.26869335132E+02  0.00000000000E+00 0. -1.
</event>
<event>
 7    1  0.6830263E-012  0.5930195E+02  0.7816164E-02  0.1266605E+00
        -11   -1    0    0    0    0  0.00000000000E+00  0.00000000000E+00  0.45593999997E+02  0.45594000000E+02  0.51100000000E-03 0. -1.
         11   -1    0    0    0    0 -0.00000000000E+00 -0.00000000000E+00 -0.45593999997E+02  0.45594000000E+02  0.51100000000E-03 0.  1.
    9900012    2    1    2    0    0  0.26056739731E+02  0.53849967708E+01  0.17571812655E+02  0.59301945437E+02  0.50000002570E+02 0.  0.
        -12    1    1    2    0    0 -0.26056739731E+02 -0.53849967708E+01 -0.17571812655E+02  0.31886054563E+02  0.00000000000E+00 0.  1.
         11    1    3    3    0    0 -0.55549425439E+01  0.12476860112E+02  0.29033910080E+01  0.13962775675E+02  0.51100000000E-03 0. -1.
        -11    1    3    3    0    0  0.29184641129E+01  0.91310328632E+01  0.58037967287E+01  0.11206125586E+02  0.51100000000E-03 0.  1.
        -12    1    3    3    0    0  0.28693218162E+02 -0.16222896205E+02  0.88646249180E+01  0.34133044176E+02  0.00000000000E+00 0.  1.
</event>
<event>
 7    1  0.6830263E-012  0.5930195E+02  0.7816164E-02  0.1266605E+00
        -11   -1    0    0    0    0  0.00000000000E+00  0.00000000000E+00  0.45593999997E+02  0.45594000000E+02  0.51100000000E-03 0.  1.
         11   -1    0    0    0    0 -0.00000000000E+00 -0.00000000000E+00 -0.45593999997E+02  0.45594000000E+02  0.51100000000E-03 0. -1.
    9900012    2    1    2    0    0  0.18356321489E+01 -0.72280367201E+01 -0.31001709560E+02  0.59301952019E+02  0.50000014574E+02 0.  0.
        -12    1    1    2    0    0 -0.18356321489E+01  0.72280367201E+01  0.31001709560E+02  0.31886047981E+02  0.00000000000E+00 0.  1.
         11    1    3    3    0    0  0.55056448009E+01 -0.47112381076E+01 -0.16105643487E+02  0.17660680665E+02  0.51100000000E-03 0. -1.
        -11    1    3    3    0    0  0.42376761641E+01  0.72578296120E+00 -0.26713414868E+02  0.27057183785E+02  0.51100000000E-03 0.  1.
        -12    1    3    3    0    0 -0.79076888161E+01 -0.32425815736E+01  0.11817348795E+02  0.14584087569E+02  0.00000000000E+00 0.  1.
</event>
<event>
 7    1  0.6830263E-012  0.5930200E+02  0.7816164E-02  0.1266605E+00
        -11   -1    0    0    0    0  0.00000000000E+00  0.00000000000E+00  0.45593999997E+02  0.45594000000E+02  0.51100000000E-03 0.  1.
         11   -1    0    0    0    0 -0.00000000000E+00 -0.00000000000E+00 -0.45593999997E+02  0.45594000000E+02  0.51100000000E-03 0. -1.
    9900012    2    1    2    0    0  0.28398536658E+01 -0.48884605830E+01 -0.31380811863E+02  0.59301997289E+02  0.50000097136E+02 0.  0.
        -12    1    1    2    0    0 -0.28398536658E+01  0.48884605830E+01  0.31380811863E+02  0.31886002711E+02  0.00000000000E+00 0.  1.
         11    1    3    3    0    0 -0.21807268621E+01 -0.23061028015E+02 -0.60100512399E+01  0.23930885879E+02  0.51100000000E-03 0. -1.
        -11    1    3    3    0    0  0.15190279836E+01 -0.75052913165E+00  0.15384931814E+01  0.22886025261E+01  0.51100000000E-03 0.  1.
         12    1    3    3    0    0  0.35015525442E+01  0.18923096564E+02 -0.26909253804E+02  0.33082508884E+02  0.00000000000E+00 0. -1.
</event>
<event>
 7    1  0.6830263E-012  0.5930204E+02  0.7816164E-02  0.1266604E+00
        -11   -1    0    0    0    0  0.00000000000E+00  0.00000000000E+00  0.45593999997E+02  0.45594000000E+02  0.51100000000E-03 0.  1.
         11   -1    0    0    0    0 -0.00000000000E+00 -0.00000000000E+00 -0.45593999997E+02  0.45594000000E+02  0.51100000000E-03 0. -1.
    9900012    2    1    2    0    0  0.13323725733E+02  0.13214476425E+01 -0.28938669625E+02  0.59302039282E+02  0.50000173720E+02 0.  0.
        -12    1    1    2    0    0 -0.13323725733E+02 -0.13214476425E+01  0.28938669625E+02  0.31885960718E+02  0.00000000000E+00 0.  1.
         11    1    3    3    0    0  0.67340391624E+01 -0.20278820532E+02 -0.83328111913E+01  0.22934986118E+02  0.51100000000E-03 0.  1.
        -11    1    3    3    0    0  0.99787199665E+00 -0.11350887453E+01 -0.10929243990E+02  0.11033247456E+02  0.51100000000E-03 0. -1.
        -12    1    3    3    0    0  0.55918145736E+01  0.22735356920E+02 -0.96766144438E+01  0.25333805707E+02  0.00000000000E+00 0.  1.
</event>
<event>
 7    1  0.6830263E-012  0.5930194E+02  0.7816164E-02  0.1266605E+00
        -11   -1    0    0    0    0  0.00000000000E+00  0.00000000000E+00  0.45593999997E+02  0.45594000000E+02  0.51100000000E-03 0.  1.
         11   -1    0    0    0    0 -0.00000000000E+00 -0.00000000000E+00 -0.45593999997E+02  0.45594000000E+02  0.51100000000E-03 0. -1.
    9900012    2    1    2    0    0 -0.18028326104E+02 -0.20789494667E+02 -0.16108914829E+02  0.59301940858E+02  0.49999994219E+02 0.  0.
        -12    1    1    2    0    0  0.18028326104E+02  0.20789494667E+02  0.16108914829E+02  0.31886059142E+02  0.00000000000E+00 0.  1.
         11    1    3    3    0    0 -0.43515678639E+01 -0.45867634016E+00  0.12287530229E+01  0.45449269644E+01  0.51100000000E-03 0. -1.
        -11    1    3    3    0    0 -0.15462000390E+01  0.73743470503E+01  0.10985521225E+02  0.13321163832E+02  0.51100000000E-03 0.  1.
         12    1    3    3    0    0 -0.12130558201E+02 -0.27705165377E+02 -0.28323189077E+02  0.41435850062E+02  0.00000000000E+00 0. -1.
</event>
<event>
 7    1  0.6830263E-012  0.5930195E+02  0.7816164E-02  0.1266605E+00
        -11   -1    0    0    0    0  0.00000000000E+00  0.00000000000E+00  0.45593999997E+02  0.45594000000E+02  0.51100000000E-03 0.  1.
         11   -1    0    0    0    0 -0.00000000000E+00 -0.00000000000E+00 -0.45593999997E+02  0.45594000000E+02  0.51100000000E-03 0. -1.
    9900012    2    1    2    0    0  0.24036520422E+02 -0.68248493740E+01 -0.19808773403E+02  0.59301946831E+02  0.50000005112E+02 0.  0.
        -12    1    1    2    0    0 -0.24036520422E+02  0.68248493740E+01  0.19808773403E+02  0.31886053169E+02  0.00000000000E+00 0.  1.
         11    1    3    3    0    0  0.12121311588E+02 -0.60288654449E+01 -0.72099103987E+01  0.15338064460E+02  0.51100000000E-03 0. -1.
        -11    1    3    3    0    0  0.26941654954E+02  0.23423080192E+00 -0.96326810960E+01  0.28612867404E+02  0.51100000000E-03 0.  1.
         12    1    3    3    0    0 -0.15026446120E+02 -0.10302147310E+01 -0.29661819085E+01  0.15351014966E+02  0.00000000000E+00 0. -1.
</event>
<event>
 7    1  0.6830263E-012  0.5930194E+02  0.7816164E-02  0.1266605E+00
        -11   -1    0    0    0    0  0.00000000000E+00  0.00000000000E+00  0.45593999997E+02  0.45594000000E+02  0.51100000000E-03 0. -1.
         11   -1    0    0    0    0 -0.00000000000E+00 -0.00000000000E+00 -0.45593999997E+02  0.45594000000E+02  0.51100000000E-03 0.  1.
    9900012    2    1    2    0    0 -0.18857592611E+02  0.10807872499E+02  0.23330278437E+02  0.59301940366E+02  0.49999993321E+02 0.  0.
        -12    1    1    2    0    0  0.18857592611E+02 -0.10807872499E+02 -0.23330278437E+02  0.31886059634E+02  0.00000000000E+00 0.  1.
         11    1    3    3    0    0  0.18820274491E+01  0.49493801060E+01 -0.25231958768E+01  0.58655697461E+01  0.51100000000E-03 0. -1.
        -11    1    3    3    0    0  0.72596653010E+00 -0.17397497188E+01 -0.10430291348E+02  0.10599279898E+02  0.51100000000E-03 0.  1.
         12    1    3    3    0    0 -0.21465586590E+02  0.75982421121E+01  0.36283765662E+02  0.42837090722E+02  0.00000000000E+00 0. -1.
</event>
<event>
 7    1  0.6830263E-012  0.5930192E+02  0.7816164E-02  0.1266605E+00
        -11   -1    0    0    0    0  0.00000000000E+00  0.00000000000E+00  0.45593999997E+02  0.45594000000E+02  0.51100000000E-03 0.  1.
         11   -1    0    0    0    0 -0.00000000000E+00 -0.00000000000E+00 -0.45593999997E+02  0.45594000000E+02  0.51100000000E-03 0. -1.
    9900012    2    1    2    0    0 -0.29762515770E+02 -0.11085792371E+02  0.28319482289E+01  0.59301920463E+02  0.49999957024E+02 0.  0.
        -12    1    1    2    0    0  0.29762515770E+02  0.11085792371E+02 -0.28319482289E+01  0.31886079537E+02  0.00000000000E+00 0.  1.
         11    1    3    3    0    0 -0.10478255600E+02  0.12873264846E+02 -0.10399968833E+02  0.19587601696E+02  0.51100000000E-03 0. -1.
        -11    1    3    3    0    0 -0.23290951780E+01  0.29523725200E+01 -0.22046784358E+01  0.43591048522E+01  0.51100000000E-03 0.  1.
        -12    1    3    3    0    0 -0.16955164992E+02 -0.26911429737E+02  0.15436595498E+02  0.35355213915E+02  0.00000000000E+00 0.  1.
</event>
<event>
 7    1  0.6830263E-012  0.5930194E+02  0.7816164E-02  0.1266605E+00
        -11   -1    0    0    0    0  0.00000000000E+00  0.00000000000E+00  0.45593999997E+02  0.45594000000E+02  0.51100000000E-03 0. -1.
         11   -1    0    0    0    0 -0.00000000000E+00 -0.00000000000E+00 -0.45593999997E+02  0.45594000000E+02  0.51100000000E-03 0.  1.
    9900012    2    1    2    0    0 -0.19466066465E+02  0.24511779077E+02 -0.60799317027E+01  0.59301943069E+02  0.49999998251E+02 0.  0.
        -12    1    1    2    0    0  0.19466066465E+02 -0.24511779077E+02  0.60799317027E+01  0.31886056931E+02  0.00000000000E+00 0.  1.
         11    1    3    3    0    0 -0.23739814320E+02  0.24016438177E+02  0.11475309393E+02  0.35665821351E+02  0.51100000000E-03 0. -1.
        -11    1    3    3    0    0 -0.37620855533E+01  0.52563969115E+01 -0.78001506666E+01  0.10130416916E+02  0.51100000000E-03 0.  1.
        -12    1    3    3    0    0  0.80358334090E+01 -0.47610560116E+01 -0.97550904294E+01  0.13505704802E+02  0.00000000000E+00 0.  1.
</event>
<event>
 7    1  0.6830263E-012  0.5930192E+02  0.7816164E-02  0.1266605E+00
        -11   -1    0    0    0    0  0.00000000000E+00  0.00000000000E+00  0.45593999997E+02  0.45594000000E+02  0.51100000000E-03 0. -1.
         11   -1    0    0    0    0 -0.00000000000E+00 -0.00000000000E+00 -0.45593999997E+02  0.45594000000E+02  0.51100000000E-03 0.  1.
    9900012    2    1    2    0    0  0.26279205750E+02 -0.17863933116E+02 -0.26467932598E+01  0.59301917209E+02  0.49999951088E+02 0.  0.
        -12    1    1    2    0    0 -0.26279205750E+02  0.17863933116E+02  0.26467932598E+01  0.31886082791E+02  0.00000000000E+00 0.  1.
         11    1    3    3    0    0  0.32011772384E+02 -0.79113091380E+01 -0.72501234705E+01  0.33762503966E+02  0.51100000000E-03 0. -1.
        -11    1    3    3    0    0  0.57478194661E+01 -0.40090989708E+01 -0.56799238005E+01  0.90206340029E+01  0.51100000000E-03 0.  1.
         12    1    3    3    0    0 -0.11480386100E+02 -0.59435250067E+01  0.10283254011E+02  0.16518779240E+02  0.00000000000E+00 0. -1.
</event>
<event>
 7    1  0.6830263E-012  0.5930195E+02  0.7816164E-02  0.1266605E+00
        -11   -1    0    0    0    0  0.00000000000E+00  0.00000000000E+00  0.45593999997E+02  0.45594000000E+02  0.51100000000E-03 0. -1.
         11   -1    0    0    0    0 -0.00000000000E+00 -0.00000000000E+00 -0.45593999997E+02  0.45594000000E+02  0.51100000000E-03 0.  1.
    9900012    2    1    2    0    0  0.23872406685E+02  0.21600469489E+01  0.21027669319E+02  0.59301945356E+02  0.50000002423E+02 0.  0.
        -12    1    1    2    0    0 -0.23872406685E+02 -0.21600469489E+01 -0.21027669319E+02  0.31886054644E+02  0.00000000000E+00 0.  1.
         11    1    3    3    0    0  0.33064756624E+02  0.33075740621E+01  0.23189286431E+02  0.40521120199E+02  0.51100000000E-03 0. -1.
        -11    1    3    3    0    0 -0.60318590179E+01 -0.84592126302E+01  0.44681147568E+00  0.10399098148E+02  0.51100000000E-03 0.  1.
        -12    1    3    3    0    0 -0.31604909206E+01  0.73116855170E+01 -0.26084285876E+01  0.83817270092E+01  0.00000000000E+00 0.  1.
</event>
<event>
 7    1  0.6830263E-012  0.5930195E+02  0.7816164E-02  0.1266605E+00
        -11   -1    0    0    0    0  0.00000000000E+00  0.00000000000E+00  0.45593999997E+02  0.45594000000E+02  0.51100000000E-03 0.  1.
         11   -1    0    0    0    0 -0.00000000000E+00 -0.00000000000E+00 -0.45593999997E+02  0.45594000000E+02  0.51100000000E-03 0. -1.
    9900012    2    1    2    0    0 -0.17646404334E+02 -0.10069062905E+02 -0.24575159388E+02  0.59301951756E+02  0.50000014094E+02 0.  0.
        -12    1    1    2    0    0  0.17646404334E+02  0.10069062905E+02  0.24575159388E+02  0.31886048244E+02  0.00000000000E+00 0.  1.
         11    1    3    3    0    0 -0.14413086857E+01 -0.80300813040E+01 -0.56229131752E+01  0.99084170943E+01  0.51100000000E-03 0. -1.
        -11    1    3    3    0    0  0.11489368424E+02 -0.57107336437E+01  0.37810947125E+01  0.13375901578E+02  0.51100000000E-03 0.  1.
         12    1    3    3    0    0 -0.27694464072E+02  0.36717520428E+01 -0.22733340925E+02  0.36017633084E+02  0.00000000000E+00 0. -1.
</event>
<event>
 7    1  0.6830263E-012  0.5930192E+02  0.7816164E-02  0.1266605E+00
        -11   -1    0    0    0    0  0.00000000000E+00  0.00000000000E+00  0.45593999997E+02  0.45594000000E+02  0.51100000000E-03 0. -1.
         11   -1    0    0    0    0 -0.00000000000E+00 -0.00000000000E+00 -0.45593999997E+02  0.45594000000E+02  0.51100000000E-03 0.  1.
    9900012    2    1    2    0    0  0.27714172247E+02 -0.78784865622E+01  0.13659284573E+02  0.59301922334E+02  0.49999960436E+02 0.  0.
        -12    1    1    2    0    0 -0.27714172247E+02  0.78784865622E+01 -0.13659284573E+02  0.31886077666E+02  0.00000000000E+00 0.  1.
         11    1    3    3    0    0  0.11272022409E+02 -0.55659056970E+01  0.17023449042E+02  0.21162126854E+02  0.51100000000E-03 0. -1.
        -11    1    3    3    0    0  0.79828702176E+01  0.13465743274E+02  0.73307725717E+01  0.17285620776E+02  0.51100000000E-03 0.  1.
         12    1    3    3    0    0  0.84592796204E+01 -0.15778324139E+02 -0.10694937040E+02  0.20854174705E+02  0.00000000000E+00 0. -1.
</event>
<event>
 7    1  0.6830263E-012  0.5930194E+02  0.7816164E-02  0.1266605E+00
        -11   -1    0    0    0    0  0.00000000000E+00  0.00000000000E+00  0.45593999997E+02  0.45594000000E+02  0.51100000000E-03 0.  1.
         11   -1    0    0    0    0 -0.00000000000E+00 -0.00000000000E+00 -0.45593999997E+02  0.45594000000E+02  0.51100000000E-03 0. -1.
    9900012    2    1    2    0    0  0.26405975126E+02  0.17836282584E+02  0.11456293599E+01  0.59301937756E+02  0.49999988563E+02 0.  0.
        -12    1    1    2    0    0 -0.26405975126E+02 -0.17836282584E+02 -0.11456293599E+01  0.31886062244E+02  0.00000000000E+00 0.  1.
         11    1    3    3    0    0  0.24264067668E+02  0.20959246362E+00 -0.26040630135E+01  0.24404303990E+02  0.51100000000E-03 0. -1.
        -11    1    3    3    0    0  0.16706114444E+01  0.34293070127E+01  0.15809760026E+02  0.16263443716E+02  0.51100000000E-03 0.  1.
        -12    1    3    3    0    0  0.47129601333E+00  0.14197383108E+02 -0.12060067652E+02  0.18634190050E+02  0.00000000000E+00 0.  1.
</event>
<event>
 7    1  0.6830263E-012  0.5930194E+02  0.7816164E-02  0.1266605E+00
        -11   -1    0    0    0    0  0.00000000000E+00  0.00000000000E+00  0.45593999997E+02  0.45594000000E+02  0.51100000000E-03 0.  1.
         11   -1    0    0    0    0 -0.00000000000E+00 -0.00000000000E+00 -0.45593999997E+02  0.45594000000E+02  0.51100000000E-03 0. -1.
    9900012    2    1    2    0    0 -0.10907110332E+02  0.11859933126E+02 -0.27515413401E+02  0.59301936522E+02  0.49999986311E+02 0.  0.
        -12    1    1    2    0    0  0.10907110332E+02 -0.11859933126E+02  0.27515413401E+02  0.31886063478E+02  0.00000000000E+00 0.  1.
         11    1    3    3    0    0 -0.64239261569E+00  0.38294089332E+01 -0.31295620758E+02  0.31535581807E+02  0.51100000000E-03 0. -1.
        -11    1    3    3    0    0 -0.22224667271E+01  0.63122019892E+01 -0.98138548634E+01  0.11878341629E+02  0.51100000000E-03 0.  1.
        -12    1    3    3    0    0 -0.80422509891E+01  0.17183222034E+01  0.13594062220E+02  0.15888013086E+02  0.00000000000E+00 0.  1.
</event>
<event>
 7    1  0.6830263E-012  0.5930197E+02  0.7816164E-02  0.1266605E+00
        -11   -1    0    0    0    0  0.00000000000E+00  0.00000000000E+00  0.45593999997E+02  0.45594000000E+02  0.51100000000E-03 0. -1.
         11   -1    0    0    0    0 -0.00000000000E+00 -0.00000000000E+00 -0.45593999997E+02  0.45594000000E+02  0.51100000000E-03 0.  1.
    9900012    2    1    2    0    0  0.15053499639E+02 -0.17468947357E+02  0.22021517658E+02  0.59301965234E+02  0.50000038675E+02 0.  0.
        -12    1    1    2    0    0 -0.15053499639E+02  0.17468947357E+02 -0.22021517658E+02  0.31886034766E+02  0.00000000000E+00 0.  1.
         11    1    3    3    0    0  0.15390516958E+02 -0.12489508543E+02  0.28424095409E+01  0.20023364556E+02  0.51100000000E-03 0. -1.
        -11    1    3    3    0    0  0.11036415864E+02  0.94740098292E+01  0.31503826728E+01  0.14882346879E+02  0.51100000000E-03 0.  1.
         12    1    3    3    0    0 -0.11373433183E+02 -0.14453448643E+02  0.16028725444E+02  0.24396253799E+02  0.00000000000E+00 0. -1.
</event>
<event>
 7    1  0.6830263E-012  0.5930198E+02  0.7816164E-02  0.1266605E+00
        -11   -1    0    0    0    0  0.00000000000E+00  0.00000000000E+00  0.45593999997E+02  0.45594000000E+02  0.51100000000E-03 0. -1.
         11   -1    0    0    0    0 -0.00000000000E+00 -0.00000000000E+00 -0.45593999997E+02  0.45594000000E+02  0.51100000000E-03 0.  1.
    9900012    2    1    2    0    0 -0.24483287389E+02  0.17197620571E+02  0.11024019773E+02  0.59301975998E+02  0.50000058307E+02 0.  0.
        -12    1    1    2    0    0  0.24483287389E+02 -0.17197620571E+02 -0.11024019773E+02  0.31886024002E+02  0.00000000000E+00 0.  1.
         11    1    3    3    0    0  0.87531836649E+01  0.12209316086E+02 -0.32106548137E+01  0.15362093873E+02  0.51100000000E-03 0.  1.
        -11    1    3    3    0    0  0.33886067376E+01  0.35506383539E+01  0.19761887363E+01  0.52910311400E+01  0.51100000000E-03 0. -1.
        -12    1    3    3    0    0 -0.36625077791E+02  0.14376661307E+01  0.12258485851E+02  0.38648850985E+02  0.00000000000E+00 0.  1.
</event>
<event>
 7    1  0.6830263E-012  0.5930194E+02  0.7816164E-02  0.1266605E+00
        -11   -1    0    0    0    0  0.00000000000E+00  0.00000000000E+00  0.45593999997E+02  0.45594000000E+02  0.51100000000E-03 0.  1.
         11   -1    0    0    0    0 -0.00000000000E+00 -0.00000000000E+00 -0.45593999997E+02  0.45594000000E+02  0.51100000000E-03 0. -1.
    9900012    2    1    2    0    0  0.15267828230E+02  0.11293690706E+02 -0.25613804069E+02  0.59301937410E+02  0.49999987931E+02 0.  0.
        -12    1    1    2    0    0 -0.15267828230E+02 -0.11293690706E+02  0.25613804069E+02  0.31886062590E+02  0.00000000000E+00 0.  1.
         11    1    3    3    0    0  0.21648975380E+02 -0.19972356621E+01 -0.14206885979E+02  0.25971189707E+02  0.51100000000E-03 0. -1.
        -11    1    3    3    0    0  0.10885337680E+02  0.67961200208E+01 -0.38771249480E+01  0.13405592933E+02  0.51100000000E-03 0.  1.
        -12    1    3    3    0    0 -0.17266484830E+02  0.64948063474E+01 -0.75297931420E+01  0.19925154771E+02  0.00000000000E+00 0.  1.
</event>
<event>
 7    1  0.6830263E-012  0.5930194E+02  0.7816164E-02  0.1266605E+00
        -11   -1    0    0    0    0  0.00000000000E+00  0.00000000000E+00  0.45593999997E+02  0.45594000000E+02  0.51100000000E-03 0.  1.
         11   -1    0    0    0    0 -0.00000000000E+00 -0.00000000000E+00 -0.45593999997E+02  0.45594000000E+02  0.51100000000E-03 0. -1.
    9900012    2    1    2    0    0  0.76540747592E+01  0.29181550451E+02 -0.10323421556E+02  0.59301940668E+02  0.49999993872E+02 0.  0.
        -12    1    1    2    0    0 -0.76540747592E+01 -0.29181550451E+02  0.10323421556E+02  0.31886059332E+02  0.00000000000E+00 0.  1.
         11    1    3    3    0    0 -0.73132696590E+01  0.12604124207E+02  0.39654975367E+01  0.15102086979E+02  0.51100000000E-03 0. -1.
        -11    1    3    3    0    0 -0.84244830010E+01  0.52819588023E+01  0.56653780903E+01  0.11444103800E+02  0.51100000000E-03 0.  1.
         12    1    3    3    0    0  0.23391827419E+02  0.11295467441E+02 -0.19954297183E+02  0.32755749889E+02  0.00000000000E+00 0. -1.
</event>
<event>
 7    1  0.6830263E-012  0.5930186E+02  0.7816164E-02  0.1266605E+00
        -11   -1    0    0    0    0  0.00000000000E+00  0.00000000000E+00  0.45593999997E+02  0.45594000000E+02  0.51100000000E-03 0.  1.
         11   -1    0    0    0    0 -0.00000000000E+00 -0.00000000000E+00 -0.45593999997E+02  0.45594000000E+02  0.51100000000E-03 0. -1.
    9900012    2    1    2    0    0 -0.21049962158E+02  0.13807866001E+02 -0.19569557522E+02  0.59301864267E+02  0.49999854536E+02 0.  0.
        -12    1    1    2    0    0  0.21049962158E+02 -0.13807866001E+02  0.19569557522E+02  0.31886135733E+02  0.00000000000E+00 0.  1.
         11    1    3    3    0    0 -0.28090249570E+02  0.50585897608E+01 -0.31401497843E+01  0.28714316851E+02  0.51100000000E-03 0. -1.
        -11    1    3    3    0    0 -0.22014572687E+01  0.10636467021E+02  0.85645333290E+00  0.10895611840E+02  0.51100000000E-03 0.  1.
        -12    1    3    3    0    0  0.92417446810E+01 -0.18871907808E+01 -0.17285861071E+02  0.19691935576E+02  0.00000000000E+00 0.  1.
</event>
<event>
 7    1  0.6830263E-012  0.5930201E+02  0.7816164E-02  0.1266605E+00
        -11   -1    0    0    0    0  0.00000000000E+00  0.00000000000E+00  0.45593999997E+02  0.45594000000E+02  0.51100000000E-03 0. -1.
         11   -1    0    0    0    0 -0.00000000000E+00 -0.00000000000E+00 -0.45593999997E+02  0.45594000000E+02  0.51100000000E-03 0.  1.
    9900012    2    1    2    0    0  0.16983856223E+02 -0.16463408854E+02  0.21382736363E+02  0.59302005933E+02  0.50000112900E+02 0.  0.
        -12    1    1    2    0    0 -0.16983856223E+02  0.16463408854E+02 -0.21382736363E+02  0.31885994067E+02  0.00000000000E+00 0.  1.
         11    1    3    3    0    0 -0.90031905024E+01 -0.16393690488E+02  0.16103780668E+01  0.18772422455E+02  0.51100000000E-03 0. -1.
        -11    1    3    3    0    0  0.43630396366E-01  0.51757355808E+01  0.11802133844E+02  0.12887222585E+02  0.51100000000E-03 0.  1.
         12    1    3    3    0    0  0.25943416329E+02 -0.52454539467E+01  0.79702244519E+01  0.27642360893E+02  0.00000000000E+00 0. -1.
</event>
<event>
 7    1  0.6830263E-012  0.5930187E+02  0.7816164E-02  0.1266605E+00
        -11   -1    0    0    0    0  0.00000000000E+00  0.00000000000E+00  0.45593999997E+02  0.45594000000E+02  0.51100000000E-03 0.  1.
         11   -1    0    0    0    0 -0.00000000000E+00 -0.00000000000E+00 -0.45593999997E+02  0.45594000000E+02  0.51100000000E-03 0. -1.
    9900012    2    1    2    0    0  0.16419994183E+02 -0.24025981206E+02 -0.13033082554E+02  0.59301870998E+02  0.49999866811E+02 0.  0.
        -12    1    1    2    0    0 -0.16419994183E+02  0.24025981206E+02  0.13033082554E+02  0.31886129002E+02  0.00000000000E+00 0.  1.
         11    1    3    3    0    0  0.59209082368E+01 -0.11292943510E+02 -0.66487684198E+01  0.14380328550E+02  0.51100000000E-03 0. -1.
        -11    1    3    3    0    0  0.34035351227E+01 -0.15055472113E+02  0.15454105800E+02  0.21842176591E+02  0.51100000000E-03 0.  1.
        -12    1    3    3    0    0  0.70955508235E+01  0.23224344173E+01 -0.21838419934E+02  0.23079365857E+02  0.00000000000E+00 0.  1.
</event>
<event>
 7    1  0.6830263E-012  0.5930192E+02  0.7816164E-02  0.1266605E+00
        -11   -1    0    0    0    0  0.00000000000E+00  0.00000000000E+00  0.45593999997E+02  0.45594000000E+02  0.51100000000E-03 0.  1.
         11   -1    0    0    0    0 -0.00000000000E+00 -0.00000000000E+00 -0.45593999997E+02  0.45594000000E+02  0.51100000000E-03 0. -1.
    9900012    2    1    2    0    0  0.26059138596E+01 -0.31673499682E+02  0.25924074911E+01  0.59301922384E+02  0.49999960527E+02 0.  0.
        -12    1    1    2    0    0 -0.26059138596E+01  0.31673499682E+02 -0.25924074911E+01  0.31886077616E+02  0.00000000000E+00 0.  1.
         11    1    3    3    0    0 -0.71038000309E+01 -0.15701872474E+02 -0.20171817640E+01  0.17351708752E+02  0.51100000000E-03 0. -1.
        -11    1    3    3    0    0 -0.11706818631E+02 -0.15844048656E+02 -0.12705128847E+01  0.19740761980E+02  0.51100000000E-03 0.  1.
        -12    1    3    3    0    0  0.21416532522E+02 -0.12757855083E+00  0.58801021397E+01  0.22209451653E+02  0.00000000000E+00 0.  1.
</event>
<event>
 7    1  0.6830263E-012  0.5930186E+02  0.7816164E-02  0.1266605E+00
        -11   -1    0    0    0    0  0.00000000000E+00  0.00000000000E+00  0.45593999997E+02  0.45594000000E+02  0.51100000000E-03 0.  1.
         11   -1    0    0    0    0 -0.00000000000E+00 -0.00000000000E+00 -0.45593999997E+02  0.45594000000E+02  0.51100000000E-03 0. -1.
    9900012    2    1    2    0    0 -0.16730831715E+02 -0.99489719274E+01  0.25255158324E+02  0.59301862036E+02  0.49999850467E+02 0.  0.
        -12    1    1    2    0    0  0.16730831715E+02  0.99489719274E+01 -0.25255158324E+02  0.31886137964E+02  0.00000000000E+00 0.  1.
         11    1    3    3    0    0  0.92937328398E+01 -0.37030876666E+01 -0.24596074914E+01  0.10302232653E+02  0.51100000000E-03 0. -1.
        -11    1    3    3    0    0  0.37260776297E+01 -0.77350848924E+01  0.13487866527E+02  0.15988675258E+02  0.51100000000E-03 0.  1.
         12    1    3    3    0    0 -0.29750642184E+02  0.14892006316E+01  0.14226899289E+02  0.33010954125E+02  0.00000000000E+00 0. -1.
</event>
<event>
 7    1  0.6830263E-012  0.5930194E+02  0.7816164E-02  0.1266605E+00
        -11   -1    0    0    0    0  0.00000000000E+00  0.00000000000E+00  0.45593999997E+02  0.45594000000E+02  0.51100000000E-03 0. -1.
         11   -1    0    0    0    0 -0.00000000000E+00 -0.00000000000E+00 -0.45593999997E+02  0.45594000000E+02  0.51100000000E-03 0.  1.
    9900012    2    1    2    0    0  0.12189589092E+01  0.75475206420E+01  0.30955930153E+02  0.59301944422E+02  0.50000000719E+02 0.  0.
        -12    1    1    2    0    0 -0.12189589092E+01 -0.75475206420E+01 -0.30955930153E+02  0.31886055578E+02  0.00000000000E+00 0.  1.
         11    1    3    3    0    0 -0.55580959989E+01  0.12901471182E+02  0.19105525503E+02  0.23714162325E+02  0.51100000000E-03 0. -1.
        -11    1    3    3    0    0 -0.78496975080E+01 -0.75637047473E+01  0.16767349594E+02  0.19999284816E+02  0.51100000000E-03 0.  1.
         12    1    3    3    0    0  0.14626752416E+02  0.22097542074E+01 -0.49169449435E+01  0.15588497281E+02  0.00000000000E+00 0. -1.
</event>
<event>
 7    1  0.6830263E-012  0.5930194E+02  0.7816164E-02  0.1266605E+00
        -11   -1    0    0    0    0  0.00000000000E+00  0.00000000000E+00  0.45593999997E+02  0.45594000000E+02  0.51100000000E-03 0. -1.
         11   -1    0    0    0    0 -0.00000000000E+00 -0.00000000000E+00 -0.45593999997E+02  0.45594000000E+02  0.51100000000E-03 0.  1.
    9900012    2    1    2    0    0 -0.29110599193E+00 -0.31781272704E+02 -0.25664669812E+01  0.59301940505E+02  0.49999993575E+02 0.  0.
        -12    1    1    2    0    0  0.29110599193E+00  0.31781272704E+02  0.25664669812E+01  0.31886059495E+02  0.00000000000E+00 0.  1.
         11    1    3    3    0    0  0.14272749996E+02 -0.20840228468E+02  0.11327840500E+02  0.27682963817E+02  0.51100000000E-03 0. -1.
        -11    1    3    3    0    0 -0.11038092657E+02 -0.12866918700E+02  0.20955886228E+00  0.16954085098E+02  0.51100000000E-03 0.  1.
        -12    1    3    3    0    0 -0.35257633308E+01  0.19258744639E+01 -0.14103866343E+02  0.14664891590E+02  0.00000000000E+00 0.  1.
</event>
<event>
 7    1  0.6830263E-012  0.5930193E+02  0.7816164E-02  0.1266605E+00
        -11   -1    0    0    0    0  0.00000000000E+00  0.00000000000E+00  0.45593999997E+02  0.45594000000E+02  0.51100000000E-03 0.  1.
         11   -1    0    0    0    0 -0.00000000000E+00 -0.00000000000E+00 -0.45593999997E+02  0.45594000000E+02  0.51100000000E-03 0. -1.
    9900012    2    1    2    0    0  0.11247853810E+02  0.12410931125E+02 -0.27132558871E+02  0.59301934429E+02  0.49999982494E+02 0.  0.
        -12    1    1    2    0    0 -0.11247853810E+02 -0.12410931125E+02  0.27132558871E+02  0.31886065571E+02  0.00000000000E+00 0.  1.
         11    1    3    3    0    0 -0.72771505205E+01  0.19617633634E+01 -0.28247710841E+01  0.80488985042E+01  0.51100000000E-03 0. -1.
        -11    1    3    3    0    0 -0.37522218838E+01 -0.11505577007E+02 -0.13572736921E+02  0.18184517017E+02  0.51100000000E-03 0.  1.
         12    1    3    3    0    0  0.22277226214E+02  0.21954744769E+02 -0.10735050866E+02  0.33068518908E+02  0.00000000000E+00 0. -1.
</event>
<event>
 7    1  0.6830263E-012  0.5930195E+02  0.7816164E-02  0.1266605E+00
        -11   -1    0    0    0    0  0.00000000000E+00  0.00000000000E+00  0.45593999997E+02  0.45594000000E+02  0.51100000000E-03 0. -1.
         11   -1    0    0    0    0 -0.00000000000E+00 -0.00000000000E+00 -0.45593999997E+02  0.45594000000E+02  0.51100000000E-03 0.  1.
    9900012    2    1    2    0    0  0.19364954172E+02 -0.18896355365E+02  0.16871465520E+02  0.59301952189E+02  0.50000014885E+02 0.  0.
        -12    1    1    2    0    0 -0.19364954172E+02  0.18896355365E+02 -0.16871465520E+02  0.31886047811E+02  0.00000000000E+00 0.  1.
         11    1    3    3    0    0 -0.11166123207E+02 -0.15804042794E+01  0.19554012018E+02  0.22572978789E+02  0.51100000000E-03 0. -1.
        -11    1    3    3    0    0  0.87015404023E+01  0.95152124863E-01 -0.35102294459E+00  0.87091375387E+01  0.51100000000E-03 0.  1.
        -12    1    3    3    0    0  0.21829536977E+02 -0.17411103211E+02 -0.23315235530E+01  0.28019835862E+02  0.00000000000E+00 0.  1.
</event>
<event>
 7    1  0.6830263E-012  0.5930192E+02  0.7816164E-02  0.1266605E+00
        -11   -1    0    0    0    0  0.00000000000E+00  0.00000000000E+00  0.45593999997E+02  0.45594000000E+02  0.51100000000E-03 0.  1.
         11   -1    0    0    0    0 -0.00000000000E+00 -0.00000000000E+00 -0.45593999997E+02  0.45594000000E+02  0.51100000000E-03 0. -1.
    9900012    2    1    2    0    0 -0.95779033168E+00 -0.64045548922E+01 -0.31221569746E+02  0.59301919917E+02  0.49999956027E+02 0.  0.
        -12    1    1    2    0    0  0.95779033168E+00  0.64045548922E+01  0.31221569746E+02  0.31886080083E+02  0.00000000000E+00 0.  1.
         11    1    3    3    0    0 -0.85666468677E+01  0.40911929415E+01 -0.36426180131E+02  0.37642952825E+02  0.51100000000E-03 0. -1.
        -11    1    3    3    0    0 -0.56677103526E+00  0.23223374289E+01 -0.34253071352E+01  0.41769857279E+01  0.51100000000E-03 0.  1.
         12    1    3    3    0    0  0.81756275713E+01 -0.12818085263E+02  0.86299175198E+01  0.17481981363E+02  0.00000000000E+00 0. -1.
</event>
<event>
 7    1  0.6830263E-012  0.5930198E+02  0.7816164E-02  0.1266605E+00
        -11   -1    0    0    0    0  0.00000000000E+00  0.00000000000E+00  0.45593999997E+02  0.45594000000E+02  0.51100000000E-03 0.  1.
         11   -1    0    0    0    0 -0.00000000000E+00 -0.00000000000E+00 -0.45593999997E+02  0.45594000000E+02  0.51100000000E-03 0. -1.
    9900012    2    1    2    0    0  0.30432818366E+00 -0.25356513382E+02 -0.19330614403E+02  0.59301983634E+02  0.50000072232E+02 0.  0.
        -12    1    1    2    0    0 -0.30432818366E+00  0.25356513382E+02  0.19330614403E+02  0.31886016366E+02  0.00000000000E+00 0.  1.
         11    1    3    3    0    0 -0.30357633344E+01 -0.29734917927E+02 -0.27212296087E+02  0.40421408458E+02  0.51100000000E-03 0. -1.
        -11    1    3    3    0    0 -0.64879896050E+00 -0.58256118513E+01  0.10102033628E+01  0.59480420837E+01  0.51100000000E-03 0.  1.
        -12    1    3    3    0    0  0.39888904786E+01  0.10204016396E+02  0.68714783215E+01  0.12932533092E+02  0.00000000000E+00 0.  1.
</event>
<event>
 7    1  0.6830263E-012  0.5930195E+02  0.7816164E-02  0.1266605E+00
        -11   -1    0    0    0    0  0.00000000000E+00  0.00000000000E+00  0.45593999997E+02  0.45594000000E+02  0.51100000000E-03 0.  1.
         11   -1    0    0    0    0 -0.00000000000E+00 -0.00000000000E+00 -0.45593999997E+02  0.45594000000E+02  0.51100000000E-03 0. -1.
    9900012    2    1    2    0    0  0.29463845213E+02  0.12812527038E+01 -0.12122718656E+02  0.59301951471E+02  0.50000013574E+02 0.  0.
        -12    1    1    2    0    0 -0.29463845213E+02 -0.12812527038E+01  0.12122718656E+02  0.31886048529E+02  0.00000000000E+00 0.  1.
         11    1    3    3    0    0  0.95611954161E-01 -0.31087416317E+00 -0.28646576109E+00  0.43341352598E+00  0.51100000000E-03 0.  1.
        -11    1    3    3    0    0  0.10140168477E+02  0.22519906165E+01  0.19501979776E+02  0.22095739271E+02  0.51100000000E-03 0. -1.
         12    1    3    3    0    0  0.19228064782E+02 -0.65986374947E+00 -0.31338232670E+02  0.36772798674E+02  0.00000000000E+00 0. -1.
</event>
<event>
 7    1  0.7222040E-012  0.5930194E+02  0.7816164E-02  0.1266605E+00
        -11   -1    0    0    0    0  0.00000000000E+00  0.00000000000E+00  0.45593999997E+02  0.45594000000E+02  0.51100000000E-03 0. -1.
         11   -1    0    0    0    0 -0.00000000000E+00 -0.00000000000E+00 -0.45593999997E+02  0.45594000000E+02  0.51100000000E-03 0.  1.
    9900012    2    1    2    0    0 -0.13096190051E+02 -0.11659153502E+02  0.26632208126E+02  0.59301944052E+02  0.50000000044E+02 0.  0.
        -12    1    1    2    0    0  0.13096190051E+02  0.11659153502E+02 -0.26632208126E+02  0.31886055948E+02  0.00000000000E+00 0.  1.
         11    1    3    3    0    0 -0.75312979582E+01 -0.18022221964E+02  0.15900348108E+02  0.25186147059E+02  0.51100000000E-03 0. -1.
        -11    1    3    3    0    0 -0.16644833511E+02  0.42135820002E+01 -0.17842740214E+01  0.17262340221E+02  0.51100000000E-03 0.  1.
         12    1    3    3    0    0  0.11079941418E+02  0.21494864616E+01  0.12516134039E+02  0.16853456772E+02  0.00000000000E+00 0. -1.
</event>
<event>
 7    1  0.6830263E-012  0.5930198E+02  0.7816164E-02  0.1266605E+00
        -11   -1    0    0    0    0  0.00000000000E+00  0.00000000000E+00  0.45593999997E+02  0.45594000000E+02  0.51100000000E-03 0. -1.
         11   -1    0    0    0    0 -0.00000000000E+00 -0.00000000000E+00 -0.45593999997E+02  0.45594000000E+02  0.51100000000E-03 0.  1.
    9900012    2    1    2    0    0 -0.26155728240E+02  0.12551138210E+02  0.13231220525E+02  0.59301978193E+02  0.50000062308E+02 0.  0.
        -12    1    1    2    0    0  0.26155728240E+02 -0.12551138210E+02 -0.13231220525E+02  0.31886021807E+02  0.00000000000E+00 0.  1.
         11    1    3    3    0    0 -0.96442607728E+01  0.63336170190E-01  0.12980157978E+02  0.16170970246E+02  0.51100000000E-03 0. -1.
        -11    1    3    3    0    0  0.62831631553E+01  0.25319575768E+01  0.13385664469E+02  0.15002165242E+02  0.51100000000E-03 0.  1.
         12    1    3    3    0    0 -0.22794630623E+02  0.99558444627E+01 -0.13134601923E+02  0.28128842704E+02  0.00000000000E+00 0. -1.
</event>
<event>
 7    1  0.6830263E-012  0.5930192E+02  0.7816164E-02  0.1266605E+00
        -11   -1    0    0    0    0  0.00000000000E+00  0.00000000000E+00  0.45593999997E+02  0.45594000000E+02  0.51100000000E-03 0.  1.
         11   -1    0    0    0    0 -0.00000000000E+00 -0.00000000000E+00 -0.45593999997E+02  0.45594000000E+02  0.51100000000E-03 0. -1.
    9900012    2    1    2    0    0  0.11430923262E+01  0.20825935540E+02 -0.24118369610E+02  0.59301921473E+02  0.49999958866E+02 0.  0.
        -12    1    1    2    0    0 -0.11430923262E+01 -0.20825935540E+02  0.24118369610E+02  0.31886078527E+02  0.00000000000E+00 0.  1.
         11    1    3    3    0    0 -0.82696831673E+01  0.32400298492E+01  0.52435674143E+00  0.88972132359E+01  0.51100000000E-03 0.  1.
        -11    1    3    3    0    0 -0.10281489302E+02 -0.59646477656E+01 -0.12884757422E+02  0.17530060448E+02  0.51100000000E-03 0. -1.
         12    1    3    3    0    0  0.19694264796E+02  0.23550553456E+02 -0.11757968930E+02  0.32874647790E+02  0.00000000000E+00 0. -1.
</event>
<event>
 7    1  0.6830263E-012  0.5930193E+02  0.7816164E-02  0.1266605E+00
        -11   -1    0    0    0    0  0.00000000000E+00  0.00000000000E+00  0.45593999997E+02  0.45594000000E+02  0.51100000000E-03 0.  1.
         11   -1    0    0    0    0 -0.00000000000E+00 -0.00000000000E+00 -0.45593999997E+02  0.45594000000E+02  0.51100000000E-03 0. -1.
    9900012    2    1    2    0    0  0.60281205568E+01 -0.18849063347E+02 -0.25001914805E+02  0.59301934541E+02  0.49999982699E+02 0.  0.
        -12    1    1    2    0    0 -0.60281205568E+01  0.18849063347E+02  0.25001914805E+02  0.31886065459E+02  0.00000000000E+00 0.  1.
         11    1    3    3    0    0 -0.62420438104E+01  0.97044310762E+01 -0.74476665826E-01  0.11538831851E+02  0.51100000000E-03 0. -1.
        -11    1    3    3    0    0 -0.31625759283E+00  0.32504160217E+01 -0.98613818917E+01  0.10388073751E+02  0.51100000000E-03 0.  1.
        -12    1    3    3    0    0  0.12586421960E+02 -0.31803910445E+02 -0.15066056248E+02  0.37375028939E+02  0.00000000000E+00 0.  1.
</event>
<event>
 7    1  0.6830263E-012  0.5930214E+02  0.7816164E-02  0.1266604E+00
        -11   -1    0    0    0    0  0.00000000000E+00  0.00000000000E+00  0.45593999997E+02  0.45594000000E+02  0.51100000000E-03 0.  1.
         11   -1    0    0    0    0 -0.00000000000E+00 -0.00000000000E+00 -0.45593999997E+02  0.45594000000E+02  0.51100000000E-03 0. -1.
    9900012    2    1    2    0    0  0.82799103730E+01 -0.29813397873E+02 -0.77014724502E+01  0.59302136574E+02  0.50000351157E+02 0.  0.
        -12    1    1    2    0    0 -0.82799103730E+01  0.29813397873E+02  0.77014724502E+01  0.31885863426E+02  0.00000000000E+00 0.  1.
         11    1    3    3    0    0  0.19068817927E+02 -0.65775286154E+01  0.10784616160E+02  0.22873382911E+02  0.51100000000E-03 0.  1.
        -11    1    3    3    0    0  0.12211598399E+01 -0.18125580117E+02 -0.88674233980E+01  0.20215318051E+02  0.51100000000E-03 0. -1.
        -12    1    3    3    0    0 -0.12010067394E+02 -0.51102891407E+01 -0.96186652117E+01  0.16213435612E+02  0.00000000000E+00 0.  1.
</event>
<event>
 7    1  0.6830263E-012  0.5930194E+02  0.7816164E-02  0.1266605E+00
        -11   -1    0    0    0    0  0.00000000000E+00  0.00000000000E+00  0.45593999997E+02  0.45594000000E+02  0.51100000000E-03 0. -1.
         11   -1    0    0    0    0 -0.00000000000E+00 -0.00000000000E+00 -0.45593999997E+02  0.45594000000E+02  0.51100000000E-03 0.  1.
    9900012    2    1    2    0    0 -0.30325227489E+02 -0.95413495007E+01  0.24624680826E+01  0.59301944716E+02  0.50000001254E+02 0.  0.
        -12    1    1    2    0    0  0.30325227489E+02  0.95413495007E+01 -0.24624680826E+01  0.31886055284E+02  0.00000000000E+00 0.  1.
         11    1    3    3    0    0 -0.28625189189E+02  0.93572079575E+00  0.10638409757E+02  0.30552459671E+02  0.51100000000E-03 0. -1.
        -11    1    3    3    0    0 -0.85005605633E+01  0.93054529780E+00  0.51117427480E+01  0.99626983606E+01  0.51100000000E-03 0.  1.
        -12    1    3    3    0    0  0.68005222638E+01 -0.11407615594E+02 -0.13287684422E+02  0.18786786684E+02  0.00000000000E+00 0.  1.
</event>
<event>
 7    1  0.6830263E-012  0.5930196E+02  0.7816164E-02  0.1266605E+00
        -11   -1    0    0    0    0  0.00000000000E+00  0.00000000000E+00  0.45593999997E+02  0.45594000000E+02  0.51100000000E-03 0.  1.
         11   -1    0    0    0    0 -0.00000000000E+00 -0.00000000000E+00 -0.45593999997E+02  0.45594000000E+02  0.51100000000E-03 0. -1.
    9900012    2    1    2    0    0  0.10108926907E+02  0.90062808391E+01 -0.28868946521E+02  0.59301959622E+02  0.50000028439E+02 0.  0.
        -12    1    1    2    0    0 -0.10108926907E+02 -0.90062808391E+01  0.28868946521E+02  0.31886040378E+02  0.00000000000E+00 0.  1.
         11    1    3    3    0    0  0.52561727631E+01  0.57937466351E+01 -0.12220627881E+02  0.14509948251E+02  0.51100000000E-03 0. -1.
        -11    1    3    3    0    0  0.65508367819E+01  0.14849105693E+02  0.75405085067E+01  0.17896051834E+02  0.51100000000E-03 0.  1.
         12    1    3    3    0    0 -0.16980826375E+01 -0.11636571489E+02 -0.24188827147E+02  0.26895959537E+02  0.00000000000E+00 0. -1.
</event>
<event>
 7    1  0.6830263E-012  0.5930196E+02  0.7816164E-02  0.1266605E+00
        -11   -1    0    0    0    0  0.00000000000E+00  0.00000000000E+00  0.45593999997E+02  0.45594000000E+02  0.51100000000E-03 0.  1.
         11   -1    0    0    0    0 -0.00000000000E+00 -0.00000000000E+00 -0.45593999997E+02  0.45594000000E+02  0.51100000000E-03 0. -1.
    9900012    2    1    2    0    0  0.94584669834E+01  0.30393327511E+02  0.18715263195E+01  0.59301959706E+02  0.50000028593E+02 0.  0.
        -12    1    1    2    0    0 -0.94584669834E+01 -0.30393327511E+02 -0.18715263195E+01  0.31886040294E+02  0.00000000000E+00 0.  1.
         11    1    3    3    0    0 -0.86591276712E+01  0.14986696987E+02 -0.14502548049E+02  0.22581086749E+02  0.51100000000E-03 0. -1.
        -11    1    3    3    0    0  0.50217053615E+01 -0.52195991699E+01  0.82380963616E+01  0.10969410748E+02  0.51100000000E-03 0.  1.
        -12    1    3    3    0    0  0.13095889293E+02  0.20626229694E+02  0.81359780068E+01  0.25751462209E+02  0.00000000000E+00 0.  1.
</event>
<event>
 7    1  0.6830263E-012  0.5930195E+02  0.7816164E-02  0.1266605E+00
        -11   -1    0    0    0    0  0.00000000000E+00  0.00000000000E+00  0.45593999997E+02  0.45594000000E+02  0.51100000000E-03 0. -1.
         11   -1    0    0    0    0 -0.00000000000E+00 -0.00000000000E+00 -0.45593999997E+02  0.45594000000E+02  0.51100000000E-03 0.  1.
    9900012    2    1    2    0    0 -0.10304476941E+02 -0.10810394132E+02  0.28172210131E+02  0.59301948347E+02  0.50000007878E+02 0.  0.
        -12    1    1    2    0    0  0.10304476941E+02  0.10810394132E+02 -0.28172210131E+02  0.31886051653E+02  0.00000000000E+00 0.  1.
         11    1    3    3    0    0  0.41688178821E+01 -0.65476280429E+01 -0.30122262418E+01  0.83261024924E+01  0.51100000000E-03 0. -1.
        -11    1    3    3    0    0  0.10068879988E+02 -0.10702679148E+02  0.14259684177E+02  0.20476041567E+02  0.51100000000E-03 0.  1.
         12    1    3    3    0    0 -0.24542174812E+02  0.64399130589E+01  0.16924752196E+02  0.30499804288E+02  0.00000000000E+00 0. -1.
</event>
<event>
 7    1  0.6830263E-012  0.5930200E+02  0.7816164E-02  0.1266605E+00
        -11   -1    0    0    0    0  0.00000000000E+00  0.00000000000E+00  0.45593999997E+02  0.45594000000E+02  0.51100000000E-03 0.  1.
         11   -1    0    0    0    0 -0.00000000000E+00 -0.00000000000E+00 -0.45593999997E+02  0.45594000000E+02  0.51100000000E-03 0. -1.
    9900012    2    1    2    0    0 -0.19674690297E+02 -0.71802026690E+01 -0.24043047943E+02  0.59302001458E+02  0.50000104738E+02 0.  0.
        -12    1    1    2    0    0  0.19674690297E+02  0.71802026690E+01  0.24043047943E+02  0.31885998542E+02  0.00000000000E+00 0.  1.
         11    1    3    3    0    0 -0.60688167189E+01 -0.14853595961E+02 -0.12857017928E+02  0.20561195481E+02  0.51100000000E-03 0. -1.
        -11    1    3    3    0    0  0.79694086693E+01 -0.60303865563E+01  0.16664658856E+01  0.10131838203E+02  0.51100000000E-03 0.  1.
         12    1    3    3    0    0 -0.21575282247E+02  0.13703779849E+02 -0.12852495900E+02  0.28608967773E+02  0.00000000000E+00 0. -1.
</event>
<event>
 7    1  0.6830263E-012  0.5930186E+02  0.7816164E-02  0.1266605E+00
        -11   -1    0    0    0    0  0.00000000000E+00  0.00000000000E+00  0.45593999997E+02  0.45594000000E+02  0.51100000000E-03 0. -1.
         11   -1    0    0    0    0 -0.00000000000E+00 -0.00000000000E+00 -0.45593999997E+02  0.45594000000E+02  0.51100000000E-03 0.  1.
    9900012    2    1    2    0    0 -0.25579315339E+02  0.16860907150E+02  0.88393485158E+01  0.59301864371E+02  0.49999854726E+02 0.  0.
        -12    1    1    2    0    0  0.25579315339E+02 -0.16860907150E+02 -0.88393485158E+01  0.31886135629E+02  0.00000000000E+00 0.  1.
         11    1    3    3    0    0 -0.29158462740E+02  0.26039235952E+01  0.38669736387E+01  0.29528797009E+02  0.51100000000E-03 0. -1.
        -11    1    3    3    0    0  0.39965628653E+01 -0.64376385346E+01  0.49925820340E+01  0.90742261525E+01  0.51100000000E-03 0.  1.
         12    1    3    3    0    0 -0.41741546506E+00  0.20694622089E+02 -0.20207156822E-01  0.20698841210E+02  0.00000000000E+00 0. -1.
</event>
<event>
 7    1  0.6830263E-012  0.5930194E+02  0.7816164E-02  0.1266605E+00
        -11   -1    0    0    0    0  0.00000000000E+00  0.00000000000E+00  0.45593999997E+02  0.45594000000E+02  0.51100000000E-03 0.  1.
         11   -1    0    0    0    0 -0.00000000000E+00 -0.00000000000E+00 -0.45593999997E+02  0.45594000000E+02  0.51100000000E-03 0. -1.
    9900012    2    1    2    0    0  0.54983575746E+01 -0.31238273981E+02  0.32648019465E+01  0.59301943031E+02  0.49999998182E+02 0.  0.
        -12    1    1    2    0    0 -0.54983575746E+01  0.31238273981E+02 -0.32648019465E+01  0.31886056969E+02  0.00000000000E+00 0.  1.
         11    1    3    3    0    0  0.15600364835E+02 -0.87534355897E+01 -0.89965979635E+01  0.20023306240E+02  0.51100000000E-03 0. -1.
        -11    1    3    3    0    0  0.59927340838E+01 -0.96785189229E+00  0.10774749678E+02  0.12367086560E+02  0.51100000000E-03 0.  1.
        -12    1    3    3    0    0 -0.16094741344E+02 -0.21516986499E+02  0.14866502317E+01  0.26911550231E+02  0.00000000000E+00 0.  1.
</event>
<event>
 7    1  0.6830263E-012  0.5930196E+02  0.7816164E-02  0.1266605E+00
        -11   -1    0    0    0    0  0.00000000000E+00  0.00000000000E+00  0.45593999997E+02  0.45594000000E+02  0.51100000000E-03 0.  1.
         11   -1    0    0    0    0 -0.00000000000E+00 -0.00000000000E+00 -0.45593999997E+02  0.45594000000E+02  0.51100000000E-03 0. -1.
    9900012    2    1    2    0    0 -0.31785630491E+01  0.31572494979E+02  0.31295134939E+01  0.59301959842E+02  0.50000028841E+02 0.  0.
        -12    1    1    2    0    0  0.31785630491E+01 -0.31572494979E+02 -0.31295134939E+01  0.31886040158E+02  0.00000000000E+00 0.  1.
         11    1    3    3    0    0 -0.23207100067E+01  0.19953730461E+02 -0.14857031185E+02  0.24985364318E+02  0.51100000000E-03 0. -1.
        -11    1    3    3    0    0  0.44671552269E+01  0.14995382570E+02  0.21885328091E+02  0.26903244417E+02  0.51100000000E-03 0.  1.
         12    1    3    3    0    0 -0.53250082692E+01 -0.33766180513E+01 -0.38987834124E+01  0.74133511065E+01  0.00000000000E+00 0. -1.
</event>
<event>
 7    1  0.6830263E-012  0.5930195E+02  0.7816164E-02  0.1266605E+00
        -11   -1    0    0    0    0  0.00000000000E+00  0.00000000000E+00  0.45593999997E+02  0.45594000000E+02  0.51100000000E-03 0.  1.
         11   -1    0    0    0    0 -0.00000000000E+00 -0.00000000000E+00 -0.45593999997E+02  0.45594000000E+02  0.51100000000E-03 0. -1.
    9900012    2    1    2    0    0 -0.32907940486E+01 -0.20181288097E+02 -0.24466431062E+02  0.59301953465E+02  0.50000017210E+02 0.  0.
        -12    1    1    2    0    0  0.32907940486E+01  0.20181288097E+02  0.24466431062E+02  0.31886046535E+02  0.00000000000E+00 0.  1.
         11    1    3    3    0    0  0.14167484246E+02 -0.32244839450E+01 -0.15571072092E+02  0.21297257873E+02  0.51100000000E-03 0. -1.
        -11    1    3    3    0    0  0.49578317577E+01 -0.19570986448E+01 -0.96480485608E+01  0.11022484844E+02  0.51100000000E-03 0.  1.
        -12    1    3    3    0    0 -0.22416110052E+02 -0.14999705508E+02  0.75268959041E+00  0.26982210747E+02  0.00000000000E+00 0.  1.
</event>
<event>
 7    1  0.6830263E-012  0.5930188E+02  0.7816164E-02  0.1266605E+00
        -11   -1    0    0    0    0  0.00000000000E+00  0.00000000000E+00  0.45593999997E+02  0.45594000000E+02  0.51100000000E-03 0. -1.
         11   -1    0    0    0    0 -0.00000000000E+00 -0.00000000000E+00 -0.45593999997E+02  0.45594000000E+02  0.51100000000E-03 0.  1.
    9900012    2    1    2    0    0  0.52866995455E+01  0.30079377384E+02 -0.91655064360E+01  0.59301880071E+02  0.49999883358E+02 0.  0.
        -12    1    1    2    0    0 -0.52866995455E+01 -0.30079377384E+02  0.91655064360E+01  0.31886119929E+02  0.00000000000E+00 0.  1.
         11    1    3    3    0    0  0.15154141061E+02  0.28847480591E+01 -0.89978414181E+01  0.17858636933E+02  0.51100000000E-03 0. -1.
        -11    1    3    3    0    0 -0.78169441637E+01  0.16141496898E+02 -0.14616387119E+02  0.23136363388E+02  0.51100000000E-03 0.  1.
         12    1    3    3    0    0 -0.20504973515E+01  0.11053132427E+02  0.14448722101E+02  0.18306879750E+02  0.00000000000E+00 0. -1.
</event>
<event>
 7    1  0.6830263E-012  0.5930194E+02  0.7816164E-02  0.1266605E+00
        -11   -1    0    0    0    0  0.00000000000E+00  0.00000000000E+00  0.45593999997E+02  0.45594000000E+02  0.51100000000E-03 0.  1.
         11   -1    0    0    0    0 -0.00000000000E+00 -0.00000000000E+00 -0.45593999997E+02  0.45594000000E+02  0.51100000000E-03 0. -1.
    9900012    2    1    2    0    0  0.25301572590E+02 -0.18904590370E+02  0.43781074098E+01  0.59301938200E+02  0.49999989372E+02 0.  0.
        -12    1    1    2    0    0 -0.25301572590E+02  0.18904590370E+02 -0.43781074098E+01  0.31886061800E+02  0.00000000000E+00 0.  1.
         11    1    3    3    0    0  0.27677939509E+02 -0.16594658987E+02  0.16368493567E+02  0.36185337145E+02  0.51100000000E-03 0. -1.
        -11    1    3    3    0    0 -0.39787809681E+01 -0.10550488789E+02 -0.57563805391E+01  0.12660151218E+02  0.51100000000E-03 0.  1.
        -12    1    3    3    0    0  0.16024140495E+01  0.82405574067E+01 -0.62340056185E+01  0.10456449838E+02  0.00000000000E+00 0.  1.
</event>
<event>
 7    1  0.6830263E-012  0.5930194E+02  0.7816164E-02  0.1266605E+00
        -11   -1    0    0    0    0  0.00000000000E+00  0.00000000000E+00  0.45593999997E+02  0.45594000000E+02  0.51100000000E-03 0.  1.
         11   -1    0    0    0    0 -0.00000000000E+00 -0.00000000000E+00 -0.45593999997E+02  0.45594000000E+02  0.51100000000E-03 0. -1.
    9900012    2    1    2    0    0  0.21519179726E+02  0.19511011712E+02 -0.13151666108E+02  0.59301937284E+02  0.49999987701E+02 0.  0.
        -12    1    1    2    0    0 -0.21519179726E+02 -0.19511011712E+02  0.13151666108E+02  0.31886062716E+02  0.00000000000E+00 0.  1.
         11    1    3    3    0    0  0.16372098125E+02 -0.99987222650E+01  0.93513321989E+00  0.19206626938E+02  0.51100000000E-03 0. -1.
        -11    1    3    3    0    0  0.27445846891E+01  0.12455286208E+02  0.56076290260E+01  0.13932422732E+02  0.51100000000E-03 0.  1.
         12    1    3    3    0    0  0.24024969123E+01  0.17054447769E+02 -0.19694428354E+02  0.26162887614E+02  0.00000000000E+00 0. -1.
</event>
<event>
 7    1  0.6830263E-012  0.5930195E+02  0.7816164E-02  0.1266605E+00
        -11   -1    0    0    0    0  0.00000000000E+00  0.00000000000E+00  0.45593999997E+02  0.45594000000E+02  0.51100000000E-03 0.  1.
         11   -1    0    0    0    0 -0.00000000000E+00 -0.00000000000E+00 -0.45593999997E+02  0.45594000000E+02  0.51100000000E-03 0. -1.
    9900012    2    1    2    0    0 -0.12416043414E+01 -0.17847536618E+02 -0.26394019871E+02  0.59301946158E+02  0.50000003884E+02 0.  0.
        -12    1    1    2    0    0  0.12416043414E+01  0.17847536618E+02  0.26394019871E+02  0.31886053842E+02  0.00000000000E+00 0.  1.
         11    1    3    3    0    0 -0.70577188543E+01  0.24416102467E+01 -0.27136813208E+02  0.28145683281E+02  0.51100000000E-03 0. -1.
        -11    1    3    3    0    0 -0.58428483870E+01 -0.26266116584E+01  0.65994072435E+01  0.91972899435E+01  0.51100000000E-03 0.  1.
        -12    1    3    3    0    0  0.11658962900E+02 -0.17662535206E+02 -0.58566139069E+01  0.21958972933E+02  0.00000000000E+00 0.  1.
</event>
<event>
 7    1  0.6830263E-012  0.5930194E+02  0.7816164E-02  0.1266605E+00
        -11   -1    0    0    0    0  0.00000000000E+00  0.00000000000E+00  0.45593999997E+02  0.45594000000E+02  0.51100000000E-03 0.  1.
         11   -1    0    0    0    0 -0.00000000000E+00 -0.00000000000E+00 -0.45593999997E+02  0.45594000000E+02  0.51100000000E-03 0. -1.
    9900012    2    1    2    0    0  0.28058106874E+02 -0.13609076986E+02 -0.66525710125E+01  0.59301936605E+02  0.49999986462E+02 0.  0.
        -12    1    1    2    0    0 -0.28058106874E+02  0.13609076986E+02  0.66525710125E+01  0.31886063395E+02  0.00000000000E+00 0.  1.
         11    1    3    3    0    0  0.35175380197E-01  0.53902177937E+00  0.36485934430E+01  0.36883622598E+01  0.51100000000E-03 0. -1.
        -11    1    3    3    0    0  0.27554507749E+02 -0.19106744687E+02  0.97767368688E+01  0.34927112304E+02  0.51100000000E-03 0.  1.
         12    1    3    3    0    0  0.46842374548E+00  0.49586459223E+01 -0.20077901324E+02  0.20686462041E+02  0.00000000000E+00 0. -1.
</event>
<event>
 7    1  0.6830263E-012  0.5930194E+02  0.7816164E-02  0.1266605E+00
        -11   -1    0    0    0    0  0.00000000000E+00  0.00000000000E+00  0.45593999997E+02  0.45594000000E+02  0.51100000000E-03 0.  1.
         11   -1    0    0    0    0 -0.00000000000E+00 -0.00000000000E+00 -0.45593999997E+02  0.45594000000E+02  0.51100000000E-03 0. -1.
    9900012    2    1    2    0    0 -0.13276348596E+02 -0.86108856265E+01 -0.27682340148E+02  0.59301941300E+02  0.49999995026E+02 0.  0.
        -12    1    1    2    0    0  0.13276348596E+02  0.86108856265E+01  0.27682340148E+02  0.31886058700E+02  0.00000000000E+00 0.  1.
         11    1    3    3    0    0 -0.12689636208E+02  0.12509703373E+02 -0.10790746525E+02  0.20831700756E+02  0.51100000000E-03 0. -1.
        -11    1    3    3    0    0 -0.59780323792E+01  0.46812789776E+01 -0.91621730464E+00  0.76479211819E+01  0.51100000000E-03 0.  1.
        -12    1    3    3    0    0  0.53913199909E+01 -0.25801867977E+02 -0.15975376319E+02  0.30822319362E+02  0.00000000000E+00 0.  1.
</event>
<event>
 7    1  0.6830263E-012  0.5930205E+02  0.7816164E-02  0.1266604E+00
        -11   -1    0    0    0    0  0.00000000000E+00  0.00000000000E+00  0.45593999997E+02  0.45594000000E+02  0.51100000000E-03 0.  1.
         11   -1    0    0    0    0 -0.00000000000E+00 -0.00000000000E+00 -0.45593999997E+02  0.45594000000E+02  0.51100000000E-03 0. -1.
    9900012    2    1    2    0    0 -0.13088468764E+02 -0.27787445116E+02 -0.85594329528E+01  0.59302046774E+02  0.50000187385E+02 0.  0.
        -12    1    1    2    0    0  0.13088468764E+02  0.27787445116E+02  0.85594329528E+01  0.31885953226E+02  0.00000000000E+00 0.  1.
         11    1    3    3    0    0 -0.17069944838E+02 -0.25787661481E+02 -0.46595046096E+01  0.31274550115E+02  0.51100000000E-03 0. -1.
        -11    1    3    3    0    0 -0.33276384472E+01 -0.78606700561E+00  0.10928579771E+02  0.11450979654E+02  0.51100000000E-03 0.  1.
        -12    1    3    3    0    0  0.73091145218E+01 -0.12137166294E+01 -0.14828508114E+02  0.16576517005E+02  0.00000000000E+00 0.  1.
</event>
<event>
 7    1  0.6830263E-012  0.5930195E+02  0.7816164E-02  0.1266605E+00
        -11   -1    0    0    0    0  0.00000000000E+00  0.00000000000E+00  0.45593999997E+02  0.45594000000E+02  0.51100000000E-03 0.  1.
         11   -1    0    0    0    0 -0.00000000000E+00 -0.00000000000E+00 -0.45593999997E+02  0.45594000000E+02  0.51100000000E-03 0. -1.
    9900012    2    1    2    0    0  0.12013421382E+01  0.57975335631E+01 -0.31331546329E+02  0.59301946408E+02  0.50000004340E+02 0.  0.
        -12    1    1    2    0    0 -0.12013421382E+01 -0.57975335631E+01  0.31331546329E+02  0.31886053592E+02  0.00000000000E+00 0.  1.
         11    1    3    3    0    0 -0.20142324221E+01 -0.16254100882E+01 -0.37677931789E+01  0.45711438289E+01  0.51100000000E-03 0.  1.
        -11    1    3    3    0    0 -0.20574553569E+02  0.10313010875E+02 -0.16602058045E+02  0.28377786726E+02  0.51100000000E-03 0. -1.
         12    1    3    3    0    0  0.23790128129E+02 -0.28900672240E+01 -0.10961695105E+02  0.26353015853E+02  0.00000000000E+00 0. -1.
</event>
<event>
 7    1  0.6830263E-012  0.5930192E+02  0.7816164E-02  0.1266605E+00
        -11   -1    0    0    0    0  0.00000000000E+00  0.00000000000E+00  0.45593999997E+02  0.45594000000E+02  0.51100000000E-03 0. -1.
         11   -1    0    0    0    0 -0.00000000000E+00 -0.00000000000E+00 -0.45593999997E+02  0.45594000000E+02  0.51100000000E-03 0.  1.
    9900012    2    1    2    0    0  0.14349788979E+01 -0.36922176545E+01  0.31639066452E+02  0.59301918999E+02  0.49999954353E+02 0.  0.
        -12    1    1    2    0    0 -0.14349788979E+01  0.36922176545E+01 -0.31639066452E+02  0.31886081001E+02  0.00000000000E+00 0.  1.
         11    1    3    3    0    0 -0.11352021581E+02  0.66226839470E+01  0.35239502152E+01  0.13606857169E+02  0.51100000000E-03 0. -1.
        -11    1    3    3    0    0 -0.91215371337E+01 -0.74740186925E+01  0.28472080092E+01  0.12131363848E+02  0.51100000000E-03 0.  1.
         12    1    3    3    0    0  0.21908537612E+02 -0.28408829090E+01  0.25267908228E+02  0.33563697982E+02  0.00000000000E+00 0. -1.
</event>
<event>
 7    1  0.6830263E-012  0.5930195E+02  0.7816164E-02  0.1266605E+00
        -11   -1    0    0    0    0  0.00000000000E+00  0.00000000000E+00  0.45593999997E+02  0.45594000000E+02  0.51100000000E-03 0. -1.
         11   -1    0    0    0    0 -0.00000000000E+00 -0.00000000000E+00 -0.45593999997E+02  0.45594000000E+02  0.51100000000E-03 0.  1.
    9900012    2    1    2    0    0 -0.23186728063E+02  0.10351395261E+02  0.19285853314E+02  0.59301954774E+02  0.50000019598E+02 0.  0.
        -12    1    1    2    0    0  0.23186728063E+02 -0.10351395261E+02 -0.19285853314E+02  0.31886045226E+02  0.00000000000E+00 0.  1.
         11    1    3    3    0    0 -0.53830816611E+01  0.20025102736E+01  0.11707096270E+02  0.13040081246E+02  0.51100000000E-03 0. -1.
        -11    1    3    3    0    0  0.74069409317E+01 -0.93693464266E+01  0.96836250104E+01  0.15375955906E+02  0.51100000000E-03 0.  1.
         12    1    3    3    0    0 -0.25210587333E+02  0.17718231414E+02 -0.21048679663E+01  0.30885917621E+02  0.00000000000E+00 0. -1.
</event>
<event>
 7    1  0.6830263E-012  0.5930195E+02  0.7816164E-02  0.1266605E+00
        -11   -1    0    0    0    0  0.00000000000E+00  0.00000000000E+00  0.45593999997E+02  0.45594000000E+02  0.51100000000E-03 0. -1.
         11   -1    0    0    0    0 -0.00000000000E+00 -0.00000000000E+00 -0.45593999997E+02  0.45594000000E+02  0.51100000000E-03 0.  1.
    9900012    2    1    2    0    0  0.18687257153E+02  0.24769119831E+02  0.73482859618E+01  0.59301950014E+02  0.50000010918E+02 0.  0.
        -12    1    1    2    0    0 -0.18687257153E+02 -0.24769119831E+02 -0.73482859618E+01  0.31886049986E+02  0.00000000000E+00 0.  1.
         11    1    3    3    0    0 -0.16258503978E+01  0.14727939251E+02  0.43440997337E+01  0.15441074666E+02  0.51100000000E-03 0. -1.
        -11    1    3    3    0    0  0.26409886988E+02  0.13407650784E+02 -0.81426110632E+01  0.30717248338E+02  0.51100000000E-03 0.  1.
         12    1    3    3    0    0 -0.60967794367E+01 -0.33664702040E+01  0.11146797291E+02  0.13143627010E+02  0.00000000000E+00 0. -1.
</event>
<event>
 7    1  0.6830263E-012  0.5930194E+02  0.7816164E-02  0.1266605E+00
        -11   -1    0    0    0    0  0.00000000000E+00  0.00000000000E+00  0.45593999997E+02  0.45594000000E+02  0.51100000000E-03 0. -1.
         11   -1    0    0    0    0 -0.00000000000E+00 -0.00000000000E+00 -0.45593999997E+02  0.45594000000E+02  0.51100000000E-03 0.  1.
    9900012    2    1    2    0    0  0.48929199822E+01 -0.84224164022E+01  0.30361865465E+02  0.59301942882E+02  0.49999997910E+02 0.  0.
        -12    1    1    2    0    0 -0.48929199822E+01  0.84224164022E+01 -0.30361865465E+02  0.31886057118E+02  0.00000000000E+00 0.  1.
         11    1    3    3    0    0  0.10926059506E+02 -0.11299040608E+02  0.26099261312E+02  0.30466679114E+02  0.51100000000E-03 0. -1.
        -11    1    3    3    0    0  0.73222679344E+01  0.10672002382E+02  0.32152198349E+01  0.13335849482E+02  0.51100000000E-03 0.  1.
         12    1    3    3    0    0 -0.13355407458E+02 -0.77953781764E+01  0.10473843189E+01  0.15499414286E+02  0.00000000000E+00 0. -1.
</event>
<event>
 7    1  0.6830263E-012  0.5930186E+02  0.7816164E-02  0.1266605E+00
        -11   -1    0    0    0    0  0.00000000000E+00  0.00000000000E+00  0.45593999997E+02  0.45594000000E+02  0.51100000000E-03 0.  1.
         11   -1    0    0    0    0 -0.00000000000E+00 -0.00000000000E+00 -0.45593999997E+02  0.45594000000E+02  0.51100000000E-03 0. -1.
    9900012    2    1    2    0    0  0.51143176114E+01 -0.14981182210E+02 -0.27679123822E+02  0.59301859428E+02  0.49999845711E+02 0.  0.
        -12    1    1    2    0    0 -0.51143176114E+01  0.14981182210E+02  0.27679123822E+02  0.31886140572E+02  0.00000000000E+00 0.  1.
         11    1    3    3    0    0 -0.73686334354E+01  0.76571511894E+01  0.58616297794E+01  0.12136203153E+02  0.51100000000E-03 0.  1.
        -11    1    3    3    0    0  0.11845196635E+02 -0.12522310957E+02 -0.67325924125E+01  0.18505262924E+02  0.51100000000E-03 0. -1.
        -12    1    3    3    0    0  0.63775441136E+00 -0.10116022442E+02 -0.26808161188E+02  0.28660393351E+02  0.00000000000E+00 0.  1.
</event>
<event>
 7    1  0.6830263E-012  0.5930197E+02  0.7816164E-02  0.1266605E+00
        -11   -1    0    0    0    0  0.00000000000E+00  0.00000000000E+00  0.45593999997E+02  0.45594000000E+02  0.51100000000E-03 0. -1.
         11   -1    0    0    0    0 -0.00000000000E+00 -0.00000000000E+00 -0.45593999997E+02  0.45594000000E+02  0.51100000000E-03 0.  1.
    9900012    2    1    2    0    0 -0.22641105611E+02  0.21140192071E+02  0.75625242074E+01  0.59301966122E+02  0.50000040294E+02 0.  0.
        -12    1    1    2    0    0  0.22641105611E+02 -0.21140192071E+02 -0.75625242074E+01  0.31886033878E+02  0.00000000000E+00 0.  1.
         11    1    3    3    0    0 -0.22608576620E+02 -0.73243977989E+00 -0.40096143246E+01  0.22973054044E+02  0.51100000000E-03 0. -1.
        -11    1    3    3    0    0  0.56713884812E+01 -0.37767721169E+01 -0.15058464363E+01  0.69782683151E+01  0.51100000000E-03 0.  1.
         12    1    3    3    0    0 -0.57039174723E+01  0.25649403968E+02  0.13077984968E+02  0.29350643763E+02  0.00000000000E+00 0. -1.
</event>
<event>
 7    1  0.6830263E-012  0.5930195E+02  0.7816164E-02  0.1266605E+00
        -11   -1    0    0    0    0  0.00000000000E+00  0.00000000000E+00  0.45593999997E+02  0.45594000000E+02  0.51100000000E-03 0. -1.
         11   -1    0    0    0    0 -0.00000000000E+00 -0.00000000000E+00 -0.45593999997E+02  0.45594000000E+02  0.51100000000E-03 0.  1.
    9900012    2    1    2    0    0 -0.18115527420E+02 -0.25803970739E+02  0.47647881874E+01  0.59301945900E+02  0.50000003415E+02 0.  0.
        -12    1    1    2    0    0  0.18115527420E+02  0.25803970739E+02 -0.47647881874E+01  0.31886054100E+02  0.00000000000E+00 0.  1.
         11    1    3    3    0    0 -0.56881266155E+01 -0.90182822785E+01 -0.86861836954E+01  0.13752599285E+02  0.51100000000E-03 0. -1.
        -11    1    3    3    0    0 -0.11834468905E+02 -0.17708921870E+02 -0.89631312828E+01  0.23108403032E+02  0.51100000000E-03 0.  1.
        -12    1    3    3    0    0 -0.59293189929E+00  0.92323340932E+00  0.22414103166E+02  0.22440943583E+02  0.00000000000E+00 0.  1.
</event>
<event>
 7    1  0.6830263E-012  0.5930182E+02  0.7816164E-02  0.1266605E+00
        -11   -1    0    0    0    0  0.00000000000E+00  0.00000000000E+00  0.45593999997E+02  0.45594000000E+02  0.51100000000E-03 0. -1.
         11   -1    0    0    0    0 -0.00000000000E+00 -0.00000000000E+00 -0.45593999997E+02  0.45594000000E+02  0.51100000000E-03 0.  1.
    9900012    2    1    2    0    0  0.66523636988E+01 -0.15089853696E+02  0.27290492029E+02  0.59301818314E+02  0.49999770728E+02 0.  0.
        -12    1    1    2    0    0 -0.66523636988E+01  0.15089853696E+02 -0.27290492029E+02  0.31886181686E+02  0.00000000000E+00 0.  1.
         11    1    3    3    0    0 -0.63493280445E+01  0.98626413265E+01 -0.23318837210E+01  0.11959236702E+02  0.51100000000E-03 0. -1.
        -11    1    3    3    0    0 -0.42006055125E+01 -0.10358817552E+02  0.19801747010E+02  0.22738939568E+02  0.51100000000E-03 0.  1.
        -12    1    3    3    0    0  0.17202297256E+02 -0.14593677471E+02  0.98206287396E+01  0.24603642044E+02  0.00000000000E+00 0.  1.
</event>
<event>
 7    1  0.6830263E-012  0.5930196E+02  0.7816164E-02  0.1266605E+00
        -11   -1    0    0    0    0  0.00000000000E+00  0.00000000000E+00  0.45593999997E+02  0.45594000000E+02  0.51100000000E-03 0.  1.
         11   -1    0    0    0    0 -0.00000000000E+00 -0.00000000000E+00 -0.45593999997E+02  0.45594000000E+02  0.51100000000E-03 0. -1.
    9900012    2    1    2    0    0  0.12196713112E+02  0.79431999723E+01 -0.28370152868E+02  0.59301955870E+02  0.50000021597E+02 0.  0.
        -12    1    1    2    0    0 -0.12196713112E+02 -0.79431999723E+01  0.28370152868E+02  0.31886044130E+02  0.00000000000E+00 0.  1.
         11    1    3    3    0    0 -0.53349336051E+01  0.11399192964E+02 -0.13665282346E+01  0.12659799227E+02  0.51100000000E-03 0. -1.
        -11    1    3    3    0    0 -0.25048123491E+01  0.11098374356E+02 -0.21926806380E+01  0.11586882535E+02  0.51100000000E-03 0.  1.
         12    1    3    3    0    0  0.20036459067E+02 -0.14554367347E+02 -0.24810943995E+02  0.35055274107E+02  0.00000000000E+00 0. -1.
</event>
<event>
 7    1  0.6830263E-012  0.5930174E+02  0.7816164E-02  0.1266605E+00
        -11   -1    0    0    0    0  0.00000000000E+00  0.00000000000E+00  0.45593999997E+02  0.45594000000E+02  0.51100000000E-03 0.  1.
         11   -1    0    0    0    0 -0.00000000000E+00 -0.00000000000E+00 -0.45593999997E+02  0.45594000000E+02  0.51100000000E-03 0. -1.
    9900012    2    1    2    0    0  0.68329329735E+01 -0.42897060967E+01 -0.30848710065E+02  0.59301741767E+02  0.49999631124E+02 0.  0.
        -12    1    1    2    0    0 -0.68329329735E+01  0.42897060967E+01  0.30848710065E+02  0.31886258233E+02  0.00000000000E+00 0.  1.
         11    1    3    3    0    0 -0.33380851829E+01  0.71045010815E+00  0.70134490668E+01  0.77997448753E+01  0.51100000000E-03 0. -1.
        -11    1    3    3    0    0 -0.89552765347E+01  0.33017999274E+01 -0.16070620671E+01  0.96789208759E+01  0.51100000000E-03 0.  1.
         12    1    3    3    0    0  0.19126294691E+02 -0.83019561323E+01 -0.36255097065E+02  0.41823076016E+02  0.00000000000E+00 0. -1.
</event>
<event>
 7    1  0.6830263E-012  0.5930195E+02  0.7816164E-02  0.1266605E+00
        -11   -1    0    0    0    0  0.00000000000E+00  0.00000000000E+00  0.45593999997E+02  0.45594000000E+02  0.51100000000E-03 0. -1.
         11   -1    0    0    0    0 -0.00000000000E+00 -0.00000000000E+00 -0.45593999997E+02  0.45594000000E+02  0.51100000000E-03 0.  1.
    9900012    2    1    2    0    0  0.12858912907E+02  0.14949760428E+02  0.25057394079E+02  0.59301953271E+02  0.50000016857E+02 0.  0.
        -12    1    1    2    0    0 -0.12858912907E+02 -0.14949760428E+02 -0.25057394079E+02  0.31886046729E+02  0.00000000000E+00 0.  1.
         11    1    3    3    0    0  0.44077328370E+01  0.11912982805E+02 -0.87846033153E+00  0.12732594429E+02  0.51100000000E-03 0. -1.
        -11    1    3    3    0    0  0.49125199724E+01 -0.10996763525E+02 -0.45082295018E+01  0.12860240822E+02  0.51100000000E-03 0.  1.
         12    1    3    3    0    0  0.35386600976E+01  0.14033541147E+02  0.30444083912E+02  0.33709118020E+02  0.00000000000E+00 0. -1.
</event>
<event>
 7    1  0.6830263E-012  0.5930193E+02  0.7816164E-02  0.1266605E+00
        -11   -1    0    0    0    0  0.00000000000E+00  0.00000000000E+00  0.45593999997E+02  0.45594000000E+02  0.51100000000E-03 0. -1.
         11   -1    0    0    0    0 -0.00000000000E+00 -0.00000000000E+00 -0.45593999997E+02  0.45594000000E+02  0.51100000000E-03 0.  1.
    9900012    2    1    2    0    0 -0.20379646597E+02  0.21256721877E+02  0.12228784788E+02  0.59301930976E+02  0.49999976197E+02 0.  0.
        -12    1    1    2    0    0  0.20379646597E+02 -0.21256721877E+02 -0.12228784788E+02  0.31886069024E+02  0.00000000000E+00 0.  1.
         11    1    3    3    0    0 -0.23926845045E+01  0.76272445112E+01 -0.86794245824E+01  0.11799669882E+02  0.51100000000E-03 0. -1.
        -11    1    3    3    0    0 -0.23165581672E+02  0.41620696292E+01 -0.48497154117E+00  0.23541499431E+02  0.51100000000E-03 0.  1.
         12    1    3    3    0    0  0.51786195789E+01  0.94674077367E+01  0.21393180912E+02  0.23960761664E+02  0.00000000000E+00 0. -1.
</event>
<event>
 7    1  0.6830263E-012  0.5930194E+02  0.7816164E-02  0.1266605E+00
        -11   -1    0    0    0    0  0.00000000000E+00  0.00000000000E+00  0.45593999997E+02  0.45594000000E+02  0.51100000000E-03 0. -1.
         11   -1    0    0    0    0 -0.00000000000E+00 -0.00000000000E+00 -0.45593999997E+02  0.45594000000E+02  0.51100000000E-03 0.  1.
    9900012    2    1    2    0    0  0.13108773451E+02 -0.16407888752E+02 -0.23992956176E+02  0.59301941906E+02  0.49999996131E+02 0.  0.
        -12    1    1    2    0    0 -0.13108773451E+02  0.16407888752E+02  0.23992956176E+02  0.31886058094E+02  0.00000000000E+00 0.  1.
         11    1    3    3    0    0  0.22961056536E+01 -0.70939517170E+01 -0.12351724420E+02  0.14427797771E+02  0.51100000000E-03 0. -1.
        -11    1    3    3    0    0  0.24752533970E+02 -0.10400087014E+02 -0.26708865262E+00  0.26849973640E+02  0.51100000000E-03 0.  1.
        -12    1    3    3    0    0 -0.13939866173E+02  0.10861499787E+01 -0.11374143104E+02  0.18024170495E+02  0.00000000000E+00 0.  1.
</event>
<event>
 7    1  0.6830263E-012  0.5930169E+02  0.7816164E-02  0.1266606E+00
        -11   -1    0    0    0    0  0.00000000000E+00  0.00000000000E+00  0.45593999997E+02  0.45594000000E+02  0.51100000000E-03 0.  1.
         11   -1    0    0    0    0 -0.00000000000E+00 -0.00000000000E+00 -0.45593999997E+02  0.45594000000E+02  0.51100000000E-03 0. -1.
    9900012    2    1    2    0    0  0.30172862450E+02 -0.77991220609E+01 -0.67460073827E+01  0.59301693394E+02  0.49999542903E+02 0.  0.
        -12    1    1    2    0    0 -0.30172862450E+02  0.77991220609E+01  0.67460073827E+01  0.31886306606E+02  0.00000000000E+00 0.  1.
         11    1    3    3    0    0  0.30846535269E+02  0.95589221740E+01  0.51986012972E+01  0.32709435748E+02  0.51100000000E-03 0. -1.
        -11    1    3    3    0    0  0.44105857648E+01 -0.55889373539E+00  0.12682031735E+01  0.46231989517E+01  0.51100000000E-03 0.  1.
        -12    1    3    3    0    0 -0.50842585840E+01 -0.16799150499E+02 -0.13212811853E+02  0.21969058695E+02  0.00000000000E+00 0.  1.
</event>
<event>
 7    1  0.6830263E-012  0.5930191E+02  0.7816164E-02  0.1266605E+00
        -11   -1    0    0    0    0  0.00000000000E+00  0.00000000000E+00  0.45593999997E+02  0.45594000000E+02  0.51100000000E-03 0.  1.
         11   -1    0    0    0    0 -0.00000000000E+00 -0.00000000000E+00 -0.45593999997E+02  0.45594000000E+02  0.51100000000E-03 0. -1.
    9900012    2    1    2    0    0 -0.11314066525E+02 -0.20991378466E+02 -0.21167818804E+02  0.59301911746E+02  0.49999941126E+02 0.  0.
        -12    1    1    2    0    0  0.11314066525E+02  0.20991378466E+02  0.21167818804E+02  0.31886088254E+02  0.00000000000E+00 0.  1.
         11    1    3    3    0    0 -0.64371274740E+01  0.23664715480E+01 -0.36210325611E+01  0.77555576701E+01  0.51100000000E-03 0. -1.
        -11    1    3    3    0    0 -0.33577558523E+01  0.85180795509E+01  0.68019252345E+01  0.11406068155E+02  0.51100000000E-03 0.  1.
         12    1    3    3    0    0 -0.15191831985E+01 -0.31875929565E+02 -0.24348711478E+02  0.40140285921E+02  0.00000000000E+00 0. -1.
</event>
<event>
 7    1  0.6830263E-012  0.5930195E+02  0.7816164E-02  0.1266605E+00
        -11   -1    0    0    0    0  0.00000000000E+00  0.00000000000E+00  0.45593999997E+02  0.45594000000E+02  0.51100000000E-03 0.  1.
         11   -1    0    0    0    0 -0.00000000000E+00 -0.00000000000E+00 -0.45593999997E+02  0.45594000000E+02  0.51100000000E-03 0. -1.
    9900012    2    1    2    0    0  0.22213915558E+02 -0.18916734882E+02  0.12861545371E+02  0.59301948937E+02  0.50000008954E+02 0.  0.
        -12    1    1    2    0    0 -0.22213915558E+02  0.18916734882E+02 -0.12861545371E+02  0.31886051063E+02  0.00000000000E+00 0.  1.
         11    1    3    3    0    0  0.20100199170E+02 -0.67073826891E+01 -0.17124033512E+01  0.21258864379E+02  0.51100000000E-03 0. -1.
        -11    1    3    3    0    0  0.78785277896E+01  0.24371999379E+01  0.19807398965E+02  0.21455633239E+02  0.51100000000E-03 0.  1.
         12    1    3    3    0    0 -0.57648114010E+01 -0.14646552131E+02 -0.52334502429E+01  0.16587451319E+02  0.00000000000E+00 0. -1.
</event>
<event>
 7    1  0.6830263E-012  0.5930185E+02  0.7816164E-02  0.1266605E+00
        -11   -1    0    0    0    0  0.00000000000E+00  0.00000000000E+00  0.45593999997E+02  0.45594000000E+02  0.51100000000E-03 0. -1.
         11   -1    0    0    0    0 -0.00000000000E+00 -0.00000000000E+00 -0.45593999997E+02  0.45594000000E+02  0.51100000000E-03 0.  1.
    9900012    2    1    2    0    0 -0.24036418315E+01 -0.30218674215E+02  0.98884155866E+01  0.59301850527E+02  0.49999829478E+02 0.  0.
        -12    1    1    2    0    0  0.24036418315E+01  0.30218674215E+02 -0.98884155866E+01  0.31886149473E+02  0.00000000000E+00 0.  1.
         11    1    3    3    0    0  0.32494098981E+01 -0.18287143589E+02  0.91255927242E+01  0.20694316325E+02  0.51100000000E-03 0. -1.
        -11    1    3    3    0    0  0.49193914098E+01 -0.13237247643E+02  0.15146575134E+02  0.20708545955E+02  0.51100000000E-03 0.  1.
        -12    1    3    3    0    0 -0.10572443139E+02  0.13057170170E+01 -0.14383752272E+02  0.17898988247E+02  0.00000000000E+00 0.  1.
</event>
<event>
 7    1  0.6830263E-012  0.5930191E+02  0.7816164E-02  0.1266605E+00
        -11   -1    0    0    0    0  0.00000000000E+00  0.00000000000E+00  0.45593999997E+02  0.45594000000E+02  0.51100000000E-03 0.  1.
         11   -1    0    0    0    0 -0.00000000000E+00 -0.00000000000E+00 -0.45593999997E+02  0.45594000000E+02  0.51100000000E-03 0. -1.
    9900012    2    1    2    0    0 -0.15394754184E+02 -0.24825118916E+02 -0.12784279352E+02  0.59301909238E+02  0.49999936551E+02 0.  0.
        -12    1    1    2    0    0  0.15394754184E+02  0.24825118916E+02  0.12784279352E+02  0.31886090762E+02  0.00000000000E+00 0.  1.
         11    1    3    3    0    0 -0.27307712124E+01 -0.18708913140E+02  0.11479215856E+02  0.22119062802E+02  0.51100000000E-03 0.  1.
        -11    1    3    3    0    0  0.10321525760E+01 -0.11921119799E+02 -0.16560903639E+02  0.20431396570E+02  0.51100000000E-03 0. -1.
         12    1    3    3    0    0 -0.13696135548E+02  0.58049140233E+01 -0.77025915683E+01  0.16751449866E+02  0.00000000000E+00 0. -1.
</event>
<event>
 7    1  0.6830263E-012  0.5930195E+02  0.7816164E-02  0.1266605E+00
        -11   -1    0    0    0    0  0.00000000000E+00  0.00000000000E+00  0.45593999997E+02  0.45594000000E+02  0.51100000000E-03 0.  1.
         11   -1    0    0    0    0 -0.00000000000E+00 -0.00000000000E+00 -0.45593999997E+02  0.45594000000E+02  0.51100000000E-03 0. -1.
    9900012    2    1    2    0    0  0.25657461959E+02 -0.28495863906E+01 -0.18716165220E+02  0.59301947606E+02  0.50000006525E+02 0.  0.
        -12    1    1    2    0    0 -0.25657461959E+02  0.28495863906E+01  0.18716165220E+02  0.31886052394E+02  0.00000000000E+00 0.  1.
         11    1    3    3    0    0 -0.19250349935E+01 -0.31066736321E+01  0.42129493785E+01  0.55772863930E+01  0.51100000000E-03 0. -1.
        -11    1    3    3    0    0 -0.63116674837E+00 -0.14928327073E+02 -0.13969465620E+02  0.20454810941E+02  0.51100000000E-03 0.  1.
         12    1    3    3    0    0  0.28213663701E+02  0.15185414314E+02 -0.89596489781E+01  0.33269850272E+02  0.00000000000E+00 0. -1.
</event>
<event>
 7    1  0.6830263E-012  0.5930191E+02  0.7816164E-02  0.1266605E+00
        -11   -1    0    0    0    0  0.00000000000E+00  0.00000000000E+00  0.45593999997E+02  0.45594000000E+02  0.51100000000E-03 0.  1.
         11   -1    0    0    0    0 -0.00000000000E+00 -0.00000000000E+00 -0.45593999997E+02  0.45594000000E+02  0.51100000000E-03 0. -1.
    9900012    2    1    2    0    0 -0.82182248492E+00 -0.21683601051E+02 -0.23363839162E+02  0.59301906994E+02  0.49999932460E+02 0.  0.
        -12    1    1    2    0    0  0.82182248492E+00  0.21683601051E+02  0.23363839162E+02  0.31886093006E+02  0.00000000000E+00 0.  1.
         11    1    3    3    0    0  0.14505302445E+02  0.93645265822E+00 -0.13711320193E+02  0.19982018024E+02  0.51100000000E-03 0. -1.
        -11    1    3    3    0    0  0.29857844235E+01 -0.74313580431E+01  0.67069264621E+01  0.10446188483E+02  0.51100000000E-03 0.  1.
         12    1    3    3    0    0 -0.18312909354E+02 -0.15188695667E+02 -0.16359445432E+02  0.28873700488E+02  0.00000000000E+00 0. -1.
</event>
<event>
 7    1  0.6830263E-012  0.5930194E+02  0.7816164E-02  0.1266605E+00
        -11   -1    0    0    0    0  0.00000000000E+00  0.00000000000E+00  0.45593999997E+02  0.45594000000E+02  0.51100000000E-03 0. -1.
         11   -1    0    0    0    0 -0.00000000000E+00 -0.00000000000E+00 -0.45593999997E+02  0.45594000000E+02  0.51100000000E-03 0.  1.
    9900012    2    1    2    0    0 -0.27307769123E+02 -0.16166104446E+02 -0.31086157977E+01  0.59301942238E+02  0.49999996735E+02 0.  0.
        -12    1    1    2    0    0  0.27307769123E+02  0.16166104446E+02  0.31086157977E+01  0.31886057762E+02  0.00000000000E+00 0.  1.
         11    1    3    3    0    0 -0.46469605668E+01 -0.43695082184E+01 -0.31230549014E+01  0.71021346621E+01  0.51100000000E-03 0. -1.
        -11    1    3    3    0    0 -0.49287485759E+00 -0.91196190713E+01 -0.20143885731E+02  0.22117561128E+02  0.51100000000E-03 0.  1.
        -12    1    3    3    0    0 -0.22167933699E+02 -0.26769771561E+01  0.20158324835E+02  0.30082246448E+02  0.00000000000E+00 0.  1.
</event>
<event>
 7    1  0.6830263E-012  0.5930206E+02  0.7816164E-02  0.1266604E+00
        -11   -1    0    0    0    0  0.00000000000E+00  0.00000000000E+00  0.45593999997E+02  0.45594000000E+02  0.51100000000E-03 0. -1.
         11   -1    0    0    0    0 -0.00000000000E+00 -0.00000000000E+00 -0.45593999997E+02  0.45594000000E+02  0.51100000000E-03 0.  1.
    9900012    2    1    2    0    0 -0.16538100108E+02  0.16489794657E+02  0.21709239469E+02  0.59302060131E+02  0.50000211744E+02 0.  0.
        -12    1    1    2    0    0  0.16538100108E+02 -0.16489794657E+02 -0.21709239469E+02  0.31885939869E+02  0.00000000000E+00 0.  1.
         11    1    3    3    0    0  0.29437618125E+01 -0.74505306484E+01 -0.65412939731E+01  0.10342372438E+02  0.51100000000E-03 0. -1.
        -11    1    3    3    0    0  0.50238721625E+01  0.16513590727E+01 -0.20160595490E+00  0.52921567923E+01  0.51100000000E-03 0.  1.
         12    1    3    3    0    0 -0.24505734083E+02  0.22288966232E+02  0.28452139397E+02  0.43667530900E+02  0.00000000000E+00 0. -1.
</event>
<event>
 7    1  0.6830263E-012  0.5930176E+02  0.7816164E-02  0.1266605E+00
        -11   -1    0    0    0    0  0.00000000000E+00  0.00000000000E+00  0.45593999997E+02  0.45594000000E+02  0.51100000000E-03 0.  1.
         11   -1    0    0    0    0 -0.00000000000E+00 -0.00000000000E+00 -0.45593999997E+02  0.45594000000E+02  0.51100000000E-03 0. -1.
    9900012    2    1    2    0    0 -0.31481335206E+02  0.47692672651E+01  0.17064974101E+01  0.59301756727E+02  0.49999658408E+02 0.  0.
        -12    1    1    2    0    0  0.31481335206E+02 -0.47692672651E+01 -0.17064974101E+01  0.31886243273E+02  0.00000000000E+00 0.  1.
         11    1    3    3    0    0  0.52569259809E+01  0.77743482408E+01 -0.16409093781E+01  0.95272422655E+01  0.51100000000E-03 0. -1.
        -11    1    3    3    0    0 -0.91514435900E+01  0.12401099870E+02 -0.64291235654E+01  0.16699396032E+02  0.51100000000E-03 0.  1.
        -12    1    3    3    0    0 -0.27586817597E+02 -0.15406180845E+02  0.97765303536E+01  0.33075118430E+02  0.00000000000E+00 0.  1.
</event>
<event>
 7    1  0.6830263E-012  0.5930194E+02  0.7816164E-02  0.1266605E+00
        -11   -1    0    0    0    0  0.00000000000E+00  0.00000000000E+00  0.45593999997E+02  0.45594000000E+02  0.51100000000E-03 0. -1.
         11   -1    0    0    0    0 -0.00000000000E+00 -0.00000000000E+00 -0.45593999997E+02  0.45594000000E+02  0.51100000000E-03 0.  1.
    9900012    2    1    2    0    0 -0.55837620328E+01 -0.29037946964E+02  0.11930648112E+02  0.59301935228E+02  0.49999983951E+02 0.  0.
        -12    1    1    2    0    0  0.55837620328E+01  0.29037946964E+02 -0.11930648112E+02  0.31886064772E+02  0.00000000000E+00 0.  1.
         11    1    3    3    0    0 -0.64639701775E+01  0.95196124531E+01  0.51021759409E+01  0.12587220952E+02  0.51100000000E-03 0. -1.
        -11    1    3    3    0    0 -0.83755551890E+00 -0.21238394405E+01 -0.72627964690E+01  0.76131731905E+01  0.51100000000E-03 0.  1.
         12    1    3    3    0    0  0.17177636636E+01 -0.36433719976E+02  0.14091268640E+02  0.39101541085E+02  0.00000000000E+00 0. -1.
</event>
<event>
 7    1  0.6830263E-012  0.5930195E+02  0.7816164E-02  0.1266605E+00
        -11   -1    0    0    0    0  0.00000000000E+00  0.00000000000E+00  0.45593999997E+02  0.45594000000E+02  0.51100000000E-03 0. -1.
         11   -1    0    0    0    0 -0.00000000000E+00 -0.00000000000E+00 -0.45593999997E+02  0.45594000000E+02  0.51100000000E-03 0.  1.
    9900012    2    1    2    0    0  0.24232709930E+02  0.19045687763E+02  0.81705550033E+01  0.59301946278E+02  0.50000004103E+02 0.  0.
        -12    1    1    2    0    0 -0.24232709930E+02 -0.19045687763E+02 -0.81705550033E+01  0.31886053722E+02  0.00000000000E+00 0.  1.
         11    1    3    3    0    0 -0.11252241883E+01  0.64015599502E+00 -0.75497918980E+01  0.76599795781E+01  0.51100000000E-03 0. -1.
        -11    1    3    3    0    0 -0.19990215188E+00 -0.72759409051E+01 -0.59700353621E+01  0.94138514653E+01  0.51100000000E-03 0.  1.
         12    1    3    3    0    0  0.25557836270E+02  0.25681472673E+02  0.21690382263E+02  0.42228115234E+02  0.00000000000E+00 0. -1.
</event>
<event>
 7    1  0.6830263E-012  0.5930195E+02  0.7816164E-02  0.1266605E+00
        -11   -1    0    0    0    0  0.00000000000E+00  0.00000000000E+00  0.45593999997E+02  0.45594000000E+02  0.51100000000E-03 0.  1.
         11   -1    0    0    0    0 -0.00000000000E+00 -0.00000000000E+00 -0.45593999997E+02  0.45594000000E+02  0.51100000000E-03 0. -1.
    9900012    2    1    2    0    0  0.17484909583E+02  0.98911312236E+01 -0.24762144786E+02  0.59301947337E+02  0.50000006036E+02 0.  0.
        -12    1    1    2    0    0 -0.17484909583E+02 -0.98911312236E+01  0.24762144786E+02  0.31886052663E+02  0.00000000000E+00 0.  1.
         11    1    3    3    0    0  0.33429145859E+01  0.12394620363E+02 -0.12892159281E+01  0.12902083934E+02  0.51100000000E-03 0. -1.
        -11    1    3    3    0    0 -0.10597480163E+02 -0.14398614057E+01  0.19937489921E+01  0.10879100238E+02  0.51100000000E-03 0.  1.
         12    1    3    3    0    0  0.24739475161E+02 -0.10636277332E+01 -0.25466677850E+02  0.35520763166E+02  0.00000000000E+00 0. -1.
</event>
<event>
 7    1  0.6830263E-012  0.5930196E+02  0.7816164E-02  0.1266605E+00
        -11   -1    0    0    0    0  0.00000000000E+00  0.00000000000E+00  0.45593999997E+02  0.45594000000E+02  0.51100000000E-03 0.  1.
         11   -1    0    0    0    0 -0.00000000000E+00 -0.00000000000E+00 -0.45593999997E+02  0.45594000000E+02  0.51100000000E-03 0. -1.
    9900012    2    1    2    0    0 -0.31527859966E+02  0.23578144726E+01 -0.41417465756E+01  0.59301963749E+02  0.50000035967E+02 0.  0.
        -12    1    1    2    0    0  0.31527859966E+02 -0.23578144726E+01  0.41417465756E+01  0.31886036251E+02  0.00000000000E+00 0.  1.
         11    1    3    3    0    0 -0.30075729510E+02  0.14160765072E+01  0.15367810876E+01  0.30148241651E+02  0.51100000000E-03 0. -1.
        -11    1    3    3    0    0 -0.80932938369E+01  0.45651053152E+01 -0.14693439045E+02  0.17385014895E+02  0.51100000000E-03 0.  1.
        -12    1    3    3    0    0  0.66411633817E+01 -0.36233673499E+01  0.90149113820E+01  0.11768707203E+02  0.00000000000E+00 0.  1.
</event>
<event>
 7    1  0.6830263E-012  0.5930193E+02  0.7816164E-02  0.1266605E+00
        -11   -1    0    0    0    0  0.00000000000E+00  0.00000000000E+00  0.45593999997E+02  0.45594000000E+02  0.51100000000E-03 0. -1.
         11   -1    0    0    0    0 -0.00000000000E+00 -0.00000000000E+00 -0.45593999997E+02  0.45594000000E+02  0.51100000000E-03 0.  1.
    9900012    2    1    2    0    0  0.11097133994E+02 -0.11791879373E+02  0.27468644391E+02  0.59301933659E+02  0.49999981090E+02 0.  0.
        -12    1    1    2    0    0 -0.11097133994E+02  0.11791879373E+02 -0.27468644391E+02  0.31886066341E+02  0.00000000000E+00 0.  1.
         11    1    3    3    0    0 -0.27100014896E+01 -0.95860795475E+01  0.34812769187E+02  0.36210025240E+02  0.51100000000E-03 0. -1.
        -11    1    3    3    0    0  0.31416802599E+01 -0.37506676509E+01  0.48010743214E+01  0.68547777195E+01  0.51100000000E-03 0.  1.
        -12    1    3    3    0    0  0.10665455224E+02  0.15448678251E+01 -0.12145199118E+02  0.16237130699E+02  0.00000000000E+00 0.  1.
</event>
<event>
 7    1  0.6830263E-012  0.5930193E+02  0.7816164E-02  0.1266605E+00
        -11   -1    0    0    0    0  0.00000000000E+00  0.00000000000E+00  0.45593999997E+02  0.45594000000E+02  0.51100000000E-03 0.  1.
         11   -1    0    0    0    0 -0.00000000000E+00 -0.00000000000E+00 -0.45593999997E+02  0.45594000000E+02  0.51100000000E-03 0. -1.
    9900012    2    1    2    0    0  0.18635709638E+02  0.84334152884E+01  0.24460362158E+02  0.59301929624E+02  0.49999973731E+02 0.  0.
        -12    1    1    2    0    0 -0.18635709638E+02 -0.84334152884E+01 -0.24460362158E+02  0.31886070376E+02  0.00000000000E+00 0.  1.
         11    1    3    3    0    0  0.42275872121E+00  0.57176927328E+01 -0.12062712692E+01  0.58588246056E+01  0.51100000000E-03 0. -1.
        -11    1    3    3    0    0  0.26403527036E+02  0.14011945591E+02  0.80234071539E+01  0.30949247516E+02  0.51100000000E-03 0.  1.
         12    1    3    3    0    0 -0.81905761187E+01 -0.11296223035E+02  0.17643226273E+02  0.22493857503E+02  0.00000000000E+00 0. -1.
</event>
<event>
 7    1  0.6830263E-012  0.5930159E+02  0.7816164E-02  0.1266606E+00
        -11   -1    0    0    0    0  0.00000000000E+00  0.00000000000E+00  0.45593999997E+02  0.45594000000E+02  0.51100000000E-03 0.  1.
         11   -1    0    0    0    0 -0.00000000000E+00 -0.00000000000E+00 -0.45593999997E+02  0.45594000000E+02  0.51100000000E-03 0. -1.
    9900012    2    1    2    0    0  0.22632201027E+02  0.20080633386E+01 -0.22371731932E+02  0.59301588610E+02  0.49999351799E+02 0.  0.
        -12    1    1    2    0    0 -0.22632201027E+02 -0.20080633386E+01  0.22371731932E+02  0.31886411390E+02  0.00000000000E+00 0.  1.
         11    1    3    3    0    0  0.15451591376E+02  0.19570411374E+02 -0.32134248195E+01  0.25141176916E+02  0.51100000000E-03 0. -1.
        -11    1    3    3    0    0  0.17513240537E+01 -0.13239545083E+02  0.44767425958E+00  0.13362376377E+02  0.51100000000E-03 0.  1.
        -12    1    3    3    0    0  0.54292855965E+01 -0.43228029520E+01 -0.19605981372E+02  0.20798035317E+02  0.00000000000E+00 0.  1.
</event>
<event>
 7    1  0.6830263E-012  0.5930193E+02  0.7816164E-02  0.1266605E+00
        -11   -1    0    0    0    0  0.00000000000E+00  0.00000000000E+00  0.45593999997E+02  0.45594000000E+02  0.51100000000E-03 0.  1.
         11   -1    0    0    0    0 -0.00000000000E+00 -0.00000000000E+00 -0.45593999997E+02  0.45594000000E+02  0.51100000000E-03 0. -1.
    9900012    2    1    2    0    0 -0.57373840677E+01 -0.21196865789E+01 -0.31293939753E+02  0.59301932315E+02  0.49999978639E+02 0.  0.
        -12    1    1    2    0    0  0.57373840677E+01  0.21196865789E+01  0.31293939753E+02  0.31886067685E+02  0.00000000000E+00 0.  1.
         11    1    3    3    0    0  0.16648348161E+02  0.72064740222E+01 -0.16027777793E+02  0.24207239115E+02  0.51100000000E-03 0. -1.
        -11    1    3    3    0    0  0.12987858429E+01  0.16899814244E-01 -0.87060465798E+01  0.88024074878E+01  0.51100000000E-03 0.  1.
        -12    1    3    3    0    0 -0.23684518071E+02 -0.93430604153E+01 -0.65601153807E+01  0.26292285713E+02  0.00000000000E+00 0.  1.
</event>
<event>
 7    1  0.6830263E-012  0.5930195E+02  0.7816164E-02  0.1266605E+00
        -11   -1    0    0    0    0  0.00000000000E+00  0.00000000000E+00  0.45593999997E+02  0.45594000000E+02  0.51100000000E-03 0.  1.
         11   -1    0    0    0    0 -0.00000000000E+00 -0.00000000000E+00 -0.45593999997E+02  0.45594000000E+02  0.51100000000E-03 0. -1.
    9900012    2    1    2    0    0  0.69563357134E+01  0.15799950453E+01 -0.31077854441E+02  0.59301952463E+02  0.50000015383E+02 0.  0.
        -12    1    1    2    0    0 -0.69563357134E+01 -0.15799950453E+01  0.31077854441E+02  0.31886047537E+02  0.00000000000E+00 0.  1.
         11    1    3    3    0    0  0.11366549761E+01  0.18853227029E+02  0.27723150787E+00  0.18889494739E+02  0.51100000000E-03 0. -1.
        -11    1    3    3    0    0  0.12432681549E-01  0.37122395068E+01 -0.41925719211E+01  0.55998693111E+01  0.51100000000E-03 0.  1.
        -12    1    3    3    0    0  0.58072480557E+01 -0.20985471490E+02 -0.27162514028E+02  0.34812588412E+02  0.00000000000E+00 0.  1.
</event>
<event>
 7    1  0.6830263E-012  0.5930196E+02  0.7816164E-02  0.1266605E+00
        -11   -1    0    0    0    0  0.00000000000E+00  0.00000000000E+00  0.45593999997E+02  0.45594000000E+02  0.51100000000E-03 0.  1.
         11   -1    0    0    0    0 -0.00000000000E+00 -0.00000000000E+00 -0.45593999997E+02  0.45594000000E+02  0.51100000000E-03 0. -1.
    9900012    2    1    2    0    0 -0.35260198034E+01  0.29724299945E+02 -0.10988767570E+02  0.59301955473E+02  0.50000020873E+02 0.  0.
        -12    1    1    2    0    0  0.35260198034E+01 -0.29724299945E+02  0.10988767570E+02  0.31886044527E+02  0.00000000000E+00 0.  1.
         11    1    3    3    0    0 -0.49097940414E+01  0.25476765688E+01 -0.20972617309E+02  0.21689799688E+02  0.51100000000E-03 0. -1.
        -11    1    3    3    0    0 -0.10723731159E+01 -0.30749637017E+00 -0.57437360259E+01  0.58510718602E+01  0.51100000000E-03 0.  1.
        -12    1    3    3    0    0  0.24561473540E+01  0.27484119747E+02  0.15727585765E+02  0.31761083925E+02  0.00000000000E+00 0.  1.
</event>
<event>
 7    1  0.6830263E-012  0.5930197E+02  0.7816164E-02  0.1266605E+00
        -11   -1    0    0    0    0  0.00000000000E+00  0.00000000000E+00  0.45593999997E+02  0.45594000000E+02  0.51100000000E-03 0. -1.
         11   -1    0    0    0    0 -0.00000000000E+00 -0.00000000000E+00 -0.45593999997E+02  0.45594000000E+02  0.51100000000E-03 0.  1.
    9900012    2    1    2    0    0  0.14096257963E+02  0.26134380314E+02  0.11619317709E+02  0.59301970662E+02  0.50000048574E+02 0.  0.
        -12    1    1    2    0    0 -0.14096257963E+02 -0.26134380314E+02 -0.11619317709E+02  0.31886029338E+02  0.00000000000E+00 0.  1.
         11    1    3    3    0    0 -0.89205153754E+01  0.54090890651E+01 -0.76046728437E+01  0.12909875615E+02  0.51100000000E-03 0. -1.
        -11    1    3    3    0    0 -0.31782328748E+01 -0.27735052825E+01 -0.26270535223E+01  0.49693969683E+01  0.51100000000E-03 0.  1.
         12    1    3    3    0    0  0.26195006213E+02  0.23498796531E+02  0.21851044075E+02  0.41422698078E+02  0.00000000000E+00 0. -1.
</event>
<event>
 7    1  0.6830263E-012  0.5930194E+02  0.7816164E-02  0.1266605E+00
        -11   -1    0    0    0    0  0.00000000000E+00  0.00000000000E+00  0.45593999997E+02  0.45594000000E+02  0.51100000000E-03 0.  1.
         11   -1    0    0    0    0 -0.00000000000E+00 -0.00000000000E+00 -0.45593999997E+02  0.45594000000E+02  0.51100000000E-03 0. -1.
    9900012    2    1    2    0    0 -0.29521183107E+02  0.96823412482E+01  0.71744773266E+01  0.59301935505E+02  0.49999984457E+02 0.  0.
        -12    1    1    2    0    0  0.29521183107E+02 -0.96823412482E+01 -0.71744773266E+01  0.31886064495E+02  0.00000000000E+00 0.  1.
         11    1    3    3    0    0  0.56961789707E+01  0.49654988338E+01 -0.75889882987E+01  0.10709592765E+02  0.51100000000E-03 0. -1.
        -11    1    3    3    0    0 -0.95114232139E+01  0.51995729919E+01 -0.86117125152E+01  0.13844288481E+02  0.51100000000E-03 0.  1.
        -12    1    3    3    0    0 -0.25705938863E+02 -0.48273057758E+00  0.23375178140E+02  0.34748054259E+02  0.00000000000E+00 0.  1.
</event>
<event>
 7    1  0.6830263E-012  0.5930194E+02  0.7816164E-02  0.1266605E+00
        -11   -1    0    0    0    0  0.00000000000E+00  0.00000000000E+00  0.45593999997E+02  0.45594000000E+02  0.51100000000E-03 0.  1.
         11   -1    0    0    0    0 -0.00000000000E+00 -0.00000000000E+00 -0.45593999997E+02  0.45594000000E+02  0.51100000000E-03 0. -1.
    9900012    2    1    2    0    0  0.14140073499E+02  0.34750408029E+01 -0.28367294924E+02  0.59301937082E+02  0.49999987332E+02 0.  0.
        -12    1    1    2    0    0 -0.14140073499E+02 -0.34750408029E+01  0.28367294924E+02  0.31886062918E+02  0.00000000000E+00 0.  1.
         11    1    3    3    0    0  0.44529479152E+01 -0.74004555644E+01 -0.17178609829E+02  0.19227587566E+02  0.51100000000E-03 0. -1.
        -11    1    3    3    0    0  0.49035150162E+01 -0.48495861021E+01  0.10682588340E+02  0.12715370178E+02  0.51100000000E-03 0.  1.
         12    1    3    3    0    0  0.47836105672E+01  0.15725082469E+02 -0.21871273435E+02  0.27358979337E+02  0.00000000000E+00 0. -1.
</event>
<event>
 7    1  0.6830263E-012  0.5930188E+02  0.7816164E-02  0.1266605E+00
        -11   -1    0    0    0    0  0.00000000000E+00  0.00000000000E+00  0.45593999997E+02  0.45594000000E+02  0.51100000000E-03 0.  1.
         11   -1    0    0    0    0 -0.00000000000E+00 -0.00000000000E+00 -0.45593999997E+02  0.45594000000E+02  0.51100000000E-03 0. -1.
    9900012    2    1    2    0    0 -0.92080339939E+01  0.23626059628E+02 -0.19332508849E+02  0.59301882614E+02  0.49999887995E+02 0.  0.
        -12    1    1    2    0    0  0.92080339939E+01 -0.23626059628E+02  0.19332508849E+02  0.31886117386E+02  0.00000000000E+00 0.  1.
         11    1    3    3    0    0 -0.18827320726E+02  0.66199269611E+01  0.27138301110E+01  0.20140911420E+02  0.51100000000E-03 0. -1.
        -11    1    3    3    0    0 -0.37853046331E+01  0.16599152297E+01  0.42271832184E+01  0.59121001310E+01  0.51100000000E-03 0.  1.
         12    1    3    3    0    0  0.13404591365E+02  0.15346217438E+02 -0.26273522178E+02  0.33248871063E+02  0.00000000000E+00 0. -1.
</event>
<event>
 7    1  0.6830263E-012  0.5930195E+02  0.7816164E-02  0.1266605E+00
        -11   -1    0    0    0    0  0.00000000000E+00  0.00000000000E+00  0.45593999997E+02  0.45594000000E+02  0.51100000000E-03 0. -1.
         11   -1    0    0    0    0 -0.00000000000E+00 -0.00000000000E+00 -0.45593999997E+02  0.45594000000E+02  0.51100000000E-03 0.  1.
    9900012    2    1    2    0    0 -0.22948058932E+02 -0.12540041802E+01  0.22102809898E+02  0.59301950690E+02  0.50000012150E+02 0.  0.
        -12    1    1    2    0    0  0.22948058932E+02  0.12540041802E+01 -0.22102809898E+02  0.31886049310E+02  0.00000000000E+00 0.  1.
         11    1    3    3    0    0 -0.16236859637E+02 -0.24826948220E+01  0.20783748955E+01  0.16556540307E+02  0.51100000000E-03 0. -1.
        -11    1    3    3    0    0 -0.21938862328E+02  0.39624987443E+01  0.11807455996E+02  0.25227585970E+02  0.51100000000E-03 0.  1.
         12    1    3    3    0    0  0.15227663032E+02 -0.27338081025E+01  0.82169790067E+01  0.17517824413E+02  0.00000000000E+00 0. -1.
</event>
<event>
 7    1  0.6830263E-012  0.5930199E+02  0.7816164E-02  0.1266605E+00
        -11   -1    0    0    0    0  0.00000000000E+00  0.00000000000E+00  0.45593999997E+02  0.45594000000E+02  0.51100000000E-03 0.  1.
         11   -1    0    0    0    0 -0.00000000000E+00 -0.00000000000E+00 -0.45593999997E+02  0.45594000000E+02  0.51100000000E-03 0. -1.
    9900012    2    1    2    0    0 -0.11292365321E+02 -0.23342663792E+02  0.18555872301E+02  0.59301986384E+02  0.50000077248E+02 0.  0.
        -12    1    1    2    0    0  0.11292365321E+02  0.23342663792E+02 -0.18555872301E+02  0.31886013616E+02  0.00000000000E+00 0.  1.
         11    1    3    3    0    0  0.16132504088E+01 -0.68087876025E+01  0.75305056146E+01  0.10279624534E+02  0.51100000000E-03 0. -1.
        -11    1    3    3    0    0 -0.25154390687E+01 -0.78455392983E+01  0.26912559656E+02  0.28145439916E+02  0.51100000000E-03 0.  1.
         12    1    3    3    0    0 -0.10390176661E+02 -0.86883368916E+01 -0.15887192969E+02  0.20876921933E+02  0.00000000000E+00 0. -1.
</event>
<event>
 7    1  0.6830263E-012  0.5930194E+02  0.7816164E-02  0.1266605E+00
        -11   -1    0    0    0    0  0.00000000000E+00  0.00000000000E+00  0.45593999997E+02  0.45594000000E+02  0.51100000000E-03 0.  1.
         11   -1    0    0    0    0 -0.00000000000E+00 -0.00000000000E+00 -0.45593999997E+02  0.45594000000E+02  0.51100000000E-03 0. -1.
    9900012    2    1    2    0    0 -0.15899247200E+02 -0.25528378017E+02 -0.10594169173E+02  0.59301944017E+02  0.49999999980E+02 0.  0.
        -12    1    1    2    0    0  0.15899247200E+02  0.25528378017E+02  0.10594169173E+02  0.31886055983E+02  0.00000000000E+00 0.  1.
         11    1    3    3    0    0  0.31147406879E+00 -0.16375203772E+01 -0.25880377654E+01  0.30783808760E+01  0.51100000000E-03 0. -1.
        -11    1    3    3    0    0 -0.82492229504E+01  0.12782725701E+02 -0.10699658987E+02  0.18599205852E+02  0.51100000000E-03 0.  1.
         12    1    3    3    0    0 -0.79614983188E+01 -0.36673583341E+02  0.26935275791E+01  0.37624357288E+02  0.00000000000E+00 0. -1.
</event>
<event>
 7    1  0.6830263E-012  0.5930194E+02  0.7816164E-02  0.1266605E+00
        -11   -1    0    0    0    0  0.00000000000E+00  0.00000000000E+00  0.45593999997E+02  0.45594000000E+02  0.51100000000E-03 0. -1.
         11   -1    0    0    0    0 -0.00000000000E+00 -0.00000000000E+00 -0.45593999997E+02  0.45594000000E+02  0.51100000000E-03 0.  1.
    9900012    2    1    2    0    0  0.53339579023E+01  0.26276325422E+02  0.17257588508E+02  0.59301941201E+02  0.49999994846E+02 0.  0.
        -12    1    1    2    0    0 -0.53339579023E+01 -0.26276325422E+02 -0.17257588508E+02  0.31886058799E+02  0.00000000000E+00 0.  1.
         11    1    3    3    0    0  0.16309440002E+02  0.19232916915E+02  0.18997571800E+02  0.31572308449E+02  0.51100000000E-03 0. -1.
        -11    1    3    3    0    0 -0.39584647354E+01 -0.71103053471E+01  0.60261801493E+01  0.10126239808E+02  0.51100000000E-03 0.  1.
        -12    1    3    3    0    0 -0.70170173642E+01  0.14153713855E+02 -0.77661634416E+01  0.17603392945E+02  0.00000000000E+00 0.  1.
</event>
<event>
 7    1  0.6830263E-012  0.5930201E+02  0.7816164E-02  0.1266605E+00
        -11   -1    0    0    0    0  0.00000000000E+00  0.00000000000E+00  0.45593999997E+02  0.45594000000E+02  0.51100000000E-03 0. -1.
         11   -1    0    0    0    0 -0.00000000000E+00 -0.00000000000E+00 -0.45593999997E+02  0.45594000000E+02  0.51100000000E-03 0.  1.
    9900012    2    1    2    0    0 -0.32969934128E+01  0.19401672755E+02  0.25088266041E+02  0.59302013043E+02  0.50000125868E+02 0.  0.
        -12    1    1    2    0    0  0.32969934128E+01 -0.19401672755E+02 -0.25088266041E+02  0.31885986957E+02  0.00000000000E+00 0.  1.
         11    1    3    3    0    0 -0.41111554255E+01 -0.34651838354E+01  0.10653281313E+02  0.11933210001E+02  0.51100000000E-03 0. -1.
        -11    1    3    3    0    0 -0.48434514931E+01  0.32151313407E+01  0.24070492867E+02  0.24762566891E+02  0.51100000000E-03 0.  1.
        -12    1    3    3    0    0  0.56576135058E+01  0.19651725249E+02 -0.96355081383E+01  0.22606236152E+02  0.00000000000E+00 0.  1.
</event>
<event>
 7    1  0.6830263E-012  0.5930195E+02  0.7816164E-02  0.1266605E+00
        -11   -1    0    0    0    0  0.00000000000E+00  0.00000000000E+00  0.45593999997E+02  0.45594000000E+02  0.51100000000E-03 0. -1.
         11   -1    0    0    0    0 -0.00000000000E+00 -0.00000000000E+00 -0.45593999997E+02  0.45594000000E+02  0.51100000000E-03 0.  1.
    9900012    2    1    2    0    0  0.11798413602E+02 -0.21814704920E+02  0.20040865706E+02  0.59301949562E+02  0.50000010094E+02 0.  0.
        -12    1    1    2    0    0 -0.11798413602E+02  0.21814704920E+02 -0.20040865706E+02  0.31886050438E+02  0.00000000000E+00 0.  1.
         11    1    3    3    0    0  0.46374941587E+01 -0.12249338766E+01 -0.80653712246E+01  0.93838706473E+01  0.51100000000E-03 0. -1.
        -11    1    3    3    0    0 -0.53157749841E-03  0.91740132898E+00 -0.75830891610E+01  0.76383811744E+01  0.51100000000E-03 0.  1.
         12    1    3    3    0    0  0.71614510209E+01 -0.21507172372E+02  0.35689326092E+02  0.42279697741E+02  0.00000000000E+00 0. -1.
</event>
<event>
 7    1  0.6830263E-012  0.5930191E+02  0.7816164E-02  0.1266605E+00
        -11   -1    0    0    0    0  0.00000000000E+00  0.00000000000E+00  0.45593999997E+02  0.45594000000E+02  0.51100000000E-03 0.  1.
         11   -1    0    0    0    0 -0.00000000000E+00 -0.00000000000E+00 -0.45593999997E+02  0.45594000000E+02  0.51100000000E-03 0. -1.
    9900012    2    1    2    0    0  0.13777782441E+02 -0.28610871674E+02 -0.28832771513E+01  0.59301912845E+02  0.49999943129E+02 0.  0.
        -12    1    1    2    0    0 -0.13777782441E+02  0.28610871674E+02  0.28832771513E+01  0.31886087155E+02  0.00000000000E+00 0.  1.
         11    1    3    3    0    0  0.20617323239E+02 -0.19650806473E+02 -0.88192259940E+00  0.28495718983E+02  0.51100000000E-03 0. -1.
        -11    1    3    3    0    0  0.10397684916E+02 -0.74849456174E+01  0.22099457749E+01  0.13000773942E+02  0.51100000000E-03 0.  1.
        -12    1    3    3    0    0 -0.17237225713E+02 -0.14751195833E+01 -0.42113003268E+01  0.17805419920E+02  0.00000000000E+00 0.  1.
</event>
<event>
 7    1  0.6830263E-012  0.5930190E+02  0.7816164E-02  0.1266605E+00
        -11   -1    0    0    0    0  0.00000000000E+00  0.00000000000E+00  0.45593999997E+02  0.45594000000E+02  0.51100000000E-03 0.  1.
         11   -1    0    0    0    0 -0.00000000000E+00 -0.00000000000E+00 -0.45593999997E+02  0.45594000000E+02  0.51100000000E-03 0. -1.
    9900012    2    1    2    0    0 -0.14201907302E+02  0.28402110974E+02 -0.28894619002E+01  0.59301904772E+02  0.49999928407E+02 0.  0.
        -12    1    1    2    0    0  0.14201907302E+02 -0.28402110974E+02  0.28894619002E+01  0.31886095228E+02  0.00000000000E+00 0.  1.
         11    1    3    3    0    0 -0.60089631466E+01  0.12862591618E+01  0.12475298983E+02  0.13906659761E+02  0.51100000000E-03 0. -1.
        -11    1    3    3    0    0 -0.10930196038E+02 -0.34663224682E+01 -0.74930896530E+01  0.13697845440E+02  0.51100000000E-03 0.  1.
         12    1    3    3    0    0  0.27372518828E+01  0.30582174281E+02 -0.78716712304E+01  0.31697399571E+02  0.00000000000E+00 0. -1.
</event>
<event>
 7    1  0.6830263E-012  0.5930195E+02  0.7816164E-02  0.1266605E+00
        -11   -1    0    0    0    0  0.00000000000E+00  0.00000000000E+00  0.45593999997E+02  0.45594000000E+02  0.51100000000E-03 0.  1.
         11   -1    0    0    0    0 -0.00000000000E+00 -0.00000000000E+00 -0.45593999997E+02  0.45594000000E+02  0.51100000000E-03 0. -1.
    9900012    2    1    2    0    0 -0.25940041456E+02  0.75422448722E+01 -0.16939564350E+02  0.59301952129E+02  0.50000014775E+02 0.  0.
        -12    1    1    2    0    0  0.25940041456E+02 -0.75422448722E+01  0.16939564350E+02  0.31886047871E+02  0.00000000000E+00 0.  1.
         11    1    3    3    0    0  0.36920928133E+01  0.58846688541E+00 -0.13009271251E+02  0.13535840623E+02  0.51100000000E-03 0.  1.
        -11    1    3    3    0    0 -0.78149300077E+01 -0.13370942650E+02  0.11041196025E+01  0.15526568157E+02  0.51100000000E-03 0. -1.
        -12    1    3    3    0    0 -0.21817204262E+02  0.20324720636E+02 -0.50344127008E+01  0.30239543350E+02  0.00000000000E+00 0.  1.
</event>
<event>
 7    1  0.6830263E-012  0.5930194E+02  0.7816164E-02  0.1266605E+00
        -11   -1    0    0    0    0  0.00000000000E+00  0.00000000000E+00  0.45593999997E+02  0.45594000000E+02  0.51100000000E-03 0. -1.
         11   -1    0    0    0    0 -0.00000000000E+00 -0.00000000000E+00 -0.45593999997E+02  0.45594000000E+02  0.51100000000E-03 0.  1.
    9900012    2    1    2    0    0  0.21038688755E+02 -0.36285698236E+01 -0.23683910773E+02  0.59301943910E+02  0.49999999786E+02 0.  0.
        -12    1    1    2    0    0 -0.21038688755E+02  0.36285698236E+01  0.23683910773E+02  0.31886056090E+02  0.00000000000E+00 0.  1.
         11    1    3    3    0    0  0.13606949346E+02  0.83745463482E+01  0.68470002067E+01  0.17382851007E+02  0.51100000000E-03 0. -1.
        -11    1    3    3    0    0  0.62829533106E+01  0.14063903797E+01  0.19771453160E+01  0.67351718661E+01  0.51100000000E-03 0.  1.
        -12    1    3    3    0    0  0.11487860982E+01 -0.13409506552E+02 -0.32508056295E+02  0.35183921037E+02  0.00000000000E+00 0.  1.
</event>
<event>
 7    1  0.6830263E-012  0.5930201E+02  0.7816164E-02  0.1266605E+00
        -11   -1    0    0    0    0  0.00000000000E+00  0.00000000000E+00  0.45593999997E+02  0.45594000000E+02  0.51100000000E-03 0.  1.
         11   -1    0    0    0    0 -0.00000000000E+00 -0.00000000000E+00 -0.45593999997E+02  0.45594000000E+02  0.51100000000E-03 0. -1.
    9900012    2    1    2    0    0 -0.96354506737E+00  0.11238986716E+02 -0.29824035176E+02  0.59302010668E+02  0.50000121536E+02 0.  0.
        -12    1    1    2    0    0  0.96354506737E+00 -0.11238986716E+02  0.29824035176E+02  0.31885989332E+02  0.00000000000E+00 0.  1.
         11    1    3    3    0    0 -0.10063953044E+02 -0.18555116037E+00 -0.10679262145E+01  0.10122156231E+02  0.51100000000E-03 0. -1.
        -11    1    3    3    0    0  0.44400565219E+01  0.11585728336E+02  0.62304765262E+01  0.13883877016E+02  0.51100000000E-03 0.  1.
         12    1    3    3    0    0  0.46603514547E+01 -0.16119045971E+00 -0.34986585488E+02  0.35295977421E+02  0.00000000000E+00 0. -1.
</event>
<event>
 7    1  0.6830263E-012  0.5930193E+02  0.7816164E-02  0.1266605E+00
        -11   -1    0    0    0    0  0.00000000000E+00  0.00000000000E+00  0.45593999997E+02  0.45594000000E+02  0.51100000000E-03 0.  1.
         11   -1    0    0    0    0 -0.00000000000E+00 -0.00000000000E+00 -0.45593999997E+02  0.45594000000E+02  0.51100000000E-03 0. -1.
    9900012    2    1    2    0    0 -0.69958951000E+01 -0.62306474810E+01 -0.30478812647E+02  0.59301928799E+02  0.49999972226E+02 0.  0.
        -12    1    1    2    0    0  0.69958951000E+01  0.62306474810E+01  0.30478812647E+02  0.31886071201E+02  0.00000000000E+00 0.  1.
         11    1    3    3    0    0 -0.98982873073E+01  0.87815951259E+01 -0.16411335831E+02  0.21081376819E+02  0.51100000000E-03 0. -1.
        -11    1    3    3    0    0 -0.10901933350E+02 -0.16597429268E+01  0.41179954470E+01  0.11771354388E+02  0.51100000000E-03 0.  1.
         12    1    3    3    0    0  0.13804325558E+02 -0.13352499680E+02 -0.18185472263E+02  0.26449197592E+02  0.00000000000E+00 0. -1.
</event>
<event>
 7    1  0.6830263E-012  0.5930195E+02  0.7816164E-02  0.1266605E+00
        -11   -1    0    0    0    0  0.00000000000E+00  0.00000000000E+00  0.45593999997E+02  0.45594000000E+02  0.51100000000E-03 0.  1.
         11   -1    0    0    0    0 -0.00000000000E+00 -0.00000000000E+00 -0.45593999997E+02  0.45594000000E+02  0.51100000000E-03 0. -1.
    9900012    2    1    2    0    0 -0.19844590906E+02 -0.13381180827E+02 -0.21067903856E+02  0.59301947227E+02  0.50000005835E+02 0.  0.
        -12    1    1    2    0    0  0.19844590906E+02  0.13381180827E+02  0.21067903856E+02  0.31886052773E+02  0.00000000000E+00 0.  1.
         11    1    3    3    0    0 -0.20087082142E+02 -0.26102188791E+02 -0.17871192476E+02  0.37472585305E+02  0.51100000000E-03 0. -1.
        -11    1    3    3    0    0 -0.12346352116E+00 -0.39194188608E+01 -0.33903599076E+01  0.51837851047E+01  0.51100000000E-03 0.  1.
        -12    1    3    3    0    0  0.36595475704E+00  0.16640426826E+02  0.19364852725E+00  0.16645576817E+02  0.00000000000E+00 0.  1.
</event>
<event>
 7    1  0.6830263E-012  0.5930197E+02  0.7816164E-02  0.1266605E+00
        -11   -1    0    0    0    0  0.00000000000E+00  0.00000000000E+00  0.45593999997E+02  0.45594000000E+02  0.51100000000E-03 0.  1.
         11   -1    0    0    0    0 -0.00000000000E+00 -0.00000000000E+00 -0.45593999997E+02  0.45594000000E+02  0.51100000000E-03 0. -1.
    9900012    2    1    2    0    0  0.10637011119E+02  0.14017594124E+02 -0.26590978652E+02  0.59301967066E+02  0.50000042016E+02 0.  0.
        -12    1    1    2    0    0 -0.10637011119E+02 -0.14017594124E+02  0.26590978652E+02  0.31886032934E+02  0.00000000000E+00 0.  1.
         11    1    3    3    0    0 -0.81013655713E+01  0.14642505743E+02 -0.96629036592E+00  0.16762124444E+02  0.51100000000E-03 0. -1.
        -11    1    3    3    0    0 -0.38613188195E+00 -0.10700065525E+02 -0.27229327864E+01  0.11047844283E+02  0.51100000000E-03 0.  1.
         12    1    3    3    0    0  0.19124508573E+02  0.10075153907E+02 -0.22901755500E+02  0.31491998339E+02  0.00000000000E+00 0. -1.
</event>
<event>
 7    1  0.6830263E-012  0.5930195E+02  0.7816164E-02  0.1266605E+00
        -11   -1    0    0    0    0  0.00000000000E+00  0.00000000000E+00  0.45593999997E+02  0.45594000000E+02  0.51100000000E-03 0.  1.
         11   -1    0    0    0    0 -0.00000000000E+00 -0.00000000000E+00 -0.45593999997E+02  0.45594000000E+02  0.51100000000E-03 0. -1.
    9900012    2    1    2    0    0  0.10773029013E+02 -0.26115783232E+01 -0.29897188920E+02  0.59301946610E+02  0.50000004709E+02 0.  0.
        -12    1    1    2    0    0 -0.10773029013E+02  0.26115783232E+01  0.29897188920E+02  0.31886053390E+02  0.00000000000E+00 0.  1.
         11    1    3    3    0    0  0.11130997016E+01 -0.10650341500E+02 -0.38769150128E+00  0.10715366069E+02  0.51100000000E-03 0. -1.
        -11    1    3    3    0    0  0.17261617365E+02 -0.47555942286E+01 -0.29561660305E+01  0.18147121766E+02  0.51100000000E-03 0.  1.
         12    1    3    3    0    0 -0.76016880536E+01  0.12794357406E+02 -0.26553331389E+02  0.30439458775E+02  0.00000000000E+00 0. -1.
</event>
<event>
 7    1  0.6830263E-012  0.5930194E+02  0.7816164E-02  0.1266605E+00
        -11   -1    0    0    0    0  0.00000000000E+00  0.00000000000E+00  0.45593999997E+02  0.45594000000E+02  0.51100000000E-03 0.  1.
         11   -1    0    0    0    0 -0.00000000000E+00 -0.00000000000E+00 -0.45593999997E+02  0.45594000000E+02  0.51100000000E-03 0. -1.
    9900012    2    1    2    0    0  0.18346287127E+02 -0.17330894462E+02 -0.19487813622E+02  0.59301936682E+02  0.49999986602E+02 0.  0.
        -12    1    1    2    0    0 -0.18346287127E+02  0.17330894462E+02  0.19487813622E+02  0.31886063318E+02  0.00000000000E+00 0.  1.
         11    1    3    3    0    0  0.10769314670E+02 -0.76072994381E+01 -0.11827212867E+02  0.17712484514E+02  0.51100000000E-03 0. -1.
        -11    1    3    3    0    0  0.18588081992E+02 -0.15671907514E+02 -0.13466344801E+02  0.27793307105E+02  0.51100000000E-03 0.  1.
        -12    1    3    3    0    0 -0.11011109534E+02  0.59483124900E+01  0.58057440467E+01  0.13796145063E+02  0.00000000000E+00 0.  1.
</event>
<event>
 7    1  0.6830263E-012  0.5930193E+02  0.7816164E-02  0.1266605E+00
        -11   -1    0    0    0    0  0.00000000000E+00  0.00000000000E+00  0.45593999997E+02  0.45594000000E+02  0.51100000000E-03 0.  1.
         11   -1    0    0    0    0 -0.00000000000E+00 -0.00000000000E+00 -0.45593999997E+02  0.45594000000E+02  0.51100000000E-03 0. -1.
    9900012    2    1    2    0    0  0.25552732556E+02 -0.17425559133E+01 -0.18993230558E+02  0.59301930170E+02  0.49999974726E+02 0.  0.
        -12    1    1    2    0    0 -0.25552732556E+02  0.17425559133E+01  0.18993230558E+02  0.31886069830E+02  0.00000000000E+00 0.  1.
         11    1    3    3    0    0  0.64789850084E+01  0.13562900677E+02 -0.15932309243E+01  0.15115154863E+02  0.51100000000E-03 0. -1.
        -11    1    3    3    0    0  0.47457416395E+01  0.74752583464E+01  0.40841751212E+01  0.97510018837E+01  0.51100000000E-03 0.  1.
        -12    1    3    3    0    0  0.14328005908E+02 -0.22780714936E+02 -0.21484174755E+02  0.34435773423E+02  0.00000000000E+00 0.  1.
</event>
<event>
 7    1  0.6830263E-012  0.5930195E+02  0.7816164E-02  0.1266605E+00
        -11   -1    0    0    0    0  0.00000000000E+00  0.00000000000E+00  0.45593999997E+02  0.45594000000E+02  0.51100000000E-03 0. -1.
         11   -1    0    0    0    0 -0.00000000000E+00 -0.00000000000E+00 -0.45593999997E+02  0.45594000000E+02  0.51100000000E-03 0.  1.
    9900012    2    1    2    0    0 -0.20186412666E+02  0.24193226399E+02  0.48904982957E+01  0.59301946097E+02  0.50000003775E+02 0.  0.
        -12    1    1    2    0    0  0.20186412666E+02 -0.24193226399E+02 -0.48904982957E+01  0.31886053903E+02  0.00000000000E+00 0.  1.
         11    1    3    3    0    0 -0.47425418265E+01 -0.59645948308E+01  0.11401468499E+02  0.13713554560E+02  0.51100000000E-03 0.  1.
        -11    1    3    3    0    0  0.49131843311E+00  0.13717527589E+02  0.10319047195E+02  0.17172498136E+02  0.51100000000E-03 0. -1.
        -12    1    3    3    0    0 -0.15935189272E+02  0.16440293641E+02 -0.16830017399E+02  0.28415893401E+02  0.00000000000E+00 0.  1.
</event>
<event>
 7    1  0.6830263E-012  0.5930194E+02  0.7816164E-02  0.1266605E+00
        -11   -1    0    0    0    0  0.00000000000E+00  0.00000000000E+00  0.45593999997E+02  0.45594000000E+02  0.51100000000E-03 0.  1.
         11   -1    0    0    0    0 -0.00000000000E+00 -0.00000000000E+00 -0.45593999997E+02  0.45594000000E+02  0.51100000000E-03 0. -1.
    9900012    2    1    2    0    0 -0.62089755588E+01 -0.30571016448E+02  0.66017189916E+01  0.59301935367E+02  0.49999984205E+02 0.  0.
        -12    1    1    2    0    0  0.62089755588E+01  0.30571016448E+02 -0.66017189916E+01  0.31886064633E+02  0.00000000000E+00 0.  1.
         11    1    3    3    0    0 -0.18496466458E+02 -0.78011180730E+01 -0.15075342892E+02  0.25104634595E+02  0.51100000000E-03 0. -1.
        -11    1    3    3    0    0  0.50267444064E+00 -0.10388998095E+01 -0.21784859587E+00  0.11745010342E+01  0.51100000000E-03 0.  1.
        -12    1    3    3    0    0  0.11784816458E+02 -0.21730998565E+02  0.21894910479E+02  0.33022799737E+02  0.00000000000E+00 0.  1.
</event>
<event>
 7    1  0.6830263E-012  0.5930195E+02  0.7816164E-02  0.1266605E+00
        -11   -1    0    0    0    0  0.00000000000E+00  0.00000000000E+00  0.45593999997E+02  0.45594000000E+02  0.51100000000E-03 0. -1.
         11   -1    0    0    0    0 -0.00000000000E+00 -0.00000000000E+00 -0.45593999997E+02  0.45594000000E+02  0.51100000000E-03 0.  1.
    9900012    2    1    2    0    0  0.23176633288E+02 -0.19604256743E+02 -0.97589577875E+01  0.59301945523E+02  0.50000002727E+02 0.  0.
        -12    1    1    2    0    0 -0.23176633288E+02  0.19604256743E+02  0.97589577875E+01  0.31886054477E+02  0.00000000000E+00 0.  1.
         11    1    3    3    0    0  0.12764728943E+01 -0.54001468786E+01  0.50360978118E+01  0.74935472769E+01  0.51100000000E-03 0. -1.
        -11    1    3    3    0    0  0.64780827710E+01 -0.26913742826E+02 -0.15660801019E+02  0.31805279406E+02  0.51100000000E-03 0.  1.
        -12    1    3    3    0    0  0.15422077622E+02  0.12709632961E+02  0.86574541970E+00  0.20003118840E+02  0.00000000000E+00 0.  1.
</event>
<event>
 7    1  0.6830263E-012  0.5930214E+02  0.7816164E-02  0.1266604E+00
        -11   -1    0    0    0    0  0.00000000000E+00  0.00000000000E+00  0.45593999997E+02  0.45594000000E+02  0.51100000000E-03 0.  1.
         11   -1    0    0    0    0 -0.00000000000E+00 -0.00000000000E+00 -0.45593999997E+02  0.45594000000E+02  0.51100000000E-03 0. -1.
    9900012    2    1    2    0    0  0.14410551167E+02  0.21696285326E+01 -0.28360830359E+02  0.59302141511E+02  0.50000360161E+02 0.  0.
        -12    1    1    2    0    0 -0.14410551167E+02 -0.21696285326E+01  0.28360830359E+02  0.31885858489E+02  0.00000000000E+00 0.  1.
         11    1    3    3    0    0  0.95140836614E+00 -0.73621128921E+01  0.21381956176E+00  0.74264125378E+01  0.51100000000E-03 0. -1.
        -11    1    3    3    0    0 -0.61034260940E+01 -0.11606397555E+02 -0.32169256115E+01  0.13502180747E+02  0.51100000000E-03 0.  1.
         12    1    3    3    0    0  0.19562568895E+02  0.21138138979E+02 -0.25357724310E+02  0.38373548226E+02  0.00000000000E+00 0. -1.
</event>
<event>
 7    1  0.6830263E-012  0.5930195E+02  0.7816164E-02  0.1266605E+00
        -11   -1    0    0    0    0  0.00000000000E+00  0.00000000000E+00  0.45593999997E+02  0.45594000000E+02  0.51100000000E-03 0. -1.
         11   -1    0    0    0    0 -0.00000000000E+00 -0.00000000000E+00 -0.45593999997E+02  0.45594000000E+02  0.51100000000E-03 0.  1.
    9900012    2    1    2    0    0  0.20537116627E+02 -0.19562315111E+02  0.14569240976E+02  0.59301951100E+02  0.50000012899E+02 0.  0.
        -12    1    1    2    0    0 -0.20537116627E+02  0.19562315111E+02 -0.14569240976E+02  0.31886048900E+02  0.00000000000E+00 0.  1.
         11    1    3    3    0    0 -0.68515008889E+00  0.92564264354E+01 -0.45630113860E+00  0.92929581936E+01  0.51100000000E-03 0. -1.
        -11    1    3    3    0    0  0.16026915672E+02 -0.60606952436E+01  0.19797481192E+02  0.26182710223E+02  0.51100000000E-03 0.  1.
        -12    1    3    3    0    0  0.51953510435E+01 -0.22758046302E+02 -0.47719390780E+01  0.23826282684E+02  0.00000000000E+00 0.  1.
</event>
<event>
 7    1  0.6830263E-012  0.5930195E+02  0.7816164E-02  0.1266605E+00
        -11   -1    0    0    0    0  0.00000000000E+00  0.00000000000E+00  0.45593999997E+02  0.45594000000E+02  0.51100000000E-03 0. -1.
         11   -1    0    0    0    0 -0.00000000000E+00 -0.00000000000E+00 -0.45593999997E+02  0.45594000000E+02  0.51100000000E-03 0.  1.
    9900012    2    1    2    0    0  0.15830850772E+00 -0.10533969688E+02  0.30095363169E+02  0.59301945630E+02  0.50000002923E+02 0.  0.
        -12    1    1    2    0    0 -0.15830850772E+00  0.10533969688E+02 -0.30095363169E+02  0.31886054370E+02  0.00000000000E+00 0.  1.
         11    1    3    3    0    0 -0.43338829608E+01 -0.57950312795E+01  0.39272639575E+02  0.39933759509E+02  0.51100000000E-03 0. -1.
        -11    1    3    3    0    0 -0.47191471117E+01 -0.60918221280E+01 -0.34991876496E+01  0.84631531222E+01  0.51100000000E-03 0.  1.
        -12    1    3    3    0    0  0.92113385802E+01  0.13528837196E+01 -0.56780887559E+01  0.10905032999E+02  0.00000000000E+00 0.  1.
</event>
<event>
 7    1  0.6830263E-012  0.5930196E+02  0.7816164E-02  0.1266605E+00
        -11   -1    0    0    0    0  0.00000000000E+00  0.00000000000E+00  0.45593999997E+02  0.45594000000E+02  0.51100000000E-03 0.  1.
         11   -1    0    0    0    0 -0.00000000000E+00 -0.00000000000E+00 -0.45593999997E+02  0.45594000000E+02  0.51100000000E-03 0. -1.
    9900012    2    1    2    0    0 -0.26365348775E+02 -0.15678757691E+02 -0.87042691662E+01  0.59301962923E+02  0.50000034460E+02 0.  0.
        -12    1    1    2    0    0  0.26365348775E+02  0.15678757691E+02  0.87042691662E+01  0.31886037077E+02  0.00000000000E+00 0.  1.
         11    1    3    3    0    0  0.89634186062E+01 -0.48409834101E+01  0.41999470307E+01  0.11018963146E+02  0.51100000000E-03 0. -1.
        -11    1    3    3    0    0  0.28512050970E+01  0.73912578580E+00 -0.74553163959E+01  0.80160726205E+01  0.51100000000E-03 0.  1.
        -12    1    3    3    0    0 -0.38179972478E+02 -0.11576900066E+02 -0.54488998010E+01  0.40266927157E+02  0.00000000000E+00 0.  1.
</event>
<event>
 7    1  0.6830263E-012  0.5930184E+02  0.7816164E-02  0.1266605E+00
        -11   -1    0    0    0    0  0.00000000000E+00  0.00000000000E+00  0.45593999997E+02  0.45594000000E+02  0.51100000000E-03 0.  1.
         11   -1    0    0    0    0 -0.00000000000E+00 -0.00000000000E+00 -0.45593999997E+02  0.45594000000E+02  0.51100000000E-03 0. -1.
    9900012    2    1    2    0    0  0.71323536567E+01 -0.19859894367E+02 -0.23904840249E+02  0.59301839048E+02  0.49999808541E+02 0.  0.
        -12    1    1    2    0    0 -0.71323536567E+01  0.19859894367E+02  0.23904840249E+02  0.31886160952E+02  0.00000000000E+00 0.  1.
         11    1    3    3    0    0 -0.67579674507E+01  0.36378713946E+01  0.37182045266E+01  0.85281461943E+01  0.51100000000E-03 0. -1.
        -11    1    3    3    0    0 -0.82001777323E+01  0.13499091315E+01 -0.13962822276E+01  0.84270263928E+01  0.51100000000E-03 0.  1.
        -12    1    3    3    0    0  0.22090498840E+02 -0.24847674893E+02 -0.26226762548E+02  0.42346666461E+02  0.00000000000E+00 0.  1.
</event>
<event>
 7    1  0.6830263E-012  0.5930196E+02  0.7816164E-02  0.1266605E+00
        -11   -1    0    0    0    0  0.00000000000E+00  0.00000000000E+00  0.45593999997E+02  0.45594000000E+02  0.51100000000E-03 0.  1.
         11   -1    0    0    0    0 -0.00000000000E+00 -0.00000000000E+00 -0.45593999997E+02  0.45594000000E+02  0.51100000000E-03 0. -1.
    9900012    2    1    2    0    0 -0.11811536953E+02 -0.86727781773E+01 -0.28319432380E+02  0.59301957021E+02  0.50000023697E+02 0.  0.
        -12    1    1    2    0    0  0.11811536953E+02  0.86727781773E+01  0.28319432380E+02  0.31886042979E+02  0.00000000000E+00 0.  1.
         11    1    3    3    0    0  0.92335883489E-01  0.10149431794E+02 -0.16915445376E+02  0.19726930430E+02  0.51100000000E-03 0. -1.
        -11    1    3    3    0    0  0.79928295998E+01 -0.15199493875E+02 -0.20570408998E+01  0.17295703414E+02  0.51100000000E-03 0.  1.
         12    1    3    3    0    0 -0.19896702436E+02 -0.36227160969E+01 -0.93469461041E+01  0.22279323177E+02  0.00000000000E+00 0. -1.
</event>
<event>
 7    1  0.6830263E-012  0.5930196E+02  0.7816164E-02  0.1266605E+00
        -11   -1    0    0    0    0  0.00000000000E+00  0.00000000000E+00  0.45593999997E+02  0.45594000000E+02  0.51100000000E-03 0.  1.
         11   -1    0    0    0    0 -0.00000000000E+00 -0.00000000000E+00 -0.45593999997E+02  0.45594000000E+02  0.51100000000E-03 0. -1.
    9900012    2    1    2    0    0 -0.24016839782E+02 -0.19039807609E+02  0.87975244913E+01  0.59301963807E+02  0.50000036072E+02 0.  0.
        -12    1    1    2    0    0  0.24016839782E+02  0.19039807609E+02 -0.87975244913E+01  0.31886036193E+02  0.00000000000E+00 0.  1.
         11    1    3    3    0    0 -0.25394803082E+02 -0.26759097425E+02  0.72462590185E+01  0.37595925160E+02  0.51100000000E-03 0. -1.
        -11    1    3    3    0    0 -0.31848532229E+01 -0.32442992794E-01  0.93021643193E+01  0.98323244395E+01  0.51100000000E-03 0.  1.
        -12    1    3    3    0    0  0.45628165228E+01  0.77517328085E+01 -0.77508988466E+01  0.11873714208E+02  0.00000000000E+00 0.  1.
</event>
<event>
 7    1  0.6830263E-012  0.5930194E+02  0.7816164E-02  0.1266605E+00
        -11   -1    0    0    0    0  0.00000000000E+00  0.00000000000E+00  0.45593999997E+02  0.45594000000E+02  0.51100000000E-03 0.  1.
         11   -1    0    0    0    0 -0.00000000000E+00 -0.00000000000E+00 -0.45593999997E+02  0.45594000000E+02  0.51100000000E-03 0. -1.
    9900012    2    1    2    0    0  0.12515404510E+02 -0.14193554110E+02 -0.25663756619E+02  0.59301941414E+02  0.49999995233E+02 0.  0.
        -12    1    1    2    0    0 -0.12515404510E+02  0.14193554110E+02  0.25663756619E+02  0.31886058586E+02  0.00000000000E+00 0.  1.
         11    1    3    3    0    0 -0.55924885374E+01 -0.10021994052E+02 -0.26363080516E+02  0.28752883462E+02  0.51100000000E-03 0. -1.
        -11    1    3    3    0    0  0.26757227210E+01 -0.11011635665E+02 -0.54618963715E+01  0.12579663125E+02  0.51100000000E-03 0.  1.
        -12    1    3    3    0    0  0.15432170326E+02  0.68400756062E+01  0.61612202682E+01  0.17969394827E+02  0.00000000000E+00 0.  1.
</event>
<event>
 7    1  0.6830263E-012  0.5930194E+02  0.7816164E-02  0.1266605E+00
        -11   -1    0    0    0    0  0.00000000000E+00  0.00000000000E+00  0.45593999997E+02  0.45594000000E+02  0.51100000000E-03 0.  1.
         11   -1    0    0    0    0 -0.00000000000E+00 -0.00000000000E+00 -0.45593999997E+02  0.45594000000E+02  0.51100000000E-03 0. -1.
    9900012    2    1    2    0    0 -0.77599093016E+00  0.15981635639E+02 -0.27580899543E+02  0.59301939421E+02  0.49999991598E+02 0.  0.
        -12    1    1    2    0    0  0.77599093016E+00 -0.15981635639E+02  0.27580899543E+02  0.31886060579E+02  0.00000000000E+00 0.  1.
         11    1    3    3    0    0 -0.14005662577E+02 -0.29213273463E+01 -0.12101638587E+02  0.18738793836E+02  0.51100000000E-03 0. -1.
        -11    1    3    3    0    0 -0.36252128541E+01  0.17417173857E+02 -0.15571599357E+02  0.23642648333E+02  0.51100000000E-03 0.  1.
        -12    1    3    3    0    0  0.16854884501E+02  0.14857891288E+01  0.92338400355E-01  0.16920497252E+02  0.00000000000E+00 0.  1.
</event>
<event>
 7    1  0.6830263E-012  0.5930197E+02  0.7816164E-02  0.1266605E+00
        -11   -1    0    0    0    0  0.00000000000E+00  0.00000000000E+00  0.45593999997E+02  0.45594000000E+02  0.51100000000E-03 0.  1.
         11   -1    0    0    0    0 -0.00000000000E+00 -0.00000000000E+00 -0.45593999997E+02  0.45594000000E+02  0.51100000000E-03 0. -1.
    9900012    2    1    2    0    0 -0.14669458073E+02  0.62084407837E+01 -0.27622113708E+02  0.59301970099E+02  0.50000047548E+02 0.  0.
        -12    1    1    2    0    0  0.14669458073E+02 -0.62084407837E+01  0.27622113708E+02  0.31886029901E+02  0.00000000000E+00 0.  1.
         11    1    3    3    0    0 -0.30580912594E+01  0.12127844656E+02 -0.22798885770E+02  0.26004340614E+02  0.51100000000E-03 0.  1.
        -11    1    3    3    0    0  0.43719905362E+01  0.24496500451E+01 -0.12668601558E+02  0.13623822969E+02  0.51100000000E-03 0. -1.
         12    1    3    3    0    0 -0.15983357350E+02 -0.83690539175E+01  0.78453736193E+01  0.19673806517E+02  0.00000000000E+00 0. -1.
</event>
<event>
 7    1  0.6830263E-012  0.5930194E+02  0.7816164E-02  0.1266605E+00
        -11   -1    0    0    0    0  0.00000000000E+00  0.00000000000E+00  0.45593999997E+02  0.45594000000E+02  0.51100000000E-03 0.  1.
         11   -1    0    0    0    0 -0.00000000000E+00 -0.00000000000E+00 -0.45593999997E+02  0.45594000000E+02  0.51100000000E-03 0. -1.
    9900012    2    1    2    0    0 -0.30919096056E+01  0.25310724766E+02 -0.19144919436E+02  0.59301942963E+02  0.49999998058E+02 0.  0.
        -12    1    1    2    0    0  0.30919096056E+01 -0.25310724766E+02  0.19144919436E+02  0.31886057037E+02  0.00000000000E+00 0.  1.
         11    1    3    3    0    0  0.10890180818E+00  0.15118206234E+02 -0.27525179548E+02  0.31403941293E+02  0.51100000000E-03 0. -1.
        -11    1    3    3    0    0  0.31961889725E+01  0.33751508420E+01 -0.78759281090E+01  0.91453546127E+01  0.51100000000E-03 0.  1.
        -12    1    3    3    0    0 -0.63970003862E+01  0.68173676893E+01  0.16256188221E+02  0.18752647056E+02  0.00000000000E+00 0.  1.
</event>
<event>
 7    1  0.6830263E-012  0.5930192E+02  0.7816164E-02  0.1266605E+00
        -11   -1    0    0    0    0  0.00000000000E+00  0.00000000000E+00  0.45593999997E+02  0.45594000000E+02  0.51100000000E-03 0.  1.
         11   -1    0    0    0    0 -0.00000000000E+00 -0.00000000000E+00 -0.45593999997E+02  0.45594000000E+02  0.51100000000E-03 0. -1.
    9900012    2    1    2    0    0  0.25760504998E+02  0.76305852352E+01 -0.17172439490E+02  0.59301919545E+02  0.49999955349E+02 0.  0.
        -12    1    1    2    0    0 -0.25760504998E+02 -0.76305852352E+01  0.17172439490E+02  0.31886080455E+02  0.00000000000E+00 0.  1.
         11    1    3    3    0    0  0.26986345821E+01 -0.26773645385E+00  0.56289380509E+00  0.27696861038E+01  0.51100000000E-03 0. -1.
        -11    1    3    3    0    0  0.89893583124E+01 -0.19920072820E+02 -0.11660268122E+02  0.24770541313E+02  0.51100000000E-03 0.  1.
        -12    1    3    3    0    0  0.14072512103E+02  0.27818394509E+02 -0.60750651729E+01  0.31761692127E+02  0.00000000000E+00 0.  1.
</event>
<event>
 7    1  0.6830263E-012  0.5930190E+02  0.7816164E-02  0.1266605E+00
        -11   -1    0    0    0    0  0.00000000000E+00  0.00000000000E+00  0.45593999997E+02  0.45594000000E+02  0.51100000000E-03 0. -1.
         11   -1    0    0    0    0 -0.00000000000E+00 -0.00000000000E+00 -0.45593999997E+02  0.45594000000E+02  0.51100000000E-03 0.  1.
    9900012    2    1    2    0    0 -0.15726711265E+02  0.20592620182E+02  0.18583265934E+02  0.59301902309E+02  0.49999923914E+02 0.  0.
        -12    1    1    2    0    0  0.15726711265E+02 -0.20592620182E+02 -0.18583265934E+02  0.31886097691E+02  0.00000000000E+00 0.  1.
         11    1    3    3    0    0  0.76317012451E+01 -0.69007551134E+01  0.16107942038E+02  0.19113583703E+02  0.51100000000E-03 0. -1.
        -11    1    3    3    0    0 -0.20299148773E+01  0.98852425400E+01  0.68360090945E+01  0.12188912793E+02  0.51100000000E-03 0.  1.
        -12    1    3    3    0    0 -0.21328497633E+02  0.17608132756E+02 -0.43606851980E+01  0.27999405812E+02  0.00000000000E+00 0.  1.
</event>
<event>
 7    1  0.6830263E-012  0.5930170E+02  0.7816164E-02  0.1266606E+00
        -11   -1    0    0    0    0  0.00000000000E+00  0.00000000000E+00  0.45593999997E+02  0.45594000000E+02  0.51100000000E-03 0. -1.
         11   -1    0    0    0    0 -0.00000000000E+00 -0.00000000000E+00 -0.45593999997E+02  0.45594000000E+02  0.51100000000E-03 0.  1.
    9900012    2    1    2    0    0 -0.52817294545E+01 -0.22390077039E+02  0.22079945379E+02  0.59301698806E+02  0.49999552773E+02 0.  0.
        -12    1    1    2    0    0  0.52817294545E+01  0.22390077039E+02 -0.22079945379E+02  0.31886301194E+02  0.00000000000E+00 0.  1.
         11    1    3    3    0    0  0.65864610551E+00 -0.75200884153E+00  0.10852967024E+02  0.10898909371E+02  0.51100000000E-03 0. -1.
        -11    1    3    3    0    0 -0.96733486516E+01  0.13537705241E+01  0.20986283584E+02  0.23148012176E+02  0.51100000000E-03 0.  1.
         12    1    3    3    0    0  0.37329730916E+01 -0.22991838722E+02 -0.97593052282E+01  0.25254777260E+02  0.00000000000E+00 0. -1.
</event>
<event>
 7    1  0.6830263E-012  0.5930193E+02  0.7816164E-02  0.1266605E+00
        -11   -1    0    0    0    0  0.00000000000E+00  0.00000000000E+00  0.45593999997E+02  0.45594000000E+02  0.51100000000E-03 0.  1.
         11   -1    0    0    0    0 -0.00000000000E+00 -0.00000000000E+00 -0.45593999997E+02  0.45594000000E+02  0.51100000000E-03 0. -1.
    9900012    2    1    2    0    0 -0.11004977977E+02 -0.13342728324E+02 -0.26787745779E+02  0.59301933085E+02  0.49999980043E+02 0.  0.
        -12    1    1    2    0    0  0.11004977977E+02  0.13342728324E+02  0.26787745779E+02  0.31886066915E+02  0.00000000000E+00 0.  1.
         11    1    3    3    0    0 -0.57100640254E+01  0.85482091172E+01 -0.19326590936E+02  0.21890496288E+02  0.51100000000E-03 0. -1.
        -11    1    3    3    0    0 -0.23648059857E+01  0.40823671844E+01  0.63011661475E+01  0.78716405062E+01  0.51100000000E-03 0.  1.
        -12    1    3    3    0    0 -0.29301079659E+01 -0.25973304626E+02 -0.13762320991E+02  0.29539796291E+02  0.00000000000E+00 0.  1.
</event>
<event>
 7    1  0.6830263E-012  0.5930197E+02  0.7816164E-02  0.1266605E+00
        -11   -1    0    0    0    0  0.00000000000E+00  0.00000000000E+00  0.45593999997E+02  0.45594000000E+02  0.51100000000E-03 0. -1.
         11   -1    0    0    0    0 -0.00000000000E+00 -0.00000000000E+00 -0.45593999997E+02  0.45594000000E+02  0.51100000000E-03 0.  1.
    9900012    2    1    2    0    0 -0.26446280445E+02  0.12788419844E+02 -0.12400371101E+02  0.59301974300E+02  0.50000055210E+02 0.  0.
        -12    1    1    2    0    0  0.26446280445E+02 -0.12788419844E+02  0.12400371101E+02  0.31886025700E+02  0.00000000000E+00 0.  1.
         11    1    3    3    0    0  0.61583952367E+01  0.79308511431E+01 -0.73356552425E+01  0.12435275222E+02  0.51100000000E-03 0. -1.
        -11    1    3    3    0    0  0.60035737506E+01 -0.12044619833E+01 -0.48068848165E+01  0.77845853036E+01  0.51100000000E-03 0.  1.
         12    1    3    3    0    0 -0.38608249433E+02  0.60620306839E+01 -0.25783104194E+00  0.39082113775E+02  0.00000000000E+00 0. -1.
</event>
<event>
 7    1  0.6830263E-012  0.5930194E+02  0.7816164E-02  0.1266605E+00
        -11   -1    0    0    0    0  0.00000000000E+00  0.00000000000E+00  0.45593999997E+02  0.45594000000E+02  0.51100000000E-03 0. -1.
         11   -1    0    0    0    0 -0.00000000000E+00 -0.00000000000E+00 -0.45593999997E+02  0.45594000000E+02  0.51100000000E-03 0.  1.
    9900012    2    1    2    0    0 -0.28710841067E+02  0.49728219751E+01  0.12949108188E+02  0.59301941040E+02  0.49999994550E+02 0.  0.
        -12    1    1    2    0    0  0.28710841067E+02 -0.49728219751E+01 -0.12949108188E+02  0.31886058960E+02  0.00000000000E+00 0.  1.
         11    1    3    3    0    0 -0.58775962574E+01 -0.12607903432E+01 -0.62506714716E+01  0.86721752842E+01  0.51100000000E-03 0. -1.
        -11    1    3    3    0    0  0.78805757890E+01 -0.58765080854E+01 -0.36418998728E+01  0.10483332342E+02  0.51100000000E-03 0.  1.
         12    1    3    3    0    0 -0.30713820599E+02  0.12110120404E+02  0.22841679532E+02  0.40146433413E+02  0.00000000000E+00 0. -1.
</event>
<event>
 7    1  0.6830263E-012  0.5930193E+02  0.7816164E-02  0.1266605E+00
        -11   -1    0    0    0    0  0.00000000000E+00  0.00000000000E+00  0.45593999997E+02  0.45594000000E+02  0.51100000000E-03 0. -1.
         11   -1    0    0    0    0 -0.00000000000E+00 -0.00000000000E+00 -0.45593999997E+02  0.45594000000E+02  0.51100000000E-03 0.  1.
    9900012    2    1    2    0    0  0.23201974184E+02 -0.88145548705E+01  0.20017329869E+02  0.59301929707E+02  0.49999973883E+02 0.  0.
        -12    1    1    2    0    0 -0.23201974184E+02  0.88145548705E+01 -0.20017329869E+02  0.31886070293E+02  0.00000000000E+00 0.  1.
         11    1    3    3    0    0 -0.18589288664E+01 -0.12877652783E+02  0.39284712060E+01  0.13591263518E+02  0.51100000000E-03 0. -1.
        -11    1    3    3    0    0  0.13891491918E+01 -0.90984413019E+01 -0.58067812069E+01  0.10882558424E+02  0.51100000000E-03 0.  1.
        -12    1    3    3    0    0  0.23671753859E+02  0.13161539214E+02  0.21895639870E+02  0.34828107766E+02  0.00000000000E+00 0.  1.
</event>
<event>
 7    1  0.6830263E-012  0.5930195E+02  0.7816164E-02  0.1266605E+00
        -11   -1    0    0    0    0  0.00000000000E+00  0.00000000000E+00  0.45593999997E+02  0.45594000000E+02  0.51100000000E-03 0.  1.
         11   -1    0    0    0    0 -0.00000000000E+00 -0.00000000000E+00 -0.45593999997E+02  0.45594000000E+02  0.51100000000E-03 0. -1.
    9900012    2    1    2    0    0  0.13290906155E+02 -0.22938864669E+02 -0.17716674839E+02  0.59301948722E+02  0.50000008561E+02 0.  0.
        -12    1    1    2    0    0 -0.13290906155E+02  0.22938864669E+02  0.17716674839E+02  0.31886051278E+02  0.00000000000E+00 0.  1.
         11    1    3    3    0    0  0.15133937250E+02 -0.75363135939E+01 -0.14866176271E+02  0.22513002387E+02  0.51100000000E-03 0. -1.
        -11    1    3    3    0    0 -0.10214036176E+02 -0.22095307527E+02 -0.69490884053E+01  0.25314402613E+02  0.51100000000E-03 0.  1.
         12    1    3    3    0    0  0.83710050816E+01  0.66927564512E+01  0.40985898374E+01  0.11474543723E+02  0.00000000000E+00 0. -1.
</event>
<event>
 7    1  0.6830263E-012  0.5930195E+02  0.7816164E-02  0.1266605E+00
        -11   -1    0    0    0    0  0.00000000000E+00  0.00000000000E+00  0.45593999997E+02  0.45594000000E+02  0.51100000000E-03 0.  1.
         11   -1    0    0    0    0 -0.00000000000E+00 -0.00000000000E+00 -0.45593999997E+02  0.45594000000E+02  0.51100000000E-03 0. -1.
    9900012    2    1    2    0    0 -0.49341452547E+00 -0.10463373132E+02 -0.30116354154E+02  0.59301946266E+02  0.50000004081E+02 0.  0.
        -12    1    1    2    0    0  0.49341452547E+00  0.10463373132E+02  0.30116354154E+02  0.31886053734E+02  0.00000000000E+00 0.  1.
         11    1    3    3    0    0 -0.48846020566E+01 -0.26793381958E+02 -0.12795423366E+02  0.30090987244E+02  0.51100000000E-03 0. -1.
        -11    1    3    3    0    0 -0.99386983270E+00 -0.31525009876E+01 -0.22712305599E+01  0.40105521114E+01  0.51100000000E-03 0.  1.
        -12    1    3    3    0    0  0.53850573639E+01  0.19482509813E+02 -0.15049700229E+02  0.25200406910E+02  0.00000000000E+00 0.  1.
</event>
<event>
 7    1  0.6830263E-012  0.5930196E+02  0.7816164E-02  0.1266605E+00
        -11   -1    0    0    0    0  0.00000000000E+00  0.00000000000E+00  0.45593999997E+02  0.45594000000E+02  0.51100000000E-03 0.  1.
         11   -1    0    0    0    0 -0.00000000000E+00 -0.00000000000E+00 -0.45593999997E+02  0.45594000000E+02  0.51100000000E-03 0. -1.
    9900012    2    1    2    0    0  0.15246277701E+02  0.14002640018E+02 -0.24252771256E+02  0.59301955641E+02  0.50000021181E+02 0.  0.
        -12    1    1    2    0    0 -0.15246277701E+02 -0.14002640018E+02  0.24252771256E+02  0.31886044359E+02  0.00000000000E+00 0.  1.
         11    1    3    3    0    0  0.12256567186E+02  0.18147543983E+02 -0.26587749054E+01  0.22059598275E+02  0.51100000000E-03 0. -1.
        -11    1    3    3    0    0  0.18947326642E+01  0.10022682054E+02 -0.20613004893E+02  0.22998698624E+02  0.51100000000E-03 0.  1.
         12    1    3    3    0    0  0.10949778511E+01 -0.14167586019E+02 -0.98099145797E+00  0.14243658742E+02  0.00000000000E+00 0. -1.
</event>
<event>
 7    1  0.6830263E-012  0.5930195E+02  0.7816164E-02  0.1266605E+00
        -11   -1    0    0    0    0  0.00000000000E+00  0.00000000000E+00  0.45593999997E+02  0.45594000000E+02  0.51100000000E-03 0. -1.
         11   -1    0    0    0    0 -0.00000000000E+00 -0.00000000000E+00 -0.45593999997E+02  0.45594000000E+02  0.51100000000E-03 0.  1.
    9900012    2    1    2    0    0 -0.67803961431E+01  0.19782296475E+02  0.24070877480E+02  0.59301950255E+02  0.50000011357E+02 0.  0.
        -12    1    1    2    0    0  0.67803961431E+01 -0.19782296475E+02 -0.24070877480E+02  0.31886049745E+02  0.00000000000E+00 0.  1.
         11    1    3    3    0    0  0.46268191127E+01  0.16053481592E+02  0.59383853149E+01  0.17730937559E+02  0.51100000000E-03 0. -1.
        -11    1    3    3    0    0  0.73114526322E+01  0.10516705457E+02 -0.23310805719E+01  0.13018923541E+02  0.51100000000E-03 0.  1.
        -12    1    3    3    0    0 -0.18718667888E+02 -0.67878905741E+01  0.20463572737E+02  0.28552089155E+02  0.00000000000E+00 0.  1.
</event>
<event>
 7    1  0.6830263E-012  0.5930195E+02  0.7816164E-02  0.1266605E+00
        -11   -1    0    0    0    0  0.00000000000E+00  0.00000000000E+00  0.45593999997E+02  0.45594000000E+02  0.51100000000E-03 0.  1.
         11   -1    0    0    0    0 -0.00000000000E+00 -0.00000000000E+00 -0.45593999997E+02  0.45594000000E+02  0.51100000000E-03 0. -1.
    9900012    2    1    2    0    0 -0.59284013763E+01 -0.31330083800E+02  0.11393863755E-02  0.59301951404E+02  0.50000013452E+02 0.  0.
        -12    1    1    2    0    0  0.59284013763E+01  0.31330083800E+02 -0.11393863755E-02  0.31886048596E+02  0.00000000000E+00 0.  1.
         11    1    3    3    0    0  0.44163042531E+01 -0.24491160590E+02 -0.24461956524E+00  0.24887356817E+02  0.51100000000E-03 0. -1.
        -11    1    3    3    0    0 -0.12431584712E+02 -0.11258414286E+02  0.12698668999E+02  0.21036929084E+02  0.51100000000E-03 0.  1.
         12    1    3    3    0    0  0.20868790827E+01  0.44194910765E+01 -0.12452910047E+02  0.13377665503E+02  0.00000000000E+00 0. -1.
</event>
<event>
 7    1  0.6830263E-012  0.5930195E+02  0.7816164E-02  0.1266605E+00
        -11   -1    0    0    0    0  0.00000000000E+00  0.00000000000E+00  0.45593999997E+02  0.45594000000E+02  0.51100000000E-03 0.  1.
         11   -1    0    0    0    0 -0.00000000000E+00 -0.00000000000E+00 -0.45593999997E+02  0.45594000000E+02  0.51100000000E-03 0. -1.
    9900012    2    1    2    0    0 -0.16494049333E+02  0.88399156733E+01  0.25817100674E+02  0.59301945686E+02  0.50000003024E+02 0.  0.
        -12    1    1    2    0    0  0.16494049333E+02 -0.88399156733E+01 -0.25817100674E+02  0.31886054314E+02  0.00000000000E+00 0.  1.
         11    1    3    3    0    0  0.40222611473E+01  0.10166146021E+02  0.59270004132E+01  0.12436174807E+02  0.51100000000E-03 0. -1.
        -11    1    3    3    0    0 -0.10693750648E+02  0.11687823002E+02 -0.54330303705E+01  0.16747517091E+02  0.51100000000E-03 0.  1.
        -12    1    3    3    0    0 -0.98225598329E+01 -0.13014053350E+02  0.25323130631E+02  0.30118253788E+02  0.00000000000E+00 0.  1.
</event>
<event>
 7    1  0.6830263E-012  0.5930193E+02  0.7816164E-02  0.1266605E+00
        -11   -1    0    0    0    0  0.00000000000E+00  0.00000000000E+00  0.45593999997E+02  0.45594000000E+02  0.51100000000E-03 0. -1.
         11   -1    0    0    0    0 -0.00000000000E+00 -0.00000000000E+00 -0.45593999997E+02  0.45594000000E+02  0.51100000000E-03 0.  1.
    9900012    2    1    2    0    0  0.93103074216E+01  0.30002791255E+02  0.54655489498E+01  0.59301928861E+02  0.49999972339E+02 0.  0.
        -12    1    1    2    0    0 -0.93103074216E+01 -0.30002791255E+02 -0.54655489498E+01  0.31886071139E+02  0.00000000000E+00 0.  1.
         11    1    3    3    0    0  0.12866911507E+02  0.17274477586E+02 -0.32534100881E+01  0.21784160876E+02  0.51100000000E-03 0. -1.
        -11    1    3    3    0    0  0.12806920233E+02  0.14580471655E+02  0.12829275928E+01  0.19448734226E+02  0.51100000000E-03 0.  1.
        -12    1    3    3    0    0 -0.16363524318E+02 -0.18521579865E+01  0.74360314451E+01  0.18069033759E+02  0.00000000000E+00 0.  1.
</event>
<event>
 7    1  0.6830263E-012  0.5930190E+02  0.7816164E-02  0.1266605E+00
        -11   -1    0    0    0    0  0.00000000000E+00  0.00000000000E+00  0.45593999997E+02  0.45594000000E+02  0.51100000000E-03 0. -1.
         11   -1    0    0    0    0 -0.00000000000E+00 -0.00000000000E+00 -0.45593999997E+02  0.45594000000E+02  0.51100000000E-03 0.  1.
    9900012    2    1    2    0    0 -0.11039735737E+01  0.25619633218E+02 -0.18950967953E+02  0.59301897224E+02  0.49999914641E+02 0.  0.
        -12    1    1    2    0    0  0.11039735737E+01 -0.25619633218E+02  0.18950967953E+02  0.31886102776E+02  0.00000000000E+00 0.  1.
         11    1    3    3    0    0  0.10701590991E+02  0.76219058292E+01 -0.50808954071E+01  0.14086624741E+02  0.51100000000E-03 0. -1.
        -11    1    3    3    0    0  0.12280623741E+02  0.13604633167E+02 -0.36669711927E+01  0.18690811675E+02  0.51100000000E-03 0.  1.
         12    1    3    3    0    0 -0.24086188305E+02  0.43930942216E+01 -0.10203101354E+02  0.26524460808E+02  0.00000000000E+00 0. -1.
</event>
<event>
 7    1  0.6830263E-012  0.5930194E+02  0.7816164E-02  0.1266605E+00
        -11   -1    0    0    0    0  0.00000000000E+00  0.00000000000E+00  0.45593999997E+02  0.45594000000E+02  0.51100000000E-03 0.  1.
         11   -1    0    0    0    0 -0.00000000000E+00 -0.00000000000E+00 -0.45593999997E+02  0.45594000000E+02  0.51100000000E-03 0. -1.
    9900012    2    1    2    0    0 -0.16670865469E+02  0.49093584364E+01 -0.26733896100E+02  0.59301941033E+02  0.49999994538E+02 0.  0.
        -12    1    1    2    0    0  0.16670865469E+02 -0.49093584364E+01  0.26733896100E+02  0.31886058967E+02  0.00000000000E+00 0.  1.
         11    1    3    3    0    0 -0.91341135834E+00 -0.72846328670E+01 -0.33320752945E+01  0.80624389825E+01  0.51100000000E-03 0. -1.
        -11    1    3    3    0    0  0.80244502612E+00  0.10323929285E+02 -0.31175637524E+02  0.32850385221E+02  0.51100000000E-03 0.  1.
         12    1    3    3    0    0 -0.16559899137E+02  0.18700620184E+01  0.77738167183E+01  0.18389116829E+02  0.00000000000E+00 0. -1.
</event>
<event>
 7    1  0.6830263E-012  0.5930195E+02  0.7816164E-02  0.1266605E+00
        -11   -1    0    0    0    0  0.00000000000E+00  0.00000000000E+00  0.45593999997E+02  0.45594000000E+02  0.51100000000E-03 0. -1.
         11   -1    0    0    0    0 -0.00000000000E+00 -0.00000000000E+00 -0.45593999997E+02  0.45594000000E+02  0.51100000000E-03 0.  1.
    9900012    2    1    2    0    0  0.17582235468E+02  0.24456771827E+02  0.10461919214E+02  0.59301945903E+02  0.50000003420E+02 0.  0.
        -12    1    1    2    0    0 -0.17582235468E+02 -0.24456771827E+02 -0.10461919214E+02  0.31886054097E+02  0.00000000000E+00 0.  1.
         11    1    3    3    0    0 -0.61194220337E+01  0.67566524921E+01  0.19418597464E+02  0.21451843898E+02  0.51100000000E-03 0. -1.
        -11    1    3    3    0    0 -0.56264661871E+00 -0.16216645672E+00 -0.76703237110E+01  0.76926416314E+01  0.51100000000E-03 0.  1.
        -12    1    3    3    0    0  0.24264304121E+02  0.17862285791E+02 -0.12863545385E+01  0.30157460373E+02  0.00000000000E+00 0.  1.
</event>
<event>
 7    1  0.6830263E-012  0.5930194E+02  0.7816164E-02  0.1266605E+00
        -11   -1    0    0    0    0  0.00000000000E+00  0.00000000000E+00  0.45593999997E+02  0.45594000000E+02  0.51100000000E-03 0. -1.
         11   -1    0    0    0    0 -0.00000000000E+00 -0.00000000000E+00 -0.45593999997E+02  0.45594000000E+02  0.51100000000E-03 0.  1.
    9900012    2    1    2    0    0 -0.29770162262E+02  0.10407609153E+02  0.47053247186E+01  0.59301937683E+02  0.49999988429E+02 0.  0.
        -12    1    1    2    0    0  0.29770162262E+02 -0.10407609153E+02 -0.47053247186E+01  0.31886062317E+02  0.00000000000E+00 0.  1.
         11    1    3    3    0    0 -0.12463178363E+02  0.84660639785E+01  0.76702749310E+00  0.15086198515E+02  0.51100000000E-03 0. -1.
        -11    1    3    3    0    0 -0.24207111451E+02  0.12919102038E+02 -0.57438939814E+01  0.28033547057E+02  0.51100000000E-03 0.  1.
         12    1    3    3    0    0  0.69001275524E+01 -0.10977556864E+02  0.96821912069E+01  0.16182192111E+02  0.00000000000E+00 0. -1.
</event>
<event>
 7    1  0.6830263E-012  0.5930195E+02  0.7816164E-02  0.1266605E+00
        -11   -1    0    0    0    0  0.00000000000E+00  0.00000000000E+00  0.45593999997E+02  0.45594000000E+02  0.51100000000E-03 0.  1.
         11   -1    0    0    0    0 -0.00000000000E+00 -0.00000000000E+00 -0.45593999997E+02  0.45594000000E+02  0.51100000000E-03 0. -1.
    9900012    2    1    2    0    0  0.13164878124E+02 -0.13648043713E+02 -0.25634690695E+02  0.59301945364E+02  0.50000002438E+02 0.  0.
        -12    1    1    2    0    0 -0.13164878124E+02  0.13648043713E+02  0.25634690695E+02  0.31886054636E+02  0.00000000000E+00 0.  1.
         11    1    3    3    0    0  0.17573426297E+02 -0.11211532511E+02 -0.22915316562E+02  0.30977984222E+02  0.51100000000E-03 0. -1.
        -11    1    3    3    0    0  0.42446512012E+01 -0.11580306636E+02  0.52713213155E+01  0.13412956210E+02  0.51100000000E-03 0.  1.
        -12    1    3    3    0    0 -0.86531993740E+01  0.91437954343E+01 -0.79906954480E+01  0.14911004932E+02  0.00000000000E+00 0.  1.
</event>
<event>
 7    1  0.6830263E-012  0.5930196E+02  0.7816164E-02  0.1266605E+00
        -11   -1    0    0    0    0  0.00000000000E+00  0.00000000000E+00  0.45593999997E+02  0.45594000000E+02  0.51100000000E-03 0. -1.
         11   -1    0    0    0    0 -0.00000000000E+00 -0.00000000000E+00 -0.45593999997E+02  0.45594000000E+02  0.51100000000E-03 0.  1.
    9900012    2    1    2    0    0  0.34090562780E+01  0.24027958431E+02  0.20682236699E+02  0.59301962837E+02  0.50000034304E+02 0.  0.
        -12    1    1    2    0    0 -0.34090562780E+01 -0.24027958431E+02 -0.20682236699E+02  0.31886037163E+02  0.00000000000E+00 0.  1.
         11    1    3    3    0    0  0.63281221086E+01  0.80775544138E+01  0.17543050447E+02  0.20323647162E+02  0.51100000000E-03 0. -1.
        -11    1    3    3    0    0  0.16116901231E+02  0.57661044030E+01 -0.28322848090E+00  0.17119657821E+02  0.51100000000E-03 0.  1.
         12    1    3    3    0    0 -0.19035967061E+02  0.10184299614E+02  0.34224147330E+01  0.21858657854E+02  0.00000000000E+00 0. -1.
</event>
<event>
 7    1  0.6830263E-012  0.5930195E+02  0.7816164E-02  0.1266605E+00
        -11   -1    0    0    0    0  0.00000000000E+00  0.00000000000E+00  0.45593999997E+02  0.45594000000E+02  0.51100000000E-03 0.  1.
         11   -1    0    0    0    0 -0.00000000000E+00 -0.00000000000E+00 -0.45593999997E+02  0.45594000000E+02  0.51100000000E-03 0. -1.
    9900012    2    1    2    0    0 -0.91010164502E+01  0.20767898318E+02 -0.22418425742E+02  0.59301954248E+02  0.50000018639E+02 0.  0.
        -12    1    1    2    0    0  0.91010164502E+01 -0.20767898318E+02  0.22418425742E+02  0.31886045752E+02  0.00000000000E+00 0.  1.
         11    1    3    3    0    0 -0.20619968468E+02  0.83469229631E+01 -0.18846758188E+02  0.29155694419E+02  0.51100000000E-03 0. -1.
        -11    1    3    3    0    0 -0.78014109300E+01  0.24138882829E+01 -0.13122627122E+01  0.82710883703E+01  0.51100000000E-03 0.  1.
        -12    1    3    3    0    0  0.19320362948E+02  0.10007087072E+02 -0.22594048414E+01  0.21875171459E+02  0.00000000000E+00 0.  1.
</event>
<event>
 7    1  0.6830263E-012  0.5930195E+02  0.7816164E-02  0.1266605E+00
        -11   -1    0    0    0    0  0.00000000000E+00  0.00000000000E+00  0.45593999997E+02  0.45594000000E+02  0.51100000000E-03 0. -1.
         11   -1    0    0    0    0 -0.00000000000E+00 -0.00000000000E+00 -0.45593999997E+02  0.45594000000E+02  0.51100000000E-03 0.  1.
    9900012    2    1    2    0    0 -0.15433212299E+02  0.19398986121E+02  0.20055317784E+02  0.59301945433E+02  0.50000002564E+02 0.  0.
        -12    1    1    2    0    0  0.15433212299E+02 -0.19398986121E+02 -0.20055317784E+02  0.31886054567E+02  0.00000000000E+00 0.  1.
         11    1    3    3    0    0 -0.58481485178E+01  0.20147962459E+02  0.10699296941E+02  0.23550290606E+02  0.51100000000E-03 0. -1.
        -11    1    3    3    0    0 -0.17966254402E+02 -0.40996098534E+01  0.16111048919E+02  0.24477724480E+02  0.51100000000E-03 0.  1.
        -12    1    3    3    0    0  0.83811906210E+01  0.33506335162E+01 -0.67550280757E+01  0.11273930348E+02  0.00000000000E+00 0.  1.
</event>
<event>
 7    1  0.6830263E-012  0.5930194E+02  0.7816164E-02  0.1266605E+00
        -11   -1    0    0    0    0  0.00000000000E+00  0.00000000000E+00  0.45593999997E+02  0.45594000000E+02  0.51100000000E-03 0. -1.
         11   -1    0    0    0    0 -0.00000000000E+00 -0.00000000000E+00 -0.45593999997E+02  0.45594000000E+02  0.51100000000E-03 0.  1.
    9900012    2    1    2    0    0  0.86266613375E+01 -0.12779222480E-02  0.30696929274E+02  0.59301941067E+02  0.49999994600E+02 0.  0.
        -12    1    1    2    0    0 -0.86266613375E+01  0.12779222480E-02 -0.30696929274E+02  0.31886058933E+02  0.00000000000E+00 0.  1.
         11    1    3    3    0    0  0.66661725928E+01 -0.37087690610E+00  0.16458362547E+02  0.17760999541E+02  0.51100000000E-03 0. -1.
        -11    1    3    3    0    0 -0.53356519544E+01  0.17267016691E+02  0.14442469848E+02  0.23134476064E+02  0.51100000000E-03 0.  1.
         12    1    3    3    0    0  0.72961406990E+01 -0.16897417707E+02 -0.20390312153E+00  0.18406465461E+02  0.00000000000E+00 0. -1.
</event>
<event>
 7    1  0.6830263E-012  0.5930196E+02  0.7816164E-02  0.1266605E+00
        -11   -1    0    0    0    0  0.00000000000E+00  0.00000000000E+00  0.45593999997E+02  0.45594000000E+02  0.51100000000E-03 0.  1.
         11   -1    0    0    0    0 -0.00000000000E+00 -0.00000000000E+00 -0.45593999997E+02  0.45594000000E+02  0.51100000000E-03 0. -1.
    9900012    2    1    2    0    0 -0.46181559325E-01  0.15328475219E+02 -0.27959890283E+02  0.59301956817E+02  0.50000023324E+02 0.  0.
        -12    1    1    2    0    0  0.46181559325E-01 -0.15328475219E+02  0.27959890283E+02  0.31886043183E+02  0.00000000000E+00 0.  1.
         11    1    3    3    0    0  0.83272784823E+01  0.79527377582E+01 -0.11829322523E+01  0.11575358904E+02  0.51100000000E-03 0. -1.
        -11    1    3    3    0    0 -0.10681962604E+01 -0.44674734455E+01  0.85787733917E+01  0.97311209737E+01  0.51100000000E-03 0.  1.
         12    1    3    3    0    0 -0.73052637812E+01  0.11843210906E+02 -0.35355731422E+02  0.37995476940E+02  0.00000000000E+00 0. -1.
</event>
<event>
 7    1  0.6830263E-012  0.5930193E+02  0.7816164E-02  0.1266605E+00
        -11   -1    0    0    0    0  0.00000000000E+00  0.00000000000E+00  0.45593999997E+02  0.45594000000E+02  0.51100000000E-03 0. -1.
         11   -1    0    0    0    0 -0.00000000000E+00 -0.00000000000E+00 -0.45593999997E+02  0.45594000000E+02  0.51100000000E-03 0.  1.
    9900012    2    1    2    0    0 -0.21925463925E+02 -0.84213707172E+01  0.21565618186E+02  0.59301931870E+02  0.49999977827E+02 0.  0.
        -12    1    1    2    0    0  0.21925463925E+02  0.84213707172E+01 -0.21565618186E+02  0.31886068130E+02  0.00000000000E+00 0.  1.
         11    1    3    3    0    0  0.44952421158E+01 -0.32692326130E+01  0.25423506688E+01  0.61121707062E+01  0.51100000000E-03 0. -1.
        -11    1    3    3    0    0 -0.51921243147E+01 -0.18597218015E+02 -0.32875143665E+01  0.19586281520E+02  0.51100000000E-03 0.  1.
         12    1    3    3    0    0 -0.21228581726E+02  0.13445079911E+02  0.22310781884E+02  0.33603479644E+02  0.00000000000E+00 0. -1.
</event>
<event>
 7    1  0.6830263E-012  0.5930196E+02  0.7816164E-02  0.1266605E+00
        -11   -1    0    0    0    0  0.00000000000E+00  0.00000000000E+00  0.45593999997E+02  0.45594000000E+02  0.51100000000E-03 0.  1.
         11   -1    0    0    0    0 -0.00000000000E+00 -0.00000000000E+00 -0.45593999997E+02  0.45594000000E+02  0.51100000000E-03 0. -1.
    9900012    2    1    2    0    0 -0.22598214680E+02  0.21099016166E+02 -0.78020378238E+01  0.59301959416E+02  0.50000028065E+02 0.  0.
        -12    1    1    2    0    0  0.22598214680E+02 -0.21099016166E+02  0.78020378238E+01  0.31886040584E+02  0.00000000000E+00 0.  1.
         11    1    3    3    0    0  0.92276475752E+01  0.15784844149E+01  0.48230893158E+01  0.10531062797E+02  0.51100000000E-03 0. -1.
        -11    1    3    3    0    0 -0.36871981481E+01  0.18072509785E+01 -0.14888337258E+02  0.15444227816E+02  0.51100000000E-03 0.  1.
         12    1    3    3    0    0 -0.28138664107E+02  0.17713280773E+02  0.22632101180E+01  0.33326668803E+02  0.00000000000E+00 0. -1.
</event>
<event>
 7    1  0.6830263E-012  0.5930197E+02  0.7816164E-02  0.1266605E+00
        -11   -1    0    0    0    0  0.00000000000E+00  0.00000000000E+00  0.45593999997E+02  0.45594000000E+02  0.51100000000E-03 0. -1.
         11   -1    0    0    0    0 -0.00000000000E+00 -0.00000000000E+00 -0.45593999997E+02  0.45594000000E+02  0.51100000000E-03 0.  1.
    9900012    2    1    2    0    0 -0.13512217381E+02  0.24823605508E+02 -0.14762378116E+02  0.59301965179E+02  0.50000038574E+02 0.  0.
        -12    1    1    2    0    0  0.13512217381E+02 -0.24823605508E+02  0.14762378116E+02  0.31886034821E+02  0.00000000000E+00 0.  1.
         11    1    3    3    0    0  0.33636649777E+01  0.68401848653E+01 -0.96792673744E+01  0.12320332310E+02  0.51100000000E-03 0. -1.
        -11    1    3    3    0    0  0.53895875359E+01  0.86953948296E+00 -0.15958670987E+02  0.16866621850E+02  0.51100000000E-03 0.  1.
         12    1    3    3    0    0 -0.22265469894E+02  0.17113881160E+02  0.10875560245E+02  0.30115011018E+02  0.00000000000E+00 0. -1.
</event>
<event>
 7    1  0.6830263E-012  0.5930192E+02  0.7816164E-02  0.1266605E+00
        -11   -1    0    0    0    0  0.00000000000E+00  0.00000000000E+00  0.45593999997E+02  0.45594000000E+02  0.51100000000E-03 0. -1.
         11   -1    0    0    0    0 -0.00000000000E+00 -0.00000000000E+00 -0.45593999997E+02  0.45594000000E+02  0.51100000000E-03 0.  1.
    9900012    2    1    2    0    0  0.59775799064E+01  0.23542830880E+02  0.20657343479E+02  0.59301918601E+02  0.49999953628E+02 0.  0.
        -12    1    1    2    0    0 -0.59775799064E+01 -0.23542830880E+02 -0.20657343479E+02  0.31886081399E+02  0.00000000000E+00 0.  1.
         11    1    3    3    0    0  0.11729137743E+02 -0.91406368331E+01  0.14423223537E+02  0.20716015335E+02  0.51100000000E-03 0. -1.
        -11    1    3    3    0    0  0.17534474457E+01  0.11841519521E+02 -0.58811352467E+01  0.13337312869E+02  0.51100000000E-03 0.  1.
        -12    1    3    3    0    0 -0.75050052827E+01  0.20841948192E+02  0.12115255189E+02  0.25248590397E+02  0.00000000000E+00 0.  1.
</event>
<event>
 7    1  0.6830263E-012  0.5930192E+02  0.7816164E-02  0.1266605E+00
        -11   -1    0    0    0    0  0.00000000000E+00  0.00000000000E+00  0.45593999997E+02  0.45594000000E+02  0.51100000000E-03 0. -1.
         11   -1    0    0    0    0 -0.00000000000E+00 -0.00000000000E+00 -0.45593999997E+02  0.45594000000E+02  0.51100000000E-03 0.  1.
    9900012    2    1    2    0    0 -0.99014431746E+01 -0.29314710318E+02  0.77026972175E+01  0.59301915850E+02  0.49999948611E+02 0.  0.
        -12    1    1    2    0    0  0.99014431746E+01  0.29314710318E+02 -0.77026972175E+01  0.31886084150E+02  0.00000000000E+00 0.  1.
         11    1    3    3    0    0  0.44283257126E+01 -0.94490242005E+01  0.14203820960E+02  0.17625057648E+02  0.51100000000E-03 0. -1.
        -11    1    3    3    0    0  0.64159104527E+01 -0.10221550711E+02  0.81019830713E+01  0.14535684911E+02  0.51100000000E-03 0.  1.
        -12    1    3    3    0    0 -0.20745679340E+02 -0.96441354072E+01 -0.14603106814E+02  0.27141173292E+02  0.00000000000E+00 0.  1.
</event>
<event>
 7    1  0.6830263E-012  0.5930212E+02  0.7816164E-02  0.1266604E+00
        -11   -1    0    0    0    0  0.00000000000E+00  0.00000000000E+00  0.45593999997E+02  0.45594000000E+02  0.51100000000E-03 0.  1.
         11   -1    0    0    0    0 -0.00000000000E+00 -0.00000000000E+00 -0.45593999997E+02  0.45594000000E+02  0.51100000000E-03 0. -1.
    9900012    2    1    2    0    0  0.34011542689E+01  0.30884017737E+02 -0.71637370488E+01  0.59302117067E+02  0.50000315581E+02 0.  0.
        -12    1    1    2    0    0 -0.34011542689E+01 -0.30884017737E+02  0.71637370488E+01  0.31885882933E+02  0.00000000000E+00 0.  1.
         11    1    3    3    0    0 -0.19433276254E+02  0.70481942981E+01 -0.59856339990E+01  0.21521084625E+02  0.51100000000E-03 0. -1.
        -11    1    3    3    0    0  0.87502304215E+01  0.82188576973E+01 -0.93529194200E+01  0.15218188336E+02  0.51100000000E-03 0.  1.
        -12    1    3    3    0    0  0.14084200101E+02  0.15616965741E+02  0.81748163702E+01  0.22562844106E+02  0.00000000000E+00 0.  1.
</event>
<event>
 7    1  0.6830263E-012  0.5930195E+02  0.7816164E-02  0.1266605E+00
        -11   -1    0    0    0    0  0.00000000000E+00  0.00000000000E+00  0.45593999997E+02  0.45594000000E+02  0.51100000000E-03 0.  1.
         11   -1    0    0    0    0 -0.00000000000E+00 -0.00000000000E+00 -0.45593999997E+02  0.45594000000E+02  0.51100000000E-03 0. -1.
    9900012    2    1    2    0    0 -0.31072772756E+02  0.37692340010E+01 -0.60824198855E+01  0.59301950333E+02  0.50000011500E+02 0.  0.
        -12    1    1    2    0    0  0.31072772756E+02 -0.37692340010E+01  0.60824198855E+01  0.31886049667E+02  0.00000000000E+00 0.  1.
         11    1    3    3    0    0 -0.22337772532E+01  0.73747424609E+01 -0.20841428806E+01  0.79824957870E+01  0.51100000000E-03 0. -1.
        -11    1    3    3    0    0 -0.24316308902E+02 -0.12686128881E+02  0.13898711651E+02  0.30747275171E+02  0.51100000000E-03 0.  1.
         12    1    3    3    0    0 -0.45226866003E+01  0.90806204210E+01 -0.17896988656E+02  0.20572179375E+02  0.00000000000E+00 0. -1.
</event>
<event>
 7    1  0.6830263E-012  0.5930204E+02  0.7816164E-02  0.1266604E+00
        -11   -1    0    0    0    0  0.00000000000E+00  0.00000000000E+00  0.45593999997E+02  0.45594000000E+02  0.51100000000E-03 0. -1.
         11   -1    0    0    0    0 -0.00000000000E+00 -0.00000000000E+00 -0.45593999997E+02  0.45594000000E+02  0.51100000000E-03 0.  1.
    9900012    2    1    2    0    0 -0.17879722151E+02 -0.25656363310E+02 -0.62274283705E+01  0.59302042172E+02  0.50000178991E+02 0.  0.
        -12    1    1    2    0    0  0.17879722151E+02  0.25656363310E+02  0.62274283705E+01  0.31885957828E+02  0.00000000000E+00 0.  1.
         11    1    3    3    0    0 -0.52831024485E+01 -0.82741990148E+01 -0.90436586584E+01  0.13347707781E+02  0.51100000000E-03 0. -1.
        -11    1    3    3    0    0 -0.71685012169E+01 -0.17915499236E+02 -0.16805518222E+02  0.25588629615E+02  0.51100000000E-03 0.  1.
         12    1    3    3    0    0 -0.54281184855E+01  0.53333494105E+00  0.19621748510E+02  0.20365704776E+02  0.00000000000E+00 0. -1.
</event>
<event>
 7    1  0.6830263E-012  0.5930194E+02  0.7816164E-02  0.1266605E+00
        -11   -1    0    0    0    0  0.00000000000E+00  0.00000000000E+00  0.45593999997E+02  0.45594000000E+02  0.51100000000E-03 0.  1.
         11   -1    0    0    0    0 -0.00000000000E+00 -0.00000000000E+00 -0.45593999997E+02  0.45594000000E+02  0.51100000000E-03 0. -1.
    9900012    2    1    2    0    0  0.17454838693E+02  0.15991850357E+01 -0.26636290919E+02  0.59301940656E+02  0.49999993851E+02 0.  0.
        -12    1    1    2    0    0 -0.17454838693E+02 -0.15991850357E+01  0.26636290919E+02  0.31886059344E+02  0.00000000000E+00 0.  1.
         11    1    3    3    0    0 -0.55862854850E+01  0.70753238336E+00 -0.88581094968E+01  0.10496346589E+02  0.51100000000E-03 0. -1.
        -11    1    3    3    0    0 -0.46643973996E+01 -0.13065643733E+02 -0.91019687630E+01  0.16592573185E+02  0.51100000000E-03 0.  1.
        -12    1    3    3    0    0  0.27705521577E+02  0.13957296386E+02 -0.86762126592E+01  0.32213020883E+02  0.00000000000E+00 0.  1.
</event>
<event>
 7    1  0.6830263E-012  0.5930193E+02  0.7816164E-02  0.1266605E+00
        -11   -1    0    0    0    0  0.00000000000E+00  0.00000000000E+00  0.45593999997E+02  0.45594000000E+02  0.51100000000E-03 0.  1.
         11   -1    0    0    0    0 -0.00000000000E+00 -0.00000000000E+00 -0.45593999997E+02  0.45594000000E+02  0.51100000000E-03 0. -1.
    9900012    2    1    2    0    0 -0.18855927526E+02  0.21697334402E+02 -0.13798583732E+02  0.59301933513E+02  0.49999980823E+02 0.  0.
        -12    1    1    2    0    0  0.18855927526E+02 -0.21697334402E+02  0.13798583732E+02  0.31886066487E+02  0.00000000000E+00 0.  1.
         11    1    3    3    0    0 -0.10217798193E+02  0.92337702534E+01 -0.15720431765E+02  0.20899710241E+02  0.51100000000E-03 0. -1.
        -11    1    3    3    0    0  0.13080239013E+01  0.16385941212E+02 -0.12356639539E+02  0.20564448373E+02  0.51100000000E-03 0.  1.
        -12    1    3    3    0    0 -0.99461532342E+01 -0.39223770640E+01  0.14278487572E+02  0.17837774898E+02  0.00000000000E+00 0.  1.
</event>
<event>
 7    1  0.6830263E-012  0.5930196E+02  0.7816164E-02  0.1266605E+00
        -11   -1    0    0    0    0  0.00000000000E+00  0.00000000000E+00  0.45593999997E+02  0.45594000000E+02  0.51100000000E-03 0.  1.
         11   -1    0    0    0    0 -0.00000000000E+00 -0.00000000000E+00 -0.45593999997E+02  0.45594000000E+02  0.51100000000E-03 0. -1.
    9900012    2    1    2    0    0  0.27187377310E+01  0.22641029885E+02 -0.22287036422E+02  0.59301956633E+02  0.50000022989E+02 0.  0.
        -12    1    1    2    0    0 -0.27187377310E+01 -0.22641029885E+02  0.22287036422E+02  0.31886043367E+02  0.00000000000E+00 0.  1.
         11    1    3    3    0    0  0.11349264924E+02  0.24963636400E+02 -0.17176477015E+02  0.32357693359E+02  0.51100000000E-03 0. -1.
        -11    1    3    3    0    0  0.26232262590E+01  0.73164751774E+01 -0.87324605350E+01  0.11690508641E+02  0.51100000000E-03 0.  1.
        -12    1    3    3    0    0 -0.11253753452E+02 -0.96390816923E+01  0.36219011277E+01  0.15253754633E+02  0.00000000000E+00 0.  1.
</event>
<event>
 7    1  0.6830263E-012  0.5930194E+02  0.7816164E-02  0.1266605E+00
        -11   -1    0    0    0    0  0.00000000000E+00  0.00000000000E+00  0.45593999997E+02  0.45594000000E+02  0.51100000000E-03 0.  1.
         11   -1    0    0    0    0 -0.00000000000E+00 -0.00000000000E+00 -0.45593999997E+02  0.45594000000E+02  0.51100000000E-03 0. -1.
    9900012    2    1    2    0    0  0.15824293652E+01 -0.31812590739E+02 -0.14751042416E+01  0.59301938080E+02  0.49999989153E+02 0.  0.
        -12    1    1    2    0    0 -0.15824293652E+01  0.31812590739E+02  0.14751042416E+01  0.31886061920E+02  0.00000000000E+00 0.  1.
         11    1    3    3    0    0 -0.14007324021E+02 -0.79143929749E+01  0.24818771424E+01  0.16278896056E+02  0.51100000000E-03 0. -1.
        -11    1    3    3    0    0  0.28638159512E+01  0.52984170688E+01  0.70984978285E+01  0.93093145247E+01  0.51100000000E-03 0.  1.
         12    1    3    3    0    0  0.12725937435E+02 -0.29196614833E+02 -0.11055479213E+02  0.33713727500E+02  0.00000000000E+00 0. -1.
</event>
<event>
 7    1  0.6830263E-012  0.5930193E+02  0.7816164E-02  0.1266605E+00
        -11   -1    0    0    0    0  0.00000000000E+00  0.00000000000E+00  0.45593999997E+02  0.45594000000E+02  0.51100000000E-03 0.  1.
         11   -1    0    0    0    0 -0.00000000000E+00 -0.00000000000E+00 -0.45593999997E+02  0.45594000000E+02  0.51100000000E-03 0. -1.
    9900012    2    1    2    0    0 -0.26291769653E+02 -0.55727095261E+01 -0.17158355010E+02  0.59301931105E+02  0.49999976432E+02 0.  0.
        -12    1    1    2    0    0  0.26291769653E+02  0.55727095261E+01  0.17158355010E+02  0.31886068895E+02  0.00000000000E+00 0.  1.
         11    1    3    3    0    0 -0.20380565544E+02  0.12232424644E+02 -0.96689142733E+01  0.25661012608E+02  0.51100000000E-03 0. -1.
        -11    1    3    3    0    0 -0.95366075654E+01  0.33068178250E+01 -0.68722614145E+01  0.12211056678E+02  0.51100000000E-03 0.  1.
        -12    1    3    3    0    0  0.36254034568E+01 -0.21111951995E+02 -0.61717932211E+00  0.21429861819E+02  0.00000000000E+00 0.  1.
</event>
<event>
 7    1  0.6830263E-012  0.5930191E+02  0.7816164E-02  0.1266605E+00
        -11   -1    0    0    0    0  0.00000000000E+00  0.00000000000E+00  0.45593999997E+02  0.45594000000E+02  0.51100000000E-03 0. -1.
         11   -1    0    0    0    0 -0.00000000000E+00 -0.00000000000E+00 -0.45593999997E+02  0.45594000000E+02  0.51100000000E-03 0.  1.
    9900012    2    1    2    0    0  0.31554929549E+02  0.44044789558E+01  0.12687532484E+01  0.59301909796E+02  0.49999937569E+02 0.  0.
        -12    1    1    2    0    0 -0.31554929549E+02 -0.44044789558E+01 -0.12687532484E+01  0.31886090204E+02  0.00000000000E+00 0.  1.
         11    1    3    3    0    0  0.28337614329E+02  0.16069301927E+00 -0.83030879789E+01  0.29529434101E+02  0.51100000000E-03 0. -1.
        -11    1    3    3    0    0  0.22806087270E-01 -0.11140856557E+02  0.85184978868E+01  0.14024407704E+02  0.51100000000E-03 0.  1.
        -12    1    3    3    0    0  0.31945091327E+01  0.15384642493E+02  0.10533433405E+01  0.15748067991E+02  0.00000000000E+00 0.  1.
</event>
<event>
 7    1  0.6830263E-012  0.5930195E+02  0.7816164E-02  0.1266605E+00
        -11   -1    0    0    0    0  0.00000000000E+00  0.00000000000E+00  0.45593999997E+02  0.45594000000E+02  0.51100000000E-03 0.  1.
         11   -1    0    0    0    0 -0.00000000000E+00 -0.00000000000E+00 -0.45593999997E+02  0.45594000000E+02  0.51100000000E-03 0. -1.
    9900012    2    1    2    0    0  0.13319547737E+02 -0.12832589541E+01 -0.28942404285E+02  0.59301954913E+02  0.50000019853E+02 0.  0.
        -12    1    1    2    0    0 -0.13319547737E+02  0.12832589541E+01  0.28942404285E+02  0.31886045087E+02  0.00000000000E+00 0.  1.
         11    1    3    3    0    0  0.11788395713E+02  0.22836989152E+01 -0.51432332173E+01  0.13062710378E+02  0.51100000000E-03 0. -1.
        -11    1    3    3    0    0  0.83354559237E+01  0.54535542019E+01  0.78187195582E+01  0.12663074456E+02  0.51100000000E-03 0.  1.
        -12    1    3    3    0    0 -0.68043038993E+01 -0.90205120712E+01 -0.31617890626E+02  0.33576170080E+02  0.00000000000E+00 0.  1.
</event>
<event>
 7    1  0.6830263E-012  0.5930192E+02  0.7816164E-02  0.1266605E+00
        -11   -1    0    0    0    0  0.00000000000E+00  0.00000000000E+00  0.45593999997E+02  0.45594000000E+02  0.51100000000E-03 0. -1.
         11   -1    0    0    0    0 -0.00000000000E+00 -0.00000000000E+00 -0.45593999997E+02  0.45594000000E+02  0.51100000000E-03 0.  1.
    9900012    2    1    2    0    0 -0.78006936248E+01  0.70792570426E+01  0.30095771202E+02  0.59301919251E+02  0.49999954813E+02 0.  0.
        -12    1    1    2    0    0  0.78006936248E+01 -0.70792570426E+01 -0.30095771202E+02  0.31886080749E+02  0.00000000000E+00 0.  1.
         11    1    3    3    0    0 -0.57912572150E+01  0.84566360270E+01  0.15935954025E+02  0.18947506009E+02  0.51100000000E-03 0. -1.
        -11    1    3    3    0    0 -0.14538502485E+02  0.59895150641E+01  0.19339127114E+02  0.24924770470E+02  0.51100000000E-03 0.  1.
        -12    1    3    3    0    0  0.12529066075E+02 -0.73668940484E+01 -0.51793099374E+01  0.15429642772E+02  0.00000000000E+00 0.  1.
</event>
<event>
 7    1  0.6830263E-012  0.5930194E+02  0.7816164E-02  0.1266605E+00
        -11   -1    0    0    0    0  0.00000000000E+00  0.00000000000E+00  0.45593999997E+02  0.45594000000E+02  0.51100000000E-03 0.  1.
         11   -1    0    0    0    0 -0.00000000000E+00 -0.00000000000E+00 -0.45593999997E+02  0.45594000000E+02  0.51100000000E-03 0. -1.
    9900012    2    1    2    0    0 -0.99584503759E+01  0.23120054922E+02 -0.19570713719E+02  0.59301944914E+02  0.50000001616E+02 0.  0.
        -12    1    1    2    0    0  0.99584503759E+01 -0.23120054922E+02  0.19570713719E+02  0.31886055086E+02  0.00000000000E+00 0.  1.
         11    1    3    3    0    0 -0.27571645313E+01  0.15065910517E+02 -0.76606710049E+01  0.17125113036E+02  0.51100000000E-03 0. -1.
        -11    1    3    3    0    0 -0.21356130213E+02  0.96013048216E+00 -0.14907953122E+02  0.26062486734E+02  0.51100000000E-03 0.  1.
        -12    1    3    3    0    0  0.14154844368E+02  0.70940139226E+01  0.29979104076E+01  0.16114345144E+02  0.00000000000E+00 0.  1.
</event>
<event>
 7    1  0.6830263E-012  0.5930192E+02  0.7816164E-02  0.1266605E+00
        -11   -1    0    0    0    0  0.00000000000E+00  0.00000000000E+00  0.45593999997E+02  0.45594000000E+02  0.51100000000E-03 0. -1.
         11   -1    0    0    0    0 -0.00000000000E+00 -0.00000000000E+00 -0.45593999997E+02  0.45594000000E+02  0.51100000000E-03 0.  1.
    9900012    2    1    2    0    0  0.18549109136E+02  0.25826567048E+02  0.23750435709E+01  0.59301923929E+02  0.49999963345E+02 0.  0.
        -12    1    1    2    0    0 -0.18549109136E+02 -0.25826567048E+02 -0.23750435709E+01  0.31886076071E+02  0.00000000000E+00 0.  1.
         11    1    3    3    0    0 -0.15117109032E+01  0.30876309742E+01  0.64950024236E+01  0.73487272117E+01  0.51100000000E-03 0. -1.
        -11    1    3    3    0    0 -0.12371981934E+02  0.94718589298E+01  0.37775334453E+01  0.16032835300E+02  0.51100000000E-03 0.  1.
         12    1    3    3    0    0  0.32432801973E+02  0.13267077144E+02 -0.78974922980E+01  0.35920361418E+02  0.00000000000E+00 0. -1.
</event>
<event>
 7    1  0.6830263E-012  0.5930195E+02  0.7816164E-02  0.1266605E+00
        -11   -1    0    0    0    0  0.00000000000E+00  0.00000000000E+00  0.45593999997E+02  0.45594000000E+02  0.51100000000E-03 0.  1.
         11   -1    0    0    0    0 -0.00000000000E+00 -0.00000000000E+00 -0.45593999997E+02  0.45594000000E+02  0.51100000000E-03 0. -1.
    9900012    2    1    2    0    0  0.23611807572E+02 -0.10550449031E+02 -0.18651832155E+02  0.59301948594E+02  0.50000008327E+02 0.  0.
        -12    1    1    2    0    0 -0.23611807572E+02  0.10550449031E+02  0.18651832155E+02  0.31886051406E+02  0.00000000000E+00 0.  1.
         11    1    3    3    0    0  0.56083610804E+01  0.51860949971E+01  0.86539486514E+01  0.11542968546E+02  0.51100000000E-03 0. -1.
        -11    1    3    3    0    0  0.19488762436E+02 -0.41223565794E+01 -0.29744799920E+02  0.35798866010E+02  0.51100000000E-03 0.  1.
        -12    1    3    3    0    0 -0.14853159449E+01 -0.11614187449E+02  0.24390191139E+01  0.11960114037E+02  0.00000000000E+00 0.  1.
</event>
<event>
 7    1  0.6830263E-012  0.5930195E+02  0.7816164E-02  0.1266605E+00
        -11   -1    0    0    0    0  0.00000000000E+00  0.00000000000E+00  0.45593999997E+02  0.45594000000E+02  0.51100000000E-03 0. -1.
         11   -1    0    0    0    0 -0.00000000000E+00 -0.00000000000E+00 -0.45593999997E+02  0.45594000000E+02  0.51100000000E-03 0.  1.
    9900012    2    1    2    0    0  0.74009094836E+01  0.13551866464E+02  0.27897914025E+02  0.59301950499E+02  0.50000011801E+02 0.  0.
        -12    1    1    2    0    0 -0.74009094836E+01 -0.13551866464E+02 -0.27897914025E+02  0.31886049501E+02  0.00000000000E+00 0.  1.
         11    1    3    3    0    0 -0.58245258676E+01  0.10154247835E+01  0.13810178904E+01  0.60715236760E+01  0.51100000000E-03 0. -1.
        -11    1    3    3    0    0 -0.12546216467E+02  0.34232421361E+01 -0.26329116204E+01  0.13268698437E+02  0.51100000000E-03 0.  1.
         12    1    3    3    0    0  0.25771651818E+02  0.91131995446E+01  0.29149807755E+02  0.39961728385E+02  0.00000000000E+00 0. -1.
</event>
<event>
 7    1  0.6830263E-012  0.5930194E+02  0.7816164E-02  0.1266605E+00
        -11   -1    0    0    0    0  0.00000000000E+00  0.00000000000E+00  0.45593999997E+02  0.45594000000E+02  0.51100000000E-03 0.  1.
         11   -1    0    0    0    0 -0.00000000000E+00 -0.00000000000E+00 -0.45593999997E+02  0.45594000000E+02  0.51100000000E-03 0. -1.
    9900012    2    1    2    0    0  0.12867684737E+02  0.22184215821E+02 -0.18947398649E+02  0.59301942582E+02  0.49999997363E+02 0.  0.
        -12    1    1    2    0    0 -0.12867684737E+02 -0.22184215821E+02  0.18947398649E+02  0.31886057418E+02  0.00000000000E+00 0.  1.
         11    1    3    3    0    0 -0.31114931149E+01  0.44407714052E+01  0.18153342895E+01  0.57181534538E+01  0.51100000000E-03 0. -1.
        -11    1    3    3    0    0  0.34654186635E+01  0.19826189671E+02  0.83784814095E+01  0.21801052139E+02  0.51100000000E-03 0.  1.
         12    1    3    3    0    0  0.12513759189E+02 -0.20827452553E+01 -0.29141214348E+02  0.31782736989E+02  0.00000000000E+00 0. -1.
</event>
<event>
 7    1  0.6830263E-012  0.5930197E+02  0.7816164E-02  0.1266605E+00
        -11   -1    0    0    0    0  0.00000000000E+00  0.00000000000E+00  0.45593999997E+02  0.45594000000E+02  0.51100000000E-03 0.  1.
         11   -1    0    0    0    0 -0.00000000000E+00 -0.00000000000E+00 -0.45593999997E+02  0.45594000000E+02  0.51100000000E-03 0. -1.
    9900012    2    1    2    0    0 -0.43202273757E+01 -0.31583450096E+02  0.73506188285E+00  0.59301968567E+02  0.50000044754E+02 0.  0.
        -12    1    1    2    0    0  0.43202273757E+01  0.31583450096E+02 -0.73506188285E+00  0.31886031433E+02  0.00000000000E+00 0.  1.
         11    1    3    3    0    0  0.92599913842E+01 -0.23280481963E+01 -0.92652465871E+01  0.13304587307E+02  0.51100000000E-03 0. -1.
        -11    1    3    3    0    0 -0.40635010498E+00  0.54924356356E+01  0.67244510411E+01  0.86919624761E+01  0.51100000000E-03 0.  1.
         12    1    3    3    0    0 -0.13173868655E+02 -0.34747837536E+02  0.32758574288E+01  0.37305418784E+02  0.00000000000E+00 0. -1.
</event>
<event>
 7    1  0.6830263E-012  0.5930193E+02  0.7816164E-02  0.1266605E+00
        -11   -1    0    0    0    0  0.00000000000E+00  0.00000000000E+00  0.45593999997E+02  0.45594000000E+02  0.51100000000E-03 0. -1.
         11   -1    0    0    0    0 -0.00000000000E+00 -0.00000000000E+00 -0.45593999997E+02  0.45594000000E+02  0.51100000000E-03 0.  1.
    9900012    2    1    2    0    0  0.13266562008E+02  0.18617180984E+02  0.22228812945E+02  0.59301933760E+02  0.49999981274E+02 0.  0.
        -12    1    1    2    0    0 -0.13266562008E+02 -0.18617180984E+02 -0.22228812945E+02  0.31886066240E+02  0.00000000000E+00 0.  1.
         11    1    3    3    0    0  0.33972232248E+01  0.27907925947E+01 -0.96018095856E+01  0.10560511187E+02  0.51100000000E-03 0. -1.
        -11    1    3    3    0    0  0.16491534985E+02  0.33921400605E+01  0.36385712263E+01  0.17225462002E+02  0.51100000000E-03 0.  1.
         12    1    3    3    0    0 -0.66221962010E+01  0.12434248329E+02  0.28192051304E+02  0.31515960572E+02  0.00000000000E+00 0. -1.
</event>
<event>
 7    1  0.6830263E-012  0.5930205E+02  0.7816164E-02  0.1266604E+00
        -11   -1    0    0    0    0  0.00000000000E+00  0.00000000000E+00  0.45593999997E+02  0.45594000000E+02  0.51100000000E-03 0. -1.
         11   -1    0    0    0    0 -0.00000000000E+00 -0.00000000000E+00 -0.45593999997E+02  0.45594000000E+02  0.51100000000E-03 0.  1.
    9900012    2    1    2    0    0  0.30955808256E+02  0.62948587304E+01  0.43389354478E+01  0.59302052123E+02  0.50000197139E+02 0.  0.
        -12    1    1    2    0    0 -0.30955808256E+02 -0.62948587304E+01 -0.43389354478E+01  0.31885947877E+02  0.00000000000E+00 0.  1.
         11    1    3    3    0    0 -0.54871329703E+01 -0.78828043636E+01 -0.50182896843E+01  0.10836533786E+02  0.51100000000E-03 0. -1.
        -11    1    3    3    0    0  0.17683221139E+02  0.21092968097E+02  0.44982990615E+01  0.27889860303E+02  0.51100000000E-03 0.  1.
         12    1    3    3    0    0  0.18759720087E+02 -0.69153050026E+01  0.48589260705E+01  0.20575658035E+02  0.00000000000E+00 0. -1.
</event>
<event>
 7    1  0.6830263E-012  0.5930195E+02  0.7816164E-02  0.1266605E+00
        -11   -1    0    0    0    0  0.00000000000E+00  0.00000000000E+00  0.45593999997E+02  0.45594000000E+02  0.51100000000E-03 0.  1.
         11   -1    0    0    0    0 -0.00000000000E+00 -0.00000000000E+00 -0.45593999997E+02  0.45594000000E+02  0.51100000000E-03 0. -1.
    9900012    2    1    2    0    0  0.23705845065E+02  0.21298469875E+02 -0.10623136813E+01  0.59301946315E+02  0.50000004171E+02 0.  0.
        -12    1    1    2    0    0 -0.23705845065E+02 -0.21298469875E+02  0.10623136813E+01  0.31886053685E+02  0.00000000000E+00 0.  1.
         11    1    3    3    0    0  0.81033121976E+01  0.14176682560E+02 -0.35389885107E+01  0.16708274504E+02  0.51100000000E-03 0. -1.
        -11    1    3    3    0    0 -0.44243807880E+01  0.18736149509E+02 -0.46113608957E+00  0.19256975114E+02  0.51100000000E-03 0.  1.
        -12    1    3    3    0    0  0.20026913655E+02 -0.11614362194E+02  0.29378109189E+01  0.23336696696E+02  0.00000000000E+00 0.  1.
</event>
<event>
 7    1  0.6830263E-012  0.5930191E+02  0.7816164E-02  0.1266605E+00
        -11   -1    0    0    0    0  0.00000000000E+00  0.00000000000E+00  0.45593999997E+02  0.45594000000E+02  0.51100000000E-03 0.  1.
         11   -1    0    0    0    0 -0.00000000000E+00 -0.00000000000E+00 -0.45593999997E+02  0.45594000000E+02  0.51100000000E-03 0. -1.
    9900012    2    1    2    0    0 -0.28816550896E+01  0.52660587727E+00 -0.31751244746E+02  0.59301909102E+02  0.49999936305E+02 0.  0.
        -12    1    1    2    0    0  0.28816550896E+01 -0.52660587727E+00  0.31751244746E+02  0.31886090898E+02  0.00000000000E+00 0.  1.
         11    1    3    3    0    0 -0.16225858733E+01  0.19092366456E+02 -0.26562221962E+02  0.32752143100E+02  0.51100000000E-03 0. -1.
        -11    1    3    3    0    0 -0.26213292484E+00  0.34555983853E+01 -0.26449252225E+01  0.43595302000E+01  0.51100000000E-03 0.  1.
        -12    1    3    3    0    0 -0.99693629143E+00 -0.22021358964E+02 -0.25440975614E+01  0.22190235803E+02  0.00000000000E+00 0.  1.
</event>
<event>
 7    1  0.6830263E-012  0.5930231E+02  0.7816164E-02  0.1266603E+00
        -11   -1    0    0    0    0  0.00000000000E+00  0.00000000000E+00  0.45593999997E+02  0.45594000000E+02  0.51100000000E-03 0.  1.
         11   -1    0    0    0    0 -0.00000000000E+00 -0.00000000000E+00 -0.45593999997E+02  0.45594000000E+02  0.51100000000E-03 0. -1.
    9900012    2    1    2    0    0  0.31293547572E+02 -0.32413972839E+01 -0.51869447399E+01  0.59302310864E+02  0.50000669016E+02 0.  0.
        -12    1    1    2    0    0 -0.31293547572E+02  0.32413972839E+01  0.51869447399E+01  0.31885689136E+02  0.00000000000E+00 0.  1.
         11    1    3    3    0    0  0.63163849175E+00 -0.12306340034E+02 -0.81886852899E+01  0.14795253944E+02  0.51100000000E-03 0. -1.
        -11    1    3    3    0    0  0.13407206642E+02 -0.10132389230E+02  0.73305359778E+01  0.18334537339E+02  0.51100000000E-03 0.  1.
        -12    1    3    3    0    0  0.17254702438E+02  0.19197331980E+02 -0.43287954278E+01  0.26172519581E+02  0.00000000000E+00 0.  1.
</event>
<event>
 7    1  0.6830263E-012  0.5930197E+02  0.7816164E-02  0.1266605E+00
        -11   -1    0    0    0    0  0.00000000000E+00  0.00000000000E+00  0.45593999997E+02  0.45594000000E+02  0.51100000000E-03 0.  1.
         11   -1    0    0    0    0 -0.00000000000E+00 -0.00000000000E+00 -0.45593999997E+02  0.45594000000E+02  0.51100000000E-03 0. -1.
    9900012    2    1    2    0    0  0.13454756403E+02  0.23054761754E+02  0.17440365139E+02  0.59301970997E+02  0.50000049185E+02 0.  0.
        -12    1    1    2    0    0 -0.13454756403E+02 -0.23054761754E+02 -0.17440365139E+02  0.31886029003E+02  0.00000000000E+00 0.  1.
         11    1    3    3    0    0 -0.71876124686E+00 -0.14368973657E+01  0.54916195543E+01  0.57218159146E+01  0.51100000000E-03 0. -1.
        -11    1    3    3    0    0  0.89036277781E+01  0.86402936477E+01  0.27868038522E+02  0.30505029639E+02  0.51100000000E-03 0.  1.
         12    1    3    3    0    0  0.52698898716E+01  0.15851365472E+02 -0.15919292937E+02  0.23075125443E+02  0.00000000000E+00 0. -1.
</event>
<event>
 7    1  0.6830263E-012  0.5930193E+02  0.7816164E-02  0.1266605E+00
        -11   -1    0    0    0    0  0.00000000000E+00  0.00000000000E+00  0.45593999997E+02  0.45594000000E+02  0.51100000000E-03 0.  1.
         11   -1    0    0    0    0 -0.00000000000E+00 -0.00000000000E+00 -0.45593999997E+02  0.45594000000E+02  0.51100000000E-03 0. -1.
    9900012    2    1    2    0    0 -0.94860042605E+01  0.86750989164E+01 -0.29180122966E+02  0.59301934167E+02  0.49999982016E+02 0.  0.
        -12    1    1    2    0    0  0.94860042605E+01 -0.86750989164E+01  0.29180122966E+02  0.31886065833E+02  0.00000000000E+00 0.  1.
         11    1    3    3    0    0  0.12304455242E+02  0.98353559300E+01 -0.25037219342E+02  0.29580334645E+02  0.51100000000E-03 0. -1.
        -11    1    3    3    0    0 -0.16066951233E+02  0.61982093610E+01 -0.87572472177E+01  0.19319785204E+02  0.51100000000E-03 0.  1.
        -12    1    3    3    0    0 -0.57235082689E+01 -0.73584663746E+01  0.46143435944E+01  0.10401814318E+02  0.00000000000E+00 0.  1.
</event>
<event>
 7    1  0.6830263E-012  0.5930195E+02  0.7816164E-02  0.1266605E+00
        -11   -1    0    0    0    0  0.00000000000E+00  0.00000000000E+00  0.45593999997E+02  0.45594000000E+02  0.51100000000E-03 0.  1.
         11   -1    0    0    0    0 -0.00000000000E+00 -0.00000000000E+00 -0.45593999997E+02  0.45594000000E+02  0.51100000000E-03 0. -1.
    9900012    2    1    2    0    0 -0.18710519757E+02 -0.10242168489E+02 -0.23700940302E+02  0.59301950760E+02  0.50000012279E+02 0.  0.
        -12    1    1    2    0    0  0.18710519757E+02  0.10242168489E+02  0.23700940302E+02  0.31886049240E+02  0.00000000000E+00 0.  1.
         11    1    3    3    0    0 -0.13716349693E+02  0.15432795872E+02 -0.11680856029E+02  0.23722391008E+02  0.51100000000E-03 0. -1.
        -11    1    3    3    0    0 -0.11089609834E+02 -0.77223920081E+01 -0.93511786663E+01  0.16433481898E+02  0.51100000000E-03 0.  1.
        -12    1    3    3    0    0  0.60954397700E+01 -0.17952572352E+02 -0.26689056063E+01  0.19146077854E+02  0.00000000000E+00 0.  1.
</event>
<event>
 7    1  0.6830263E-012  0.5930195E+02  0.7816164E-02  0.1266605E+00
        -11   -1    0    0    0    0  0.00000000000E+00  0.00000000000E+00  0.45593999997E+02  0.45594000000E+02  0.51100000000E-03 0.  1.
         11   -1    0    0    0    0 -0.00000000000E+00 -0.00000000000E+00 -0.45593999997E+02  0.45594000000E+02  0.51100000000E-03 0. -1.
    9900012    2    1    2    0    0  0.30265739791E+02  0.13937607369E+01 -0.99379295042E+01  0.59301952629E+02  0.50000015687E+02 0.  0.
        -12    1    1    2    0    0 -0.30265739791E+02 -0.13937607369E+01  0.99379295042E+01  0.31886047371E+02  0.00000000000E+00 0.  1.
         11    1    3    3    0    0  0.14122564042E+02 -0.18806984540E+02 -0.10920460609E+01  0.23544469573E+02  0.51100000000E-03 0. -1.
        -11    1    3    3    0    0  0.11282846579E+02  0.67675365997E+00 -0.10684539422E+02  0.15553777848E+02  0.51100000000E-03 0.  1.
        -12    1    3    3    0    0  0.48603291705E+01  0.19523991617E+02  0.18386559782E+01  0.20203705208E+02  0.00000000000E+00 0.  1.
</event>
<event>
 7    1  0.6830263E-012  0.5930191E+02  0.7816164E-02  0.1266605E+00
        -11   -1    0    0    0    0  0.00000000000E+00  0.00000000000E+00  0.45593999997E+02  0.45594000000E+02  0.51100000000E-03 0.  1.
         11   -1    0    0    0    0 -0.00000000000E+00 -0.00000000000E+00 -0.45593999997E+02  0.45594000000E+02  0.51100000000E-03 0. -1.
    9900012    2    1    2    0    0 -0.86839355828E+01 -0.77611299934E+01 -0.29682940575E+02  0.59301908405E+02  0.49999935033E+02 0.  0.
        -12    1    1    2    0    0  0.86839355828E+01  0.77611299934E+01  0.29682940575E+02  0.31886091595E+02  0.00000000000E+00 0.  1.
         11    1    3    3    0    0 -0.17394087567E+02 -0.73347549711E+01 -0.11563540412E+02  0.22137488112E+02  0.51100000000E-03 0. -1.
        -11    1    3    3    0    0 -0.75324295399E+01 -0.10336775133E+02 -0.10930206800E+02  0.16824263309E+02  0.51100000000E-03 0.  1.
        -12    1    3    3    0    0  0.16242581524E+02  0.99104001111E+01 -0.71891933635E+01  0.20340156985E+02  0.00000000000E+00 0.  1.
</event>
<event>
 7    1  0.6830263E-012  0.5930197E+02  0.7816164E-02  0.1266605E+00
        -11   -1    0    0    0    0  0.00000000000E+00  0.00000000000E+00  0.45593999997E+02  0.45594000000E+02  0.51100000000E-03 0.  1.
         11   -1    0    0    0    0 -0.00000000000E+00 -0.00000000000E+00 -0.45593999997E+02  0.45594000000E+02  0.51100000000E-03 0. -1.
    9900012    2    1    2    0    0 -0.62980749070E+01  0.75860372713E+01 -0.30323339582E+02  0.59301974339E+02  0.50000055281E+02 0.  0.
        -12    1    1    2    0    0  0.62980749070E+01 -0.75860372713E+01  0.30323339582E+02  0.31886025661E+02  0.00000000000E+00 0.  1.
         11    1    3    3    0    0  0.16281583162E+02  0.41333925569E+01 -0.20794713446E+02  0.26731909619E+02  0.51100000000E-03 0. -1.
        -11    1    3    3    0    0 -0.26295409985E+01 -0.39228847233E+01 -0.10252496053E+02  0.11287922129E+02  0.51100000000E-03 0.  1.
        -12    1    3    3    0    0 -0.19950117071E+02  0.73755294377E+01  0.72386991669E+00  0.21282142591E+02  0.00000000000E+00 0.  1.
</event>
<event>
 7    1  0.6830263E-012  0.5930193E+02  0.7816164E-02  0.1266605E+00
        -11   -1    0    0    0    0  0.00000000000E+00  0.00000000000E+00  0.45593999997E+02  0.45594000000E+02  0.51100000000E-03 0. -1.
         11   -1    0    0    0    0 -0.00000000000E+00 -0.00000000000E+00 -0.45593999997E+02  0.45594000000E+02  0.51100000000E-03 0.  1.
    9900012    2    1    2    0    0  0.23307670082E+02 -0.17522859445E+02 -0.12900517463E+02  0.59301930336E+02  0.49999975030E+02 0.  0.
        -12    1    1    2    0    0 -0.23307670082E+02  0.17522859445E+02  0.12900517463E+02  0.31886069664E+02  0.00000000000E+00 0.  1.
         11    1    3    3    0    0  0.12116113271E+02 -0.11194140691E+02  0.84286285573E+01  0.18524329036E+02  0.51100000000E-03 0.  1.
        -11    1    3    3    0    0  0.10680590305E+02 -0.74874202844E+00  0.64094947312E+01  0.12478671678E+02  0.51100000000E-03 0. -1.
        -12    1    3    3    0    0  0.51096650645E+00 -0.55799767255E+01 -0.27738640752E+02  0.28298929622E+02  0.00000000000E+00 0.  1.
</event>
<event>
 7    1  0.6830263E-012  0.5930193E+02  0.7816164E-02  0.1266605E+00
        -11   -1    0    0    0    0  0.00000000000E+00  0.00000000000E+00  0.45593999997E+02  0.45594000000E+02  0.51100000000E-03 0.  1.
         11   -1    0    0    0    0 -0.00000000000E+00 -0.00000000000E+00 -0.45593999997E+02  0.45594000000E+02  0.51100000000E-03 0. -1.
    9900012    2    1    2    0    0 -0.28101922988E+02  0.10297473052E+02 -0.10998422391E+02  0.59301932165E+02  0.49999978365E+02 0.  0.
        -12    1    1    2    0    0  0.28101922988E+02 -0.10297473052E+02  0.10998422391E+02  0.31886067835E+02  0.00000000000E+00 0.  1.
         11    1    3    3    0    0 -0.29951126206E+02  0.42403457605E+01 -0.11174647731E+02  0.32247840941E+02  0.51100000000E-03 0. -1.
        -11    1    3    3    0    0 -0.25997555004E+01 -0.40300982984E+00  0.12319765175E+02  0.12597529909E+02  0.51100000000E-03 0.  1.
         12    1    3    3    0    0  0.44489587187E+01  0.64601371215E+01 -0.12143539835E+02  0.14456561314E+02  0.00000000000E+00 0. -1.
</event>
<event>
 7    1  0.6830263E-012  0.5930181E+02  0.7816164E-02  0.1266605E+00
        -11   -1    0    0    0    0  0.00000000000E+00  0.00000000000E+00  0.45593999997E+02  0.45594000000E+02  0.51100000000E-03 0. -1.
         11   -1    0    0    0    0 -0.00000000000E+00 -0.00000000000E+00 -0.45593999997E+02  0.45594000000E+02  0.51100000000E-03 0.  1.
    9900012    2    1    2    0    0 -0.27622054362E+02  0.83200504755E+01  0.13584110944E+02  0.59301808675E+02  0.49999753149E+02 0.  0.
        -12    1    1    2    0    0  0.27622054362E+02 -0.83200504755E+01 -0.13584110944E+02  0.31886191325E+02  0.00000000000E+00 0.  1.
         11    1    3    3    0    0  0.31001255428E+01  0.20143093993E+01  0.16727773383E+02  0.17131451291E+02  0.51100000000E-03 0. -1.
        -11    1    3    3    0    0  0.41396201372E+01 -0.26161238070E+01 -0.37691714605E+01  0.61795802781E+01  0.51100000000E-03 0.  1.
        -12    1    3    3    0    0 -0.34861800042E+02  0.89218648832E+01  0.62550902160E+00  0.35990777106E+02  0.00000000000E+00 0.  1.
</event>
<event>
 7    1  0.6830263E-012  0.5930196E+02  0.7816164E-02  0.1266605E+00
        -11   -1    0    0    0    0  0.00000000000E+00  0.00000000000E+00  0.45593999997E+02  0.45594000000E+02  0.51100000000E-03 0.  1.
         11   -1    0    0    0    0 -0.00000000000E+00 -0.00000000000E+00 -0.45593999997E+02  0.45594000000E+02  0.51100000000E-03 0. -1.
    9900012    2    1    2    0    0 -0.49930644483E+01 -0.17909776079E+02 -0.25904226277E+02  0.59301957430E+02  0.50000024442E+02 0.  0.
        -12    1    1    2    0    0  0.49930644483E+01  0.17909776079E+02  0.25904226277E+02  0.31886042570E+02  0.00000000000E+00 0.  1.
         11    1    3    3    0    0  0.68255895179E+01 -0.64134206133E+01  0.34553029612E+01  0.99829732567E+01  0.51100000000E-03 0.  1.
        -11    1    3    3    0    0  0.76540239217E+01  0.27378215859E+01  0.32530881518E+01  0.87557028281E+01  0.51100000000E-03 0. -1.
         12    1    3    3    0    0 -0.19472677888E+02 -0.14234177051E+02 -0.32612617390E+02  0.40563281345E+02  0.00000000000E+00 0. -1.
</event>
<event>
 7    1  0.6830263E-012  0.5930196E+02  0.7816164E-02  0.1266605E+00
        -11   -1    0    0    0    0  0.00000000000E+00  0.00000000000E+00  0.45593999997E+02  0.45594000000E+02  0.51100000000E-03 0.  1.
         11   -1    0    0    0    0 -0.00000000000E+00 -0.00000000000E+00 -0.45593999997E+02  0.45594000000E+02  0.51100000000E-03 0. -1.
    9900012    2    1    2    0    0 -0.31402081312E+01  0.31285795554E+02 -0.52969643857E+01  0.59301956936E+02  0.50000023542E+02 0.  0.
        -12    1    1    2    0    0  0.31402081312E+01 -0.31285795554E+02  0.52969643857E+01  0.31886043064E+02  0.00000000000E+00 0.  1.
         11    1    3    3    0    0 -0.10282705307E+02  0.48704200323E+01  0.10496881087E+02  0.15480294975E+02  0.51100000000E-03 0. -1.
        -11    1    3    3    0    0  0.96453504321E+01 -0.38120924125E+01 -0.22934922781E+01  0.10621908520E+02  0.51100000000E-03 0.  1.
         12    1    3    3    0    0 -0.25028532567E+01  0.30227467934E+02 -0.13500353194E+02  0.33199753441E+02  0.00000000000E+00 0. -1.
</event>
<event>
 7    1  0.6830263E-012  0.5930195E+02  0.7816164E-02  0.1266605E+00
        -11   -1    0    0    0    0  0.00000000000E+00  0.00000000000E+00  0.45593999997E+02  0.45594000000E+02  0.51100000000E-03 0.  1.
         11   -1    0    0    0    0 -0.00000000000E+00 -0.00000000000E+00 -0.45593999997E+02  0.45594000000E+02  0.51100000000E-03 0. -1.
    9900012    2    1    2    0    0  0.41491960957E+01 -0.17035109527E+02 -0.26632862228E+02  0.59301950774E+02  0.50000012303E+02 0.  0.
        -12    1    1    2    0    0 -0.41491960957E+01  0.17035109527E+02  0.26632862228E+02  0.31886049226E+02  0.00000000000E+00 0.  1.
         11    1    3    3    0    0 -0.13802779283E+02 -0.11209228205E+02 -0.12055137393E+02  0.21482314836E+02  0.51100000000E-03 0. -1.
        -11    1    3    3    0    0  0.59534439154E+01  0.88366666528E+01 -0.15548088485E+02  0.18848692999E+02  0.51100000000E-03 0.  1.
        -12    1    3    3    0    0  0.11998531463E+02 -0.14662547975E+02  0.97036365015E+00  0.18970942939E+02  0.00000000000E+00 0.  1.
</event>
<event>
 7    1  0.6830263E-012  0.5930196E+02  0.7816164E-02  0.1266605E+00
        -11   -1    0    0    0    0  0.00000000000E+00  0.00000000000E+00  0.45593999997E+02  0.45594000000E+02  0.51100000000E-03 0.  1.
         11   -1    0    0    0    0 -0.00000000000E+00 -0.00000000000E+00 -0.45593999997E+02  0.45594000000E+02  0.51100000000E-03 0. -1.
    9900012    2    1    2    0    0 -0.75576237523E+01 -0.30667478360E+02 -0.43712288109E+01  0.59301959998E+02  0.50000029125E+02 0.  0.
        -12    1    1    2    0    0  0.75576237523E+01  0.30667478360E+02  0.43712288109E+01  0.31886040002E+02  0.00000000000E+00 0.  1.
         11    1    3    3    0    0  0.83076488094E+01 -0.18341875174E+02 -0.13451174172E+02  0.24215191523E+02  0.51100000000E-03 0. -1.
        -11    1    3    3    0    0  0.53354780623E+01 -0.43981151619E+01 -0.49075872410E+01  0.84791011269E+01  0.51100000000E-03 0.  1.
        -12    1    3    3    0    0 -0.21200750624E+02 -0.79274880240E+01  0.13987532602E+02  0.26607667348E+02  0.00000000000E+00 0.  1.
</event>
<event>
 7    1  0.6830263E-012  0.5930188E+02  0.7816164E-02  0.1266605E+00
        -11   -1    0    0    0    0  0.00000000000E+00  0.00000000000E+00  0.45593999997E+02  0.45594000000E+02  0.51100000000E-03 0.  1.
         11   -1    0    0    0    0 -0.00000000000E+00 -0.00000000000E+00 -0.45593999997E+02  0.45594000000E+02  0.51100000000E-03 0. -1.
    9900012    2    1    2    0    0 -0.52036140582E+01  0.28925233732E+02  0.12368423821E+02  0.59301879923E+02  0.49999883089E+02 0.  0.
        -12    1    1    2    0    0  0.52036140582E+01 -0.28925233732E+02 -0.12368423821E+02  0.31886120077E+02  0.00000000000E+00 0.  1.
         11    1    3    3    0    0  0.16143766815E+02  0.45367533722E+01  0.48076910096E+01  0.17444690632E+02  0.51100000000E-03 0. -1.
        -11    1    3    3    0    0 -0.15970984332E+01  0.94324637146E+01 -0.81110115529E+01  0.12542352403E+02  0.51100000000E-03 0.  1.
        -12    1    3    3    0    0 -0.19750282440E+02  0.14956016646E+02  0.15671744364E+02  0.29314836888E+02  0.00000000000E+00 0.  1.
</event>
<event>
 7    1  0.6830263E-012  0.5930195E+02  0.7816164E-02  0.1266605E+00
        -11   -1    0    0    0    0  0.00000000000E+00  0.00000000000E+00  0.45593999997E+02  0.45594000000E+02  0.51100000000E-03 0. -1.
         11   -1    0    0    0    0 -0.00000000000E+00 -0.00000000000E+00 -0.45593999997E+02  0.45594000000E+02  0.51100000000E-03 0.  1.
    9900012    2    1    2    0    0  0.17412562497E+02 -0.17688100017E+02 -0.20016345301E+02  0.59301948283E+02  0.50000007760E+02 0.  0.
        -12    1    1    2    0    0 -0.17412562497E+02  0.17688100017E+02  0.20016345301E+02  0.31886051717E+02  0.00000000000E+00 0.  1.
         11    1    3    3    0    0  0.75344144184E+01 -0.73554476967E+01 -0.27750585069E+02  0.29681054283E+02  0.51100000000E-03 0.  1.
        -11    1    3    3    0    0  0.95684031168E+01  0.65453025072E+01  0.44850278769E+01  0.12430237264E+02  0.51100000000E-03 0. -1.
         12    1    3    3    0    0  0.30974496193E+00 -0.16877954827E+02  0.32492118911E+01  0.17190656736E+02  0.00000000000E+00 0. -1.
</event>
<event>
 7    1  0.6830263E-012  0.5930193E+02  0.7816164E-02  0.1266605E+00
        -11   -1    0    0    0    0  0.00000000000E+00  0.00000000000E+00  0.45593999997E+02  0.45594000000E+02  0.51100000000E-03 0.  1.
         11   -1    0    0    0    0 -0.00000000000E+00 -0.00000000000E+00 -0.45593999997E+02  0.45594000000E+02  0.51100000000E-03 0. -1.
    9900012    2    1    2    0    0  0.69426305673E+01 -0.24072731190E+02 -0.19723708353E+02  0.59301934433E+02  0.49999982502E+02 0.  0.
        -12    1    1    2    0    0 -0.69426305673E+01  0.24072731190E+02  0.19723708353E+02  0.31886065567E+02  0.00000000000E+00 0.  1.
         11    1    3    3    0    0  0.14144769564E+01  0.47075674090E+01 -0.65655802048E+00  0.49591334592E+01  0.51100000000E-03 0. -1.
        -11    1    3    3    0    0  0.35483103633E+00  0.64374511413E+01  0.75262346726E+01  0.99101408097E+01  0.51100000000E-03 0.  1.
         12    1    3    3    0    0  0.51733225746E+01 -0.35217749740E+02 -0.26593385005E+02  0.44432660164E+02  0.00000000000E+00 0. -1.
</event>
<event>
 7    1  0.6830263E-012  0.5930194E+02  0.7816164E-02  0.1266605E+00
        -11   -1    0    0    0    0  0.00000000000E+00  0.00000000000E+00  0.45593999997E+02  0.45594000000E+02  0.51100000000E-03 0.  1.
         11   -1    0    0    0    0 -0.00000000000E+00 -0.00000000000E+00 -0.45593999997E+02  0.45594000000E+02  0.51100000000E-03 0. -1.
    9900012    2    1    2    0    0  0.15028495644E+02  0.20370792069E+02 -0.19388041997E+02  0.59301936848E+02  0.49999986907E+02 0.  0.
        -12    1    1    2    0    0 -0.15028495644E+02 -0.20370792069E+02  0.19388041997E+02  0.31886063152E+02  0.00000000000E+00 0.  1.
         11    1    3    3    0    0  0.13191710845E+02  0.12518146512E+02 -0.14328760429E+02  0.23152507484E+02  0.51100000000E-03 0. -1.
        -11    1    3    3    0    0  0.15300808612E+02  0.13321436775E+02 -0.70586895149E+01  0.21480235563E+02  0.51100000000E-03 0.  1.
        -12    1    3    3    0    0 -0.13464023813E+02 -0.54687912173E+01  0.19994079474E+01  0.14669193801E+02  0.00000000000E+00 0.  1.
</event>
<event>
 7    1  0.6830263E-012  0.5930191E+02  0.7816164E-02  0.1266605E+00
        -11   -1    0    0    0    0  0.00000000000E+00  0.00000000000E+00  0.45593999997E+02  0.45594000000E+02  0.51100000000E-03 0. -1.
         11   -1    0    0    0    0 -0.00000000000E+00 -0.00000000000E+00 -0.45593999997E+02  0.45594000000E+02  0.51100000000E-03 0.  1.
    9900012    2    1    2    0    0 -0.84877499716E+01 -0.30023100772E+02  0.65798143037E+01  0.59301914699E+02  0.49999946511E+02 0.  0.
        -12    1    1    2    0    0  0.84877499716E+01  0.30023100772E+02 -0.65798143037E+01  0.31886085301E+02  0.00000000000E+00 0.  1.
         11    1    3    3    0    0 -0.28616285762E+01 -0.13282686912E+02  0.11222394893E+02  0.17622736368E+02  0.51100000000E-03 0. -1.
        -11    1    3    3    0    0  0.61267299859E+01 -0.11985475642E+02 -0.18511837187E+02  0.22888349940E+02  0.51100000000E-03 0.  1.
         12    1    3    3    0    0 -0.11752851381E+02 -0.47549382181E+01  0.13869256597E+02  0.18790828391E+02  0.00000000000E+00 0. -1.
</event>
<event>
 7    1  0.6830263E-012  0.5930192E+02  0.7816164E-02  0.1266605E+00
        -11   -1    0    0    0    0  0.00000000000E+00  0.00000000000E+00  0.45593999997E+02  0.45594000000E+02  0.51100000000E-03 0. -1.
         11   -1    0    0    0    0 -0.00000000000E+00 -0.00000000000E+00 -0.45593999997E+02  0.45594000000E+02  0.51100000000E-03 0.  1.
    9900012    2    1    2    0    0 -0.23437704255E+02 -0.21526484144E+02 -0.20016245715E+01  0.59301921513E+02  0.49999958939E+02 0.  0.
        -12    1    1    2    0    0  0.23437704255E+02  0.21526484144E+02  0.20016245715E+01  0.31886078487E+02  0.00000000000E+00 0.  1.
         11    1    3    3    0    0  0.77229503627E+01 -0.43349314117E+01  0.54895219901E+01  0.10419714228E+02  0.51100000000E-03 0. -1.
        -11    1    3    3    0    0 -0.11167095277E+02  0.28771203181E+01 -0.15615406452E+02  0.19411923067E+02  0.51100000000E-03 0.  1.
         12    1    3    3    0    0 -0.19993559341E+02 -0.20068673050E+02  0.81242598903E+01  0.29470284218E+02  0.00000000000E+00 0. -1.
</event>
<event>
 7    1  0.6830263E-012  0.5930199E+02  0.7816164E-02  0.1266605E+00
        -11   -1    0    0    0    0  0.00000000000E+00  0.00000000000E+00  0.45593999997E+02  0.45594000000E+02  0.51100000000E-03 0. -1.
         11   -1    0    0    0    0 -0.00000000000E+00 -0.00000000000E+00 -0.45593999997E+02  0.45594000000E+02  0.51100000000E-03 0.  1.
    9900012    2    1    2    0    0 -0.26006788246E+02 -0.12807116697E+02  0.13279395693E+02  0.59301990169E+02  0.50000084151E+02 0.  0.
        -12    1    1    2    0    0  0.26006788246E+02  0.12807116697E+02 -0.13279395693E+02  0.31886009831E+02  0.00000000000E+00 0.  1.
         11    1    3    3    0    0 -0.39802409149E+01 -0.11897827497E+00  0.43667124838E+01  0.59097082625E+01  0.51100000000E-03 0. -1.
        -11    1    3    3    0    0 -0.33981384021E+02  0.12468625446E+00  0.11062682073E+02  0.35736996818E+02  0.51100000000E-03 0.  1.
        -12    1    3    3    0    0  0.11954836690E+02 -0.12812824676E+02 -0.21499988643E+01  0.17655285089E+02  0.00000000000E+00 0.  1.
</event>
<event>
 7    1  0.6830263E-012  0.5930195E+02  0.7816164E-02  0.1266605E+00
        -11   -1    0    0    0    0  0.00000000000E+00  0.00000000000E+00  0.45593999997E+02  0.45594000000E+02  0.51100000000E-03 0.  1.
         11   -1    0    0    0    0 -0.00000000000E+00 -0.00000000000E+00 -0.45593999997E+02  0.45594000000E+02  0.51100000000E-03 0. -1.
    9900012    2    1    2    0    0  0.36506168194E+01  0.28986729648E+02 -0.12773519529E+02  0.59301948191E+02  0.50000007593E+02 0.  0.
        -12    1    1    2    0    0 -0.36506168194E+01 -0.28986729648E+02  0.12773519529E+02  0.31886051809E+02  0.00000000000E+00 0.  1.
         11    1    3    3    0    0  0.31771861901E+01  0.21639645154E+02  0.33213384651E+01  0.22122387845E+02  0.51100000000E-03 0. -1.
        -11    1    3    3    0    0 -0.75057194787E+01  0.83706326101E+01  0.66442206727E+01  0.13059440409E+02  0.51100000000E-03 0.  1.
         12    1    3    3    0    0  0.79791501081E+01 -0.10235481166E+01 -0.22739078666E+02  0.24120119937E+02  0.00000000000E+00 0. -1.
</event>
<event>
 7    1  0.6830263E-012  0.5930195E+02  0.7816164E-02  0.1266605E+00
        -11   -1    0    0    0    0  0.00000000000E+00  0.00000000000E+00  0.45593999997E+02  0.45594000000E+02  0.51100000000E-03 0. -1.
         11   -1    0    0    0    0 -0.00000000000E+00 -0.00000000000E+00 -0.45593999997E+02  0.45594000000E+02  0.51100000000E-03 0.  1.
    9900012    2    1    2    0    0  0.46654961307E+01  0.30536221132E+02  0.79052363216E+01  0.59301946364E+02  0.50000004262E+02 0.  0.
        -12    1    1    2    0    0 -0.46654961307E+01 -0.30536221132E+02 -0.79052363216E+01  0.31886053636E+02  0.00000000000E+00 0.  1.
         11    1    3    3    0    0 -0.94322263069E+01 -0.91533184055E+00  0.43937581410E+01  0.10445565391E+02  0.51100000000E-03 0. -1.
        -11    1    3    3    0    0  0.20826108644E+02  0.13380650009E+02  0.12327391404E+02  0.27653809412E+02  0.51100000000E-03 0.  1.
         12    1    3    3    0    0 -0.67283862061E+01  0.18070902964E+02 -0.88159132230E+01  0.21202571561E+02  0.00000000000E+00 0. -1.
</event>
<event>
 7    1  0.6830263E-012  0.5930191E+02  0.7816164E-02  0.1266605E+00
        -11   -1    0    0    0    0  0.00000000000E+00  0.00000000000E+00  0.45593999997E+02  0.45594000000E+02  0.51100000000E-03 0. -1.
         11   -1    0    0    0    0 -0.00000000000E+00 -0.00000000000E+00 -0.45593999997E+02  0.45594000000E+02  0.51100000000E-03 0.  1.
    9900012    2    1    2    0    0  0.37658122707E+01 -0.19128155548E+02  0.25232020089E+02  0.59301913465E+02  0.49999944261E+02 0.  0.
        -12    1    1    2    0    0 -0.37658122707E+01  0.19128155548E+02 -0.25232020089E+02  0.31886086535E+02  0.00000000000E+00 0.  1.
         11    1    3    3    0    0 -0.66968280137E+01 -0.21159003349E+02  0.17370934213E+02  0.28183333441E+02  0.51100000000E-03 0.  1.
        -11    1    3    3    0    0 -0.35698698978E+01 -0.79449917628E+01  0.10562722517E+02  0.13690798824E+02  0.51100000000E-03 0. -1.
        -12    1    3    3    0    0  0.14032510182E+02  0.99758395635E+01 -0.27016366407E+01  0.17427781200E+02  0.00000000000E+00 0.  1.
</event>
<event>
 7    1  0.6830263E-012  0.5930193E+02  0.7816164E-02  0.1266605E+00
        -11   -1    0    0    0    0  0.00000000000E+00  0.00000000000E+00  0.45593999997E+02  0.45594000000E+02  0.51100000000E-03 0.  1.
         11   -1    0    0    0    0 -0.00000000000E+00 -0.00000000000E+00 -0.45593999997E+02  0.45594000000E+02  0.51100000000E-03 0. -1.
    9900012    2    1    2    0    0 -0.16647632975E+02 -0.29307566969E+00 -0.27193604765E+02  0.59301925969E+02  0.49999967064E+02 0.  0.
        -12    1    1    2    0    0  0.16647632975E+02  0.29307566969E+00  0.27193604765E+02  0.31886074031E+02  0.00000000000E+00 0.  1.
         11    1    3    3    0    0 -0.14529903171E+01 -0.11981743704E+02 -0.10470950695E+02  0.15978553494E+02  0.51100000000E-03 0. -1.
        -11    1    3    3    0    0  0.31142093639E+01  0.69452509353E+01 -0.22333836799E+02  0.23595234200E+02  0.51100000000E-03 0.  1.
         12    1    3    3    0    0 -0.18308852022E+02  0.47434170992E+01  0.56111827293E+01  0.19728138274E+02  0.00000000000E+00 0. -1.
</event>
<event>
 7    1  0.6830263E-012  0.5930195E+02  0.7816164E-02  0.1266605E+00
        -11   -1    0    0    0    0  0.00000000000E+00  0.00000000000E+00  0.45593999997E+02  0.45594000000E+02  0.51100000000E-03 0. -1.
         11   -1    0    0    0    0 -0.00000000000E+00 -0.00000000000E+00 -0.45593999997E+02  0.45594000000E+02  0.51100000000E-03 0.  1.
    9900012    2    1    2    0    0 -0.14809887564E+02  0.18902341222E+02  0.20978293961E+02  0.59301951471E+02  0.50000013574E+02 0.  0.
        -12    1    1    2    0    0  0.14809887564E+02 -0.18902341222E+02 -0.20978293961E+02  0.31886048529E+02  0.00000000000E+00 0.  1.
         11    1    3    3    0    0 -0.19639578262E+02  0.10150253460E+02  0.27437738022E+02  0.35235921268E+02  0.51100000000E-03 0. -1.
        -11    1    3    3    0    0 -0.78490691570E+01  0.32551885946E+00 -0.11307860689E+01  0.79367831363E+01  0.51100000000E-03 0.  1.
        -12    1    3    3    0    0  0.12678759855E+02  0.84265689027E+01 -0.53286579923E+01  0.16129247066E+02  0.00000000000E+00 0.  1.
</event>
<event>
 7    1  0.6830263E-012  0.5930191E+02  0.7816164E-02  0.1266605E+00
        -11   -1    0    0    0    0  0.00000000000E+00  0.00000000000E+00  0.45593999997E+02  0.45594000000E+02  0.51100000000E-03 0. -1.
         11   -1    0    0    0    0 -0.00000000000E+00 -0.00000000000E+00 -0.45593999997E+02  0.45594000000E+02  0.51100000000E-03 0.  1.
    9900012    2    1    2    0    0 -0.22432198536E+02  0.19709026318E+02  0.11183627388E+02  0.59301909441E+02  0.49999936923E+02 0.  0.
        -12    1    1    2    0    0  0.22432198536E+02 -0.19709026318E+02 -0.11183627388E+02  0.31886090559E+02  0.00000000000E+00 0.  1.
         11    1    3    3    0    0  0.98971147377E+00 -0.33723966577E+01  0.44029118408E+01  0.56336685167E+01  0.51100000000E-03 0. -1.
        -11    1    3    3    0    0 -0.11368866119E+02 -0.79836554204E+01 -0.92513655802E+01  0.16690645166E+02  0.51100000000E-03 0.  1.
         12    1    3    3    0    0 -0.12053043891E+02  0.31065078396E+02  0.16032081127E+02  0.36977595758E+02  0.00000000000E+00 0. -1.
</event>
<event>
 7    1  0.6830263E-012  0.5930194E+02  0.7816164E-02  0.1266605E+00
        -11   -1    0    0    0    0  0.00000000000E+00  0.00000000000E+00  0.45593999997E+02  0.45594000000E+02  0.51100000000E-03 0. -1.
         11   -1    0    0    0    0 -0.00000000000E+00 -0.00000000000E+00 -0.45593999997E+02  0.45594000000E+02  0.51100000000E-03 0.  1.
    9900012    2    1    2    0    0 -0.90340634092E+00  0.20876889656E+02  0.24084431647E+02  0.59301944858E+02  0.50000001515E+02 0.  0.
        -12    1    1    2    0    0  0.90340634092E+00 -0.20876889656E+02 -0.24084431647E+02  0.31886055142E+02  0.00000000000E+00 0.  1.
         11    1    3    3    0    0 -0.27148302376E+01  0.62703659910E+01  0.27253671222E+02  0.28097159789E+02  0.51100000000E-03 0. -1.
        -11    1    3    3    0    0  0.10828773011E+02  0.58599297272E+01  0.77596243871E+01  0.14553792365E+02  0.51100000000E-03 0.  1.
        -12    1    3    3    0    0 -0.90173491138E+01  0.87465939378E+01 -0.10928863961E+02  0.16650992704E+02  0.00000000000E+00 0.  1.
</event>
<event>
 7    1  0.6830263E-012  0.5930194E+02  0.7816164E-02  0.1266605E+00
        -11   -1    0    0    0    0  0.00000000000E+00  0.00000000000E+00  0.45593999997E+02  0.45594000000E+02  0.51100000000E-03 0. -1.
         11   -1    0    0    0    0 -0.00000000000E+00 -0.00000000000E+00 -0.45593999997E+02  0.45594000000E+02  0.51100000000E-03 0.  1.
    9900012    2    1    2    0    0 -0.10026797754E+02  0.11138769157E+02  0.28144488769E+02  0.59301935652E+02  0.49999984725E+02 0.  0.
        -12    1    1    2    0    0  0.10026797754E+02 -0.11138769157E+02 -0.28144488769E+02  0.31886064348E+02  0.00000000000E+00 0.  1.
         11    1    3    3    0    0  0.91046711073E+01  0.13065442601E+02 -0.48511581997E+01  0.16647359024E+02  0.51100000000E-03 0.  1.
        -11    1    3    3    0    0 -0.14912018159E+01  0.50372396736E+01  0.17164185780E+02  0.17950118110E+02  0.51100000000E-03 0. -1.
        -12    1    3    3    0    0 -0.17640267045E+02 -0.69639131176E+01  0.15831461188E+02  0.24704458518E+02  0.00000000000E+00 0.  1.
</event>
<event>
 7    1  0.6830263E-012  0.5930197E+02  0.7816164E-02  0.1266605E+00
        -11   -1    0    0    0    0  0.00000000000E+00  0.00000000000E+00  0.45593999997E+02  0.45594000000E+02  0.51100000000E-03 0. -1.
         11   -1    0    0    0    0 -0.00000000000E+00 -0.00000000000E+00 -0.45593999997E+02  0.45594000000E+02  0.51100000000E-03 0.  1.
    9900012    2    1    2    0    0  0.23630222186E+02  0.16486325869E+02  0.13657702664E+02  0.59301965702E+02  0.50000039529E+02 0.  0.
        -12    1    1    2    0    0 -0.23630222186E+02 -0.16486325869E+02 -0.13657702664E+02  0.31886034298E+02  0.00000000000E+00 0.  1.
         11    1    3    3    0    0  0.15504323709E+02  0.90011678893E+00  0.24107307952E+02  0.28676759943E+02  0.51100000000E-03 0. -1.
        -11    1    3    3    0    0 -0.40884052841E+01 -0.33330191907E+01  0.98963949991E+00  0.53668856233E+01  0.51100000000E-03 0.  1.
        -12    1    3    3    0    0  0.12214303761E+02  0.18919228271E+02 -0.11439244788E+02  0.25258320135E+02  0.00000000000E+00 0.  1.
</event>
<event>
 7    1  0.6830263E-012  0.5930195E+02  0.7816164E-02  0.1266605E+00
        -11   -1    0    0    0    0  0.00000000000E+00  0.00000000000E+00  0.45593999997E+02  0.45594000000E+02  0.51100000000E-03 0.  1.
         11   -1    0    0    0    0 -0.00000000000E+00 -0.00000000000E+00 -0.45593999997E+02  0.45594000000E+02  0.51100000000E-03 0. -1.
    9900012    2    1    2    0    0  0.15796420112E+02 -0.69431755697E+01 -0.26813901137E+02  0.59301954941E+02  0.50000019903E+02 0.  0.
        -12    1    1    2    0    0 -0.15796420112E+02  0.69431755697E+01  0.26813901137E+02  0.31886045059E+02  0.00000000000E+00 0.  1.
         11    1    3    3    0    0  0.24021472116E+01  0.19019595893E+02 -0.70092589619E+01  0.20411885033E+02  0.51100000000E-03 0. -1.
        -11    1    3    3    0    0 -0.36967436112E+01 -0.32453847257E+01 -0.17922170508E+01  0.52355016534E+01  0.51100000000E-03 0.  1.
         12    1    3    3    0    0  0.17091016512E+02 -0.22717386737E+02 -0.18012425124E+02  0.33654568254E+02  0.00000000000E+00 0. -1.
</event>
<event>
 7    1  0.6830263E-012  0.5930194E+02  0.7816164E-02  0.1266605E+00
        -11   -1    0    0    0    0  0.00000000000E+00  0.00000000000E+00  0.45593999997E+02  0.45594000000E+02  0.51100000000E-03 0.  1.
         11   -1    0    0    0    0 -0.00000000000E+00 -0.00000000000E+00 -0.45593999997E+02  0.45594000000E+02  0.51100000000E-03 0. -1.
    9900012    2    1    2    0    0 -0.18607927127E+02  0.21292400551E+02 -0.14734288074E+02  0.59301944768E+02  0.50000001351E+02 0.  0.
        -12    1    1    2    0    0  0.18607927127E+02 -0.21292400551E+02  0.14734288074E+02  0.31886055232E+02  0.00000000000E+00 0.  1.
         11    1    3    3    0    0  0.13200113240E+02  0.34457809420E+01  0.24402734149E+01  0.13858980138E+02  0.51100000000E-03 0. -1.
        -11    1    3    3    0    0 -0.40389892568E+01 -0.47229634823E+01 -0.16050679340E+01  0.64184158174E+01  0.51100000000E-03 0.  1.
         12    1    3    3    0    0 -0.27769051111E+02  0.22569583091E+02 -0.15569493555E+02  0.39024548813E+02  0.00000000000E+00 0. -1.
</event>
<event>
 7    1  0.6830263E-012  0.5930215E+02  0.7816164E-02  0.1266604E+00
        -11   -1    0    0    0    0  0.00000000000E+00  0.00000000000E+00  0.45593999997E+02  0.45594000000E+02  0.51100000000E-03 0.  1.
         11   -1    0    0    0    0 -0.00000000000E+00 -0.00000000000E+00 -0.45593999997E+02  0.45594000000E+02  0.51100000000E-03 0. -1.
    9900012    2    1    2    0    0  0.11958854967E+02 -0.25108620049E+01 -0.29451465378E+02  0.59302149642E+02  0.50000374990E+02 0.  0.
        -12    1    1    2    0    0 -0.11958854967E+02  0.25108620049E+01  0.29451465378E+02  0.31885850358E+02  0.00000000000E+00 0.  1.
         11    1    3    3    0    0  0.60903676350E+01 -0.77281658711E+00  0.81407805437E+00  0.61929433024E+01  0.51100000000E-03 0. -1.
        -11    1    3    3    0    0  0.32379374594E+01  0.41020818603E+01  0.10560983552E+02  0.11783280037E+02  0.51100000000E-03 0.  1.
         12    1    3    3    0    0  0.26305498728E+01 -0.58401272780E+01 -0.40826526984E+02  0.41325926303E+02  0.00000000000E+00 0. -1.
</event>
<event>
 7    1  0.6830263E-012  0.5930194E+02  0.7816164E-02  0.1266605E+00
        -11   -1    0    0    0    0  0.00000000000E+00  0.00000000000E+00  0.45593999997E+02  0.45594000000E+02  0.51100000000E-03 0.  1.
         11   -1    0    0    0    0 -0.00000000000E+00 -0.00000000000E+00 -0.45593999997E+02  0.45594000000E+02  0.51100000000E-03 0. -1.
    9900012    2    1    2    0    0 -0.22509732348E+02  0.82717476731E+01 -0.21014544350E+02  0.59301938246E+02  0.49999989456E+02 0.  0.
        -12    1    1    2    0    0  0.22509732348E+02 -0.82717476731E+01  0.21014544350E+02  0.31886061754E+02  0.00000000000E+00 0.  1.
         11    1    3    3    0    0 -0.43807762173E+01  0.14926563591E+02 -0.30491448981E+02  0.34230424510E+02  0.51100000000E-03 0. -1.
        -11    1    3    3    0    0  0.11155339079E+00 -0.34889863297E+01 -0.12107555995E+01  0.36947799868E+01  0.51100000000E-03 0.  1.
        -12    1    3    3    0    0 -0.18240509521E+02 -0.31658295884E+01  0.10687660230E+02  0.21376733749E+02  0.00000000000E+00 0.  1.
</event>
<event>
 7    1  0.6830263E-012  0.5930193E+02  0.7816164E-02  0.1266605E+00
        -11   -1    0    0    0    0  0.00000000000E+00  0.00000000000E+00  0.45593999997E+02  0.45594000000E+02  0.51100000000E-03 0. -1.
         11   -1    0    0    0    0 -0.00000000000E+00 -0.00000000000E+00 -0.45593999997E+02  0.45594000000E+02  0.51100000000E-03 0.  1.
    9900012    2    1    2    0    0 -0.26828804563E+02  0.12143758651E+02  0.12225626039E+02  0.59301928425E+02  0.49999971544E+02 0.  0.
        -12    1    1    2    0    0  0.26828804563E+02 -0.12143758651E+02 -0.12225626039E+02  0.31886071575E+02  0.00000000000E+00 0.  1.
         11    1    3    3    0    0 -0.11773876350E+02  0.71998582048E+01  0.11624813907E+02  0.18044345960E+02  0.51100000000E-03 0. -1.
        -11    1    3    3    0    0 -0.59460481663E+01  0.21517222602E+02  0.93223524683E+00  0.22343129148E+02  0.51100000000E-03 0.  1.
         12    1    3    3    0    0 -0.91088800470E+01 -0.16573322156E+02 -0.33142311528E+00  0.18914453317E+02  0.00000000000E+00 0. -1.
</event>
<event>
 7    1  0.6830263E-012  0.5930177E+02  0.7816164E-02  0.1266605E+00
        -11   -1    0    0    0    0  0.00000000000E+00  0.00000000000E+00  0.45593999997E+02  0.45594000000E+02  0.51100000000E-03 0.  1.
         11   -1    0    0    0    0 -0.00000000000E+00 -0.00000000000E+00 -0.45593999997E+02  0.45594000000E+02  0.51100000000E-03 0. -1.
    9900012    2    1    2    0    0  0.18495917871E+02 -0.12230058845E+02 -0.22914156225E+02  0.59301766721E+02  0.49999676634E+02 0.  0.
        -12    1    1    2    0    0 -0.18495917871E+02  0.12230058845E+02  0.22914156225E+02  0.31886233279E+02  0.00000000000E+00 0.  1.
         11    1    3    3    0    0  0.56036098364E+01 -0.26559338306E+01 -0.83691736983E+01  0.10416213149E+02  0.51100000000E-03 0. -1.
        -11    1    3    3    0    0 -0.22278458645E+01  0.16173902351E+02 -0.18197714978E+01  0.16427719958E+02  0.51100000000E-03 0.  1.
         12    1    3    3    0    0  0.15120153899E+02 -0.25748027366E+02 -0.12725211029E+02  0.32457833613E+02  0.00000000000E+00 0. -1.
</event>
<event>
 7    1  0.6830263E-012  0.5930193E+02  0.7816164E-02  0.1266605E+00
        -11   -1    0    0    0    0  0.00000000000E+00  0.00000000000E+00  0.45593999997E+02  0.45594000000E+02  0.51100000000E-03 0.  1.
         11   -1    0    0    0    0 -0.00000000000E+00 -0.00000000000E+00 -0.45593999997E+02  0.45594000000E+02  0.51100000000E-03 0. -1.
    9900012    2    1    2    0    0 -0.21447599736E+02  0.10097960460E+02 -0.21324938556E+02  0.59301931815E+02  0.49999977728E+02 0.  0.
        -12    1    1    2    0    0  0.21447599736E+02 -0.10097960460E+02  0.21324938556E+02  0.31886068185E+02  0.00000000000E+00 0.  1.
         11    1    3    3    0    0 -0.12041353689E+02  0.90159874897E+01 -0.27941263090E+01  0.15299979450E+02  0.51100000000E-03 0. -1.
        -11    1    3    3    0    0 -0.15885722447E+02 -0.12408174929E+02  0.32480680535E-01  0.20157381724E+02  0.51100000000E-03 0.  1.
        -12    1    3    3    0    0  0.64794764003E+01  0.13490147899E+02 -0.18563292927E+02  0.23844570641E+02  0.00000000000E+00 0.  1.
</event>
<event>
 7    1  0.6830263E-012  0.5930198E+02  0.7816164E-02  0.1266605E+00
        -11   -1    0    0    0    0  0.00000000000E+00  0.00000000000E+00  0.45593999997E+02  0.45594000000E+02  0.51100000000E-03 0.  1.
         11   -1    0    0    0    0 -0.00000000000E+00 -0.00000000000E+00 -0.45593999997E+02  0.45594000000E+02  0.51100000000E-03 0. -1.
    9900012    2    1    2    0    0 -0.19900284928E+02  0.40467121430E+01 -0.24582942444E+02  0.59301979889E+02  0.50000065401E+02 0.  0.
        -12    1    1    2    0    0  0.19900284928E+02 -0.40467121430E+01  0.24582942444E+02  0.31886020111E+02  0.00000000000E+00 0.  1.
         11    1    3    3    0    0  0.13494038142E+02 -0.11516264092E+01 -0.26065775097E+01  0.13791648029E+02  0.51100000000E-03 0. -1.
        -11    1    3    3    0    0  0.19272236193E+01  0.32760478221E-01  0.17857272599E+01  0.26275627939E+01  0.51100000000E-03 0.  1.
         12    1    3    3    0    0 -0.35321546689E+02  0.51655780739E+01 -0.23762092194E+02  0.42882769066E+02  0.00000000000E+00 0. -1.
</event>
<event>
 7    1  0.6830263E-012  0.5930235E+02  0.7816164E-02  0.1266603E+00
        -11   -1    0    0    0    0  0.00000000000E+00  0.00000000000E+00  0.45593999997E+02  0.45594000000E+02  0.51100000000E-03 0. -1.
         11   -1    0    0    0    0 -0.00000000000E+00 -0.00000000000E+00 -0.45593999997E+02  0.45594000000E+02  0.51100000000E-03 0.  1.
    9900012    2    1    2    0    0 -0.27048791799E+01 -0.70382092604E+01  0.30981318146E+02  0.59302347505E+02  0.50000735840E+02 0.  0.
        -12    1    1    2    0    0  0.27048791799E+01  0.70382092604E+01 -0.30981318146E+02  0.31885652495E+02  0.00000000000E+00 0.  1.
         11    1    3    3    0    0 -0.73650187855E+01 -0.11210924109E+01  0.82059477432E+01  0.11083227352E+02  0.51100000000E-03 0. -1.
        -11    1    3    3    0    0 -0.47438564914E+01 -0.21855221320E+02  0.57930843397E+01  0.23102266118E+02  0.51100000000E-03 0.  1.
         12    1    3    3    0    0  0.94039960970E+01  0.15938104470E+02  0.16982286063E+02  0.25116854035E+02  0.00000000000E+00 0. -1.
</event>
<event>
 7    1  0.6830263E-012  0.5930182E+02  0.7816164E-02  0.1266605E+00
        -11   -1    0    0    0    0  0.00000000000E+00  0.00000000000E+00  0.45593999997E+02  0.45594000000E+02  0.51100000000E-03 0.  1.
         11   -1    0    0    0    0 -0.00000000000E+00 -0.00000000000E+00 -0.45593999997E+02  0.45594000000E+02  0.51100000000E-03 0. -1.
    9900012    2    1    2    0    0 -0.59237701326E+01  0.21808230085E+02 -0.22495303599E+02  0.59301817475E+02  0.49999769198E+02 0.  0.
        -12    1    1    2    0    0  0.59237701326E+01 -0.21808230085E+02  0.22495303599E+02  0.31886182525E+02  0.00000000000E+00 0.  1.
         11    1    3    3    0    0 -0.19800291343E+02  0.27047490591E+02 -0.12714333647E+02  0.35850698248E+02  0.51100000000E-03 0. -1.
        -11    1    3    3    0    0  0.39152747017E+01 -0.50500232308E+01 -0.11675310428E+02  0.13309582431E+02  0.51100000000E-03 0.  1.
        -12    1    3    3    0    0  0.99612465086E+01 -0.18923727487E+00  0.18943404769E+01  0.10141536796E+02  0.00000000000E+00 0.  1.
</event>
<event>
 7    1  0.6830263E-012  0.5930203E+02  0.7816164E-02  0.1266604E+00
        -11   -1    0    0    0    0  0.00000000000E+00  0.00000000000E+00  0.45593999997E+02  0.45594000000E+02  0.51100000000E-03 0. -1.
         11   -1    0    0    0    0 -0.00000000000E+00 -0.00000000000E+00 -0.45593999997E+02  0.45594000000E+02  0.51100000000E-03 0.  1.
    9900012    2    1    2    0    0 -0.12180914310E+02 -0.25358163690E+02  0.15010136261E+02  0.59302026129E+02  0.50000149732E+02 0.  0.
        -12    1    1    2    0    0  0.12180914310E+02  0.25358163690E+02 -0.15010136261E+02  0.31885973871E+02  0.00000000000E+00 0.  1.
         11    1    3    3    0    0  0.31874974275E+01 -0.14962915136E+02  0.29487806075E-01  0.15298687493E+02  0.51100000000E-03 0. -1.
        -11    1    3    3    0    0 -0.21883793186E+01 -0.17257513494E+02  0.21601917073E+02  0.27735421351E+02  0.51100000000E-03 0.  1.
        -12    1    3    3    0    0 -0.13180032418E+02  0.68622649396E+01 -0.66212686184E+01  0.16267917284E+02  0.00000000000E+00 0.  1.
</event>
<event>
 7    1  0.6830263E-012  0.5930194E+02  0.7816164E-02  0.1266605E+00
        -11   -1    0    0    0    0  0.00000000000E+00  0.00000000000E+00  0.45593999997E+02  0.45594000000E+02  0.51100000000E-03 0.  1.
         11   -1    0    0    0    0 -0.00000000000E+00 -0.00000000000E+00 -0.45593999997E+02  0.45594000000E+02  0.51100000000E-03 0. -1.
    9900012    2    1    2    0    0  0.14927261132E+02  0.12819084574E+02 -0.25091209005E+02  0.59301939981E+02  0.49999992619E+02 0.  0.
        -12    1    1    2    0    0 -0.14927261132E+02 -0.12819084574E+02  0.25091209005E+02  0.31886060019E+02  0.00000000000E+00 0.  1.
         11    1    3    3    0    0  0.16717977017E+02  0.21507388720E+02 -0.24847381097E+02  0.36870731926E+02  0.51100000000E-03 0. -1.
        -11    1    3    3    0    0  0.93672430899E+01 -0.27951298394E+01 -0.73555489165E+00  0.98030115365E+01  0.51100000000E-03 0.  1.
        -12    1    3    3    0    0 -0.11157958975E+02 -0.58931743061E+01  0.49172698359E+00  0.12628196519E+02  0.00000000000E+00 0.  1.
</event>
<event>
 7    1  0.6830263E-012  0.5930190E+02  0.7816164E-02  0.1266605E+00
        -11   -1    0    0    0    0  0.00000000000E+00  0.00000000000E+00  0.45593999997E+02  0.45594000000E+02  0.51100000000E-03 0.  1.
         11   -1    0    0    0    0 -0.00000000000E+00 -0.00000000000E+00 -0.45593999997E+02  0.45594000000E+02  0.51100000000E-03 0. -1.
    9900012    2    1    2    0    0 -0.45509622339E+01  0.21613021450E+02 -0.22997600195E+02  0.59301896943E+02  0.49999914128E+02 0.  0.
        -12    1    1    2    0    0  0.45509622339E+01 -0.21613021450E+02  0.22997600195E+02  0.31886103057E+02  0.00000000000E+00 0.  1.
         11    1    3    3    0    0  0.25228066460E+01  0.79793469897E+01 -0.35404797919E+01  0.90867777112E+01  0.51100000000E-03 0. -1.
        -11    1    3    3    0    0 -0.20959754071E+02  0.21364603364E+02 -0.16049418395E+02  0.33960880417E+02  0.51100000000E-03 0.  1.
         12    1    3    3    0    0  0.13885985191E+02 -0.77309289043E+01 -0.34077020085E+01  0.16254238814E+02  0.00000000000E+00 0. -1.
</event>
<event>
 7    1  0.6830263E-012  0.5930189E+02  0.7816164E-02  0.1266605E+00
        -11   -1    0    0    0    0  0.00000000000E+00  0.00000000000E+00  0.45593999997E+02  0.45594000000E+02  0.51100000000E-03 0.  1.
         11   -1    0    0    0    0 -0.00000000000E+00 -0.00000000000E+00 -0.45593999997E+02  0.45594000000E+02  0.51100000000E-03 0. -1.
    9900012    2    1    2    0    0  0.20938707457E+02 -0.70389636457E+01 -0.22994506830E+02  0.59301892938E+02  0.49999906825E+02 0.  0.
        -12    1    1    2    0    0 -0.20938707457E+02  0.70389636457E+01  0.22994506830E+02  0.31886107062E+02  0.00000000000E+00 0.  1.
         11    1    3    3    0    0 -0.72321061069E+01  0.16469220618E+01 -0.99685845799E+01  0.12425312463E+02  0.51100000000E-03 0.  1.
        -11    1    3    3    0    0  0.73524756708E+01 -0.50646905811E+01 -0.22133620001E+02  0.23866443468E+02  0.51100000000E-03 0. -1.
        -12    1    3    3    0    0  0.20818337893E+02 -0.36211951264E+01  0.91076977508E+01  0.23010137007E+02  0.00000000000E+00 0.  1.
</event>
<event>
 7    1  0.6830263E-012  0.5930197E+02  0.7816164E-02  0.1266605E+00
        -11   -1    0    0    0    0  0.00000000000E+00  0.00000000000E+00  0.45593999997E+02  0.45594000000E+02  0.51100000000E-03 0.  1.
         11   -1    0    0    0    0 -0.00000000000E+00 -0.00000000000E+00 -0.45593999997E+02  0.45594000000E+02  0.51100000000E-03 0. -1.
    9900012    2    1    2    0    0 -0.15348242941E+02  0.19733357491E+02 -0.19792553870E+02  0.59301966256E+02  0.50000040538E+02 0.  0.
        -12    1    1    2    0    0  0.15348242941E+02 -0.19733357491E+02  0.19792553870E+02  0.31886033744E+02  0.00000000000E+00 0.  1.
         11    1    3    3    0    0 -0.13954054741E+01 -0.61060740409E+01  0.52882039899E+01  0.81973409304E+01  0.51100000000E-03 0. -1.
        -11    1    3    3    0    0 -0.20735175803E+01 -0.50804516111E+01 -0.15770196712E+02  0.16697591692E+02  0.51100000000E-03 0.  1.
         12    1    3    3    0    0 -0.11879319887E+02  0.30919883143E+02 -0.93105611486E+01  0.34407033633E+02  0.00000000000E+00 0. -1.
</event>
<event>
 7    1  0.6830263E-012  0.5930195E+02  0.7816164E-02  0.1266605E+00
        -11   -1    0    0    0    0  0.00000000000E+00  0.00000000000E+00  0.45593999997E+02  0.45594000000E+02  0.51100000000E-03 0.  1.
         11   -1    0    0    0    0 -0.00000000000E+00 -0.00000000000E+00 -0.45593999997E+02  0.45594000000E+02  0.51100000000E-03 0. -1.
    9900012    2    1    2    0    0  0.20259425857E+02  0.16881053757E+02  0.17925003850E+02  0.59301951718E+02  0.50000014025E+02 0.  0.
        -12    1    1    2    0    0 -0.20259425857E+02 -0.16881053757E+02 -0.17925003850E+02  0.31886048282E+02  0.00000000000E+00 0.  1.
         11    1    3    3    0    0  0.10923323963E+01  0.28807482668E+01 -0.89864706893E+01  0.94999240182E+01  0.51100000000E-03 0. -1.
        -11    1    3    3    0    0  0.62572626951E+01 -0.42986019457E+01 -0.62184022428E+01  0.98132482816E+01  0.51100000000E-03 0.  1.
         12    1    3    3    0    0  0.12909830766E+02  0.18298907435E+02  0.33129876783E+02  0.39988779418E+02  0.00000000000E+00 0. -1.
</event>
<event>
 7    1  0.6830263E-012  0.5930192E+02  0.7816164E-02  0.1266605E+00
        -11   -1    0    0    0    0  0.00000000000E+00  0.00000000000E+00  0.45593999997E+02  0.45594000000E+02  0.51100000000E-03 0.  1.
         11   -1    0    0    0    0 -0.00000000000E+00 -0.00000000000E+00 -0.45593999997E+02  0.45594000000E+02  0.51100000000E-03 0. -1.
    9900012    2    1    2    0    0  0.12281282887E+02 -0.26242395835E+02 -0.13312721613E+02  0.59301924587E+02  0.49999964545E+02 0.  0.
        -12    1    1    2    0    0 -0.12281282887E+02  0.26242395835E+02  0.13312721613E+02  0.31886075413E+02  0.00000000000E+00 0.  1.
         11    1    3    3    0    0  0.11588743175E+02 -0.12120667114E+02  0.70700418117E+01  0.18198764550E+02  0.51100000000E-03 0. -1.
        -11    1    3    3    0    0 -0.36058935545E+01  0.81935956298E+01  0.20360150896E+01  0.91805683580E+01  0.51100000000E-03 0.  1.
         12    1    3    3    0    0  0.42984332664E+01 -0.22315324351E+02 -0.22418778515E+02  0.31922591679E+02  0.00000000000E+00 0. -1.
</event>
<event>
 7    1  0.6830263E-012  0.5930200E+02  0.7816164E-02  0.1266605E+00
        -11   -1    0    0    0    0  0.00000000000E+00  0.00000000000E+00  0.45593999997E+02  0.45594000000E+02  0.51100000000E-03 0.  1.
         11   -1    0    0    0    0 -0.00000000000E+00 -0.00000000000E+00 -0.45593999997E+02  0.45594000000E+02  0.51100000000E-03 0. -1.
    9900012    2    1    2    0    0 -0.25796573434E+02  0.15939984706E+02 -0.98575338059E+01  0.59301995451E+02  0.50000093785E+02 0.  0.
        -12    1    1    2    0    0  0.25796573434E+02 -0.15939984706E+02  0.98575338059E+01  0.31886004549E+02  0.00000000000E+00 0.  1.
         11    1    3    3    0    0 -0.67455078466E+01 -0.41984544758E+01 -0.60301505601E+00  0.79682195950E+01  0.51100000000E-03 0.  1.
        -11    1    3    3    0    0 -0.31664422239E+02  0.12494675703E+02 -0.22628202349E+00  0.34041206801E+02  0.51100000000E-03 0. -1.
         12    1    3    3    0    0  0.12613356652E+02  0.76437634781E+01 -0.90282367264E+01  0.17292569055E+02  0.00000000000E+00 0. -1.
</event>
<event>
 7    1  0.6830263E-012  0.5930195E+02  0.7816164E-02  0.1266605E+00
        -11   -1    0    0    0    0  0.00000000000E+00  0.00000000000E+00  0.45593999997E+02  0.45594000000E+02  0.51100000000E-03 0.  1.
         11   -1    0    0    0    0 -0.00000000000E+00 -0.00000000000E+00 -0.45593999997E+02  0.45594000000E+02  0.51100000000E-03 0. -1.
    9900012    2    1    2    0    0  0.14882491006E+02 -0.25681504442E+02 -0.11648696651E+02  0.59301947523E+02  0.50000006374E+02 0.  0.
        -12    1    1    2    0    0 -0.14882491006E+02  0.25681504442E+02  0.11648696651E+02  0.31886052477E+02  0.00000000000E+00 0.  1.
         11    1    3    3    0    0  0.15411360719E+02 -0.30067967505E+02 -0.97738862032E+01  0.35172738888E+02  0.51100000000E-03 0. -1.
        -11    1    3    3    0    0  0.78241838110E+01  0.50131179478E+01 -0.91450296511E+01  0.13037667408E+02  0.51100000000E-03 0.  1.
         12    1    3    3    0    0 -0.83530535237E+01 -0.62665488392E+00  0.72702192034E+01  0.11091541227E+02  0.00000000000E+00 0. -1.
</event>
<event>
 7    1  0.6830263E-012  0.5930193E+02  0.7816164E-02  0.1266605E+00
        -11   -1    0    0    0    0  0.00000000000E+00  0.00000000000E+00  0.45593999997E+02  0.45594000000E+02  0.51100000000E-03 0.  1.
         11   -1    0    0    0    0 -0.00000000000E+00 -0.00000000000E+00 -0.45593999997E+02  0.45594000000E+02  0.51100000000E-03 0. -1.
    9900012    2    1    2    0    0 -0.14010954924E+02  0.19639264375E+01 -0.28575468898E+02  0.59301932703E+02  0.49999979346E+02 0.  0.
        -12    1    1    2    0    0  0.14010954924E+02 -0.19639264375E+01  0.28575468898E+02  0.31886067297E+02  0.00000000000E+00 0.  1.
         11    1    3    3    0    0 -0.15509676500E+01 -0.32258560100E-01 -0.10202469647E+02  0.10319734901E+02  0.51100000000E-03 0. -1.
        -11    1    3    3    0    0  0.16192769505E+02 -0.24184845360E+01 -0.56172553260E+01  0.17309200136E+02  0.51100000000E-03 0.  1.
         12    1    3    3    0    0 -0.28652756779E+02  0.44146695336E+01 -0.12755743925E+02  0.31672997667E+02  0.00000000000E+00 0. -1.
</event>
<event>
 7    1  0.6830263E-012  0.5930194E+02  0.7816164E-02  0.1266605E+00
        -11   -1    0    0    0    0  0.00000000000E+00  0.00000000000E+00  0.45593999997E+02  0.45594000000E+02  0.51100000000E-03 0. -1.
         11   -1    0    0    0    0 -0.00000000000E+00 -0.00000000000E+00 -0.45593999997E+02  0.45594000000E+02  0.51100000000E-03 0.  1.
    9900012    2    1    2    0    0  0.24287643454E+02 -0.14452034698E+02  0.14763802336E+02  0.59301940493E+02  0.49999993554E+02 0.  0.
        -12    1    1    2    0    0 -0.24287643454E+02  0.14452034698E+02 -0.14763802336E+02  0.31886059507E+02  0.00000000000E+00 0.  1.
         11    1    3    3    0    0  0.22417920104E+01  0.43315781633E+01  0.94631722946E+01  0.10646118116E+02  0.51100000000E-03 0. -1.
        -11    1    3    3    0    0  0.13246951889E+02  0.33496833926E+01 -0.12813628132E+02  0.18732089562E+02  0.51100000000E-03 0.  1.
         12    1    3    3    0    0  0.87988995541E+01 -0.22133296253E+02  0.18114258174E+02  0.29923732815E+02  0.00000000000E+00 0. -1.
</event>
<event>
 7    1  0.6830263E-012  0.5930197E+02  0.7816164E-02  0.1266605E+00
        -11   -1    0    0    0    0  0.00000000000E+00  0.00000000000E+00  0.45593999997E+02  0.45594000000E+02  0.51100000000E-03 0.  1.
         11   -1    0    0    0    0 -0.00000000000E+00 -0.00000000000E+00 -0.45593999997E+02  0.45594000000E+02  0.51100000000E-03 0. -1.
    9900012    2    1    2    0    0  0.21771193710E+02  0.23020870895E+02  0.35739665353E+01  0.59301974705E+02  0.50000055947E+02 0.  0.
        -12    1    1    2    0    0 -0.21771193710E+02 -0.23020870895E+02 -0.35739665353E+01  0.31886025295E+02  0.00000000000E+00 0.  1.
         11    1    3    3    0    0 -0.10978422385E+02  0.37388466584E+01 -0.83669522340E+01  0.14300721043E+02  0.51100000000E-03 0. -1.
        -11    1    3    3    0    0  0.22926566708E+01 -0.17728536836E+01  0.70890509379E+01  0.76585852646E+01  0.51100000000E-03 0.  1.
         12    1    3    3    0    0  0.30456959424E+02  0.21054877921E+02  0.48518678314E+01  0.37342668397E+02  0.00000000000E+00 0. -1.
</event>
<event>
 7    1  0.6830263E-012  0.5930195E+02  0.7816164E-02  0.1266605E+00
        -11   -1    0    0    0    0  0.00000000000E+00  0.00000000000E+00  0.45593999997E+02  0.45594000000E+02  0.51100000000E-03 0.  1.
         11   -1    0    0    0    0 -0.00000000000E+00 -0.00000000000E+00 -0.45593999997E+02  0.45594000000E+02  0.51100000000E-03 0. -1.
    9900012    2    1    2    0    0  0.25733178668E+02  0.18129536374E+02 -0.50836521944E+01  0.59301951435E+02  0.50000013509E+02 0.  0.
        -12    1    1    2    0    0 -0.25733178668E+02 -0.18129536374E+02  0.50836521944E+01  0.31886048565E+02  0.00000000000E+00 0.  1.
         11    1    3    3    0    0  0.22001387200E+02  0.12636320080E+02  0.24475773488E+01  0.25489767732E+02  0.51100000000E-03 0. -1.
        -11    1    3    3    0    0  0.13886577786E+01  0.17539239784E+01  0.12806909602E+02  0.13000828956E+02  0.51100000000E-03 0.  1.
         12    1    3    3    0    0  0.23431336888E+01  0.37392923150E+01 -0.20338139145E+02  0.20811354746E+02  0.00000000000E+00 0. -1.
</event>
<event>
 7    1  0.6830263E-012  0.5930198E+02  0.7816164E-02  0.1266605E+00
        -11   -1    0    0    0    0  0.00000000000E+00  0.00000000000E+00  0.45593999997E+02  0.45594000000E+02  0.51100000000E-03 0.  1.
         11   -1    0    0    0    0 -0.00000000000E+00 -0.00000000000E+00 -0.45593999997E+02  0.45594000000E+02  0.51100000000E-03 0. -1.
    9900012    2    1    2    0    0 -0.13603148401E+01 -0.18286200484E+01 -0.31804466617E+02  0.59301977912E+02  0.50000061798E+02 0.  0.
        -12    1    1    2    0    0  0.13603148401E+01  0.18286200484E+01  0.31804466617E+02  0.31886022088E+02  0.00000000000E+00 0.  1.
         11    1    3    3    0    0  0.69828398099E+01  0.25362256276E+01 -0.17695207574E+02  0.19191478932E+02  0.51100000000E-03 0. -1.
        -11    1    3    3    0    0  0.69346947854E+01  0.12704617564E+02 -0.36470128571E+01  0.14926419606E+02  0.51100000000E-03 0.  1.
         12    1    3    3    0    0 -0.15277849435E+02 -0.17069463240E+02 -0.10462246186E+02  0.25184079375E+02  0.00000000000E+00 0. -1.
</event>
<event>
 7    1  0.6830263E-012  0.5930197E+02  0.7816164E-02  0.1266605E+00
        -11   -1    0    0    0    0  0.00000000000E+00  0.00000000000E+00  0.45593999997E+02  0.45594000000E+02  0.51100000000E-03 0.  1.
         11   -1    0    0    0    0 -0.00000000000E+00 -0.00000000000E+00 -0.45593999997E+02  0.45594000000E+02  0.51100000000E-03 0. -1.
    9900012    2    1    2    0    0 -0.39515179263E+01 -0.28929495288E+02 -0.12813616947E+02  0.59301969033E+02  0.50000045604E+02 0.  0.
        -12    1    1    2    0    0  0.39515179263E+01  0.28929495288E+02  0.12813616947E+02  0.31886030967E+02  0.00000000000E+00 0.  1.
         11    1    3    3    0    0 -0.15022141088E+02 -0.89206444368E+01 -0.22699690217E+02  0.28644695080E+02  0.51100000000E-03 0. -1.
        -11    1    3    3    0    0 -0.17385333557E+01  0.10948491889E+01  0.51169027675E+01  0.55139719956E+01  0.51100000000E-03 0.  1.
        -12    1    3    3    0    0  0.12809156517E+02 -0.21103700040E+02  0.47691705027E+01  0.25143301958E+02  0.00000000000E+00 0.  1.
</event>
<event>
 7    1  0.6830263E-012  0.5930195E+02  0.7816164E-02  0.1266605E+00
        -11   -1    0    0    0    0  0.00000000000E+00  0.00000000000E+00  0.45593999997E+02  0.45594000000E+02  0.51100000000E-03 0.  1.
         11   -1    0    0    0    0 -0.00000000000E+00 -0.00000000000E+00 -0.45593999997E+02  0.45594000000E+02  0.51100000000E-03 0. -1.
    9900012    2    1    2    0    0 -0.30647750634E+02 -0.66495831419E+01 -0.57635732538E+01  0.59301947382E+02  0.50000006118E+02 0.  0.
        -12    1    1    2    0    0  0.30647750634E+02  0.66495831419E+01  0.57635732538E+01  0.31886052618E+02  0.00000000000E+00 0.  1.
         11    1    3    3    0    0 -0.24849609130E+02 -0.17093656821E+02 -0.81596974916E+01  0.31245429119E+02  0.51100000000E-03 0. -1.
        -11    1    3    3    0    0  0.36592096762E+01 -0.18295178576E+01  0.99942957072E+01  0.10799208211E+02  0.51100000000E-03 0.  1.
         12    1    3    3    0    0 -0.94573511806E+01  0.12273591537E+02 -0.75981714694E+01  0.17257310052E+02  0.00000000000E+00 0. -1.
</event>
<event>
 7    1  0.6830263E-012  0.5930191E+02  0.7816164E-02  0.1266605E+00
        -11   -1    0    0    0    0  0.00000000000E+00  0.00000000000E+00  0.45593999997E+02  0.45594000000E+02  0.51100000000E-03 0. -1.
         11   -1    0    0    0    0 -0.00000000000E+00 -0.00000000000E+00 -0.45593999997E+02  0.45594000000E+02  0.51100000000E-03 0.  1.
    9900012    2    1    2    0    0  0.57028160981E+01  0.23363511454E+02  0.20936734957E+02  0.59301911347E+02  0.49999940398E+02 0.  0.
        -12    1    1    2    0    0 -0.57028160981E+01 -0.23363511454E+02 -0.20936734957E+02  0.31886088653E+02  0.00000000000E+00 0.  1.
         11    1    3    3    0    0 -0.10244520227E+01  0.15376399951E+02 -0.24103049640E+01  0.15597844328E+02  0.51100000000E-03 0.  1.
        -11    1    3    3    0    0  0.82346549699E+01  0.12020215416E+02  0.31375693542E+02  0.34593774969E+02  0.51100000000E-03 0. -1.
         12    1    3    3    0    0 -0.15073868492E+01 -0.40331039125E+01 -0.80286536208E+01  0.91102920504E+01  0.00000000000E+00 0. -1.
</event>
<event>
 7    1  0.6830263E-012  0.5930181E+02  0.7816164E-02  0.1266605E+00
        -11   -1    0    0    0    0  0.00000000000E+00  0.00000000000E+00  0.45593999997E+02  0.45594000000E+02  0.51100000000E-03 0.  1.
         11   -1    0    0    0    0 -0.00000000000E+00 -0.00000000000E+00 -0.45593999997E+02  0.45594000000E+02  0.51100000000E-03 0. -1.
    9900012    2    1    2    0    0 -0.16312869486E+02  0.48906092061E+01 -0.26957393886E+02  0.59301814051E+02  0.49999762953E+02 0.  0.
        -12    1    1    2    0    0  0.16312869486E+02 -0.48906092061E+01  0.26957393886E+02  0.31886185949E+02  0.00000000000E+00 0.  1.
         11    1    3    3    0    0 -0.11375473126E+02  0.20465949559E+02 -0.90798156253E+01  0.25113731945E+02  0.51100000000E-03 0. -1.
        -11    1    3    3    0    0 -0.67156014541E+01  0.26440158290E+01  0.16691402101E+01  0.74078439438E+01  0.51100000000E-03 0.  1.
        -12    1    3    3    0    0  0.17782050938E+01 -0.18219356182E+02 -0.19546718471E+02  0.26780238162E+02  0.00000000000E+00 0.  1.
</event>
<event>
 7    1  0.6830263E-012  0.5930194E+02  0.7816164E-02  0.1266605E+00
        -11   -1    0    0    0    0  0.00000000000E+00  0.00000000000E+00  0.45593999997E+02  0.45594000000E+02  0.51100000000E-03 0. -1.
         11   -1    0    0    0    0 -0.00000000000E+00 -0.00000000000E+00 -0.45593999997E+02  0.45594000000E+02  0.51100000000E-03 0.  1.
    9900012    2    1    2    0    0 -0.14479599460E+02 -0.10893203515E+02  0.26237383786E+02  0.59301937350E+02  0.49999987822E+02 0.  0.
        -12    1    1    2    0    0  0.14479599460E+02  0.10893203515E+02 -0.26237383786E+02  0.31886062650E+02  0.00000000000E+00 0.  1.
         11    1    3    3    0    0 -0.87899983757E+01 -0.19489694904E+01  0.43637084297E+00  0.90140431158E+01  0.51100000000E-03 0. -1.
        -11    1    3    3    0    0 -0.20664353074E+02 -0.31277772556E+01  0.12358831130E+01  0.20936233803E+02  0.51100000000E-03 0.  1.
        -12    1    3    3    0    0  0.14974751989E+02 -0.58164567695E+01  0.24565129830E+02  0.29351660431E+02  0.00000000000E+00 0.  1.
</event>
<event>
 7    1  0.6830263E-012  0.5930193E+02  0.7816164E-02  0.1266605E+00
        -11   -1    0    0    0    0  0.00000000000E+00  0.00000000000E+00  0.45593999997E+02  0.45594000000E+02  0.51100000000E-03 0. -1.
         11   -1    0    0    0    0 -0.00000000000E+00 -0.00000000000E+00 -0.45593999997E+02  0.45594000000E+02  0.51100000000E-03 0.  1.
    9900012    2    1    2    0    0  0.34254677644E+01  0.26116942175E+02  0.17969218201E+02  0.59301932498E+02  0.49999978973E+02 0.  0.
        -12    1    1    2    0    0 -0.34254677644E+01 -0.26116942175E+02 -0.17969218201E+02  0.31886067502E+02  0.00000000000E+00 0.  1.
         11    1    3    3    0    0  0.25056040012E+01  0.14433084556E+02  0.10280904247E+01  0.14684990684E+02  0.51100000000E-03 0. -1.
        -11    1    3    3    0    0  0.72670533188E+01  0.16706943809E+02  0.26457546352E+02  0.32123726350E+02  0.51100000000E-03 0.  1.
        -12    1    3    3    0    0 -0.63471895556E+01 -0.50230861904E+01 -0.95164185753E+01  0.12493215464E+02  0.00000000000E+00 0.  1.
</event>
<event>
 7    1  0.6830263E-012  0.5930195E+02  0.7816164E-02  0.1266605E+00
        -11   -1    0    0    0    0  0.00000000000E+00  0.00000000000E+00  0.45593999997E+02  0.45594000000E+02  0.51100000000E-03 0. -1.
         11   -1    0    0    0    0 -0.00000000000E+00 -0.00000000000E+00 -0.45593999997E+02  0.45594000000E+02  0.51100000000E-03 0.  1.
    9900012    2    1    2    0    0 -0.22954468413E+02  0.84071475136E+01  0.20472720883E+02  0.59301952114E+02  0.50000014747E+02 0.  0.
        -12    1    1    2    0    0  0.22954468413E+02 -0.84071475136E+01 -0.20472720883E+02  0.31886047886E+02  0.00000000000E+00 0.  1.
         11    1    3    3    0    0 -0.66453248296E+01  0.72907691315E+01 -0.11551215841E+02  0.15190333910E+02  0.51100000000E-03 0. -1.
        -11    1    3    3    0    0 -0.45117541629E+01  0.13949588596E+01 -0.40095493065E+01  0.61950239506E+01  0.51100000000E-03 0.  1.
         12    1    3    3    0    0 -0.11797389420E+02 -0.27858047751E+00  0.36033486031E+02  0.37916594253E+02  0.00000000000E+00 0. -1.
</event>
<event>
 7    1  0.6830263E-012  0.5930196E+02  0.7816164E-02  0.1266605E+00
        -11   -1    0    0    0    0  0.00000000000E+00  0.00000000000E+00  0.45593999997E+02  0.45594000000E+02  0.51100000000E-03 0.  1.
         11   -1    0    0    0    0 -0.00000000000E+00 -0.00000000000E+00 -0.45593999997E+02  0.45594000000E+02  0.51100000000E-03 0. -1.
    9900012    2    1    2    0    0  0.21018268524E+01 -0.44609068492E+01 -0.31502415477E+02  0.59301959999E+02  0.50000029128E+02 0.  0.
        -12    1    1    2    0    0 -0.21018268524E+01  0.44609068492E+01  0.31502415477E+02  0.31886040001E+02  0.00000000000E+00 0.  1.
         11    1    3    3    0    0 -0.94023380563E+01  0.10591064246E+02 -0.10556628522E+02  0.17664003193E+02  0.51100000000E-03 0. -1.
        -11    1    3    3    0    0  0.14217958932E+02  0.38823563778E+01 -0.16257865785E+02  0.21944048109E+02  0.51100000000E-03 0.  1.
        -12    1    3    3    0    0 -0.27137940236E+01 -0.18934327473E+02 -0.46879211699E+01  0.19693908697E+02  0.00000000000E+00 0.  1.
</event>
<event>
 7    1  0.6830263E-012  0.5930192E+02  0.7816164E-02  0.1266605E+00
        -11   -1    0    0    0    0  0.00000000000E+00  0.00000000000E+00  0.45593999997E+02  0.45594000000E+02  0.51100000000E-03 0.  1.
         11   -1    0    0    0    0 -0.00000000000E+00 -0.00000000000E+00 -0.45593999997E+02  0.45594000000E+02  0.51100000000E-03 0. -1.
    9900012    2    1    2    0    0 -0.10759180888E+02 -0.29651820654E+02  0.46617001606E+01  0.59301923260E+02  0.49999962125E+02 0.  0.
        -12    1    1    2    0    0  0.10759180888E+02  0.29651820654E+02 -0.46617001606E+01  0.31886076740E+02  0.00000000000E+00 0.  1.
         11    1    3    3    0    0  0.48688039334E+01 -0.12893567815E+02 -0.57138901823E+01  0.14919714609E+02  0.51100000000E-03 0.  1.
        -11    1    3    3    0    0 -0.12229403868E+01  0.10928596159E+02 -0.12707494492E+01  0.11069986523E+02  0.51100000000E-03 0. -1.
         12    1    3    3    0    0 -0.14405044434E+02 -0.27686848998E+02  0.11646339792E+02  0.33312222129E+02  0.00000000000E+00 0. -1.
</event>
<event>
 7    1  0.6830263E-012  0.5930197E+02  0.7816164E-02  0.1266605E+00
        -11   -1    0    0    0    0  0.00000000000E+00  0.00000000000E+00  0.45593999997E+02  0.45594000000E+02  0.51100000000E-03 0.  1.
         11   -1    0    0    0    0 -0.00000000000E+00 -0.00000000000E+00 -0.45593999997E+02  0.45594000000E+02  0.51100000000E-03 0. -1.
    9900012    2    1    2    0    0  0.25035008667E+02 -0.18114444860E+02  0.78634672986E+01  0.59301970309E+02  0.50000047930E+02 0.  0.
        -12    1    1    2    0    0 -0.25035008667E+02  0.18114444860E+02 -0.78634672986E+01  0.31886029691E+02  0.00000000000E+00 0.  1.
         11    1    3    3    0    0 -0.33457335471E+00  0.73014839340E+00  0.11369785798E+02  0.11398117623E+02  0.51100000000E-03 0. -1.
        -11    1    3    3    0    0 -0.61790146990E+01 -0.13327931180E+01  0.78475910912E+01  0.10076767653E+02  0.51100000000E-03 0.  1.
         12    1    3    3    0    0  0.31548596720E+02 -0.17511800135E+02 -0.11353909591E+02  0.37827085032E+02  0.00000000000E+00 0. -1.
</event>
<event>
 7    1  0.6830263E-012  0.5930196E+02  0.7816164E-02  0.1266605E+00
        -11   -1    0    0    0    0  0.00000000000E+00  0.00000000000E+00  0.45593999997E+02  0.45594000000E+02  0.51100000000E-03 0.  1.
         11   -1    0    0    0    0 -0.00000000000E+00 -0.00000000000E+00 -0.45593999997E+02  0.45594000000E+02  0.51100000000E-03 0. -1.
    9900012    2    1    2    0    0 -0.21928604050E+02 -0.10311157039E+01 -0.23125588894E+02  0.59301957021E+02  0.50000023696E+02 0.  0.
        -12    1    1    2    0    0  0.21928604050E+02  0.10311157039E+01  0.23125588894E+02  0.31886042979E+02  0.00000000000E+00 0.  1.
         11    1    3    3    0    0 -0.13242424103E+02 -0.17463335884E+01 -0.47194938207E+01  0.14166336834E+02  0.51100000000E-03 0. -1.
        -11    1    3    3    0    0 -0.23442414959E+02  0.78930373717E+01 -0.97974538507E+01  0.26605205511E+02  0.51100000000E-03 0.  1.
        -12    1    3    3    0    0  0.14756235012E+02 -0.71778194871E+01 -0.86086412227E+01  0.18530414675E+02  0.00000000000E+00 0.  1.
</event>
<event>
 7    1  0.6830263E-012  0.5930195E+02  0.7816164E-02  0.1266605E+00
        -11   -1    0    0    0    0  0.00000000000E+00  0.00000000000E+00  0.45593999997E+02  0.45594000000E+02  0.51100000000E-03 0. -1.
         11   -1    0    0    0    0 -0.00000000000E+00 -0.00000000000E+00 -0.45593999997E+02  0.45594000000E+02  0.51100000000E-03 0.  1.
    9900012    2    1    2    0    0 -0.24890318833E+02 -0.19916249220E+02 -0.73177890781E+00  0.59301945761E+02  0.50000003160E+02 0.  0.
        -12    1    1    2    0    0  0.24890318833E+02  0.19916249220E+02  0.73177890781E+00  0.31886054239E+02  0.00000000000E+00 0.  1.
         11    1    3    3    0    0 -0.82098316370E+01  0.34896511209E+01 -0.83376907687E+01  0.12210490902E+02  0.51100000000E-03 0. -1.
        -11    1    3    3    0    0  0.60367452010E+01  0.39446693582E+01 -0.56345535285E+01  0.91515519281E+01  0.51100000000E-03 0.  1.
         12    1    3    3    0    0 -0.22717232397E+02 -0.27350569699E+02  0.13240465389E+02  0.37939902930E+02  0.00000000000E+00 0. -1.
</event>
<event>
 7    1  0.6830263E-012  0.5930197E+02  0.7816164E-02  0.1266605E+00
        -11   -1    0    0    0    0  0.00000000000E+00  0.00000000000E+00  0.45593999997E+02  0.45594000000E+02  0.51100000000E-03 0. -1.
         11   -1    0    0    0    0 -0.00000000000E+00 -0.00000000000E+00 -0.45593999997E+02  0.45594000000E+02  0.51100000000E-03 0.  1.
    9900012    2    1    2    0    0 -0.40862744050E+01  0.30440864671E+02 -0.85659128601E+01  0.59301972597E+02  0.50000052103E+02 0.  0.
        -12    1    1    2    0    0  0.40862744050E+01 -0.30440864671E+02  0.85659128601E+01  0.31886027403E+02  0.00000000000E+00 0.  1.
         11    1    3    3    0    0  0.19399003479E+02  0.16047234232E+02 -0.44996363215E+01  0.25575022771E+02  0.51100000000E-03 0. -1.
        -11    1    3    3    0    0 -0.41919468234E+01 -0.46605923089E+01 -0.17699779732E+01  0.65135521129E+01  0.51100000000E-03 0.  1.
        -12    1    3    3    0    0 -0.19293331061E+02  0.19054222748E+02 -0.22962985655E+01  0.27213397712E+02  0.00000000000E+00 0.  1.
</event>
<event>
 7    1  0.6830263E-012  0.5930194E+02  0.7816164E-02  0.1266605E+00
        -11   -1    0    0    0    0  0.00000000000E+00  0.00000000000E+00  0.45593999997E+02  0.45594000000E+02  0.51100000000E-03 0. -1.
         11   -1    0    0    0    0 -0.00000000000E+00 -0.00000000000E+00 -0.45593999997E+02  0.45594000000E+02  0.51100000000E-03 0.  1.
    9900012    2    1    2    0    0 -0.72796870897E+01  0.21416559080E+02  0.22473489304E+02  0.59301943981E+02  0.49999999914E+02 0.  0.
        -12    1    1    2    0    0  0.72796870897E+01 -0.21416559080E+02 -0.22473489304E+02  0.31886056019E+02  0.00000000000E+00 0.  1.
         11    1    3    3    0    0 -0.48286778531E+01  0.14777939702E+02  0.17051730793E+02  0.23075206499E+02  0.51100000000E-03 0. -1.
        -11    1    3    3    0    0  0.13183034711E+01  0.20959113384E+02  0.27590745073E+01  0.21181002108E+02  0.51100000000E-03 0.  1.
         12    1    3    3    0    0 -0.37693127077E+01 -0.14320494006E+02  0.26626840034E+01  0.15045735374E+02  0.00000000000E+00 0. -1.
</event>
<event>
 7    1  0.6830263E-012  0.5930195E+02  0.7816164E-02  0.1266605E+00
        -11   -1    0    0    0    0  0.00000000000E+00  0.00000000000E+00  0.45593999997E+02  0.45594000000E+02  0.51100000000E-03 0.  1.
         11   -1    0    0    0    0 -0.00000000000E+00 -0.00000000000E+00 -0.45593999997E+02  0.45594000000E+02  0.51100000000E-03 0. -1.
    9900012    2    1    2    0    0  0.26536738922E+02  0.16019199771E+02 -0.74771063682E+01  0.59301946723E+02  0.50000004916E+02 0.  0.
        -12    1    1    2    0    0 -0.26536738922E+02 -0.16019199771E+02  0.74771063682E+01  0.31886053277E+02  0.00000000000E+00 0.  1.
         11    1    3    3    0    0  0.13223653172E+02 -0.11887237341E+02  0.45775836867E+01  0.18360982748E+02  0.51100000000E-03 0. -1.
        -11    1    3    3    0    0  0.43872543989E+00 -0.38620253501E+01  0.13794413530E+01  0.41243882606E+01  0.51100000000E-03 0.  1.
        -12    1    3    3    0    0  0.12874360311E+02  0.31768462463E+02 -0.13434131408E+02  0.36816575714E+02  0.00000000000E+00 0.  1.
</event>
<event>
 7    1  0.6830263E-012  0.5930194E+02  0.7816164E-02  0.1266605E+00
        -11   -1    0    0    0    0  0.00000000000E+00  0.00000000000E+00  0.45593999997E+02  0.45594000000E+02  0.51100000000E-03 0.  1.
         11   -1    0    0    0    0 -0.00000000000E+00 -0.00000000000E+00 -0.45593999997E+02  0.45594000000E+02  0.51100000000E-03 0. -1.
    9900012    2    1    2    0    0  0.16308381330E+02 -0.70026033607E+01 -0.26490012701E+02  0.59301944610E+02  0.50000001062E+02 0.  0.
        -12    1    1    2    0    0 -0.16308381330E+02  0.70026033607E+01  0.26490012701E+02  0.31886055390E+02  0.00000000000E+00 0.  1.
         11    1    3    3    0    0  0.14940087180E+01 -0.17116604153E+02 -0.68979300664E+01  0.18514633111E+02  0.51100000000E-03 0. -1.
        -11    1    3    3    0    0 -0.34354313581E+00 -0.98744426471E+01 -0.18265015853E+01  0.10047823037E+02  0.51100000000E-03 0.  1.
        -12    1    3    3    0    0  0.15157915748E+02  0.19988443439E+02 -0.17765581049E+02  0.30739488463E+02  0.00000000000E+00 0.  1.
</event>
<event>
 7    1  0.6830263E-012  0.5930178E+02  0.7816164E-02  0.1266605E+00
        -11   -1    0    0    0    0  0.00000000000E+00  0.00000000000E+00  0.45593999997E+02  0.45594000000E+02  0.51100000000E-03 0. -1.
         11   -1    0    0    0    0 -0.00000000000E+00 -0.00000000000E+00 -0.45593999997E+02  0.45594000000E+02  0.51100000000E-03 0.  1.
    9900012    2    1    2    0    0 -0.19047795731E+02 -0.24410081968E+02  0.76197509868E+01  0.59301776816E+02  0.49999695044E+02 0.  0.
        -12    1    1    2    0    0  0.19047795731E+02  0.24410081968E+02 -0.76197509868E+01  0.31886223184E+02  0.00000000000E+00 0.  1.
         11    1    3    3    0    0 -0.27167872901E+01 -0.71086341584E+01  0.20945359004E+02  0.22285010138E+02  0.51100000000E-03 0. -1.
        -11    1    3    3    0    0  0.20474725898E+01 -0.15968316369E+02 -0.66407147139E+01  0.17414889142E+02  0.51100000000E-03 0.  1.
        -12    1    3    3    0    0 -0.18378481030E+02 -0.13331314404E+01 -0.66848933036E+01  0.19601877535E+02  0.00000000000E+00 0.  1.
</event>
<event>
 7    1  0.6830263E-012  0.5930196E+02  0.7816164E-02  0.1266605E+00
        -11   -1    0    0    0    0  0.00000000000E+00  0.00000000000E+00  0.45593999997E+02  0.45594000000E+02  0.51100000000E-03 0. -1.
         11   -1    0    0    0    0 -0.00000000000E+00 -0.00000000000E+00 -0.45593999997E+02  0.45594000000E+02  0.51100000000E-03 0.  1.
    9900012    2    1    2    0    0  0.17580910243E+02  0.25752325150E+02  0.66669825603E+01  0.59301963682E+02  0.50000035845E+02 0.  0.
        -12    1    1    2    0    0 -0.17580910243E+02 -0.25752325150E+02 -0.66669825603E+01  0.31886036318E+02  0.00000000000E+00 0.  1.
         11    1    3    3    0    0  0.11946090917E+02 -0.11839521140E+02 -0.20533707019E+01  0.16944016068E+02  0.51100000000E-03 0. -1.
        -11    1    3    3    0    0  0.13437992845E+01  0.14181044239E+02  0.11617642641E+02  0.18381442626E+02  0.51100000000E-03 0.  1.
        -12    1    3    3    0    0  0.42910200419E+01  0.23410802051E+02 -0.28972893790E+01  0.23976504988E+02  0.00000000000E+00 0.  1.
</event>
<event>
 7    1  0.6830263E-012  0.5930193E+02  0.7816164E-02  0.1266605E+00
        -11   -1    0    0    0    0  0.00000000000E+00  0.00000000000E+00  0.45593999997E+02  0.45594000000E+02  0.51100000000E-03 0. -1.
         11   -1    0    0    0    0 -0.00000000000E+00 -0.00000000000E+00 -0.45593999997E+02  0.45594000000E+02  0.51100000000E-03 0.  1.
    9900012    2    1    2    0    0  0.10241910861E+01  0.79386374958E+01  0.30865032160E+02  0.59301934973E+02  0.49999983486E+02 0.  0.
        -12    1    1    2    0    0 -0.10241910861E+01 -0.79386374958E+01 -0.30865032160E+02  0.31886065027E+02  0.00000000000E+00 0.  1.
         11    1    3    3    0    0  0.11159252256E+02  0.10200266293E+01  0.12623931979E+02  0.16879959245E+02  0.51100000000E-03 0. -1.
        -11    1    3    3    0    0  0.64863179089E+01  0.15515354177E+02  0.16612342264E+02  0.23638283589E+02  0.51100000000E-03 0.  1.
         12    1    3    3    0    0 -0.16621379079E+02 -0.85967433106E+01  0.16287579172E+01  0.18783692139E+02  0.00000000000E+00 0. -1.
</event>
<event>
 7    1  0.6830263E-012  0.5930192E+02  0.7816164E-02  0.1266605E+00
        -11   -1    0    0    0    0  0.00000000000E+00  0.00000000000E+00  0.45593999997E+02  0.45594000000E+02  0.51100000000E-03 0.  1.
         11   -1    0    0    0    0 -0.00000000000E+00 -0.00000000000E+00 -0.45593999997E+02  0.45594000000E+02  0.51100000000E-03 0. -1.
    9900012    2    1    2    0    0  0.55415044490E+01 -0.30757211784E+02 -0.63251742336E+01  0.59301918751E+02  0.49999953902E+02 0.  0.
        -12    1    1    2    0    0 -0.55415044490E+01  0.30757211784E+02  0.63251742336E+01  0.31886081249E+02  0.00000000000E+00 0.  1.
         11    1    3    3    0    0 -0.87191207654E+01 -0.85899101534E+01 -0.88699091880E+01  0.15115717404E+02  0.51100000000E-03 0. -1.
        -11    1    3    3    0    0 -0.85406803666E+01  0.96371615205E+00  0.74047638515E+01  0.11344712332E+02  0.51100000000E-03 0.  1.
        -12    1    3    3    0    0  0.22801305581E+02 -0.23131017783E+02 -0.48600288971E+01  0.32841489015E+02  0.00000000000E+00 0.  1.
</event>
<event>
 7    1  0.6830263E-012  0.5930231E+02  0.7816164E-02  0.1266603E+00
        -11   -1    0    0    0    0  0.00000000000E+00  0.00000000000E+00  0.45593999997E+02  0.45594000000E+02  0.51100000000E-03 0. -1.
         11   -1    0    0    0    0 -0.00000000000E+00 -0.00000000000E+00 -0.45593999997E+02  0.45594000000E+02  0.51100000000E-03 0.  1.
    9900012    2    1    2    0    0 -0.30735295019E+02  0.71227899988E+01 -0.46156776614E+01  0.59302313908E+02  0.50000674568E+02 0.  0.
        -12    1    1    2    0    0  0.30735295019E+02 -0.71227899988E+01  0.46156776614E+01  0.31885686092E+02  0.00000000000E+00 0.  1.
         11    1    3    3    0    0 -0.38742310702E+01  0.61482175726E+01 -0.13529988597E+02  0.15358087036E+02  0.51100000000E-03 0. -1.
        -11    1    3    3    0    0  0.19253193326E+01  0.39678730176E+01 -0.89187438447E+01  0.99496162160E+01  0.51100000000E-03 0.  1.
         12    1    3    3    0    0 -0.28786383282E+02 -0.29933005913E+01  0.17833054780E+02  0.33994610656E+02  0.00000000000E+00 0. -1.
</event>
<event>
 7    1  0.6830263E-012  0.5930194E+02  0.7816164E-02  0.1266605E+00
        -11   -1    0    0    0    0  0.00000000000E+00  0.00000000000E+00  0.45593999997E+02  0.45594000000E+02  0.51100000000E-03 0.  1.
         11   -1    0    0    0    0 -0.00000000000E+00 -0.00000000000E+00 -0.45593999997E+02  0.45594000000E+02  0.51100000000E-03 0. -1.
    9900012    2    1    2    0    0  0.23457469067E+02 -0.26434673455E+01 -0.21435482708E+02  0.59301942019E+02  0.49999996337E+02 0.  0.
        -12    1    1    2    0    0 -0.23457469067E+02  0.26434673455E+01  0.21435482708E+02  0.31886057981E+02  0.00000000000E+00 0.  1.
         11    1    3    3    0    0  0.11414817425E+02  0.12798420970E+01 -0.18197479795E+02  0.21519394132E+02  0.51100000000E-03 0. -1.
        -11    1    3    3    0    0  0.14845495271E+02 -0.70514049056E+01 -0.16849624682E+02  0.23537648421E+02  0.51100000000E-03 0.  1.
        -12    1    3    3    0    0 -0.28028436288E+01  0.31280954631E+01  0.13611621769E+02  0.14244899467E+02  0.00000000000E+00 0.  1.
</event>
<event>
 7    1  0.6830263E-012  0.5930194E+02  0.7816164E-02  0.1266605E+00
        -11   -1    0    0    0    0  0.00000000000E+00  0.00000000000E+00  0.45593999997E+02  0.45594000000E+02  0.51100000000E-03 0. -1.
         11   -1    0    0    0    0 -0.00000000000E+00 -0.00000000000E+00 -0.45593999997E+02  0.45594000000E+02  0.51100000000E-03 0.  1.
    9900012    2    1    2    0    0 -0.22142772194E+02  0.15888235714E+01  0.22888730336E+02  0.59301941963E+02  0.49999996234E+02 0.  0.
        -12    1    1    2    0    0  0.22142772194E+02 -0.15888235714E+01 -0.22888730336E+02  0.31886058037E+02  0.00000000000E+00 0.  1.
         11    1    3    3    0    0 -0.34927035015E+01  0.58885115739E+01  0.32760294575E+01  0.75898560970E+01  0.51100000000E-03 0. -1.
        -11    1    3    3    0    0 -0.28831730536E+02 -0.37191412860E+00  0.26204644323E+02  0.38962679453E+02  0.51100000000E-03 0.  1.
        -12    1    3    3    0    0  0.10181661843E+02 -0.39277738739E+01 -0.65919434448E+01  0.12749406412E+02  0.00000000000E+00 0.  1.
</event>
<event>
 7    1  0.6830263E-012  0.5930197E+02  0.7816164E-02  0.1266605E+00
        -11   -1    0    0    0    0  0.00000000000E+00  0.00000000000E+00  0.45593999997E+02  0.45594000000E+02  0.51100000000E-03 0.  1.
         11   -1    0    0    0    0 -0.00000000000E+00 -0.00000000000E+00 -0.45593999997E+02  0.45594000000E+02  0.51100000000E-03 0. -1.
    9900012    2    1    2    0    0  0.91071178095E+01 -0.16303690946E+02 -0.25845090774E+02  0.59301974058E+02  0.50000054768E+02 0.  0.
        -12    1    1    2    0    0 -0.91071178095E+01  0.16303690946E+02  0.25845090774E+02  0.31886025942E+02  0.00000000000E+00 0.  1.
         11    1    3    3    0    0  0.13128616913E+02 -0.66485790876E+01 -0.28598849716E+02  0.32162997237E+02  0.51100000000E-03 0. -1.
        -11    1    3    3    0    0  0.76970846992E+00  0.23685826666E+00 -0.10153837489E+02  0.10185723783E+02  0.51100000000E-03 0.  1.
        -12    1    3    3    0    0 -0.47912075735E+01 -0.98919701246E+01  0.12907596431E+02  0.16953253038E+02  0.00000000000E+00 0.  1.
</event>
<event>
 7    1  0.6830263E-012  0.5930195E+02  0.7816164E-02  0.1266605E+00
        -11   -1    0    0    0    0  0.00000000000E+00  0.00000000000E+00  0.45593999997E+02  0.45594000000E+02  0.51100000000E-03 0. -1.
         11   -1    0    0    0    0 -0.00000000000E+00 -0.00000000000E+00 -0.45593999997E+02  0.45594000000E+02  0.51100000000E-03 0.  1.
    9900012    2    1    2    0    0 -0.26290351329E+02 -0.15580238945E+02  0.90991247002E+01  0.59301945228E+02  0.50000002189E+02 0.  0.
        -12    1    1    2    0    0  0.26290351329E+02  0.15580238945E+02 -0.90991247002E+01  0.31886054772E+02  0.00000000000E+00 0.  1.
         11    1    3    3    0    0 -0.18252171283E+02  0.79315203681E+01  0.17573776260E+02  0.26549734164E+02  0.51100000000E-03 0. -1.
        -11    1    3    3    0    0 -0.29916811875E+01  0.47376749259E+00  0.41843254695E+01  0.51655775922E+01  0.51100000000E-03 0.  1.
        -12    1    3    3    0    0 -0.50464988586E+01 -0.23985526806E+02 -0.12658977029E+02  0.27586633472E+02  0.00000000000E+00 0.  1.
</event>
<event>
 7    1  0.6830263E-012  0.5930198E+02  0.7816164E-02  0.1266605E+00
        -11   -1    0    0    0    0  0.00000000000E+00  0.00000000000E+00  0.45593999997E+02  0.45594000000E+02  0.51100000000E-03 0.  1.
         11   -1    0    0    0    0 -0.00000000000E+00 -0.00000000000E+00 -0.45593999997E+02  0.45594000000E+02  0.51100000000E-03 0. -1.
    9900012    2    1    2    0    0  0.27750666819E+02  0.24979189558E+01 -0.15504173769E+02  0.59301976224E+02  0.50000058717E+02 0.  0.
        -12    1    1    2    0    0 -0.27750666819E+02 -0.24979189558E+01  0.15504173769E+02  0.31886023776E+02  0.00000000000E+00 0.  1.
         11    1    3    3    0    0  0.21063291520E+02 -0.54978505532E+01 -0.14227604189E+02  0.26006024909E+02  0.51100000000E-03 0. -1.
        -11    1    3    3    0    0  0.16336388746E+02  0.13839656818E+02  0.21191880882E+01  0.21515219184E+02  0.51100000000E-03 0.  1.
        -12    1    3    3    0    0 -0.96490134473E+01 -0.58438873091E+01 -0.33957576679E+01  0.11780732130E+02  0.00000000000E+00 0.  1.
</event>
<event>
 7    1  0.6830263E-012  0.5930194E+02  0.7816164E-02  0.1266605E+00
        -11   -1    0    0    0    0  0.00000000000E+00  0.00000000000E+00  0.45593999997E+02  0.45594000000E+02  0.51100000000E-03 0. -1.
         11   -1    0    0    0    0 -0.00000000000E+00 -0.00000000000E+00 -0.45593999997E+02  0.45594000000E+02  0.51100000000E-03 0.  1.
    9900012    2    1    2    0    0  0.12669187324E+01 -0.30515892576E+02 -0.91594923931E+01  0.59301935902E+02  0.49999985181E+02 0.  0.
        -12    1    1    2    0    0 -0.12669187324E+01  0.30515892576E+02  0.91594923931E+01  0.31886064098E+02  0.00000000000E+00 0.  1.
         11    1    3    3    0    0 -0.28413306434E+01 -0.76959289758E+01  0.86937010871E+01  0.11953280783E+02  0.51100000000E-03 0. -1.
        -11    1    3    3    0    0  0.11176186816E+02 -0.76328743013E+01  0.86018156718E+01  0.16036182680E+02  0.51100000000E-03 0.  1.
        -12    1    3    3    0    0 -0.70679374397E+01 -0.15187089298E+02 -0.26455009152E+02  0.31312472439E+02  0.00000000000E+00 0.  1.
</event>
<event>
 7    1  0.6830263E-012  0.5930194E+02  0.7816164E-02  0.1266605E+00
        -11   -1    0    0    0    0  0.00000000000E+00  0.00000000000E+00  0.45593999997E+02  0.45594000000E+02  0.51100000000E-03 0.  1.
         11   -1    0    0    0    0 -0.00000000000E+00 -0.00000000000E+00 -0.45593999997E+02  0.45594000000E+02  0.51100000000E-03 0. -1.
    9900012    2    1    2    0    0 -0.30894093196E+01 -0.23560809902E+02 -0.21261806030E+02  0.59301943348E+02  0.49999998760E+02 0.  0.
        -12    1    1    2    0    0  0.30894093196E+01  0.23560809902E+02  0.21261806030E+02  0.31886056652E+02  0.00000000000E+00 0.  1.
         11    1    3    3    0    0 -0.20560408760E+02 -0.84540993986E+01 -0.62303607602E+01  0.23087217253E+02  0.51100000000E-03 0. -1.
        -11    1    3    3    0    0  0.89410132178E+01 -0.10504123768E+02 -0.20783022157E+02  0.24944184568E+02  0.51100000000E-03 0.  1.
        -12    1    3    3    0    0  0.85299862230E+01 -0.46025867350E+01  0.57515768875E+01  0.11270541527E+02  0.00000000000E+00 0.  1.
</event>
<event>
 7    1  0.6830263E-012  0.5930196E+02  0.7816164E-02  0.1266605E+00
        -11   -1    0    0    0    0  0.00000000000E+00  0.00000000000E+00  0.45593999997E+02  0.45594000000E+02  0.51100000000E-03 0.  1.
         11   -1    0    0    0    0 -0.00000000000E+00 -0.00000000000E+00 -0.45593999997E+02  0.45594000000E+02  0.51100000000E-03 0. -1.
    9900012    2    1    2    0    0  0.13480757037E+02 -0.18152432554E+02 -0.22482835592E+02  0.59301960513E+02  0.50000030066E+02 0.  0.
        -12    1    1    2    0    0 -0.13480757037E+02  0.18152432554E+02  0.22482835592E+02  0.31886039487E+02  0.00000000000E+00 0.  1.
         11    1    3    3    0    0  0.76050790657E+01 -0.15551321981E+01  0.14422793380E+02  0.16379030279E+02  0.51100000000E-03 0. -1.
        -11    1    3    3    0    0  0.33148778094E+00  0.22470670117E+01 -0.40277807786E+01  0.46240904582E+01  0.51100000000E-03 0.  1.
         12    1    3    3    0    0  0.55441901903E+01 -0.18844367368E+02 -0.32877848193E+02  0.38298839776E+02  0.00000000000E+00 0. -1.
</event>
<event>
 7    1  0.6830263E-012  0.5930194E+02  0.7816164E-02  0.1266605E+00
        -11   -1    0    0    0    0  0.00000000000E+00  0.00000000000E+00  0.45593999997E+02  0.45594000000E+02  0.51100000000E-03 0. -1.
         11   -1    0    0    0    0 -0.00000000000E+00 -0.00000000000E+00 -0.45593999997E+02  0.45594000000E+02  0.51100000000E-03 0.  1.
    9900012    2    1    2    0    0 -0.27912695548E+02  0.14952390135E+02  0.37454022176E+01  0.59301943780E+02  0.49999999548E+02 0.  0.
        -12    1    1    2    0    0  0.27912695548E+02 -0.14952390135E+02 -0.37454022176E+01  0.31886056220E+02  0.00000000000E+00 0.  1.
         11    1    3    3    0    0  0.33676203181E+01  0.35452562082E+01  0.16782592836E+02  0.17480421355E+02  0.51100000000E-03 0. -1.
        -11    1    3    3    0    0 -0.12715719287E+01  0.94868351044E+01 -0.19213708521E+01  0.97626124414E+01  0.51100000000E-03 0.  1.
         12    1    3    3    0    0 -0.30008743937E+02  0.19202988224E+01 -0.11115819766E+02  0.32058909984E+02  0.00000000000E+00 0. -1.
</event>
<event>
 7    1  0.6830263E-012  0.5930193E+02  0.7816164E-02  0.1266605E+00
        -11   -1    0    0    0    0  0.00000000000E+00  0.00000000000E+00  0.45593999997E+02  0.45594000000E+02  0.51100000000E-03 0.  1.
         11   -1    0    0    0    0 -0.00000000000E+00 -0.00000000000E+00 -0.45593999997E+02  0.45594000000E+02  0.51100000000E-03 0. -1.
    9900012    2    1    2    0    0 -0.17619790949E+02  0.15549241578E+02 -0.21551926494E+02  0.59301929650E+02  0.49999973779E+02 0.  0.
        -12    1    1    2    0    0  0.17619790949E+02 -0.15549241578E+02  0.21551926494E+02  0.31886070350E+02  0.00000000000E+00 0.  1.
         11    1    3    3    0    0 -0.94690986432E+01 -0.12532279289E+02 -0.11087862491E+02  0.19226610418E+02  0.51100000000E-03 0. -1.
        -11    1    3    3    0    0  0.29706672850E+01 -0.30536035782E+01  0.20458035014E+01  0.47259571685E+01  0.51100000000E-03 0.  1.
        -12    1    3    3    0    0 -0.11121359591E+02  0.31135124445E+02 -0.12509867504E+02  0.35349362064E+02  0.00000000000E+00 0.  1.
</event>
<event>
 7    1  0.6830263E-012  0.5930194E+02  0.7816164E-02  0.1266605E+00
        -11   -1    0    0    0    0  0.00000000000E+00  0.00000000000E+00  0.45593999997E+02  0.45594000000E+02  0.51100000000E-03 0.  1.
         11   -1    0    0    0    0 -0.00000000000E+00 -0.00000000000E+00 -0.45593999997E+02  0.45594000000E+02  0.51100000000E-03 0. -1.
    9900012    2    1    2    0    0 -0.14411209243E+02  0.23073830066E+02 -0.16632381461E+02  0.59301941937E+02  0.49999996186E+02 0.  0.
        -12    1    1    2    0    0  0.14411209243E+02 -0.23073830066E+02  0.16632381461E+02  0.31886058063E+02  0.00000000000E+00 0.  1.
         11    1    3    3    0    0 -0.48944396118E+01  0.27715999558E+02 -0.29694788080E+02  0.40913477119E+02  0.51100000000E-03 0. -1.
        -11    1    3    3    0    0  0.11692008348E+01 -0.12130203812E+01  0.21882603514E+01  0.27616901825E+01  0.51100000000E-03 0.  1.
        -12    1    3    3    0    0 -0.10685970466E+02 -0.34291491106E+01  0.10874146268E+02  0.15626774635E+02  0.00000000000E+00 0.  1.
</event>
<event>
 7    1  0.6830263E-012  0.5930193E+02  0.7816164E-02  0.1266605E+00
        -11   -1    0    0    0    0  0.00000000000E+00  0.00000000000E+00  0.45593999997E+02  0.45594000000E+02  0.51100000000E-03 0.  1.
         11   -1    0    0    0    0 -0.00000000000E+00 -0.00000000000E+00 -0.45593999997E+02  0.45594000000E+02  0.51100000000E-03 0. -1.
    9900012    2    1    2    0    0 -0.27131162603E+02  0.65778487345E+01 -0.15406279098E+02  0.59301929157E+02  0.49999972879E+02 0.  0.
        -12    1    1    2    0    0  0.27131162603E+02 -0.65778487345E+01  0.15406279098E+02  0.31886070843E+02  0.00000000000E+00 0.  1.
         11    1    3    3    0    0 -0.90701486467E+01  0.14086905720E+02 -0.98275414654E+01  0.19423930620E+02  0.51100000000E-03 0. -1.
        -11    1    3    3    0    0 -0.12137544502E+02 -0.81886291933E+01 -0.19702598651E+02  0.24547220381E+02  0.51100000000E-03 0.  1.
        -12    1    3    3    0    0 -0.59234694549E+01  0.67957220811E+00  0.14123861018E+02  0.15330778155E+02  0.00000000000E+00 0.  1.
</event>
<event>
 7    1  0.6830263E-012  0.5930196E+02  0.7816164E-02  0.1266605E+00
        -11   -1    0    0    0    0  0.00000000000E+00  0.00000000000E+00  0.45593999997E+02  0.45594000000E+02  0.51100000000E-03 0.  1.
         11   -1    0    0    0    0 -0.00000000000E+00 -0.00000000000E+00 -0.45593999997E+02  0.45594000000E+02  0.51100000000E-03 0. -1.
    9900012    2    1    2    0    0 -0.71889073666E+01  0.44378052483E+01 -0.30746465762E+02  0.59301958204E+02  0.50000025854E+02 0.  0.
        -12    1    1    2    0    0  0.71889073666E+01 -0.44378052483E+01  0.30746465762E+02  0.31886041796E+02  0.00000000000E+00 0.  1.
         11    1    3    3    0    0  0.15750346130E+02  0.14054278733E+02 -0.81914452036E+01  0.22642789774E+02  0.51100000000E-03 0. -1.
        -11    1    3    3    0    0 -0.20221106840E+01  0.35699370215E+01 -0.41400780419E+01  0.58286901110E+01  0.51100000000E-03 0.  1.
        -12    1    3    3    0    0 -0.20917142813E+02 -0.13186410507E+02 -0.18414942517E+02  0.30830478319E+02  0.00000000000E+00 0.  1.
</event>
<event>
 7    1  0.6830263E-012  0.5930190E+02  0.7816164E-02  0.1266605E+00
        -11   -1    0    0    0    0  0.00000000000E+00  0.00000000000E+00  0.45593999997E+02  0.45594000000E+02  0.51100000000E-03 0.  1.
         11   -1    0    0    0    0 -0.00000000000E+00 -0.00000000000E+00 -0.45593999997E+02  0.45594000000E+02  0.51100000000E-03 0. -1.
    9900012    2    1    2    0    0 -0.16220894258E+02  0.20946391588E+02 -0.17744138328E+02  0.59301903092E+02  0.49999925342E+02 0.  0.
        -12    1    1    2    0    0  0.16220894258E+02 -0.20946391588E+02  0.17744138328E+02  0.31886096908E+02  0.00000000000E+00 0.  1.
         11    1    3    3    0    0  0.15716146895E+01  0.20276991014E+01 -0.17022972902E+01  0.30788557458E+01  0.51100000000E-03 0. -1.
        -11    1    3    3    0    0 -0.13317264269E+02  0.34815034466E+02 -0.95540019778E+01  0.38480061156E+02  0.51100000000E-03 0.  1.
        -12    1    3    3    0    0 -0.44752446782E+01 -0.15896341980E+02 -0.64878390596E+01  0.17742986190E+02  0.00000000000E+00 0.  1.
</event>
<event>
 7    1  0.6830263E-012  0.5930194E+02  0.7816164E-02  0.1266605E+00
        -11   -1    0    0    0    0  0.00000000000E+00  0.00000000000E+00  0.45593999997E+02  0.45594000000E+02  0.51100000000E-03 0. -1.
         11   -1    0    0    0    0 -0.00000000000E+00 -0.00000000000E+00 -0.45593999997E+02  0.45594000000E+02  0.51100000000E-03 0.  1.
    9900012    2    1    2    0    0 -0.23501718152E+02  0.32239072498E+01  0.21307189631E+02  0.59301942482E+02  0.49999997181E+02 0.  0.
        -12    1    1    2    0    0  0.23501718152E+02 -0.32239072498E+01 -0.21307189631E+02  0.31886057518E+02  0.00000000000E+00 0.  1.
         11    1    3    3    0    0 -0.38176597594E+01  0.14968098527E+02  0.35654218768E+01  0.15853413922E+02  0.51100000000E-03 0. -1.
        -11    1    3    3    0    0 -0.24622287851E+02  0.22774379518E+01  0.12303769544E+02  0.27619314400E+02  0.51100000000E-03 0.  1.
        -12    1    3    3    0    0  0.49382294581E+01 -0.14021629229E+02  0.54379982099E+01  0.15829214161E+02  0.00000000000E+00 0.  1.
</event>
<event>
 7    1  0.6830263E-012  0.5930196E+02  0.7816164E-02  0.1266605E+00
        -11   -1    0    0    0    0  0.00000000000E+00  0.00000000000E+00  0.45593999997E+02  0.45594000000E+02  0.51100000000E-03 0.  1.
         11   -1    0    0    0    0 -0.00000000000E+00 -0.00000000000E+00 -0.45593999997E+02  0.45594000000E+02  0.51100000000E-03 0. -1.
    9900012    2    1    2    0    0  0.27567875673E+02  0.13097267077E+02 -0.92300383245E+01  0.59301956321E+02  0.50000022420E+02 0.  0.
        -12    1    1    2    0    0 -0.27567875673E+02 -0.13097267077E+02  0.92300383245E+01  0.31886043679E+02  0.00000000000E+00 0.  1.
         11    1    3    3    0    0  0.31948250203E+01 -0.40415712390E+00  0.75546060615E+01  0.82123274957E+01  0.51100000000E-03 0. -1.
        -11    1    3    3    0    0 -0.54527275376E+01 -0.12161058549E+01  0.78965006948E+01  0.96729454943E+01  0.51100000000E-03 0.  1.
         12    1    3    3    0    0  0.29825778191E+02  0.14717530056E+02 -0.24681145081E+02  0.41416683331E+02  0.00000000000E+00 0. -1.
</event>
<event>
 7    1  0.6830263E-012  0.5930195E+02  0.7816164E-02  0.1266605E+00
        -11   -1    0    0    0    0  0.00000000000E+00  0.00000000000E+00  0.45593999997E+02  0.45594000000E+02  0.51100000000E-03 0.  1.
         11   -1    0    0    0    0 -0.00000000000E+00 -0.00000000000E+00 -0.45593999997E+02  0.45594000000E+02  0.51100000000E-03 0. -1.
    9900012    2    1    2    0    0  0.99742833053E+01  0.57489467187E+01 -0.29735220169E+02  0.59301952356E+02  0.50000015189E+02 0.  0.
        -12    1    1    2    0    0 -0.99742833053E+01 -0.57489467187E+01  0.29735220169E+02  0.31886047644E+02  0.00000000000E+00 0.  1.
         11    1    3    3    0    0  0.26076586184E+02 -0.43195540038E+01 -0.10189829647E+02  0.28328069513E+02  0.51100000000E-03 0. -1.
        -11    1    3    3    0    0  0.23253084023E+01  0.46211097133E+00 -0.52210519216E+01  0.57341075282E+01  0.51100000000E-03 0.  1.
        -12    1    3    3    0    0 -0.18427611282E+02  0.96063897512E+01 -0.14324338601E+02  0.25239775315E+02  0.00000000000E+00 0.  1.
</event>
<event>
 7    1  0.6830263E-012  0.5930190E+02  0.7816164E-02  0.1266605E+00
        -11   -1    0    0    0    0  0.00000000000E+00  0.00000000000E+00  0.45593999997E+02  0.45594000000E+02  0.51100000000E-03 0. -1.
         11   -1    0    0    0    0 -0.00000000000E+00 -0.00000000000E+00 -0.45593999997E+02  0.45594000000E+02  0.51100000000E-03 0.  1.
    9900012    2    1    2    0    0 -0.24144925398E+01  0.19264483701E+01  0.31736136764E+02  0.59301900297E+02  0.49999920246E+02 0.  0.
        -12    1    1    2    0    0  0.24144925398E+01 -0.19264483701E+01 -0.31736136764E+02  0.31886099703E+02  0.00000000000E+00 0.  1.
         11    1    3    3    0    0  0.17881962104E+02  0.74121077722E+01  0.12471021894E+02  0.23026730069E+02  0.51100000000E-03 0. -1.
        -11    1    3    3    0    0  0.34365591952E+01  0.66943604215E+00 -0.18124319894E+01  0.39424603604E+01  0.51100000000E-03 0.  1.
         12    1    3    3    0    0 -0.23733013839E+02 -0.61550954443E+01  0.21077546859E+02  0.32332709868E+02  0.00000000000E+00 0. -1.
</event>
<event>
 7    1  0.6830263E-012  0.5930194E+02  0.7816164E-02  0.1266605E+00
        -11   -1    0    0    0    0  0.00000000000E+00  0.00000000000E+00  0.45593999997E+02  0.45594000000E+02  0.51100000000E-03 0.  1.
         11   -1    0    0    0    0 -0.00000000000E+00 -0.00000000000E+00 -0.45593999997E+02  0.45594000000E+02  0.51100000000E-03 0. -1.
    9900012    2    1    2    0    0  0.82035516570E+01  0.27538021506E+02  0.13823155237E+02  0.59301944914E+02  0.50000001616E+02 0.  0.
        -12    1    1    2    0    0 -0.82035516570E+01 -0.27538021506E+02 -0.13823155237E+02  0.31886055086E+02  0.00000000000E+00 0.  1.
         11    1    3    3    0    0  0.15456384174E+02  0.76502139698E+01  0.29995674290E+01  0.17504941889E+02  0.51100000000E-03 0. -1.
        -11    1    3    3    0    0 -0.64851128856E+01 -0.87955499117E+01  0.66744305608E+01  0.12804936976E+02  0.51100000000E-03 0.  1.
         12    1    3    3    0    0 -0.76771963122E+00  0.28683357448E+02  0.41491572468E+01  0.28992066049E+02  0.00000000000E+00 0. -1.
</event>
<event>
 7    1  0.6830263E-012  0.5930196E+02  0.7816164E-02  0.1266605E+00
        -11   -1    0    0    0    0  0.00000000000E+00  0.00000000000E+00  0.45593999997E+02  0.45594000000E+02  0.51100000000E-03 0. -1.
         11   -1    0    0    0    0 -0.00000000000E+00 -0.00000000000E+00 -0.45593999997E+02  0.45594000000E+02  0.51100000000E-03 0.  1.
    9900012    2    1    2    0    0  0.30258449452E+02 -0.41675375091E+01  0.91529932707E+01  0.59301962022E+02  0.50000032817E+02 0.  0.
        -12    1    1    2    0    0 -0.30258449452E+02  0.41675375091E+01 -0.91529932707E+01  0.31886037978E+02  0.00000000000E+00 0.  1.
         11    1    3    3    0    0  0.21162510147E+02 -0.71311959651E+01 -0.17598780293E+01  0.22400958965E+02  0.51100000000E-03 0. -1.
        -11    1    3    3    0    0  0.21257855464E+02 -0.18871112135E-01  0.11860830652E+02  0.24342885594E+02  0.51100000000E-03 0.  1.
         12    1    3    3    0    0 -0.12161916159E+02  0.29825295681E+01 -0.94795935159E+00  0.12558117463E+02  0.00000000000E+00 0. -1.
</event>
<event>
 7    1  0.6830263E-012  0.5930194E+02  0.7816164E-02  0.1266605E+00
        -11   -1    0    0    0    0  0.00000000000E+00  0.00000000000E+00  0.45593999997E+02  0.45594000000E+02  0.51100000000E-03 0. -1.
         11   -1    0    0    0    0 -0.00000000000E+00 -0.00000000000E+00 -0.45593999997E+02  0.45594000000E+02  0.51100000000E-03 0.  1.
    9900012    2    1    2    0    0  0.10864653099E+02  0.27474820861E+02  0.11992265798E+02  0.59301938668E+02  0.49999990225E+02 0.  0.
        -12    1    1    2    0    0 -0.10864653099E+02 -0.27474820861E+02 -0.11992265798E+02  0.31886061332E+02  0.00000000000E+00 0.  1.
         11    1    3    3    0    0 -0.41689185751E+00 -0.36626947159E+01 -0.10883698700E+01  0.38436545939E+01  0.51100000000E-03 0. -1.
        -11    1    3    3    0    0  0.22642919486E+02  0.36096769823E+01 -0.76074938308E-02  0.22928838368E+02  0.51100000000E-03 0.  1.
         12    1    3    3    0    0 -0.11361374529E+02  0.27527838594E+02  0.13088243162E+02  0.32529445706E+02  0.00000000000E+00 0. -1.
</event>
<event>
 7    1  0.6830263E-012  0.5930194E+02  0.7816164E-02  0.1266605E+00
        -11   -1    0    0    0    0  0.00000000000E+00  0.00000000000E+00  0.45593999997E+02  0.45594000000E+02  0.51100000000E-03 0. -1.
         11   -1    0    0    0    0 -0.00000000000E+00 -0.00000000000E+00 -0.45593999997E+02  0.45594000000E+02  0.51100000000E-03 0.  1.
    9900012    2    1    2    0    0  0.22588166982E+02  0.19183190535E+02 -0.11768633455E+02  0.59301940034E+02  0.49999992717E+02 0.  0.
        -12    1    1    2    0    0 -0.22588166982E+02 -0.19183190535E+02  0.11768633455E+02  0.31886059966E+02  0.00000000000E+00 0.  1.
         11    1    3    3    0    0  0.17090759141E+02  0.15301278453E+02 -0.24540966488E+02  0.33592889229E+02  0.51100000000E-03 0. -1.
        -11    1    3    3    0    0 -0.58189262297E+01  0.46835001294E+01 -0.13538940218E+01  0.75913177520E+01  0.51100000000E-03 0.  1.
         12    1    3    3    0    0  0.11316334071E+02 -0.80158804771E+00  0.14126227054E+02  0.18117733053E+02  0.00000000000E+00 0. -1.
</event>
<event>
 7    1  0.6830263E-012  0.5930193E+02  0.7816164E-02  0.1266605E+00
        -11   -1    0    0    0    0  0.00000000000E+00  0.00000000000E+00  0.45593999997E+02  0.45594000000E+02  0.51100000000E-03 0.  1.
         11   -1    0    0    0    0 -0.00000000000E+00 -0.00000000000E+00 -0.45593999997E+02  0.45594000000E+02  0.51100000000E-03 0. -1.
    9900012    2    1    2    0    0 -0.13285892983E+02 -0.28740620817E+02 -0.37660890477E+01  0.59301926802E+02  0.49999968585E+02 0.  0.
        -12    1    1    2    0    0  0.13285892983E+02  0.28740620817E+02  0.37660890477E+01  0.31886073198E+02  0.00000000000E+00 0.  1.
         11    1    3    3    0    0  0.39168847972E+01 -0.54511374574E-01 -0.15243640751E+02  0.15738918057E+02  0.51100000000E-03 0. -1.
        -11    1    3    3    0    0 -0.36960174021E+01  0.10426929386E+01 -0.55404064245E+01  0.67412058869E+01  0.51100000000E-03 0.  1.
        -12    1    3    3    0    0 -0.13506760378E+02 -0.29728802381E+02  0.17017958128E+02  0.36821802858E+02  0.00000000000E+00 0.  1.
</event>
<event>
 7    1  0.6830263E-012  0.5930196E+02  0.7816164E-02  0.1266605E+00
        -11   -1    0    0    0    0  0.00000000000E+00  0.00000000000E+00  0.45593999997E+02  0.45594000000E+02  0.51100000000E-03 0.  1.
         11   -1    0    0    0    0 -0.00000000000E+00 -0.00000000000E+00 -0.45593999997E+02  0.45594000000E+02  0.51100000000E-03 0. -1.
    9900012    2    1    2    0    0 -0.35778293709E+00 -0.25238731963E+02 -0.19483276606E+02  0.59301958116E+02  0.50000025693E+02 0.  0.
        -12    1    1    2    0    0  0.35778293709E+00  0.25238731963E+02  0.19483276606E+02  0.31886041884E+02  0.00000000000E+00 0.  1.
         11    1    3    3    0    0 -0.84516043994E+01 -0.24740506211E+01 -0.92298449918E+01  0.12756981705E+02  0.51100000000E-03 0. -1.
        -11    1    3    3    0    0 -0.12115101854E+02 -0.16858496206E+02 -0.14162475611E+02  0.25130863554E+02  0.51100000000E-03 0.  1.
        -12    1    3    3    0    0  0.20208923316E+02 -0.59061851365E+01  0.39090439972E+01  0.21414112857E+02  0.00000000000E+00 0.  1.
</event>
<event>
 7    1  0.6830263E-012  0.5930210E+02  0.7816164E-02  0.1266604E+00
        -11   -1    0    0    0    0  0.00000000000E+00  0.00000000000E+00  0.45593999997E+02  0.45594000000E+02  0.51100000000E-03 0.  1.
         11   -1    0    0    0    0 -0.00000000000E+00 -0.00000000000E+00 -0.45593999997E+02  0.45594000000E+02  0.51100000000E-03 0. -1.
    9900012    2    1    2    0    0 -0.31683135659E+02 -0.34654295289E+01  0.93811680201E+00  0.59302104213E+02  0.50000292139E+02 0.  0.
        -12    1    1    2    0    0  0.31683135659E+02  0.34654295289E+01 -0.93811680201E+00  0.31885895787E+02  0.00000000000E+00 0.  1.
         11    1    3    3    0    0 -0.38674348929E+02 -0.13782250734E+01  0.15081245014E+02  0.41533705841E+02  0.51100000000E-03 0. -1.
        -11    1    3    3    0    0 -0.12599214933E+01  0.10474541356E+00 -0.18829426570E-01  0.12644083911E+01  0.51100000000E-03 0.  1.
        -12    1    3    3    0    0  0.82511347638E+01 -0.21919498691E+01 -0.14124298785E+02  0.16503989981E+02  0.00000000000E+00 0.  1.
</event>
<event>
 7    1  0.6830263E-012  0.5930192E+02  0.7816164E-02  0.1266605E+00
        -11   -1    0    0    0    0  0.00000000000E+00  0.00000000000E+00  0.45593999997E+02  0.45594000000E+02  0.51100000000E-03 0. -1.
         11   -1    0    0    0    0 -0.00000000000E+00 -0.00000000000E+00 -0.45593999997E+02  0.45594000000E+02  0.51100000000E-03 0.  1.
    9900012    2    1    2    0    0  0.25689499692E+02 -0.13456737109E+02  0.13254733887E+02  0.59301919362E+02  0.49999955016E+02 0.  0.
        -12    1    1    2    0    0 -0.25689499692E+02  0.13456737109E+02 -0.13254733887E+02  0.31886080638E+02  0.00000000000E+00 0.  1.
         11    1    3    3    0    0 -0.30654194080E+01 -0.73002658579E+01  0.48189379305E+01  0.92689179942E+01  0.51100000000E-03 0. -1.
        -11    1    3    3    0    0  0.46168218312E+01  0.14483701928E+02  0.10065012398E+02  0.18231761851E+02  0.51100000000E-03 0.  1.
         12    1    3    3    0    0  0.24138097269E+02 -0.20640173179E+02 -0.16292164413E+01  0.31801239517E+02  0.00000000000E+00 0. -1.
</event>
<event>
 7    1  0.6830263E-012  0.5930192E+02  0.7816164E-02  0.1266605E+00
        -11   -1    0    0    0    0  0.00000000000E+00  0.00000000000E+00  0.45593999997E+02  0.45594000000E+02  0.51100000000E-03 0.  1.
         11   -1    0    0    0    0 -0.00000000000E+00 -0.00000000000E+00 -0.45593999997E+02  0.45594000000E+02  0.51100000000E-03 0. -1.
    9900012    2    1    2    0    0  0.16864635063E+01 -0.14515849725E+02 -0.28340216462E+02  0.59301922764E+02  0.49999961219E+02 0.  0.
        -12    1    1    2    0    0 -0.16864635063E+01  0.14515849725E+02  0.28340216462E+02  0.31886077236E+02  0.00000000000E+00 0.  1.
         11    1    3    3    0    0 -0.96429108745E+01 -0.11216928978E+01 -0.49994830197E+00  0.97207959374E+01  0.51100000000E-03 0. -1.
        -11    1    3    3    0    0 -0.73378693714E+01 -0.47768725605E+01  0.55513746545E+01  0.10367285044E+02  0.51100000000E-03 0.  1.
         12    1    3    3    0    0  0.18667243752E+02 -0.86172842671E+01 -0.33391642815E+02  0.39213841782E+02  0.00000000000E+00 0. -1.
</event>
<event>
 7    1  0.6830263E-012  0.5930195E+02  0.7816164E-02  0.1266605E+00
        -11   -1    0    0    0    0  0.00000000000E+00  0.00000000000E+00  0.45593999997E+02  0.45594000000E+02  0.51100000000E-03 0.  1.
         11   -1    0    0    0    0 -0.00000000000E+00 -0.00000000000E+00 -0.45593999997E+02  0.45594000000E+02  0.51100000000E-03 0. -1.
    9900012    2    1    2    0    0  0.19532386431E+02 -0.73740207833E+01 -0.24100413318E+02  0.59301949378E+02  0.50000009757E+02 0.  0.
        -12    1    1    2    0    0 -0.19532386431E+02  0.73740207833E+01  0.24100413318E+02  0.31886050622E+02  0.00000000000E+00 0.  1.
         11    1    3    3    0    0  0.57513326389E+01 -0.88280341363E+01 -0.25491939874E+01  0.10840221588E+02  0.51100000000E-03 0. -1.
        -11    1    3    3    0    0 -0.27210626388E+00 -0.18368717331E+02 -0.49258528325E+01  0.19019669939E+02  0.51100000000E-03 0.  1.
         12    1    3    3    0    0  0.14053160056E+02  0.19822730683E+02 -0.16625366498E+02  0.29442057851E+02  0.00000000000E+00 0. -1.
</event>
<event>
 7    1  0.6830263E-012  0.5930195E+02  0.7816164E-02  0.1266605E+00
        -11   -1    0    0    0    0  0.00000000000E+00  0.00000000000E+00  0.45593999997E+02  0.45594000000E+02  0.51100000000E-03 0.  1.
         11   -1    0    0    0    0 -0.00000000000E+00 -0.00000000000E+00 -0.45593999997E+02  0.45594000000E+02  0.51100000000E-03 0. -1.
    9900012    2    1    2    0    0  0.25432703950E+02 -0.14127813275E+02 -0.13050014373E+02  0.59301946414E+02  0.50000004352E+02 0.  0.
        -12    1    1    2    0    0 -0.25432703950E+02  0.14127813275E+02  0.13050014373E+02  0.31886053586E+02  0.00000000000E+00 0.  1.
         11    1    3    3    0    0 -0.52379873066E+01 -0.81614938495E+01 -0.40113930344E+01  0.10494654221E+02  0.51100000000E-03 0. -1.
        -11    1    3    3    0    0  0.29633618198E+02 -0.83198871922E+01  0.78170390121E+01  0.31756541839E+02  0.51100000000E-03 0.  1.
         12    1    3    3    0    0  0.10370730583E+01  0.23535677669E+01 -0.16855660351E+02  0.17050750354E+02  0.00000000000E+00 0. -1.
</event>
<event>
 7    1  0.6830263E-012  0.5930176E+02  0.7816164E-02  0.1266605E+00
        -11   -1    0    0    0    0  0.00000000000E+00  0.00000000000E+00  0.45593999997E+02  0.45594000000E+02  0.51100000000E-03 0.  1.
         11   -1    0    0    0    0 -0.00000000000E+00 -0.00000000000E+00 -0.45593999997E+02  0.45594000000E+02  0.51100000000E-03 0. -1.
    9900012    2    1    2    0    0 -0.26012471645E+01 -0.29776637874E+02 -0.11104835218E+02  0.59301764488E+02  0.49999672561E+02 0.  0.
        -12    1    1    2    0    0  0.26012471645E+01  0.29776637874E+02  0.11104835218E+02  0.31886235512E+02  0.00000000000E+00 0.  1.
         11    1    3    3    0    0  0.19590223660E+01 -0.64260915088E+01 -0.65233092732E+01  0.93640794980E+01  0.51100000000E-03 0. -1.
        -11    1    3    3    0    0  0.15755600745E+01 -0.33631341564E+02 -0.12127097299E+02  0.35785695663E+02  0.51100000000E-03 0.  1.
         12    1    3    3    0    0 -0.61358296049E+01  0.10280795198E+02  0.75455713537E+01  0.14151989327E+02  0.00000000000E+00 0. -1.
</event>
<event>
 7    1  0.6830263E-012  0.5930193E+02  0.7816164E-02  0.1266605E+00
        -11   -1    0    0    0    0  0.00000000000E+00  0.00000000000E+00  0.45593999997E+02  0.45594000000E+02  0.51100000000E-03 0.  1.
         11   -1    0    0    0    0 -0.00000000000E+00 -0.00000000000E+00 -0.45593999997E+02  0.45594000000E+02  0.51100000000E-03 0. -1.
    9900012    2    1    2    0    0  0.25383128113E+02 -0.10909630173E+02 -0.15918478095E+02  0.59301934577E+02  0.49999982764E+02 0.  0.
        -12    1    1    2    0    0 -0.25383128113E+02  0.10909630173E+02  0.15918478095E+02  0.31886065423E+02  0.00000000000E+00 0.  1.
         11    1    3    3    0    0  0.22886832881E+02 -0.38006024214E+01  0.39028600712E+01  0.23526240989E+02  0.51100000000E-03 0. -1.
        -11    1    3    3    0    0  0.94757272600E+01 -0.13698123598E+02 -0.37763584416E+01  0.17078901620E+02  0.51100000000E-03 0.  1.
         12    1    3    3    0    0 -0.69794320277E+01  0.65890958468E+01 -0.16044979725E+02  0.18696791967E+02  0.00000000000E+00 0. -1.
</event>
<event>
 7    1  0.6830263E-012  0.5930192E+02  0.7816164E-02  0.1266605E+00
        -11   -1    0    0    0    0  0.00000000000E+00  0.00000000000E+00  0.45593999997E+02  0.45594000000E+02  0.51100000000E-03 0.  1.
         11   -1    0    0    0    0 -0.00000000000E+00 -0.00000000000E+00 -0.45593999997E+02  0.45594000000E+02  0.51100000000E-03 0. -1.
    9900012    2    1    2    0    0  0.27105884052E+02  0.16792446536E+02  0.82094421688E-01  0.59301922311E+02  0.49999960393E+02 0.  0.
        -12    1    1    2    0    0 -0.27105884052E+02 -0.16792446536E+02 -0.82094421688E-01  0.31886077689E+02  0.00000000000E+00 0.  1.
         11    1    3    3    0    0  0.42986114739E+01  0.53052411140E+00  0.29539331995E+00  0.43412871261E+01  0.51100000000E-03 0. -1.
        -11    1    3    3    0    0  0.20317520029E+02 -0.75058253258E+01 -0.15462042360E+02  0.26612286413E+02  0.51100000000E-03 0.  1.
         12    1    3    3    0    0  0.24897525490E+01  0.23767747751E+02  0.15248743462E+02  0.28348348771E+02  0.00000000000E+00 0. -1.
</event>
<event>
 7    1  0.6830263E-012  0.5930194E+02  0.7816164E-02  0.1266605E+00
        -11   -1    0    0    0    0  0.00000000000E+00  0.00000000000E+00  0.45593999997E+02  0.45594000000E+02  0.51100000000E-03 0.  1.
         11   -1    0    0    0    0 -0.00000000000E+00 -0.00000000000E+00 -0.45593999997E+02  0.45594000000E+02  0.51100000000E-03 0. -1.
    9900012    2    1    2    0    0  0.48824847465E+01 -0.29710986244E+02 -0.10494734955E+02  0.59301939995E+02  0.49999992645E+02 0.  0.
        -12    1    1    2    0    0 -0.48824847465E+01  0.29710986244E+02  0.10494734955E+02  0.31886060005E+02  0.00000000000E+00 0.  1.
         11    1    3    3    0    0 -0.61562476514E+01 -0.11401896836E+02 -0.58126528377E+01  0.14201745311E+02  0.51100000000E-03 0. -1.
        -11    1    3    3    0    0 -0.14263963680E+02 -0.14281887790E+01 -0.69255761098E-01  0.14335451847E+02  0.51100000000E-03 0.  1.
         12    1    3    3    0    0  0.25302696077E+02 -0.16880900629E+02 -0.46128263562E+01  0.30764742837E+02  0.00000000000E+00 0. -1.
</event>
<event>
 7    1  0.6830263E-012  0.5930194E+02  0.7816164E-02  0.1266605E+00
        -11   -1    0    0    0    0  0.00000000000E+00  0.00000000000E+00  0.45593999997E+02  0.45594000000E+02  0.51100000000E-03 0.  1.
         11   -1    0    0    0    0 -0.00000000000E+00 -0.00000000000E+00 -0.45593999997E+02  0.45594000000E+02  0.51100000000E-03 0. -1.
    9900012    2    1    2    0    0  0.18293959684E+02 -0.17953725548E+02 -0.18966165284E+02  0.59301942740E+02  0.49999997652E+02 0.  0.
        -12    1    1    2    0    0 -0.18293959684E+02  0.17953725548E+02  0.18966165284E+02  0.31886057260E+02  0.00000000000E+00 0.  1.
         11    1    3    3    0    0  0.49275597705E+01 -0.16492836730E+02 -0.81418069681E+01  0.19041626234E+02  0.51100000000E-03 0. -1.
        -11    1    3    3    0    0  0.13567088249E+01 -0.17723080644E+02 -0.10517559837E+01  0.17806022499E+02  0.51100000000E-03 0.  1.
         12    1    3    3    0    0  0.12009691089E+02  0.16262191825E+02 -0.97726023320E+01  0.22454294007E+02  0.00000000000E+00 0. -1.
</event>
<event>
 7    1  0.6830263E-012  0.5930195E+02  0.7816164E-02  0.1266605E+00
        -11   -1    0    0    0    0  0.00000000000E+00  0.00000000000E+00  0.45593999997E+02  0.45594000000E+02  0.51100000000E-03 0. -1.
         11   -1    0    0    0    0 -0.00000000000E+00 -0.00000000000E+00 -0.45593999997E+02  0.45594000000E+02  0.51100000000E-03 0.  1.
    9900012    2    1    2    0    0 -0.41665956284E+01  0.17740872589E+02  0.26165263808E+02  0.59301951177E+02  0.50000013039E+02 0.  0.
        -12    1    1    2    0    0  0.41665956284E+01 -0.17740872589E+02 -0.26165263808E+02  0.31886048823E+02  0.00000000000E+00 0.  1.
         11    1    3    3    0    0  0.81409689046E+01 -0.14529348710E+02  0.37251385498E+01  0.17066165537E+02  0.51100000000E-03 0. -1.
        -11    1    3    3    0    0 -0.15008824764E+01  0.13485713768E+02  0.51541273878E+01  0.14514894193E+02  0.51100000000E-03 0.  1.
        -12    1    3    3    0    0 -0.10806682057E+02  0.18784507531E+02  0.17285997871E+02  0.27720891448E+02  0.00000000000E+00 0.  1.
</event>
<event>
 7    1  0.6830263E-012  0.5930195E+02  0.7816164E-02  0.1266605E+00
        -11   -1    0    0    0    0  0.00000000000E+00  0.00000000000E+00  0.45593999997E+02  0.45594000000E+02  0.51100000000E-03 0.  1.
         11   -1    0    0    0    0 -0.00000000000E+00 -0.00000000000E+00 -0.45593999997E+02  0.45594000000E+02  0.51100000000E-03 0. -1.
    9900012    2    1    2    0    0  0.31815733444E+02 -0.18355946273E+01 -0.10536487759E+01  0.59301945400E+02  0.50000002503E+02 0.  0.
        -12    1    1    2    0    0 -0.31815733444E+02  0.18355946273E+01  0.10536487759E+01  0.31886054600E+02  0.00000000000E+00 0.  1.
         11    1    3    3    0    0  0.38223412512E+01  0.67064756538E+01  0.11566481712E+02  0.13905776058E+02  0.51100000000E-03 0. -1.
        -11    1    3    3    0    0 -0.66804077078E+01 -0.56477504848E+01 -0.15571430299E+01  0.88853602830E+01  0.51100000000E-03 0.  1.
         12    1    3    3    0    0  0.34673799901E+02 -0.28943197963E+01 -0.11062987458E+02  0.36510809059E+02  0.00000000000E+00 0. -1.
</event>
<event>
 7    1  0.6830263E-012  0.5930194E+02  0.7816164E-02  0.1266605E+00
        -11   -1    0    0    0    0  0.00000000000E+00  0.00000000000E+00  0.45593999997E+02  0.45594000000E+02  0.51100000000E-03 0. -1.
         11   -1    0    0    0    0 -0.00000000000E+00 -0.00000000000E+00 -0.45593999997E+02  0.45594000000E+02  0.51100000000E-03 0.  1.
    9900012    2    1    2    0    0 -0.10625284543E+02  0.90686439617E+01  0.28663283443E+02  0.59301940465E+02  0.49999993503E+02 0.  0.
        -12    1    1    2    0    0  0.10625284543E+02 -0.90686439617E+01 -0.28663283443E+02  0.31886059535E+02  0.00000000000E+00 0.  1.
         11    1    3    3    0    0  0.10854927646E+02  0.14939823432E+02  0.15638699135E+00  0.18467599615E+02  0.51100000000E-03 0. -1.
        -11    1    3    3    0    0 -0.21001299048E+01  0.31006015380E+01 -0.14743056828E+01  0.40246556402E+01  0.51100000000E-03 0.  1.
         12    1    3    3    0    0 -0.19380082285E+02 -0.89717810081E+01  0.29981202134E+02  0.36809685210E+02  0.00000000000E+00 0. -1.
</event>
<event>
 7    1  0.6830263E-012  0.5930193E+02  0.7816164E-02  0.1266605E+00
        -11   -1    0    0    0    0  0.00000000000E+00  0.00000000000E+00  0.45593999997E+02  0.45594000000E+02  0.51100000000E-03 0.  1.
         11   -1    0    0    0    0 -0.00000000000E+00 -0.00000000000E+00 -0.45593999997E+02  0.45594000000E+02  0.51100000000E-03 0. -1.
    9900012    2    1    2    0    0  0.16656987029E+02 -0.91433648290E+00 -0.27174069470E+02  0.59301932829E+02  0.49999979576E+02 0.  0.
        -12    1    1    2    0    0 -0.16656987029E+02  0.91433648290E+00  0.27174069470E+02  0.31886067171E+02  0.00000000000E+00 0.  1.
         11    1    3    3    0    0  0.18834113921E+02 -0.65487821904E+01  0.21925146979E+01  0.20060346865E+02  0.51100000000E-03 0. -1.
        -11    1    3    3    0    0 -0.67802768157E+01 -0.58199750606E+01 -0.19098980491E+01  0.91373942797E+01  0.51100000000E-03 0.  1.
        -12    1    3    3    0    0  0.46031499236E+01  0.11454420768E+02 -0.27456686119E+02  0.30104191684E+02  0.00000000000E+00 0.  1.
</event>
<event>
 7    1  0.6830263E-012  0.5930210E+02  0.7816164E-02  0.1266604E+00
        -11   -1    0    0    0    0  0.00000000000E+00  0.00000000000E+00  0.45593999997E+02  0.45594000000E+02  0.51100000000E-03 0.  1.
         11   -1    0    0    0    0 -0.00000000000E+00 -0.00000000000E+00 -0.45593999997E+02  0.45594000000E+02  0.51100000000E-03 0. -1.
    9900012    2    1    2    0    0 -0.19967099020E+02  0.15829895126E+02 -0.19168718373E+02  0.59302103635E+02  0.50000291084E+02 0.  0.
        -12    1    1    2    0    0  0.19967099020E+02 -0.15829895126E+02  0.19168718373E+02  0.31885896365E+02  0.00000000000E+00 0.  1.
         11    1    3    3    0    0 -0.33087061250E+02  0.11923383717E+02 -0.12600324823E+02  0.37358919782E+02  0.51100000000E-03 0. -1.
        -11    1    3    3    0    0 -0.32668757808E+01  0.29624218942E-01 -0.35697804773E+01  0.48390792388E+01  0.51100000000E-03 0.  1.
        -12    1    3    3    0    0  0.16386838011E+02  0.38768871898E+01 -0.29986130726E+01  0.17104104614E+02  0.00000000000E+00 0.  1.
</event>
<event>
 7    1  0.6830263E-012  0.5930194E+02  0.7816164E-02  0.1266605E+00
        -11   -1    0    0    0    0  0.00000000000E+00  0.00000000000E+00  0.45593999997E+02  0.45594000000E+02  0.51100000000E-03 0. -1.
         11   -1    0    0    0    0 -0.00000000000E+00 -0.00000000000E+00 -0.45593999997E+02  0.45594000000E+02  0.51100000000E-03 0.  1.
    9900012    2    1    2    0    0 -0.42872587911E+01  0.16541681512E+02  0.26920494671E+02  0.59301939589E+02  0.49999991906E+02 0.  0.
        -12    1    1    2    0    0  0.42872587911E+01 -0.16541681512E+02 -0.26920494671E+02  0.31886060411E+02  0.00000000000E+00 0.  1.
         11    1    3    3    0    0 -0.75165896609E+01  0.23197034642E+02  0.30681928024E+02  0.39191609356E+02  0.51100000000E-03 0. -1.
        -11    1    3    3    0    0 -0.64017313338E+01 -0.44605351039E+01  0.27572302147E+01  0.82753160786E+01  0.51100000000E-03 0.  1.
         12    1    3    3    0    0  0.96310622035E+01 -0.21948180266E+01 -0.65186635683E+01  0.11835014155E+02  0.00000000000E+00 0. -1.
</event>
<event>
 7    1  0.6830263E-012  0.5930201E+02  0.7816164E-02  0.1266605E+00
        -11   -1    0    0    0    0  0.00000000000E+00  0.00000000000E+00  0.45593999997E+02  0.45594000000E+02  0.51100000000E-03 0.  1.
         11   -1    0    0    0    0 -0.00000000000E+00 -0.00000000000E+00 -0.45593999997E+02  0.45594000000E+02  0.51100000000E-03 0. -1.
    9900012    2    1    2    0    0 -0.85498125969E+00 -0.45603668540E+01 -0.31546602320E+02  0.59302014728E+02  0.50000128940E+02 0.  0.
        -12    1    1    2    0    0  0.85498125969E+00  0.45603668540E+01  0.31546602320E+02  0.31885985272E+02  0.00000000000E+00 0.  1.
         11    1    3    3    0    0 -0.53562433059E+01  0.49767724814E+01 -0.35965310524E+01  0.81481680490E+01  0.51100000000E-03 0.  1.
        -11    1    3    3    0    0 -0.13382381037E+02 -0.47108807858E+01  0.35376530835E+01  0.14621747830E+02  0.51100000000E-03 0. -1.
        -12    1    3    3    0    0  0.17883643083E+02 -0.48262585496E+01 -0.31487724351E+02  0.36532098849E+02  0.00000000000E+00 0.  1.
</event>
<event>
 7    1  0.6830263E-012  0.5930190E+02  0.7816164E-02  0.1266605E+00
        -11   -1    0    0    0    0  0.00000000000E+00  0.00000000000E+00  0.45593999997E+02  0.45594000000E+02  0.51100000000E-03 0. -1.
         11   -1    0    0    0    0 -0.00000000000E+00 -0.00000000000E+00 -0.45593999997E+02  0.45594000000E+02  0.51100000000E-03 0.  1.
    9900012    2    1    2    0    0  0.30675984184E+02 -0.15092800165E+01 -0.85691161302E+01  0.59301895141E+02  0.49999910843E+02 0.  0.
        -12    1    1    2    0    0 -0.30675984184E+02  0.15092800165E+01  0.85691161302E+01  0.31886104859E+02  0.00000000000E+00 0.  1.
         11    1    3    3    0    0  0.71647121527E+01 -0.12446284920E+02  0.14453134670E+01  0.14433711921E+02  0.51100000000E-03 0. -1.
        -11    1    3    3    0    0  0.22452155919E+02 -0.66381424320E+01  0.20834934958E+01  0.23505428857E+02  0.51100000000E-03 0.  1.
        -12    1    3    3    0    0  0.10591161120E+01  0.17575147336E+02 -0.12097923093E+02  0.21362754363E+02  0.00000000000E+00 0.  1.
</event>
<event>
 7    1  0.6830263E-012  0.5930202E+02  0.7816164E-02  0.1266604E+00
        -11   -1    0    0    0    0  0.00000000000E+00  0.00000000000E+00  0.45593999997E+02  0.45594000000E+02  0.51100000000E-03 0. -1.
         11   -1    0    0    0    0 -0.00000000000E+00 -0.00000000000E+00 -0.45593999997E+02  0.45594000000E+02  0.51100000000E-03 0.  1.
    9900012    2    1    2    0    0  0.20361173148E+02 -0.20379979888E+02  0.13667277020E+02  0.59302024817E+02  0.50000147340E+02 0.  0.
        -12    1    1    2    0    0 -0.20361173148E+02  0.20379979888E+02 -0.13667277020E+02  0.31885975183E+02  0.00000000000E+00 0.  1.
         11    1    3    3    0    0  0.15776885735E+02 -0.10922406059E+02 -0.73593026335E+01  0.20551603663E+02  0.51100000000E-03 0. -1.
        -11    1    3    3    0    0  0.51597174135E+01 -0.66216773661E+01 -0.67818800795E+01  0.10791811368E+02  0.51100000000E-03 0.  1.
         12    1    3    3    0    0 -0.57542999955E+00 -0.28358964632E+01  0.27808459733E+02  0.27958609786E+02  0.00000000000E+00 0. -1.
</event>
<event>
 7    1  0.6830263E-012  0.5930194E+02  0.7816164E-02  0.1266605E+00
        -11   -1    0    0    0    0  0.00000000000E+00  0.00000000000E+00  0.45593999997E+02  0.45594000000E+02  0.51100000000E-03 0.  1.
         11   -1    0    0    0    0 -0.00000000000E+00 -0.00000000000E+00 -0.45593999997E+02  0.45594000000E+02  0.51100000000E-03 0. -1.
    9900012    2    1    2    0    0  0.21372523081E+02  0.12748783742E+02 -0.19935005956E+02  0.59301942040E+02  0.49999996376E+02 0.  0.
        -12    1    1    2    0    0 -0.21372523081E+02 -0.12748783742E+02  0.19935005956E+02  0.31886057960E+02  0.00000000000E+00 0.  1.
         11    1    3    3    0    0 -0.10505273530E+02 -0.31979832950E+01  0.11068962473E+01  0.11036896695E+02  0.51100000000E-03 0. -1.
        -11    1    3    3    0    0 -0.31885172472E+01 -0.14528356005E+00 -0.61110478276E+01  0.68943930379E+01  0.51100000000E-03 0.  1.
        -12    1    3    3    0    0  0.35066313857E+02  0.16092050597E+02 -0.14930854376E+02  0.41370652308E+02  0.00000000000E+00 0.  1.
</event>
<event>
 7    1  0.6830263E-012  0.5930194E+02  0.7816164E-02  0.1266605E+00
        -11   -1    0    0    0    0  0.00000000000E+00  0.00000000000E+00  0.45593999997E+02  0.45594000000E+02  0.51100000000E-03 0.  1.
         11   -1    0    0    0    0 -0.00000000000E+00 -0.00000000000E+00 -0.45593999997E+02  0.45594000000E+02  0.51100000000E-03 0. -1.
    9900012    2    1    2    0    0  0.18113369039E+02  0.48223069910E+01 -0.25794811792E+02  0.59301935677E+02  0.49999984769E+02 0.  0.
        -12    1    1    2    0    0 -0.18113369039E+02 -0.48223069910E+01  0.25794811792E+02  0.31886064323E+02  0.00000000000E+00 0.  1.
         11    1    3    3    0    0  0.53901263602E-01 -0.16641629229E+02 -0.38953863354E+01  0.17091540706E+02  0.51100000000E-03 0. -1.
        -11    1    3    3    0    0  0.35849535775E+01  0.29138299478E+01  0.47733198022E+01  0.66428065840E+01  0.51100000000E-03 0.  1.
         12    1    3    3    0    0  0.14474514198E+02  0.18550106273E+02 -0.26672745259E+02  0.35567588386E+02  0.00000000000E+00 0. -1.
</event>
<event>
 7    1  0.6830263E-012  0.5930203E+02  0.7816164E-02  0.1266604E+00
        -11   -1    0    0    0    0  0.00000000000E+00  0.00000000000E+00  0.45593999997E+02  0.45594000000E+02  0.51100000000E-03 0.  1.
         11   -1    0    0    0    0 -0.00000000000E+00 -0.00000000000E+00 -0.45593999997E+02  0.45594000000E+02  0.51100000000E-03 0. -1.
    9900012    2    1    2    0    0 -0.10677110177E+02  0.24734611833E+02 -0.17056176650E+02  0.59302033397E+02  0.50000162989E+02 0.  0.
        -12    1    1    2    0    0  0.10677110177E+02 -0.24734611833E+02  0.17056176650E+02  0.31885966603E+02  0.00000000000E+00 0.  1.
         11    1    3    3    0    0  0.43977005745E+01 -0.12206417800E+02  0.15546664537E+01  0.13067264208E+02  0.51100000000E-03 0. -1.
        -11    1    3    3    0    0  0.23963218702E+01  0.90741868165E+01 -0.32315178033E+01  0.99260229931E+01  0.51100000000E-03 0.  1.
        -12    1    3    3    0    0 -0.17471132622E+02  0.27866842817E+02 -0.15379325300E+02  0.36308746196E+02  0.00000000000E+00 0.  1.
</event>
<event>
 7    1  0.6830263E-012  0.5930201E+02  0.7816164E-02  0.1266605E+00
        -11   -1    0    0    0    0  0.00000000000E+00  0.00000000000E+00  0.45593999997E+02  0.45594000000E+02  0.51100000000E-03 0. -1.
         11   -1    0    0    0    0 -0.00000000000E+00 -0.00000000000E+00 -0.45593999997E+02  0.45594000000E+02  0.51100000000E-03 0.  1.
    9900012    2    1    2    0    0  0.13917309694E+02  0.21726273324E+02  0.18734833901E+02  0.59302008359E+02  0.50000117325E+02 0.  0.
        -12    1    1    2    0    0 -0.13917309694E+02 -0.21726273324E+02 -0.18734833901E+02  0.31885991641E+02  0.00000000000E+00 0.  1.
         11    1    3    3    0    0  0.19899206204E+02  0.10156984795E+02  0.10165356034E+02  0.24545411205E+02  0.51100000000E-03 0. -1.
        -11    1    3    3    0    0 -0.11125696651E+01  0.76927001480E+01 -0.11423577500E+02  0.13817147679E+02  0.51100000000E-03 0.  1.
        -12    1    3    3    0    0 -0.48693268451E+01  0.38765883802E+01  0.19993055367E+02  0.20939449475E+02  0.00000000000E+00 0.  1.
</event>
<event>
 7    1  0.6830263E-012  0.5930194E+02  0.7816164E-02  0.1266605E+00
        -11   -1    0    0    0    0  0.00000000000E+00  0.00000000000E+00  0.45593999997E+02  0.45594000000E+02  0.51100000000E-03 0. -1.
         11   -1    0    0    0    0 -0.00000000000E+00 -0.00000000000E+00 -0.45593999997E+02  0.45594000000E+02  0.51100000000E-03 0.  1.
    9900012    2    1    2    0    0  0.59681309347E+01 -0.11946538735E+02  0.28954832000E+02  0.59301942377E+02  0.49999996989E+02 0.  0.
        -12    1    1    2    0    0 -0.59681309347E+01  0.11946538735E+02 -0.28954832000E+02  0.31886057623E+02  0.00000000000E+00 0.  1.
         11    1    3    3    0    0  0.67998654531E+01  0.58080290464E+01  0.22571086800E+02  0.24278083351E+02  0.51100000000E-03 0. -1.
        -11    1    3    3    0    0 -0.19352197235E+01  0.30323783287E+01  0.12756493971E+02  0.13254000619E+02  0.51100000000E-03 0.  1.
        -12    1    3    3    0    0  0.11034852051E+01 -0.20786946110E+02 -0.63727487709E+01  0.21769858407E+02  0.00000000000E+00 0.  1.
</event>
<event>
 7    1  0.6830263E-012  0.5930196E+02  0.7816164E-02  0.1266605E+00
        -11   -1    0    0    0    0  0.00000000000E+00  0.00000000000E+00  0.45593999997E+02  0.45594000000E+02  0.51100000000E-03 0. -1.
         11   -1    0    0    0    0 -0.00000000000E+00 -0.00000000000E+00 -0.45593999997E+02  0.45594000000E+02  0.51100000000E-03 0.  1.
    9900012    2    1    2    0    0  0.50896742980E+01 -0.20135536193E+01  0.31412746980E+02  0.59301955161E+02  0.50000020305E+02 0.  0.
        -12    1    1    2    0    0 -0.50896742980E+01  0.20135536193E+01 -0.31412746980E+02  0.31886044839E+02  0.00000000000E+00 0.  1.
         11    1    3    3    0    0  0.21928814315E+02 -0.29088318049E+01  0.21734815169E+02  0.31011874991E+02  0.51100000000E-03 0. -1.
        -11    1    3    3    0    0 -0.41846548822E+00 -0.74305748546E+01 -0.10166777507E+00  0.74430432373E+01  0.51100000000E-03 0.  1.
        -12    1    3    3    0    0 -0.16420674529E+02  0.83258530403E+01  0.97795995861E+01  0.20847036934E+02  0.00000000000E+00 0.  1.
</event>
<event>
 7    1  0.6830263E-012  0.5930193E+02  0.7816164E-02  0.1266605E+00
        -11   -1    0    0    0    0  0.00000000000E+00  0.00000000000E+00  0.45593999997E+02  0.45594000000E+02  0.51100000000E-03 0. -1.
         11   -1    0    0    0    0 -0.00000000000E+00 -0.00000000000E+00 -0.45593999997E+02  0.45594000000E+02  0.51100000000E-03 0.  1.
    9900012    2    1    2    0    0  0.10427080196E+02 -0.70244098841E+01  0.29302819763E+02  0.59301928092E+02  0.49999970937E+02 0.  0.
        -12    1    1    2    0    0 -0.10427080196E+02  0.70244098841E+01 -0.29302819763E+02  0.31886071908E+02  0.00000000000E+00 0.  1.
         11    1    3    3    0    0  0.13666173156E+02  0.28285399921E+01  0.25121912291E+02  0.28738048031E+02  0.51100000000E-03 0. -1.
        -11    1    3    3    0    0  0.99993797721E+01 -0.12774853936E+02 -0.47405606904E+00  0.16229886578E+02  0.51100000000E-03 0.  1.
        -12    1    3    3    0    0 -0.13238472732E+02  0.29219040602E+01  0.46549635413E+01  0.14333993483E+02  0.00000000000E+00 0.  1.
</event>
<event>
 7    1  0.6830263E-012  0.5930194E+02  0.7816164E-02  0.1266605E+00
        -11   -1    0    0    0    0  0.00000000000E+00  0.00000000000E+00  0.45593999997E+02  0.45594000000E+02  0.51100000000E-03 0. -1.
         11   -1    0    0    0    0 -0.00000000000E+00 -0.00000000000E+00 -0.45593999997E+02  0.45594000000E+02  0.51100000000E-03 0.  1.
    9900012    2    1    2    0    0  0.22787208602E+02 -0.22194606498E+02  0.22052651571E+01  0.59301943049E+02  0.49999998215E+02 0.  0.
        -12    1    1    2    0    0 -0.22787208602E+02  0.22194606498E+02 -0.22052651571E+01  0.31886056951E+02  0.00000000000E+00 0.  1.
         11    1    3    3    0    0  0.12585117171E+02 -0.16538985647E+02  0.32155191462E+00  0.20785249970E+02  0.51100000000E-03 0. -1.
        -11    1    3    3    0    0  0.23978202578E+02 -0.52588641481E+01 -0.37515840842E+00  0.24550979514E+02  0.51100000000E-03 0.  1.
         12    1    3    3    0    0 -0.13776111147E+02 -0.39675670252E+00  0.22588716509E+01  0.13965713564E+02  0.00000000000E+00 0. -1.
</event>
<event>
 7    1  0.6830263E-012  0.5930219E+02  0.7816164E-02  0.1266604E+00
        -11   -1    0    0    0    0  0.00000000000E+00  0.00000000000E+00  0.45593999997E+02  0.45594000000E+02  0.51100000000E-03 0. -1.
         11   -1    0    0    0    0 -0.00000000000E+00 -0.00000000000E+00 -0.45593999997E+02  0.45594000000E+02  0.51100000000E-03 0.  1.
    9900012    2    1    2    0    0 -0.15590673326E+02 -0.17208560971E+02  0.21851803377E+02  0.59302188481E+02  0.50000445822E+02 0.  0.
        -12    1    1    2    0    0  0.15590673326E+02  0.17208560971E+02 -0.21851803377E+02  0.31885811519E+02  0.00000000000E+00 0.  1.
         11    1    3    3    0    0 -0.24116786450E+02 -0.85958047849E-01  0.11999140132E+02  0.26937077451E+02  0.51100000000E-03 0. -1.
        -11    1    3    3    0    0  0.55836041117E+01 -0.55301401151E+01 -0.77803520031E+01  0.11058614837E+02  0.51100000000E-03 0.  1.
        -12    1    3    3    0    0  0.29425090127E+01 -0.11592462808E+02  0.17633015248E+02  0.21306496192E+02  0.00000000000E+00 0.  1.
</event>
<event>
 7    1  0.6830263E-012  0.5930193E+02  0.7816164E-02  0.1266605E+00
        -11   -1    0    0    0    0  0.00000000000E+00  0.00000000000E+00  0.45593999997E+02  0.45594000000E+02  0.51100000000E-03 0.  1.
         11   -1    0    0    0    0 -0.00000000000E+00 -0.00000000000E+00 -0.45593999997E+02  0.45594000000E+02  0.51100000000E-03 0. -1.
    9900012    2    1    2    0    0 -0.50264957668E+01 -0.29138972772E+02 -0.11932141172E+02  0.59301931148E+02  0.49999976511E+02 0.  0.
        -12    1    1    2    0    0  0.50264957668E+01  0.29138972772E+02  0.11932141172E+02  0.31886068852E+02  0.00000000000E+00 0.  1.
         11    1    3    3    0    0 -0.13440166692E+02 -0.11626314059E+02  0.97872853294E+01  0.20287932711E+02  0.51100000000E-03 0. -1.
        -11    1    3    3    0    0 -0.51587781013E+01 -0.27031048818E+01  0.34822973154E+01  0.67857322637E+01  0.51100000000E-03 0.  1.
         12    1    3    3    0    0  0.13572449026E+02 -0.14809553831E+02 -0.25201723816E+02  0.32228266174E+02  0.00000000000E+00 0. -1.
</event>
<event>
 7    1  0.6830263E-012  0.5930195E+02  0.7816164E-02  0.1266605E+00
        -11   -1    0    0    0    0  0.00000000000E+00  0.00000000000E+00  0.45593999997E+02  0.45594000000E+02  0.51100000000E-03 0.  1.
         11   -1    0    0    0    0 -0.00000000000E+00 -0.00000000000E+00 -0.45593999997E+02  0.45594000000E+02  0.51100000000E-03 0. -1.
    9900012    2    1    2    0    0 -0.14664284187E+02 -0.15685612254E+02 -0.23572030188E+02  0.59301948666E+02  0.50000008458E+02 0.  0.
        -12    1    1    2    0    0  0.14664284187E+02  0.15685612254E+02  0.23572030188E+02  0.31886051334E+02  0.00000000000E+00 0.  1.
         11    1    3    3    0    0  0.10131186647E+02 -0.29005905090E+00 -0.53262823686E+01  0.11449644591E+02  0.51100000000E-03 0.  1.
        -11    1    3    3    0    0  0.61081683090E+00 -0.60404998060E+01 -0.19823574541E+02  0.20732458681E+02  0.51100000000E-03 0. -1.
         12    1    3    3    0    0 -0.25406287666E+02 -0.93550533969E+01  0.15778267214E+01  0.27119845394E+02  0.00000000000E+00 0. -1.
</event>
<event>
 7    1  0.6830263E-012  0.5930186E+02  0.7816164E-02  0.1266605E+00
        -11   -1    0    0    0    0  0.00000000000E+00  0.00000000000E+00  0.45593999997E+02  0.45594000000E+02  0.51100000000E-03 0.  1.
         11   -1    0    0    0    0 -0.00000000000E+00 -0.00000000000E+00 -0.45593999997E+02  0.45594000000E+02  0.51100000000E-03 0. -1.
    9900012    2    1    2    0    0 -0.29540142496E+02  0.18465716286E+01 -0.11861541919E+02  0.59301858462E+02  0.49999843949E+02 0.  0.
        -12    1    1    2    0    0  0.29540142496E+02 -0.18465716286E+01  0.11861541919E+02  0.31886141538E+02  0.00000000000E+00 0.  1.
         11    1    3    3    0    0 -0.11221196020E+02 -0.10970964856E+02  0.42035513849E+01  0.16246450520E+02  0.51100000000E-03 0. -1.
        -11    1    3    3    0    0 -0.62503540407E+00 -0.31475387373E+01  0.83450028538E+01  0.89407349950E+01  0.51100000000E-03 0.  1.
         12    1    3    3    0    0 -0.17693911072E+02  0.15965075222E+02 -0.24410096158E+02  0.34114672947E+02  0.00000000000E+00 0. -1.
</event>
<event>
 7    1  0.6830263E-012  0.5930198E+02  0.7816164E-02  0.1266605E+00
        -11   -1    0    0    0    0  0.00000000000E+00  0.00000000000E+00  0.45593999997E+02  0.45594000000E+02  0.51100000000E-03 0.  1.
         11   -1    0    0    0    0 -0.00000000000E+00 -0.00000000000E+00 -0.45593999997E+02  0.45594000000E+02  0.51100000000E-03 0. -1.
    9900012    2    1    2    0    0  0.22018311816E+02  0.19422798907E+02  0.12436528243E+02  0.59301977869E+02  0.50000061719E+02 0.  0.
        -12    1    1    2    0    0 -0.22018311816E+02 -0.19422798907E+02 -0.12436528243E+02  0.31886022131E+02  0.00000000000E+00 0.  1.
         11    1    3    3    0    0 -0.86634014712E+01  0.17101594929E+02  0.11329252908E+02  0.22268162157E+02  0.51100000000E-03 0. -1.
        -11    1    3    3    0    0 -0.30204173383E+01 -0.22720717011E+00 -0.94577577255E+00  0.31731744467E+01  0.51100000000E-03 0.  1.
        -12    1    3    3    0    0  0.33702130625E+02  0.25484111479E+01  0.20530511074E+01  0.33860641265E+02  0.00000000000E+00 0.  1.
</event>
<event>
 7    1  0.6830263E-012  0.5930198E+02  0.7816164E-02  0.1266605E+00
        -11   -1    0    0    0    0  0.00000000000E+00  0.00000000000E+00  0.45593999997E+02  0.45594000000E+02  0.51100000000E-03 0.  1.
         11   -1    0    0    0    0 -0.00000000000E+00 -0.00000000000E+00 -0.45593999997E+02  0.45594000000E+02  0.51100000000E-03 0. -1.
    9900012    2    1    2    0    0  0.15109734870E+02  0.23095668495E+02 -0.15968860406E+02  0.59301976514E+02  0.50000059248E+02 0.  0.
        -12    1    1    2    0    0 -0.15109734870E+02 -0.23095668495E+02  0.15968860406E+02  0.31886023486E+02  0.00000000000E+00 0.  1.
         11    1    3    3    0    0  0.16616662474E+02 -0.39952977432E+01 -0.13407213406E+02  0.21721630865E+02  0.51100000000E-03 0. -1.
        -11    1    3    3    0    0  0.11545008466E+02  0.12579932570E+02 -0.52854496983E+01  0.17873944800E+02  0.51100000000E-03 0.  1.
         12    1    3    3    0    0 -0.13051936070E+02  0.14511033668E+02  0.27238026992E+01  0.19706400850E+02  0.00000000000E+00 0. -1.
</event>
<event>
 7    1  0.6830263E-012  0.5930194E+02  0.7816164E-02  0.1266605E+00
        -11   -1    0    0    0    0  0.00000000000E+00  0.00000000000E+00  0.45593999997E+02  0.45594000000E+02  0.51100000000E-03 0. -1.
         11   -1    0    0    0    0 -0.00000000000E+00 -0.00000000000E+00 -0.45593999997E+02  0.45594000000E+02  0.51100000000E-03 0.  1.
    9900012    2    1    2    0    0 -0.97788142376E+01  0.89249573049E+01  0.29007601578E+02  0.59301936899E+02  0.49999986999E+02 0.  0.
        -12    1    1    2    0    0  0.97788142376E+01 -0.89249573049E+01 -0.29007601578E+02  0.31886063101E+02  0.00000000000E+00 0.  1.
         11    1    3    3    0    0 -0.16437959940E+02  0.10578884301E+01  0.38460438026E+00  0.16476455192E+02  0.51100000000E-03 0. -1.
        -11    1    3    3    0    0 -0.10117438981E+02  0.96577238370E+01  0.77644564895E+01  0.15997530624E+02  0.51100000000E-03 0.  1.
         12    1    3    3    0    0  0.16776584683E+02 -0.17906549622E+01  0.20858540708E+02  0.26827951082E+02  0.00000000000E+00 0. -1.
</event>
<event>
 7    1  0.8537651E-012  0.5930204E+02  0.7816164E-02  0.1266604E+00
        -11   -1    0    0    0    0  0.00000000000E+00  0.00000000000E+00  0.45593999997E+02  0.45594000000E+02  0.51100000000E-03 0. -1.
         11   -1    0    0    0    0 -0.00000000000E+00 -0.00000000000E+00 -0.45593999997E+02  0.45594000000E+02  0.51100000000E-03 0.  1.
    9900012    2    1    2    0    0  0.32358386116E+01  0.31710048903E+02  0.84662071349E+00  0.59302037264E+02  0.50000170040E+02 0.  0.
        -12    1    1    2    0    0 -0.32358386116E+01 -0.31710048903E+02 -0.84662071349E+00  0.31885962736E+02  0.00000000000E+00 0.  1.
         11    1    3    3    0    0  0.61400674483E+01  0.18109036631E+02  0.14306555558E+02  0.23881272331E+02  0.51100000000E-03 0. -1.
        -11    1    3    3    0    0 -0.74073063256E+01  0.49982616117E+00  0.73332543458E+01  0.10435259113E+02  0.51100000000E-03 0.  1.
         12    1    3    3    0    0  0.45030774889E+01  0.13101186111E+02 -0.20793189190E+02  0.24985505820E+02  0.00000000000E+00 0. -1.
</event>
<event>
 7    1  0.6830263E-012  0.5930195E+02  0.7816164E-02  0.1266605E+00
        -11   -1    0    0    0    0  0.00000000000E+00  0.00000000000E+00  0.45593999997E+02  0.45594000000E+02  0.51100000000E-03 0.  1.
         11   -1    0    0    0    0 -0.00000000000E+00 -0.00000000000E+00 -0.45593999997E+02  0.45594000000E+02  0.51100000000E-03 0. -1.
    9900012    2    1    2    0    0  0.47532923075E+01 -0.76420128181E-01 -0.31529673401E+02  0.59301953952E+02  0.50000018099E+02 0.  0.
        -12    1    1    2    0    0 -0.47532923075E+01  0.76420128181E-01  0.31529673401E+02  0.31886046048E+02  0.00000000000E+00 0.  1.
         11    1    3    3    0    0  0.40584277283E+00 -0.20794589651E+02 -0.27868135491E+02  0.34773734960E+02  0.51100000000E-03 0. -1.
        -11    1    3    3    0    0 -0.40829210140E+01  0.55855755048E+01 -0.13974777252E+01  0.70584588956E+01  0.51100000000E-03 0.  1.
        -12    1    3    3    0    0  0.84303705487E+01  0.15132594018E+02 -0.22640601853E+01  0.17469760096E+02  0.00000000000E+00 0.  1.
</event>
<event>
 7    1  0.6830263E-012  0.5930195E+02  0.7816164E-02  0.1266605E+00
        -11   -1    0    0    0    0  0.00000000000E+00  0.00000000000E+00  0.45593999997E+02  0.45594000000E+02  0.51100000000E-03 0. -1.
         11   -1    0    0    0    0 -0.00000000000E+00 -0.00000000000E+00 -0.45593999997E+02  0.45594000000E+02  0.51100000000E-03 0.  1.
    9900012    2    1    2    0    0  0.19039851560E+02 -0.24854447665E+02 -0.60382501704E+01  0.59301953188E+02  0.50000016706E+02 0.  0.
        -12    1    1    2    0    0 -0.19039851560E+02  0.24854447665E+02  0.60382501704E+01  0.31886046812E+02  0.00000000000E+00 0.  1.
         11    1    3    3    0    0  0.11472516423E+02 -0.18634981768E+02 -0.49005805888E+01  0.22425362181E+02  0.51100000000E-03 0. -1.
        -11    1    3    3    0    0 -0.10439280203E+02 -0.23773394449E+01 -0.11529840658E+02  0.15734279133E+02  0.51100000000E-03 0.  1.
        -12    1    3    3    0    0  0.18006615340E+02 -0.38421264521E+01  0.10392171077E+02  0.21142311873E+02  0.00000000000E+00 0.  1.
</event>
<event>
 7    1  0.6830263E-012  0.5930193E+02  0.7816164E-02  0.1266605E+00
        -11   -1    0    0    0    0  0.00000000000E+00  0.00000000000E+00  0.45593999997E+02  0.45594000000E+02  0.51100000000E-03 0. -1.
         11   -1    0    0    0    0 -0.00000000000E+00 -0.00000000000E+00 -0.45593999997E+02  0.45594000000E+02  0.51100000000E-03 0.  1.
    9900012    2    1    2    0    0  0.13370846522E+02  0.96010967865E+01  0.27308617731E+02  0.59301934100E+02  0.49999981894E+02 0.  0.
        -12    1    1    2    0    0 -0.13370846522E+02 -0.96010967865E+01 -0.27308617731E+02  0.31886065900E+02  0.00000000000E+00 0.  1.
         11    1    3    3    0    0  0.89037362324E+01  0.82677789539E+01  0.18511352978E+02  0.22142783860E+02  0.51100000000E-03 0. -1.
        -11    1    3    3    0    0  0.15177762889E+02 -0.24810828676E+01  0.17161561385E+02  0.23044293175E+02  0.51100000000E-03 0.  1.
        -12    1    3    3    0    0 -0.10710652600E+02  0.38144007002E+01 -0.83642966318E+01  0.14114857065E+02  0.00000000000E+00 0.  1.
</event>
<event>
 7    1  0.6830263E-012  0.5930212E+02  0.7816164E-02  0.1266604E+00
        -11   -1    0    0    0    0  0.00000000000E+00  0.00000000000E+00  0.45593999997E+02  0.45594000000E+02  0.51100000000E-03 0. -1.
         11   -1    0    0    0    0 -0.00000000000E+00 -0.00000000000E+00 -0.45593999997E+02  0.45594000000E+02  0.51100000000E-03 0.  1.
    9900012    2    1    2    0    0  0.13546416804E+02 -0.27369053170E+02  0.91727248975E+01  0.59302119713E+02  0.50000320406E+02 0.  0.
        -12    1    1    2    0    0 -0.13546416804E+02  0.27369053170E+02 -0.91727248975E+01  0.31885880287E+02  0.00000000000E+00 0.  1.
         11    1    3    3    0    0  0.66880971796E+01 -0.12137645130E+02  0.49730085560E+01  0.14723582701E+02  0.51100000000E-03 0. -1.
        -11    1    3    3    0    0 -0.12118849980E+02 -0.20748078137E+02  0.59028344207E+01  0.24742528684E+02  0.51100000000E-03 0.  1.
         12    1    3    3    0    0  0.18977169605E+02  0.55166700980E+01 -0.17031180792E+01  0.19836008328E+02  0.00000000000E+00 0. -1.
</event>
<event>
 7    1  0.6830263E-012  0.5930195E+02  0.7816164E-02  0.1266605E+00
        -11   -1    0    0    0    0  0.00000000000E+00  0.00000000000E+00  0.45593999997E+02  0.45594000000E+02  0.51100000000E-03 0.  1.
         11   -1    0    0    0    0 -0.00000000000E+00 -0.00000000000E+00 -0.45593999997E+02  0.45594000000E+02  0.51100000000E-03 0. -1.
    9900012    2    1    2    0    0 -0.19846247391E+02  0.24625518095E+02  0.40534191044E+01  0.59301954724E+02  0.50000019507E+02 0.  0.
        -12    1    1    2    0    0  0.19846247391E+02 -0.24625518095E+02 -0.40534191044E+01  0.31886045276E+02  0.00000000000E+00 0.  1.
         11    1    3    3    0    0 -0.10943471336E+02  0.55718174409E+01  0.59396085241E+01  0.13641248629E+02  0.51100000000E-03 0. -1.
        -11    1    3    3    0    0 -0.31776180464E+01  0.54482383114E+01  0.19037061543E+02  0.20054681987E+02  0.51100000000E-03 0.  1.
         12    1    3    3    0    0 -0.57251580082E+01  0.13605462342E+02 -0.20923250963E+02  0.25606024108E+02  0.00000000000E+00 0. -1.
</event>
<event>
 7    1  0.6830263E-012  0.5930192E+02  0.7816164E-02  0.1266605E+00
        -11   -1    0    0    0    0  0.00000000000E+00  0.00000000000E+00  0.45593999997E+02  0.45594000000E+02  0.51100000000E-03 0. -1.
         11   -1    0    0    0    0 -0.00000000000E+00 -0.00000000000E+00 -0.45593999997E+02  0.45594000000E+02  0.51100000000E-03 0.  1.
    9900012    2    1    2    0    0 -0.29725146579E+02 -0.72420929525E+01  0.89827362995E+01  0.59301924655E+02  0.49999964669E+02 0.  0.
        -12    1    1    2    0    0  0.29725146579E+02  0.72420929525E+01 -0.89827362995E+01  0.31886075345E+02  0.00000000000E+00 0.  1.
         11    1    3    3    0    0 -0.72447979817E+01 -0.10167058643E+02  0.49049243064E+01  0.13413219672E+02  0.51100000000E-03 0. -1.
        -11    1    3    3    0    0 -0.18014873320E+02 -0.16008995322E+02  0.91600745353E+01  0.25782369125E+02  0.51100000000E-03 0.  1.
         12    1    3    3    0    0 -0.44654752773E+01  0.18933961013E+02 -0.50822625422E+01  0.20106335858E+02  0.00000000000E+00 0. -1.
</event>
<event>
 7    1  0.6830263E-012  0.5930194E+02  0.7816164E-02  0.1266605E+00
        -11   -1    0    0    0    0  0.00000000000E+00  0.00000000000E+00  0.45593999997E+02  0.45594000000E+02  0.51100000000E-03 0. -1.
         11   -1    0    0    0    0 -0.00000000000E+00 -0.00000000000E+00 -0.45593999997E+02  0.45594000000E+02  0.51100000000E-03 0.  1.
    9900012    2    1    2    0    0 -0.10096048317E+02 -0.27993185152E+02  0.11453053887E+02  0.59301936431E+02  0.49999986146E+02 0.  0.
        -12    1    1    2    0    0  0.10096048317E+02  0.27993185152E+02 -0.11453053887E+02  0.31886063569E+02  0.00000000000E+00 0.  1.
         11    1    3    3    0    0 -0.80190577852E+00 -0.18840242300E+02  0.11489874841E+02  0.22082006406E+02  0.51100000000E-03 0. -1.
        -11    1    3    3    0    0  0.43844989957E+00 -0.11753983864E+02 -0.15074042018E+02  0.19120018776E+02  0.51100000000E-03 0.  1.
         12    1    3    3    0    0 -0.97325924377E+01  0.26010410125E+01  0.15037221063E+02  0.18099911249E+02  0.00000000000E+00 0. -1.
</event>
<event>
 7    1  0.6830263E-012  0.5930191E+02  0.7816164E-02  0.1266605E+00
        -11   -1    0    0    0    0  0.00000000000E+00  0.00000000000E+00  0.45593999997E+02  0.45594000000E+02  0.51100000000E-03 0.  1.
         11   -1    0    0    0    0 -0.00000000000E+00 -0.00000000000E+00 -0.45593999997E+02  0.45594000000E+02  0.51100000000E-03 0. -1.
    9900012    2    1    2    0    0 -0.24687835789E+02  0.12564681225E+02 -0.15791216334E+02  0.59301906424E+02  0.49999931420E+02 0.  0.
        -12    1    1    2    0    0  0.24687835789E+02 -0.12564681225E+02  0.15791216334E+02  0.31886093576E+02  0.00000000000E+00 0.  1.
         11    1    3    3    0    0 -0.14287540010E+01  0.19503951225E+02  0.49770457459E+00  0.19562544862E+02  0.51100000000E-03 0.  1.
        -11    1    3    3    0    0 -0.93529259339E+01  0.10422048380E+02 -0.63446483964E+01  0.15373707409E+02  0.51100000000E-03 0. -1.
        -12    1    3    3    0    0 -0.13906155854E+02 -0.17361318380E+02 -0.99442725123E+01  0.24365654153E+02  0.00000000000E+00 0.  1.
</event>
<event>
 7    1  0.7734296E-012  0.5930194E+02  0.7816164E-02  0.1266605E+00
        -11   -1    0    0    0    0  0.00000000000E+00  0.00000000000E+00  0.45593999997E+02  0.45594000000E+02  0.51100000000E-03 0. -1.
         11   -1    0    0    0    0 -0.00000000000E+00 -0.00000000000E+00 -0.45593999997E+02  0.45594000000E+02  0.51100000000E-03 0.  1.
    9900012    2    1    2    0    0 -0.32913665122E+01 -0.21639714553E+02  0.23186424173E+02  0.59301943401E+02  0.49999998858E+02 0.  0.
        -12    1    1    2    0    0  0.32913665122E+01  0.21639714553E+02 -0.23186424173E+02  0.31886056599E+02  0.00000000000E+00 0.  1.
         11    1    3    3    0    0 -0.88106884720E+01 -0.43374282880E+00  0.15907843820E+02  0.18189993388E+02  0.51100000000E-03 0. -1.
        -11    1    3    3    0    0  0.90318851454E+00 -0.18116120361E+02 -0.11534829159E+02  0.21495623983E+02  0.51100000000E-03 0.  1.
         12    1    3    3    0    0  0.46161334453E+01 -0.30898513632E+01  0.18813409513E+02  0.19616326031E+02  0.00000000000E+00 0. -1.
</event>
<event>
 7    1  0.6830263E-012  0.5930196E+02  0.7816164E-02  0.1266605E+00
        -11   -1    0    0    0    0  0.00000000000E+00  0.00000000000E+00  0.45593999997E+02  0.45594000000E+02  0.51100000000E-03 0.  1.
         11   -1    0    0    0    0 -0.00000000000E+00 -0.00000000000E+00 -0.45593999997E+02  0.45594000000E+02  0.51100000000E-03 0. -1.
    9900012    2    1    2    0    0  0.88576564770E+01  0.30569132637E+02 -0.19466168441E+01  0.59301964411E+02  0.50000037174E+02 0.  0.
        -12    1    1    2    0    0 -0.88576564770E+01 -0.30569132637E+02  0.19466168441E+01  0.31886035589E+02  0.00000000000E+00 0.  1.
         11    1    3    3    0    0  0.82221524067E+01  0.28712938292E+01  0.41214738510E+01  0.96350747490E+01  0.51100000000E-03 0. -1.
        -11    1    3    3    0    0 -0.77760538798E+01  0.70671138390E+00  0.13282343477E+02  0.15407371723E+02  0.51100000000E-03 0.  1.
         12    1    3    3    0    0  0.84115579501E+01  0.26991127424E+02 -0.19350434172E+02  0.34259517939E+02  0.00000000000E+00 0. -1.
</event>
<event>
 7    1  0.6830263E-012  0.5930195E+02  0.7816164E-02  0.1266605E+00
        -11   -1    0    0    0    0  0.00000000000E+00  0.00000000000E+00  0.45593999997E+02  0.45594000000E+02  0.51100000000E-03 0. -1.
         11   -1    0    0    0    0 -0.00000000000E+00 -0.00000000000E+00 -0.45593999997E+02  0.45594000000E+02  0.51100000000E-03 0.  1.
    9900012    2    1    2    0    0 -0.19404469018E+02 -0.50127551036E+01  0.24800386450E+02  0.59301948196E+02  0.50000007602E+02 0.  0.
        -12    1    1    2    0    0  0.19404469018E+02  0.50127551036E+01 -0.24800386450E+02  0.31886051804E+02  0.00000000000E+00 0.  1.
         11    1    3    3    0    0 -0.56218377151E+01 -0.45350442260E+01 -0.63828568500E+01  0.96391154810E+01  0.51100000000E-03 0. -1.
        -11    1    3    3    0    0 -0.47976455069E+01 -0.70313593148E+01 -0.62836496750E+01  0.10580249039E+02  0.51100000000E-03 0.  1.
         12    1    3    3    0    0 -0.89849857958E+01  0.65536484372E+01  0.37466892975E+02  0.39082583676E+02  0.00000000000E+00 0. -1.
</event>
<event>
 7    1  0.6830263E-012  0.5930196E+02  0.7816164E-02  0.1266605E+00
        -11   -1    0    0    0    0  0.00000000000E+00  0.00000000000E+00  0.45593999997E+02  0.45594000000E+02  0.51100000000E-03 0. -1.
         11   -1    0    0    0    0 -0.00000000000E+00 -0.00000000000E+00 -0.45593999997E+02  0.45594000000E+02  0.51100000000E-03 0.  1.
    9900012    2    1    2    0    0 -0.19238382820E+02  0.25418676894E+02 -0.70343345554E+00  0.59301963445E+02  0.50000035413E+02 0.  0.
        -12    1    1    2    0    0  0.19238382820E+02 -0.25418676894E+02  0.70343345554E+00  0.31886036555E+02  0.00000000000E+00 0.  1.
         11    1    3    3    0    0 -0.17619318135E+01  0.11684210356E+01  0.93761309170E+01  0.96115265523E+01  0.51100000000E-03 0. -1.
        -11    1    3    3    0    0 -0.27786771972E+02  0.16461479235E+02  0.15110434678E+01  0.32332155014E+02  0.51100000000E-03 0.  1.
         12    1    3    3    0    0  0.10310320965E+02  0.77887766227E+01 -0.11590607840E+02  0.17358281879E+02  0.00000000000E+00 0. -1.
</event>
<event>
 7    1  0.6830263E-012  0.5930189E+02  0.7816164E-02  0.1266605E+00
        -11   -1    0    0    0    0  0.00000000000E+00  0.00000000000E+00  0.45593999997E+02  0.45594000000E+02  0.51100000000E-03 0. -1.
         11   -1    0    0    0    0 -0.00000000000E+00 -0.00000000000E+00 -0.45593999997E+02  0.45594000000E+02  0.51100000000E-03 0.  1.
    9900012    2    1    2    0    0 -0.11217065904E+01 -0.47166052999E+01  0.31515380103E+02  0.59301893712E+02  0.49999908235E+02 0.  0.
        -12    1    1    2    0    0  0.11217065904E+01  0.47166052999E+01 -0.31515380103E+02  0.31886106288E+02  0.00000000000E+00 0.  1.
         11    1    3    3    0    0  0.90596923824E+01  0.12424306249E+01  0.31159420169E+01  0.96607843799E+01  0.51100000000E-03 0. -1.
        -11    1    3    3    0    0 -0.39377740329E+01 -0.59630223619E+01 -0.91310498409E+01  0.11594816578E+02  0.51100000000E-03 0.  1.
         12    1    3    3    0    0 -0.62436249398E+01  0.39864371589E-02  0.37530487927E+02  0.38046292753E+02  0.00000000000E+00 0. -1.
</event>
<event>
 7    1  0.6830263E-012  0.5930195E+02  0.7816164E-02  0.1266605E+00
        -11   -1    0    0    0    0  0.00000000000E+00  0.00000000000E+00  0.45593999997E+02  0.45594000000E+02  0.51100000000E-03 0. -1.
         11   -1    0    0    0    0 -0.00000000000E+00 -0.00000000000E+00 -0.45593999997E+02  0.45594000000E+02  0.51100000000E-03 0.  1.
    9900012    2    1    2    0    0  0.16690533499E+02 -0.23248787845E+02 -0.14058461268E+02  0.59301946968E+02  0.50000005362E+02 0.  0.
        -12    1    1    2    0    0 -0.16690533499E+02  0.23248787845E+02  0.14058461268E+02  0.31886053032E+02  0.00000000000E+00 0.  1.
         11    1    3    3    0    0  0.15127516979E+02  0.65468094363E+01 -0.35074433187E+01  0.16852437291E+02  0.51100000000E-03 0. -1.
        -11    1    3    3    0    0  0.46163200265E+01 -0.25306149419E+02  0.47990142720E+01  0.26167578169E+02  0.51100000000E-03 0.  1.
        -12    1    3    3    0    0 -0.30533035068E+01 -0.44894478622E+01 -0.15350032222E+02  0.16281931508E+02  0.00000000000E+00 0.  1.
</event>
<event>
 7    1  0.6830263E-012  0.5930192E+02  0.7816164E-02  0.1266605E+00
        -11   -1    0    0    0    0  0.00000000000E+00  0.00000000000E+00  0.45593999997E+02  0.45594000000E+02  0.51100000000E-03 0.  1.
         11   -1    0    0    0    0 -0.00000000000E+00 -0.00000000000E+00 -0.45593999997E+02  0.45594000000E+02  0.51100000000E-03 0. -1.
    9900012    2    1    2    0    0 -0.20853130064E+02  0.21211798128E+02 -0.11486023684E+02  0.59301919129E+02  0.49999954590E+02 0.  0.
        -12    1    1    2    0    0  0.20853130064E+02 -0.21211798128E+02  0.11486023684E+02  0.31886080871E+02  0.00000000000E+00 0.  1.
         11    1    3    3    0    0 -0.25050869736E+02 -0.50850235019E+01 -0.85031845272E+00  0.25575898426E+02  0.51100000000E-03 0. -1.
        -11    1    3    3    0    0 -0.78692711223E+00  0.21738699705E+01  0.43264165463E+01  0.49053894159E+01  0.51100000000E-03 0.  1.
        -12    1    3    3    0    0  0.49846667845E+01  0.24122951659E+02 -0.14962121778E+02  0.28820631287E+02  0.00000000000E+00 0.  1.
</event>
<event>
 7    1  0.6830263E-012  0.5930197E+02  0.7816164E-02  0.1266605E+00
        -11   -1    0    0    0    0  0.00000000000E+00  0.00000000000E+00  0.45593999997E+02  0.45594000000E+02  0.51100000000E-03 0.  1.
         11   -1    0    0    0    0 -0.00000000000E+00 -0.00000000000E+00 -0.45593999997E+02  0.45594000000E+02  0.51100000000E-03 0. -1.
    9900012    2    1    2    0    0  0.49992807305E+01  0.89711238757E+01 -0.30186832953E+02  0.59301972415E+02  0.50000051771E+02 0.  0.
        -12    1    1    2    0    0 -0.49992807305E+01 -0.89711238757E+01  0.30186832953E+02  0.31886027585E+02  0.00000000000E+00 0.  1.
         11    1    3    3    0    0 -0.40128951950E+01 -0.55145834366E+00 -0.28344280876E+01  0.49438261494E+01  0.51100000000E-03 0. -1.
        -11    1    3    3    0    0 -0.16907092384E+02  0.25566456057E+01 -0.16192790192E+01  0.17175804913E+02  0.51100000000E-03 0.  1.
         12    1    3    3    0    0  0.25919268309E+02  0.69659366136E+01 -0.25733125846E+02  0.37182341352E+02  0.00000000000E+00 0. -1.
</event>
<event>
 7    1  0.6830263E-012  0.5930192E+02  0.7816164E-02  0.1266605E+00
        -11   -1    0    0    0    0  0.00000000000E+00  0.00000000000E+00  0.45593999997E+02  0.45594000000E+02  0.51100000000E-03 0.  1.
         11   -1    0    0    0    0 -0.00000000000E+00 -0.00000000000E+00 -0.45593999997E+02  0.45594000000E+02  0.51100000000E-03 0. -1.
    9900012    2    1    2    0    0  0.26643315033E+02  0.16551512302E+02 -0.57361247540E+01  0.59301922747E+02  0.49999961189E+02 0.  0.
        -12    1    1    2    0    0 -0.26643315033E+02 -0.16551512302E+02  0.57361247540E+01  0.31886077253E+02  0.00000000000E+00 0.  1.
         11    1    3    3    0    0 -0.30474653208E+01 -0.84978236973E-01 -0.77746879246E+01  0.83510501596E+01  0.51100000000E-03 0. -1.
        -11    1    3    3    0    0  0.43008427319E+01  0.18291980234E+02  0.13406408581E+02  0.23083014976E+02  0.51100000000E-03 0.  1.
         12    1    3    3    0    0  0.25389937622E+02 -0.16554896953E+01 -0.11367845410E+02  0.27867857611E+02  0.00000000000E+00 0. -1.
</event>
<event>
 7    1  0.6830263E-012  0.5930187E+02  0.7816164E-02  0.1266605E+00
        -11   -1    0    0    0    0  0.00000000000E+00  0.00000000000E+00  0.45593999997E+02  0.45594000000E+02  0.51100000000E-03 0. -1.
         11   -1    0    0    0    0 -0.00000000000E+00 -0.00000000000E+00 -0.45593999997E+02  0.45594000000E+02  0.51100000000E-03 0.  1.
    9900012    2    1    2    0    0 -0.30696642579E+02  0.60401963527E+01  0.61609511281E+01  0.59301872038E+02  0.49999868709E+02 0.  0.
        -12    1    1    2    0    0  0.30696642579E+02 -0.60401963527E+01 -0.61609511281E+01  0.31886127962E+02  0.00000000000E+00 0.  1.
         11    1    3    3    0    0  0.30652689504E+01  0.20640268736E+01  0.22798457027E+00  0.37024394524E+01  0.51100000000E-03 0. -1.
        -11    1    3    3    0    0  0.77930773882E+01  0.96291762530E+01  0.57601361684E+01  0.13661341787E+02  0.51100000000E-03 0.  1.
         12    1    3    3    0    0 -0.41554988917E+02 -0.56530067739E+01  0.17283038942E+00  0.41938090799E+02  0.00000000000E+00 0. -1.
</event>
<event>
 7    1  0.6830263E-012  0.5930188E+02  0.7816164E-02  0.1266605E+00
        -11   -1    0    0    0    0  0.00000000000E+00  0.00000000000E+00  0.45593999997E+02  0.45594000000E+02  0.51100000000E-03 0. -1.
         11   -1    0    0    0    0 -0.00000000000E+00 -0.00000000000E+00 -0.45593999997E+02  0.45594000000E+02  0.51100000000E-03 0.  1.
    9900012    2    1    2    0    0  0.47946484024E+01 -0.31420407677E+02  0.25483861934E+01  0.59301875367E+02  0.49999874780E+02 0.  0.
        -12    1    1    2    0    0 -0.47946484024E+01  0.31420407677E+02 -0.25483861934E+01  0.31886124633E+02  0.00000000000E+00 0.  1.
         11    1    3    3    0    0  0.90159801346E+01 -0.11344808454E+02  0.57102951336E+01  0.15575623500E+02  0.51100000000E-03 0. -1.
        -11    1    3    3    0    0  0.14521707822E+01 -0.30092582554E+02 -0.81034765876E+01  0.31198375885E+02  0.51100000000E-03 0.  1.
         12    1    3    3    0    0 -0.56735025143E+01  0.10016983331E+02  0.49415676474E+01  0.12527875983E+02  0.00000000000E+00 0. -1.
</event>
<event>
 7    1  0.6830263E-012  0.5930186E+02  0.7816164E-02  0.1266605E+00
        -11   -1    0    0    0    0  0.00000000000E+00  0.00000000000E+00  0.45593999997E+02  0.45594000000E+02  0.51100000000E-03 0.  1.
         11   -1    0    0    0    0 -0.00000000000E+00 -0.00000000000E+00 -0.45593999997E+02  0.45594000000E+02  0.51100000000E-03 0. -1.
    9900012    2    1    2    0    0  0.24949061174E+02  0.16597856290E+02 -0.10898700539E+02  0.59301856296E+02  0.49999839998E+02 0.  0.
        -12    1    1    2    0    0 -0.24949061174E+02 -0.16597856290E+02  0.10898700539E+02  0.31886143704E+02  0.00000000000E+00 0.  1.
         11    1    3    3    0    0 -0.72525926633E+01 -0.83392360426E+01  0.90859120747E+00  0.11089116122E+02  0.51100000000E-03 0.  1.
        -11    1    3    3    0    0  0.64306437226E+01  0.39059331301E+01 -0.12897264487E+02  0.14931474268E+02  0.51100000000E-03 0. -1.
        -12    1    3    3    0    0  0.25771010115E+02  0.21031159203E+02  0.10899727410E+01  0.33281265906E+02  0.00000000000E+00 0.  1.
</event>
<event>
 7    1  0.6830263E-012  0.5930198E+02  0.7816164E-02  0.1266605E+00
        -11   -1    0    0    0    0  0.00000000000E+00  0.00000000000E+00  0.45593999997E+02  0.45594000000E+02  0.51100000000E-03 0.  1.
         11   -1    0    0    0    0 -0.00000000000E+00 -0.00000000000E+00 -0.45593999997E+02  0.45594000000E+02  0.51100000000E-03 0. -1.
    9900012    2    1    2    0    0 -0.27545977574E+02 -0.12288852392E+02 -0.10340280755E+02  0.59301981438E+02  0.50000068228E+02 0.  0.
        -12    1    1    2    0    0  0.27545977574E+02  0.12288852392E+02  0.10340280755E+02  0.31886018562E+02  0.00000000000E+00 0.  1.
         11    1    3    3    0    0 -0.20306662296E+02 -0.29071873390E+01 -0.61513036012E+01  0.21416134294E+02  0.51100000000E-03 0. -1.
        -11    1    3    3    0    0 -0.17381257118E+02  0.19276483901E+01  0.71875909333E+01  0.18907284073E+02  0.51100000000E-03 0.  1.
         12    1    3    3    0    0  0.10141941840E+02 -0.11309313443E+02 -0.11376568087E+02  0.18978563072E+02  0.00000000000E+00 0. -1.
</event>
<event>
 7    1  0.6830263E-012  0.5930198E+02  0.7816164E-02  0.1266605E+00
        -11   -1    0    0    0    0  0.00000000000E+00  0.00000000000E+00  0.45593999997E+02  0.45594000000E+02  0.51100000000E-03 0.  1.
         11   -1    0    0    0    0 -0.00000000000E+00 -0.00000000000E+00 -0.45593999997E+02  0.45594000000E+02  0.51100000000E-03 0. -1.
    9900012    2    1    2    0    0  0.93763620099E+00  0.26541014268E+02 -0.17646919004E+02  0.59301978763E+02  0.50000063348E+02 0.  0.
        -12    1    1    2    0    0 -0.93763620099E+00 -0.26541014268E+02  0.17646919004E+02  0.31886021237E+02  0.00000000000E+00 0.  1.
         11    1    3    3    0    0  0.16304338451E+02  0.11566088240E+02 -0.13357313165E+02  0.24042122717E+02  0.51100000000E-03 0. -1.
        -11    1    3    3    0    0 -0.76831708583E+00  0.96252015117E+01 -0.13942267327E+02  0.16959411362E+02  0.51100000000E-03 0.  1.
        -12    1    3    3    0    0 -0.14598385164E+02  0.53497245163E+01  0.96526614877E+01  0.18300444683E+02  0.00000000000E+00 0.  1.
</event>
<event>
 7    1  0.6830263E-012  0.5930187E+02  0.7816164E-02  0.1266605E+00
        -11   -1    0    0    0    0  0.00000000000E+00  0.00000000000E+00  0.45593999997E+02  0.45594000000E+02  0.51100000000E-03 0. -1.
         11   -1    0    0    0    0 -0.00000000000E+00 -0.00000000000E+00 -0.45593999997E+02  0.45594000000E+02  0.51100000000E-03 0.  1.
    9900012    2    1    2    0    0  0.18357178135E+01  0.27201782020E+02  0.16535361669E+02  0.59301874639E+02  0.49999873452E+02 0.  0.
        -12    1    1    2    0    0 -0.18357178135E+01 -0.27201782020E+02 -0.16535361669E+02  0.31886125361E+02  0.00000000000E+00 0.  1.
         11    1    3    3    0    0 -0.16972722394E+02 -0.34860521130E+01  0.94441263269E+01  0.19733661271E+02  0.51100000000E-03 0. -1.
        -11    1    3    3    0    0 -0.21820660836E+01  0.67308045942E+01  0.13181313100E+01  0.71974032324E+01  0.51100000000E-03 0.  1.
        -12    1    3    3    0    0  0.20990506291E+02  0.23957029539E+02  0.57731040322E+01  0.32370810136E+02  0.00000000000E+00 0.  1.
</event>
<event>
 7    1  0.6830263E-012  0.5930208E+02  0.7816164E-02  0.1266604E+00
        -11   -1    0    0    0    0  0.00000000000E+00  0.00000000000E+00  0.45593999997E+02  0.45594000000E+02  0.51100000000E-03 0.  1.
         11   -1    0    0    0    0 -0.00000000000E+00 -0.00000000000E+00 -0.45593999997E+02  0.45594000000E+02  0.51100000000E-03 0. -1.
    9900012    2    1    2    0    0  0.28548974983E+01  0.38593450826E+01 -0.31522485841E+02  0.59302076809E+02  0.50000242160E+02 0.  0.
        -12    1    1    2    0    0 -0.28548974983E+01 -0.38593450826E+01  0.31522485841E+02  0.31885923191E+02  0.00000000000E+00 0.  1.
         11    1    3    3    0    0  0.23261240365E+01  0.11085506916E+02 -0.18738908294E+02  0.21896255409E+02  0.51100000000E-03 0. -1.
        -11    1    3    3    0    0  0.45068213811E+01  0.87919799439E+01  0.66499983251E+01  0.11909358853E+02  0.51100000000E-03 0.  1.
        -12    1    3    3    0    0 -0.39780479192E+01 -0.16018141777E+02 -0.19433575871E+02  0.25496462547E+02  0.00000000000E+00 0.  1.
</event>
<event>
 7    1  0.6830263E-012  0.5930191E+02  0.7816164E-02  0.1266605E+00
        -11   -1    0    0    0    0  0.00000000000E+00  0.00000000000E+00  0.45593999997E+02  0.45594000000E+02  0.51100000000E-03 0. -1.
         11   -1    0    0    0    0 -0.00000000000E+00 -0.00000000000E+00 -0.45593999997E+02  0.45594000000E+02  0.51100000000E-03 0.  1.
    9900012    2    1    2    0    0 -0.11907860427E+02 -0.29575350703E+02  0.47338729499E+00  0.59301912051E+02  0.49999941683E+02 0.  0.
        -12    1    1    2    0    0  0.11907860427E+02  0.29575350703E+02 -0.47338729499E+00  0.31886087949E+02  0.00000000000E+00 0.  1.
         11    1    3    3    0    0 -0.52157336187E+01  0.28221450379E+00  0.22029732632E+01  0.56689164455E+01  0.51100000000E-03 0. -1.
        -11    1    3    3    0    0 -0.29170357287E+01  0.82715842500E+01  0.10248054440E+02  0.13488914838E+02  0.51100000000E-03 0.  1.
        -12    1    3    3    0    0 -0.37750910796E+01 -0.38129149456E+02 -0.11977640408E+02  0.40144080768E+02  0.00000000000E+00 0.  1.
</event>
<event>
 7    1  0.6830263E-012  0.5930200E+02  0.7816164E-02  0.1266605E+00
        -11   -1    0    0    0    0  0.00000000000E+00  0.00000000000E+00  0.45593999997E+02  0.45594000000E+02  0.51100000000E-03 0.  1.
         11   -1    0    0    0    0 -0.00000000000E+00 -0.00000000000E+00 -0.45593999997E+02  0.45594000000E+02  0.51100000000E-03 0. -1.
    9900012    2    1    2    0    0 -0.43917819629E+01  0.61570462989E+01 -0.30976125060E+02  0.59301995364E+02  0.50000093624E+02 0.  0.
        -12    1    1    2    0    0  0.43917819629E+01 -0.61570462989E+01  0.30976125060E+02  0.31886004636E+02  0.00000000000E+00 0.  1.
         11    1    3    3    0    0 -0.19674431169E+01  0.17350017668E+01 -0.22292965533E+02  0.22446767608E+02  0.51100000000E-03 0. -1.
        -11    1    3    3    0    0 -0.10527542599E+02 -0.12921339559E+02 -0.44224700110E+01  0.17243793388E+02  0.51100000000E-03 0.  1.
        -12    1    3    3    0    0  0.81032037527E+01  0.17343384091E+02 -0.42606895161E+01  0.19611434367E+02  0.00000000000E+00 0.  1.
</event>
<event>
 7    1  0.6830263E-012  0.5930188E+02  0.7816164E-02  0.1266605E+00
        -11   -1    0    0    0    0  0.00000000000E+00  0.00000000000E+00  0.45593999997E+02  0.45594000000E+02  0.51100000000E-03 0. -1.
         11   -1    0    0    0    0 -0.00000000000E+00 -0.00000000000E+00 -0.45593999997E+02  0.45594000000E+02  0.51100000000E-03 0.  1.
    9900012    2    1    2    0    0  0.21203458960E+02 -0.16380315889E+02  0.17286503162E+02  0.59301880574E+02  0.49999884275E+02 0.  0.
        -12    1    1    2    0    0 -0.21203458960E+02  0.16380315889E+02 -0.17286503162E+02  0.31886119426E+02  0.00000000000E+00 0.  1.
         11    1    3    3    0    0  0.11264402813E+02  0.10588535851E+01  0.55845833175E+01  0.12617270415E+02  0.51100000000E-03 0. -1.
        -11    1    3    3    0    0  0.14515484872E+02  0.87189663181E+01 -0.15549370181E+01  0.17004043758E+02  0.51100000000E-03 0.  1.
         12    1    3    3    0    0 -0.45764287242E+01 -0.26158135792E+02  0.13256856863E+02  0.29680566401E+02  0.00000000000E+00 0. -1.
</event>
<event>
 7    1  0.6830263E-012  0.5930193E+02  0.7816164E-02  0.1266605E+00
        -11   -1    0    0    0    0  0.00000000000E+00  0.00000000000E+00  0.45593999997E+02  0.45594000000E+02  0.51100000000E-03 0. -1.
         11   -1    0    0    0    0 -0.00000000000E+00 -0.00000000000E+00 -0.45593999997E+02  0.45594000000E+02  0.51100000000E-03 0.  1.
    9900012    2    1    2    0    0 -0.15776395288E+02 -0.13504268661E+02  0.24196314697E+02  0.59301928351E+02  0.49999971409E+02 0.  0.
        -12    1    1    2    0    0  0.15776395288E+02  0.13504268661E+02 -0.24196314697E+02  0.31886071649E+02  0.00000000000E+00 0.  1.
         11    1    3    3    0    0 -0.40713506192E+01  0.12892616537E+02  0.42128832193E+01  0.14161350300E+02  0.51100000000E-03 0. -1.
        -11    1    3    3    0    0  0.23717464589E+01  0.47544079435E+01 -0.42095208884E+00  0.53298008481E+01  0.51100000000E-03 0.  1.
         12    1    3    3    0    0 -0.14076791128E+02 -0.31151293141E+02  0.20404383566E+02  0.39810777203E+02  0.00000000000E+00 0. -1.
</event>
<event>
 7    1  0.6830263E-012  0.5930199E+02  0.7816164E-02  0.1266605E+00
        -11   -1    0    0    0    0  0.00000000000E+00  0.00000000000E+00  0.45593999997E+02  0.45594000000E+02  0.51100000000E-03 0.  1.
         11   -1    0    0    0    0 -0.00000000000E+00 -0.00000000000E+00 -0.45593999997E+02  0.45594000000E+02  0.51100000000E-03 0. -1.
    9900012    2    1    2    0    0 -0.40486944833E+01 -0.31613602792E+02 -0.95191212731E+00  0.59301985115E+02  0.50000074934E+02 0.  0.
        -12    1    1    2    0    0  0.40486944833E+01  0.31613602792E+02  0.95191212731E+00  0.31886014885E+02  0.00000000000E+00 0.  1.
         11    1    3    3    0    0  0.15040489516E+01  0.31440089434E+01  0.82877093087E+01  0.89907219583E+01  0.51100000000E-03 0. -1.
        -11    1    3    3    0    0  0.80546396669E+01  0.59983186285E+00  0.53779669992E+01  0.97035842725E+01  0.51100000000E-03 0.  1.
         12    1    3    3    0    0 -0.13607383102E+02 -0.35357443599E+02 -0.14617588435E+02  0.40607678884E+02  0.00000000000E+00 0. -1.
</event>
<event>
 7    1  0.6830263E-012  0.5930187E+02  0.7816164E-02  0.1266605E+00
        -11   -1    0    0    0    0  0.00000000000E+00  0.00000000000E+00  0.45593999997E+02  0.45594000000E+02  0.51100000000E-03 0.  1.
         11   -1    0    0    0    0 -0.00000000000E+00 -0.00000000000E+00 -0.45593999997E+02  0.45594000000E+02  0.51100000000E-03 0. -1.
    9900012    2    1    2    0    0  0.16969682927E+02 -0.26282785145E+02  0.61620242674E+01  0.59301867016E+02  0.49999859549E+02 0.  0.
        -12    1    1    2    0    0 -0.16969682927E+02  0.26282785145E+02 -0.61620242674E+01  0.31886132984E+02  0.00000000000E+00 0.  1.
         11    1    3    3    0    0 -0.22493762309E+01  0.13105038239E+01  0.41240683214E+01  0.48769922577E+01  0.51100000000E-03 0. -1.
        -11    1    3    3    0    0  0.62090656803E+01 -0.37269318403E+02  0.44063471372E+01  0.38039065265E+02  0.51100000000E-03 0.  1.
         12    1    3    3    0    0  0.13009993478E+02  0.96760294347E+01 -0.23683911912E+01  0.16385809493E+02  0.00000000000E+00 0. -1.
</event>
<event>
 7    1  0.6830263E-012  0.5930194E+02  0.7816164E-02  0.1266605E+00
        -11   -1    0    0    0    0  0.00000000000E+00  0.00000000000E+00  0.45593999997E+02  0.45594000000E+02  0.51100000000E-03 0.  1.
         11   -1    0    0    0    0 -0.00000000000E+00 -0.00000000000E+00 -0.45593999997E+02  0.45594000000E+02  0.51100000000E-03 0. -1.
    9900012    2    1    2    0    0 -0.62101560443E+01  0.13357143997E+02 -0.28279699929E+02  0.59301940947E+02  0.49999994382E+02 0.  0.
        -12    1    1    2    0    0  0.62101560443E+01 -0.13357143997E+02  0.28279699929E+02  0.31886059053E+02  0.00000000000E+00 0.  1.
         11    1    3    3    0    0  0.56701533040E+01 -0.10034175117E+02 -0.17480915910E+02  0.20938427116E+02  0.51100000000E-03 0. -1.
        -11    1    3    3    0    0 -0.11116168099E+02  0.32563969886E+01 -0.13772357271E+02  0.17995864514E+02  0.51100000000E-03 0.  1.
        -12    1    3    3    0    0 -0.76414124938E+00  0.20134922125E+02  0.29735732521E+01  0.20367649317E+02  0.00000000000E+00 0.  1.
</event>
<event>
 7    1  0.6830263E-012  0.5930194E+02  0.7816164E-02  0.1266605E+00
        -11   -1    0    0    0    0  0.00000000000E+00  0.00000000000E+00  0.45593999997E+02  0.45594000000E+02  0.51100000000E-03 0.  1.
         11   -1    0    0    0    0 -0.00000000000E+00 -0.00000000000E+00 -0.45593999997E+02  0.45594000000E+02  0.51100000000E-03 0. -1.
    9900012    2    1    2    0    0  0.26124640276E+02  0.93864055382E+01 -0.15688185107E+02  0.59301943636E+02  0.49999999286E+02 0.  0.
        -12    1    1    2    0    0 -0.26124640276E+02 -0.93864055382E+01  0.15688185107E+02  0.31886056364E+02  0.00000000000E+00 0.  1.
         11    1    3    3    0    0  0.67605253414E+01  0.38586216123E+00  0.94616703327E+01  0.11635153555E+02  0.51100000000E-03 0. -1.
        -11    1    3    3    0    0 -0.95149976247E+01  0.26924675709E+01 -0.19246442268E+01  0.10074165825E+02  0.51100000000E-03 0.  1.
         12    1    3    3    0    0  0.28879112559E+02  0.63080758061E+01 -0.23225211213E+02  0.37592624256E+02  0.00000000000E+00 0. -1.
</event>
<event>
 7    1  0.6830263E-012  0.5930194E+02  0.7816164E-02  0.1266605E+00
        -11   -1    0    0    0    0  0.00000000000E+00  0.00000000000E+00  0.45593999997E+02  0.45594000000E+02  0.51100000000E-03 0. -1.
         11   -1    0    0    0    0 -0.00000000000E+00 -0.00000000000E+00 -0.45593999997E+02  0.45594000000E+02  0.51100000000E-03 0.  1.
    9900012    2    1    2    0    0  0.53359999816E+01  0.31284963934E+02  0.30820822418E+01  0.59301935723E+02  0.49999984854E+02 0.  0.
        -12    1    1    2    0    0 -0.53359999816E+01 -0.31284963934E+02 -0.30820822418E+01  0.31886064277E+02  0.00000000000E+00 0.  1.
         11    1    3    3    0    0 -0.39046880146E+01  0.27546907458E+02  0.80847671621E+01  0.28973128228E+02  0.51100000000E-03 0. -1.
        -11    1    3    3    0    0  0.34971679831E+01  0.11529564220E+01  0.11812274810E+02  0.12372927255E+02  0.51100000000E-03 0.  1.
        -12    1    3    3    0    0  0.57435200130E+01  0.25851000534E+01 -0.16814959730E+02  0.17955880239E+02  0.00000000000E+00 0.  1.
</event>
<event>
 7    1  0.6830263E-012  0.5930212E+02  0.7816164E-02  0.1266604E+00
        -11   -1    0    0    0    0  0.00000000000E+00  0.00000000000E+00  0.45593999997E+02  0.45594000000E+02  0.51100000000E-03 0. -1.
         11   -1    0    0    0    0 -0.00000000000E+00 -0.00000000000E+00 -0.45593999997E+02  0.45594000000E+02  0.51100000000E-03 0.  1.
    9900012    2    1    2    0    0 -0.23695289414E+02 -0.15867607470E+02  0.14263991332E+02  0.59302122939E+02  0.50000326290E+02 0.  0.
        -12    1    1    2    0    0  0.23695289414E+02  0.15867607470E+02 -0.14263991332E+02  0.31885877061E+02  0.00000000000E+00 0.  1.
         11    1    3    3    0    0 -0.20064205697E+02  0.11243899417E+01  0.23067020319E+01  0.20227641422E+02  0.51100000000E-03 0. -1.
        -11    1    3    3    0    0 -0.98489731644E+01  0.24209953144E+01 -0.61059618877E+01  0.11838338631E+02  0.51100000000E-03 0.  1.
         12    1    3    3    0    0  0.62178894475E+01 -0.19412992726E+02  0.18063251188E+02  0.27236142885E+02  0.00000000000E+00 0. -1.
</event>
<event>
 7    1  0.6830263E-012  0.5930193E+02  0.7816164E-02  0.1266605E+00
        -11   -1    0    0    0    0  0.00000000000E+00  0.00000000000E+00  0.45593999997E+02  0.45594000000E+02  0.51100000000E-03 0. -1.
         11   -1    0    0    0    0 -0.00000000000E+00 -0.00000000000E+00 -0.45593999997E+02  0.45594000000E+02  0.51100000000E-03 0.  1.
    9900012    2    1    2    0    0  0.23240694350E+02  0.14519514262E+02  0.16302618883E+02  0.59301928578E+02  0.49999971824E+02 0.  0.
        -12    1    1    2    0    0 -0.23240694350E+02 -0.14519514262E+02 -0.16302618883E+02  0.31886071422E+02  0.00000000000E+00 0.  1.
         11    1    3    3    0    0 -0.71492994837E+01  0.14200452825E+02  0.49487969896E+00  0.15906295915E+02  0.51100000000E-03 0. -1.
        -11    1    3    3    0    0 -0.21561369844E+01  0.14077186202E+01 -0.43803968447E+01  0.50811883637E+01  0.51100000000E-03 0.  1.
        -12    1    3    3    0    0  0.32546130818E+02 -0.10886571838E+01  0.20188136028E+02  0.38314444300E+02  0.00000000000E+00 0.  1.
</event>
<event>
 7    1  0.6830263E-012  0.5930196E+02  0.7816164E-02  0.1266605E+00
        -11   -1    0    0    0    0  0.00000000000E+00  0.00000000000E+00  0.45593999997E+02  0.45594000000E+02  0.51100000000E-03 0.  1.
         11   -1    0    0    0    0 -0.00000000000E+00 -0.00000000000E+00 -0.45593999997E+02  0.45594000000E+02  0.51100000000E-03 0. -1.
    9900012    2    1    2    0    0  0.25544289089E+01 -0.98379966410E+01 -0.30222650073E+02  0.59301955052E+02  0.50000020106E+02 0.  0.
        -12    1    1    2    0    0 -0.25544289089E+01  0.98379966410E+01  0.30222650073E+02  0.31886044948E+02  0.00000000000E+00 0.  1.
         11    1    3    3    0    0  0.50852065300E+01  0.10513496391E+02 -0.13125676667E+02  0.17569186664E+02  0.51100000000E-03 0. -1.
        -11    1    3    3    0    0  0.11592151324E+02 -0.36279774581E+01  0.24442449570E+01  0.12390097918E+02  0.51100000000E-03 0.  1.
         12    1    3    3    0    0 -0.14122928945E+02 -0.16723515574E+02 -0.19541218363E+02  0.29342670469E+02  0.00000000000E+00 0. -1.
</event>
<event>
 7    1  0.6830263E-012  0.5930194E+02  0.7816164E-02  0.1266605E+00
        -11   -1    0    0    0    0  0.00000000000E+00  0.00000000000E+00  0.45593999997E+02  0.45594000000E+02  0.51100000000E-03 0.  1.
         11   -1    0    0    0    0 -0.00000000000E+00 -0.00000000000E+00 -0.45593999997E+02  0.45594000000E+02  0.51100000000E-03 0. -1.
    9900012    2    1    2    0    0  0.28871287771E+02 -0.54958736334E+00 -0.13522851890E+02  0.59301939926E+02  0.49999992519E+02 0.  0.
        -12    1    1    2    0    0 -0.28871287771E+02  0.54958736334E+00  0.13522851890E+02  0.31886060074E+02  0.00000000000E+00 0.  1.
         11    1    3    3    0    0  0.10845130513E+02 -0.91011649530E+01  0.50817299787E+00  0.14167085071E+02  0.51100000000E-03 0.  1.
        -11    1    3    3    0    0 -0.45073176432E+01  0.13775696813E+02 -0.16394858137E+02  0.21883260922E+02  0.51100000000E-03 0. -1.
         12    1    3    3    0    0  0.22533474901E+02 -0.52241192230E+01  0.23638332485E+01  0.23251593932E+02  0.00000000000E+00 0. -1.
</event>
<event>
 7    1  0.6830263E-012  0.5930190E+02  0.7816164E-02  0.1266605E+00
        -11   -1    0    0    0    0  0.00000000000E+00  0.00000000000E+00  0.45593999997E+02  0.45594000000E+02  0.51100000000E-03 0.  1.
         11   -1    0    0    0    0 -0.00000000000E+00 -0.00000000000E+00 -0.45593999997E+02  0.45594000000E+02  0.51100000000E-03 0. -1.
    9900012    2    1    2    0    0 -0.17227465479E+01  0.22448088655E+02 -0.22579607831E+02  0.59301902250E+02  0.49999923807E+02 0.  0.
        -12    1    1    2    0    0  0.17227465479E+01 -0.22448088655E+02  0.22579607831E+02  0.31886097750E+02  0.00000000000E+00 0.  1.
         11    1    3    3    0    0 -0.11993740173E+02  0.23081085882E+02 -0.20583712450E+02  0.33170401676E+02  0.51100000000E-03 0. -1.
        -11    1    3    3    0    0  0.35022880587E+01 -0.20664962794E+01 -0.12728353919E+02  0.13362163831E+02  0.51100000000E-03 0.  1.
        -12    1    3    3    0    0  0.67687055663E+01  0.14334990521E+01  0.10732458538E+02  0.12769336743E+02  0.00000000000E+00 0.  1.
</event>
<event>
 7    1  0.6830263E-012  0.5930193E+02  0.7816164E-02  0.1266605E+00
        -11   -1    0    0    0    0  0.00000000000E+00  0.00000000000E+00  0.45593999997E+02  0.45594000000E+02  0.51100000000E-03 0. -1.
         11   -1    0    0    0    0 -0.00000000000E+00 -0.00000000000E+00 -0.45593999997E+02  0.45594000000E+02  0.51100000000E-03 0.  1.
    9900012    2    1    2    0    0 -0.65856084603E+01 -0.27636114434E+02  0.14477444038E+02  0.59301930226E+02  0.49999974828E+02 0.  0.
        -12    1    1    2    0    0  0.65856084603E+01  0.27636114434E+02 -0.14477444038E+02  0.31886069774E+02  0.00000000000E+00 0.  1.
         11    1    3    3    0    0  0.83782902967E+01  0.15172073207E+01  0.72494104949E+01  0.11182648127E+02  0.51100000000E-03 0. -1.
        -11    1    3    3    0    0 -0.97523078553E+01  0.31383845571E+01 -0.70428108928E+01  0.12432141878E+02  0.51100000000E-03 0.  1.
        -12    1    3    3    0    0 -0.52115909017E+01 -0.32291706312E+02  0.14270844435E+02  0.35687140221E+02  0.00000000000E+00 0.  1.
</event>
<event>
 7    1  0.6830263E-012  0.5930196E+02  0.7816164E-02  0.1266605E+00
        -11   -1    0    0    0    0  0.00000000000E+00  0.00000000000E+00  0.45593999997E+02  0.45594000000E+02  0.51100000000E-03 0. -1.
         11   -1    0    0    0    0 -0.00000000000E+00 -0.00000000000E+00 -0.45593999997E+02  0.45594000000E+02  0.51100000000E-03 0.  1.
    9900012    2    1    2    0    0  0.19373647057E+02  0.24748611321E+02 -0.53746960927E+01  0.59301963547E+02  0.50000035599E+02 0.  0.
        -12    1    1    2    0    0 -0.19373647057E+02 -0.24748611321E+02  0.53746960927E+01  0.31886036453E+02  0.00000000000E+00 0.  1.
         11    1    3    3    0    0  0.29073331596E+02  0.10786013578E+02 -0.91208028251E+01  0.32323145630E+02  0.51100000000E-03 0. -1.
        -11    1    3    3    0    0  0.95705013117E+00  0.32081439466E+01 -0.74373490997E+01  0.81561200597E+01  0.51100000000E-03 0.  1.
         12    1    3    3    0    0 -0.10656734670E+02  0.10754453796E+02  0.11183455832E+02  0.18822697857E+02  0.00000000000E+00 0. -1.
</event>
<event>
 7    1  0.6830263E-012  0.5930210E+02  0.7816164E-02  0.1266604E+00
        -11   -1    0    0    0    0  0.00000000000E+00  0.00000000000E+00  0.45593999997E+02  0.45594000000E+02  0.51100000000E-03 0.  1.
         11   -1    0    0    0    0 -0.00000000000E+00 -0.00000000000E+00 -0.45593999997E+02  0.45594000000E+02  0.51100000000E-03 0. -1.
    9900012    2    1    2    0    0 -0.49512173203E+01 -0.15902135019E+02 -0.27190409700E+02  0.59302096676E+02  0.50000278393E+02 0.  0.
        -12    1    1    2    0    0  0.49512173203E+01  0.15902135019E+02  0.27190409700E+02  0.31885903324E+02  0.00000000000E+00 0.  1.
         11    1    3    3    0    0 -0.83307191513E+01 -0.67878577612E+01 -0.34821809611E+01  0.11296082466E+02  0.51100000000E-03 0. -1.
        -11    1    3    3    0    0 -0.34209649640E+01  0.14079359171E+02 -0.50003116409E+00  0.14497633854E+02  0.51100000000E-03 0.  1.
         12    1    3    3    0    0  0.68004667950E+01 -0.23193636429E+02 -0.23208197575E+02  0.33508380356E+02  0.00000000000E+00 0. -1.
</event>
<event>
 7    1  0.6830263E-012  0.5930194E+02  0.7816164E-02  0.1266605E+00
        -11   -1    0    0    0    0  0.00000000000E+00  0.00000000000E+00  0.45593999997E+02  0.45594000000E+02  0.51100000000E-03 0.  1.
         11   -1    0    0    0    0 -0.00000000000E+00 -0.00000000000E+00 -0.45593999997E+02  0.45594000000E+02  0.51100000000E-03 0. -1.
    9900012    2    1    2    0    0  0.25045172719E+02 -0.11351925472E+02 -0.16142919076E+02  0.59301941530E+02  0.49999995445E+02 0.  0.
        -12    1    1    2    0    0 -0.25045172719E+02  0.11351925472E+02  0.16142919076E+02  0.31886058470E+02  0.00000000000E+00 0.  1.
         11    1    3    3    0    0  0.13585009716E+01 -0.37889963036E+01 -0.35985402734E+01  0.53992138538E+01  0.51100000000E-03 0. -1.
        -11    1    3    3    0    0  0.28083622255E+01 -0.16208867007E+02 -0.23582512121E+02  0.28753245838E+02  0.51100000000E-03 0.  1.
        -12    1    3    3    0    0  0.20878309522E+02  0.86459378383E+01  0.11038133318E+02  0.25149481839E+02  0.00000000000E+00 0.  1.
</event>
<event>
 7    1  0.6830263E-012  0.5930188E+02  0.7816164E-02  0.1266605E+00
        -11   -1    0    0    0    0  0.00000000000E+00  0.00000000000E+00  0.45593999997E+02  0.45594000000E+02  0.51100000000E-03 0.  1.
         11   -1    0    0    0    0 -0.00000000000E+00 -0.00000000000E+00 -0.45593999997E+02  0.45594000000E+02  0.51100000000E-03 0. -1.
    9900012    2    1    2    0    0  0.75277746090E+01 -0.19881795805E+02 -0.23764914626E+02  0.59301884492E+02  0.49999891422E+02 0.  0.
        -12    1    1    2    0    0 -0.75277746090E+01  0.19881795805E+02  0.23764914626E+02  0.31886115508E+02  0.00000000000E+00 0.  1.
         11    1    3    3    0    0 -0.99934326632E+01 -0.74316920249E+01  0.50504904363E+01  0.13438980492E+02  0.51100000000E-03 0. -1.
        -11    1    3    3    0    0  0.10259506345E+02 -0.68014181561E+01  0.30620988528E+01  0.12684368688E+02  0.51100000000E-03 0.  1.
         12    1    3    3    0    0  0.72617009273E+01 -0.56486856237E+01 -0.31877503915E+02  0.33178535313E+02  0.00000000000E+00 0. -1.
</event>
<event>
 7    1  0.6830263E-012  0.5930196E+02  0.7816164E-02  0.1266605E+00
        -11   -1    0    0    0    0  0.00000000000E+00  0.00000000000E+00  0.45593999997E+02  0.45594000000E+02  0.51100000000E-03 0. -1.
         11   -1    0    0    0    0 -0.00000000000E+00 -0.00000000000E+00 -0.45593999997E+02  0.45594000000E+02  0.51100000000E-03 0.  1.
    9900012    2    1    2    0    0  0.25647604187E+01 -0.20730951293E+02  0.24090859718E+02  0.59301955098E+02  0.50000020189E+02 0.  0.
        -12    1    1    2    0    0 -0.25647604187E+01  0.20730951293E+02 -0.24090859718E+02  0.31886044902E+02  0.00000000000E+00 0.  1.
         11    1    3    3    0    0  0.36293984889E+01 -0.85648784842E+01  0.18394361776E+02  0.20612671400E+02  0.51100000000E-03 0. -1.
        -11    1    3    3    0    0 -0.10553387054E+02 -0.22121550004E+02  0.39359221161E+01  0.24823948841E+02  0.51100000000E-03 0.  1.
         12    1    3    3    0    0  0.94887489835E+01  0.99554771947E+01  0.17605758257E+01  0.13865334857E+02  0.00000000000E+00 0. -1.
</event>
<event>
 7    1  0.6830263E-012  0.5930198E+02  0.7816164E-02  0.1266605E+00
        -11   -1    0    0    0    0  0.00000000000E+00  0.00000000000E+00  0.45593999997E+02  0.45594000000E+02  0.51100000000E-03 0. -1.
         11   -1    0    0    0    0 -0.00000000000E+00 -0.00000000000E+00 -0.45593999997E+02  0.45594000000E+02  0.51100000000E-03 0.  1.
    9900012    2    1    2    0    0  0.31124957637E+02  0.63965083108E+01 -0.26533173796E+01  0.59301977991E+02  0.50000061940E+02 0.  0.
        -12    1    1    2    0    0 -0.31124957637E+02 -0.63965083108E+01  0.26533173796E+01  0.31886022009E+02  0.00000000000E+00 0.  1.
         11    1    3    3    0    0  0.22154834629E+02 -0.35609694712E+01 -0.20237361073E+01  0.22530262073E+02  0.51100000000E-03 0. -1.
        -11    1    3    3    0    0  0.19421541656E+02 -0.48303924093E+00 -0.70457149996E+01  0.20665713327E+02  0.51100000000E-03 0.  1.
         12    1    3    3    0    0 -0.10451418647E+02  0.10440517023E+02  0.64161337273E+01  0.16106002591E+02  0.00000000000E+00 0. -1.
</event>
<event>
 7    1  0.6830263E-012  0.5930202E+02  0.7816164E-02  0.1266604E+00
        -11   -1    0    0    0    0  0.00000000000E+00  0.00000000000E+00  0.45593999997E+02  0.45594000000E+02  0.51100000000E-03 0. -1.
         11   -1    0    0    0    0 -0.00000000000E+00 -0.00000000000E+00 -0.45593999997E+02  0.45594000000E+02  0.51100000000E-03 0.  1.
    9900012    2    1    2    0    0  0.41502882248E+01 -0.22201970419E+02  0.22506962978E+02  0.59302019299E+02  0.50000137276E+02 0.  0.
        -12    1    1    2    0    0 -0.41502882248E+01  0.22201970419E+02 -0.22506962978E+02  0.31885980701E+02  0.00000000000E+00 0.  1.
         11    1    3    3    0    0 -0.17504752254E+01 -0.32233377922E+02  0.61591602168E+01  0.32863202380E+02  0.51100000000E-03 0. -1.
        -11    1    3    3    0    0  0.92312906204E+00  0.11823320013E+02  0.32253322672E+01  0.12290070459E+02  0.51100000000E-03 0.  1.
        -12    1    3    3    0    0  0.49776343882E+01 -0.17919125087E+01  0.13122470494E+02  0.14148746460E+02  0.00000000000E+00 0.  1.
</event>
<event>
 7    1  0.6830263E-012  0.5930193E+02  0.7816164E-02  0.1266605E+00
        -11   -1    0    0    0    0  0.00000000000E+00  0.00000000000E+00  0.45593999997E+02  0.45594000000E+02  0.51100000000E-03 0. -1.
         11   -1    0    0    0    0 -0.00000000000E+00 -0.00000000000E+00 -0.45593999997E+02  0.45594000000E+02  0.51100000000E-03 0.  1.
    9900012    2    1    2    0    0  0.69254402350E+01  0.16020034785E+02  0.26685541591E+02  0.59301931459E+02  0.49999977078E+02 0.  0.
        -12    1    1    2    0    0 -0.69254402350E+01 -0.16020034785E+02 -0.26685541591E+02  0.31886068541E+02  0.00000000000E+00 0.  1.
         11    1    3    3    0    0  0.75990583552E+01 -0.24686998420E+01  0.12983351373E+02  0.15244919807E+02  0.51100000000E-03 0. -1.
        -11    1    3    3    0    0  0.52851576637E+00 -0.97370727700E+01 -0.41931804500E+01  0.10614738696E+02  0.51100000000E-03 0.  1.
        -12    1    3    3    0    0 -0.12021338865E+01  0.28225807397E+02  0.17895370668E+02  0.33442272956E+02  0.00000000000E+00 0.  1.
</event>
<event>
 7    1  0.6830263E-012  0.5930194E+02  0.7816164E-02  0.1266605E+00
        -11   -1    0    0    0    0  0.00000000000E+00  0.00000000000E+00  0.45593999997E+02  0.45594000000E+02  0.51100000000E-03 0. -1.
         11   -1    0    0    0    0 -0.00000000000E+00 -0.00000000000E+00 -0.45593999997E+02  0.45594000000E+02  0.51100000000E-03 0.  1.
    9900012    2    1    2    0    0 -0.16841500954E+02  0.26673750826E+02  0.46471000240E+01  0.59301942292E+02  0.49999996834E+02 0.  0.
        -12    1    1    2    0    0  0.16841500954E+02 -0.26673750826E+02 -0.46471000240E+01  0.31886057708E+02  0.00000000000E+00 0.  1.
         11    1    3    3    0    0 -0.44505639382E+01  0.55985871683E+01  0.16741983106E+02  0.18205650119E+02  0.51100000000E-03 0. -1.
        -11    1    3    3    0    0 -0.15297863881E+02  0.14160889035E+02  0.58463842093E+01  0.21650303143E+02  0.51100000000E-03 0.  1.
        -12    1    3    3    0    0  0.29069268643E+01  0.69142746226E+01 -0.17941267292E+02  0.19445989031E+02  0.00000000000E+00 0.  1.
</event>
<event>
 7    1  0.6830263E-012  0.5930196E+02  0.7816164E-02  0.1266605E+00
        -11   -1    0    0    0    0  0.00000000000E+00  0.00000000000E+00  0.45593999997E+02  0.45594000000E+02  0.51100000000E-03 0. -1.
         11   -1    0    0    0    0 -0.00000000000E+00 -0.00000000000E+00 -0.45593999997E+02  0.45594000000E+02  0.51100000000E-03 0.  1.
    9900012    2    1    2    0    0  0.22096454417E+02 -0.21714723618E+02 -0.75456545602E+01  0.59301961953E+02  0.50000032691E+02 0.  0.
        -12    1    1    2    0    0 -0.22096454417E+02  0.21714723618E+02  0.75456545602E+01  0.31886038047E+02  0.00000000000E+00 0.  1.
         11    1    3    3    0    0 -0.33221590246E+01 -0.15335948221E+02 -0.82503956538E+01  0.17728425681E+02  0.51100000000E-03 0. -1.
        -11    1    3    3    0    0 -0.28700317051E+01 -0.50126739859E+01 -0.97925084562E+01  0.11369133855E+02  0.51100000000E-03 0.  1.
         12    1    3    3    0    0  0.28288645147E+02 -0.13661014113E+01  0.10497249550E+02  0.30204402418E+02  0.00000000000E+00 0. -1.
</event>
<event>
 7    1  0.6830263E-012  0.5930202E+02  0.7816164E-02  0.1266605E+00
        -11   -1    0    0    0    0  0.00000000000E+00  0.00000000000E+00  0.45593999997E+02  0.45594000000E+02  0.51100000000E-03 0.  1.
         11   -1    0    0    0    0 -0.00000000000E+00 -0.00000000000E+00 -0.45593999997E+02  0.45594000000E+02  0.51100000000E-03 0. -1.
    9900012    2    1    2    0    0  0.13630283615E+02 -0.28763357714E+02 -0.18974801447E+01  0.59302018608E+02  0.50000136017E+02 0.  0.
        -12    1    1    2    0    0 -0.13630283615E+02  0.28763357714E+02  0.18974801447E+01  0.31885981392E+02  0.00000000000E+00 0.  1.
         11    1    3    3    0    0 -0.12314662841E+01 -0.34386738619E+01 -0.74062612944E+01  0.82579473091E+01  0.51100000000E-03 0. -1.
        -11    1    3    3    0    0 -0.22533789144E+01 -0.47114239127E+01 -0.15908249944E+02  0.16743585290E+02  0.51100000000E-03 0.  1.
         12    1    3    3    0    0  0.17115128814E+02 -0.20613259939E+02  0.21417031094E+02  0.34300486010E+02  0.00000000000E+00 0. -1.
</event>
<event>
 7    1  0.6830263E-012  0.5930203E+02  0.7816164E-02  0.1266604E+00
        -11   -1    0    0    0    0  0.00000000000E+00  0.00000000000E+00  0.45593999997E+02  0.45594000000E+02  0.51100000000E-03 0.  1.
         11   -1    0    0    0    0 -0.00000000000E+00 -0.00000000000E+00 -0.45593999997E+02  0.45594000000E+02  0.51100000000E-03 0. -1.
    9900012    2    1    2    0    0  0.14555930250E+02  0.12031782616E+02 -0.25691953038E+02  0.59302025822E+02  0.50000149174E+02 0.  0.
        -12    1    1    2    0    0 -0.14555930250E+02 -0.12031782616E+02  0.25691953038E+02  0.31885974178E+02  0.00000000000E+00 0.  1.
         11    1    3    3    0    0  0.10170323248E+01  0.42558392587E+01  0.48016102787E+01  0.64963054173E+01  0.51100000000E-03 0. -1.
        -11    1    3    3    0    0  0.85293670181E+01 -0.13619189687E+02 -0.11009021076E+01  0.16107278329E+02  0.51100000000E-03 0.  1.
         12    1    3    3    0    0  0.50095309067E+01  0.21395133044E+02 -0.29392661209E+02  0.36698442076E+02  0.00000000000E+00 0. -1.
</event>
<event>
 7    1  0.6830263E-012  0.5930195E+02  0.7816164E-02  0.1266605E+00
        -11   -1    0    0    0    0  0.00000000000E+00  0.00000000000E+00  0.45593999997E+02  0.45594000000E+02  0.51100000000E-03 0.  1.
         11   -1    0    0    0    0 -0.00000000000E+00 -0.00000000000E+00 -0.45593999997E+02  0.45594000000E+02  0.51100000000E-03 0. -1.
    9900012    2    1    2    0    0  0.41840957462E+01  0.15636071797E+02 -0.27472288720E+02  0.59301952174E+02  0.50000014857E+02 0.  0.
        -12    1    1    2    0    0 -0.41840957462E+01 -0.15636071797E+02  0.27472288720E+02  0.31886047826E+02  0.00000000000E+00 0.  1.
         11    1    3    3    0    0  0.14778280567E+02  0.48830233403E+01 -0.89778879261E+01  0.17967859231E+02  0.51100000000E-03 0. -1.
        -11    1    3    3    0    0  0.11616166252E+02 -0.22906646952E+00 -0.26272420679E+01  0.11911766913E+02  0.51100000000E-03 0.  1.
        -12    1    3    3    0    0 -0.22210351073E+02  0.10982114926E+02 -0.15867158726E+02  0.29422326031E+02  0.00000000000E+00 0.  1.
</event>
<event>
 7    1  0.6830263E-012  0.5930195E+02  0.7816164E-02  0.1266605E+00
        -11   -1    0    0    0    0  0.00000000000E+00  0.00000000000E+00  0.45593999997E+02  0.45594000000E+02  0.51100000000E-03 0.  1.
         11   -1    0    0    0    0 -0.00000000000E+00 -0.00000000000E+00 -0.45593999997E+02  0.45594000000E+02  0.51100000000E-03 0. -1.
    9900012    2    1    2    0    0 -0.27695824201E+02  0.12622130961E+02 -0.95049195026E+01  0.59301947204E+02  0.50000005792E+02 0.  0.
        -12    1    1    2    0    0  0.27695824201E+02 -0.12622130961E+02  0.95049195026E+01  0.31886052796E+02  0.00000000000E+00 0.  1.
         11    1    3    3    0    0 -0.91283118903E+01 -0.50314913857E+00 -0.17749992231E+02  0.19966007650E+02  0.51100000000E-03 0. -1.
        -11    1    3    3    0    0 -0.25530853346E+02  0.75415971573E+01 -0.79334007859E+00  0.26633241429E+02  0.51100000000E-03 0.  1.
        -12    1    3    3    0    0  0.69633410354E+01  0.55836829423E+01  0.90384128069E+01  0.12702698125E+02  0.00000000000E+00 0.  1.
</event>
<event>
 7    1  0.6830263E-012  0.5930195E+02  0.7816164E-02  0.1266605E+00
        -11   -1    0    0    0    0  0.00000000000E+00  0.00000000000E+00  0.45593999997E+02  0.45594000000E+02  0.51100000000E-03 0.  1.
         11   -1    0    0    0    0 -0.00000000000E+00 -0.00000000000E+00 -0.45593999997E+02  0.45594000000E+02  0.51100000000E-03 0. -1.
    9900012    2    1    2    0    0  0.14352435857E+02 -0.99105399345E+00 -0.28456026224E+02  0.59301952401E+02  0.50000015270E+02 0.  0.
        -12    1    1    2    0    0 -0.14352435857E+02  0.99105399345E+00  0.28456026224E+02  0.31886047599E+02  0.00000000000E+00 0.  1.
         11    1    3    3    0    0  0.68009669351E+01  0.17882767519E+01 -0.28528234971E+02  0.29382159141E+02  0.51100000000E-03 0. -1.
        -11    1    3    3    0    0 -0.11052086312E+02  0.33437031882E+00  0.83967855993E-01  0.11057462016E+02  0.51100000000E-03 0.  1.
        -12    1    3    3    0    0  0.18603555234E+02 -0.31137010642E+01 -0.11759109054E-01  0.18862331244E+02  0.00000000000E+00 0.  1.
</event>
<event>
 7    1  0.6830263E-012  0.5930196E+02  0.7816164E-02  0.1266605E+00
        -11   -1    0    0    0    0  0.00000000000E+00  0.00000000000E+00  0.45593999997E+02  0.45594000000E+02  0.51100000000E-03 0.  1.
         11   -1    0    0    0    0 -0.00000000000E+00 -0.00000000000E+00 -0.45593999997E+02  0.45594000000E+02  0.51100000000E-03 0. -1.
    9900012    2    1    2    0    0  0.28185507307E+02 -0.72133185692E+00 -0.14892158848E+02  0.59301960156E+02  0.50000029414E+02 0.  0.
        -12    1    1    2    0    0 -0.28185507307E+02  0.72133185692E+00  0.14892158848E+02  0.31886039844E+02  0.00000000000E+00 0.  1.
         11    1    3    3    0    0  0.24063852748E+02 -0.43564755859E+01 -0.88685685358E+01  0.26013446460E+02  0.51100000000E-03 0. -1.
        -11    1    3    3    0    0  0.17995620877E+02  0.52455755846E+01 -0.41233909401E+01  0.19192727452E+02  0.51100000000E-03 0.  1.
        -12    1    3    3    0    0 -0.13873966318E+02 -0.16104318556E+01 -0.19001993724E+01  0.14095786243E+02  0.00000000000E+00 0.  1.
</event>
<event>
 7    1  0.6830263E-012  0.5930197E+02  0.7816164E-02  0.1266605E+00
        -11   -1    0    0    0    0  0.00000000000E+00  0.00000000000E+00  0.45593999997E+02  0.45594000000E+02  0.51100000000E-03 0.  1.
         11   -1    0    0    0    0 -0.00000000000E+00 -0.00000000000E+00 -0.45593999997E+02  0.45594000000E+02  0.51100000000E-03 0. -1.
    9900012    2    1    2    0    0  0.28818238587E+02  0.13371326121E+02  0.27268002958E+01  0.59301973635E+02  0.50000053997E+02 0.  0.
        -12    1    1    2    0    0 -0.28818238587E+02 -0.13371326121E+02 -0.27268002958E+01  0.31886026365E+02  0.00000000000E+00 0.  1.
         11    1    3    3    0    0  0.30442901850E+02  0.24855877121E+01  0.86116226967E+01  0.31734972271E+02  0.51100000000E-03 0. -1.
        -11    1    3    3    0    0  0.87629634273E+01  0.12126612759E+02 -0.78910734969E+01  0.16914884162E+02  0.51100000000E-03 0.  1.
        -12    1    3    3    0    0 -0.10387626691E+02 -0.12408743505E+01  0.20062510959E+01  0.10652117202E+02  0.00000000000E+00 0.  1.
</event>
<event>
 7    1  0.6830263E-012  0.5930202E+02  0.7816164E-02  0.1266604E+00
        -11   -1    0    0    0    0  0.00000000000E+00  0.00000000000E+00  0.45593999997E+02  0.45594000000E+02  0.51100000000E-03 0.  1.
         11   -1    0    0    0    0 -0.00000000000E+00 -0.00000000000E+00 -0.45593999997E+02  0.45594000000E+02  0.51100000000E-03 0. -1.
    9900012    2    1    2    0    0 -0.18810970635E+02  0.13502550243E+02  0.21921316804E+02  0.59302021739E+02  0.50000141726E+02 0.  0.
        -12    1    1    2    0    0  0.18810970635E+02 -0.13502550243E+02 -0.21921316804E+02  0.31885978261E+02  0.00000000000E+00 0.  1.
         11    1    3    3    0    0  0.56701178785E+01  0.17385271895E+01  0.11847481281E+02  0.13248982093E+02  0.51100000000E-03 0. -1.
        -11    1    3    3    0    0 -0.26972064885E+02 -0.54237279281E+01  0.73161548871E+01  0.28468144151E+02  0.51100000000E-03 0.  1.
         12    1    3    3    0    0  0.24909763716E+01  0.17187750981E+02  0.27576806353E+01  0.17584895495E+02  0.00000000000E+00 0. -1.
</event>
<event>
 7    1  0.6830263E-012  0.5930195E+02  0.7816164E-02  0.1266605E+00
        -11   -1    0    0    0    0  0.00000000000E+00  0.00000000000E+00  0.45593999997E+02  0.45594000000E+02  0.51100000000E-03 0. -1.
         11   -1    0    0    0    0 -0.00000000000E+00 -0.00000000000E+00 -0.45593999997E+02  0.45594000000E+02  0.51100000000E-03 0.  1.
    9900012    2    1    2    0    0  0.27936024814E+02 -0.14007142879E+02  0.63323617146E+01  0.59301947580E+02  0.50000006479E+02 0.  0.
        -12    1    1    2    0    0 -0.27936024814E+02  0.14007142879E+02 -0.63323617146E+01  0.31886052420E+02  0.00000000000E+00 0.  1.
         11    1    3    3    0    0 -0.38673671205E+01 -0.51634564361E+01 -0.57493555170E+01  0.86413482706E+01  0.51100000000E-03 0. -1.
        -11    1    3    3    0    0  0.10290100310E+01 -0.22884656604E+01 -0.11226279464E+02  0.11503272907E+02  0.51100000000E-03 0.  1.
         12    1    3    3    0    0  0.30774381903E+02 -0.65552207823E+01  0.23307996695E+02  0.39157326402E+02  0.00000000000E+00 0. -1.
</event>
<event>
 7    1  0.6830263E-012  0.5930194E+02  0.7816164E-02  0.1266605E+00
        -11   -1    0    0    0    0  0.00000000000E+00  0.00000000000E+00  0.45593999997E+02  0.45594000000E+02  0.51100000000E-03 0.  1.
         11   -1    0    0    0    0 -0.00000000000E+00 -0.00000000000E+00 -0.45593999997E+02  0.45594000000E+02  0.51100000000E-03 0. -1.
    9900012    2    1    2    0    0  0.21781353796E+02 -0.37713917142E+00 -0.23284137364E+02  0.59301942546E+02  0.49999997298E+02 0.  0.
        -12    1    1    2    0    0 -0.21781353796E+02  0.37713917142E+00  0.23284137364E+02  0.31886057454E+02  0.00000000000E+00 0.  1.
         11    1    3    3    0    0  0.48073105837E+01 -0.12108161944E+02 -0.14692592398E+02  0.19636448058E+02  0.51100000000E-03 0. -1.
        -11    1    3    3    0    0 -0.78195252102E+01  0.18917217135E+01  0.52569027049E+01  0.96103388007E+01  0.51100000000E-03 0.  1.
        -12    1    3    3    0    0  0.24793568423E+02  0.98393010595E+01 -0.13848447671E+02  0.30055155687E+02  0.00000000000E+00 0.  1.
</event>
<event>
 7    1  0.6830263E-012  0.5930183E+02  0.7816164E-02  0.1266605E+00
        -11   -1    0    0    0    0  0.00000000000E+00  0.00000000000E+00  0.45593999997E+02  0.45594000000E+02  0.51100000000E-03 0. -1.
         11   -1    0    0    0    0 -0.00000000000E+00 -0.00000000000E+00 -0.45593999997E+02  0.45594000000E+02  0.51100000000E-03 0.  1.
    9900012    2    1    2    0    0  0.28404001965E+02  0.84610095584E+00 -0.14464595716E+02  0.59301831468E+02  0.49999794717E+02 0.  0.
        -12    1    1    2    0    0 -0.28404001965E+02 -0.84610095584E+00  0.14464595716E+02  0.31886168532E+02  0.00000000000E+00 0.  1.
         11    1    3    3    0    0  0.58051552109E+01  0.69331868938E+01 -0.11059410086E+02  0.14285638216E+02  0.51100000000E-03 0. -1.
        -11    1    3    3    0    0  0.43379017435E+01 -0.20483370037E+02 -0.55598986725E+01  0.21663294142E+02  0.51100000000E-03 0.  1.
         12    1    3    3    0    0  0.18260945010E+02  0.14396284099E+02  0.21547130421E+01  0.23352899109E+02  0.00000000000E+00 0. -1.
</event>
<event>
 7    1  0.6830263E-012  0.5930193E+02  0.7816164E-02  0.1266605E+00
        -11   -1    0    0    0    0  0.00000000000E+00  0.00000000000E+00  0.45593999997E+02  0.45594000000E+02  0.51100000000E-03 0.  1.
         11   -1    0    0    0    0 -0.00000000000E+00 -0.00000000000E+00 -0.45593999997E+02  0.45594000000E+02  0.51100000000E-03 0. -1.
    9900012    2    1    2    0    0 -0.52547975799E+01 -0.87310106431E+01 -0.30213873768E+02  0.59301927609E+02  0.49999970057E+02 0.  0.
        -12    1    1    2    0    0  0.52547975799E+01  0.87310106431E+01  0.30213873768E+02  0.31886072391E+02  0.00000000000E+00 0.  1.
         11    1    3    3    0    0  0.12946641428E+02 -0.75159410795E+01 -0.19606856222E+01  0.15097986056E+02  0.51100000000E-03 0. -1.
        -11    1    3    3    0    0  0.44771968741E+00  0.69299769705E+01 -0.21762534846E+02  0.22843663386E+02  0.51100000000E-03 0.  1.
        -12    1    3    3    0    0 -0.18649158696E+02 -0.81450465342E+01 -0.64906532993E+01  0.21360278167E+02  0.00000000000E+00 0.  1.
</event>
<event>
 7    1  0.6830263E-012  0.5930195E+02  0.7816164E-02  0.1266605E+00
        -11   -1    0    0    0    0  0.00000000000E+00  0.00000000000E+00  0.45593999997E+02  0.45594000000E+02  0.51100000000E-03 0.  1.
         11   -1    0    0    0    0 -0.00000000000E+00 -0.00000000000E+00 -0.45593999997E+02  0.45594000000E+02  0.51100000000E-03 0. -1.
    9900012    2    1    2    0    0  0.14248853774E+02  0.28517480504E+02  0.66615815468E+00  0.59301948271E+02  0.50000007739E+02 0.  0.
        -12    1    1    2    0    0 -0.14248853774E+02 -0.28517480504E+02 -0.66615815468E+00  0.31886051729E+02  0.00000000000E+00 0.  1.
         11    1    3    3    0    0  0.11968015090E+02  0.31879848060E+02 -0.11055287408E+01  0.34070225880E+02  0.51100000000E-03 0. -1.
        -11    1    3    3    0    0  0.11559637369E+02  0.47196388667E+01  0.30713396352E+01  0.12858201062E+02  0.51100000000E-03 0.  1.
         12    1    3    3    0    0 -0.92787986841E+01 -0.80820064223E+01 -0.12996527397E+01  0.12373521329E+02  0.00000000000E+00 0. -1.
</event>
<event>
 7    1  0.6830263E-012  0.5930195E+02  0.7816164E-02  0.1266605E+00
        -11   -1    0    0    0    0  0.00000000000E+00  0.00000000000E+00  0.45593999997E+02  0.45594000000E+02  0.51100000000E-03 0.  1.
         11   -1    0    0    0    0 -0.00000000000E+00 -0.00000000000E+00 -0.45593999997E+02  0.45594000000E+02  0.51100000000E-03 0. -1.
    9900012    2    1    2    0    0  0.18877088484E+02  0.10745663353E+02  0.23343231081E+02  0.59301949949E+02  0.50000010799E+02 0.  0.
        -12    1    1    2    0    0 -0.18877088484E+02 -0.10745663353E+02 -0.23343231081E+02  0.31886050051E+02  0.00000000000E+00 0.  1.
         11    1    3    3    0    0  0.11361573521E+02  0.94560196805E+01  0.26038227204E+02  0.29941458503E+02  0.51100000000E-03 0. -1.
        -11    1    3    3    0    0  0.11691358181E+01  0.12234372866E+02  0.63254797756E+01  0.13822389542E+02  0.51100000000E-03 0.  1.
         12    1    3    3    0    0  0.63463791447E+01 -0.10944729193E+02 -0.90204758985E+01  0.15538101905E+02  0.00000000000E+00 0. -1.
</event>
<event>
 7    1  0.6830263E-012  0.5930194E+02  0.7816164E-02  0.1266605E+00
        -11   -1    0    0    0    0  0.00000000000E+00  0.00000000000E+00  0.45593999997E+02  0.45594000000E+02  0.51100000000E-03 0.  1.
         11   -1    0    0    0    0 -0.00000000000E+00 -0.00000000000E+00 -0.45593999997E+02  0.45594000000E+02  0.51100000000E-03 0. -1.
    9900012    2    1    2    0    0  0.25484309951E+02  0.70525490921E+01  0.17819440909E+02  0.59301937579E+02  0.49999988239E+02 0.  0.
        -12    1    1    2    0    0 -0.25484309951E+02 -0.70525490921E+01 -0.17819440909E+02  0.31886062421E+02  0.00000000000E+00 0.  1.
         11    1    3    3    0    0  0.13513186471E+02  0.21254554671E+02 -0.34367426143E+01  0.25419943016E+02  0.51100000000E-03 0. -1.
        -11    1    3    3    0    0 -0.67141710841E+00 -0.11953378538E+01  0.14440108845E+02  0.14505046612E+02  0.51100000000E-03 0.  1.
        -12    1    3    3    0    0  0.12642540589E+02 -0.13006667725E+02  0.68160746789E+01  0.19376947951E+02  0.00000000000E+00 0.  1.
</event>
<event>
 7    1  0.6830263E-012  0.5930193E+02  0.7816164E-02  0.1266605E+00
        -11   -1    0    0    0    0  0.00000000000E+00  0.00000000000E+00  0.45593999997E+02  0.45594000000E+02  0.51100000000E-03 0. -1.
         11   -1    0    0    0    0 -0.00000000000E+00 -0.00000000000E+00 -0.45593999997E+02  0.45594000000E+02  0.51100000000E-03 0.  1.
    9900012    2    1    2    0    0 -0.27624937262E+02  0.12421751395E+02  0.99641496294E+01  0.59301931815E+02  0.49999977727E+02 0.  0.
        -12    1    1    2    0    0  0.27624937262E+02 -0.12421751395E+02 -0.99641496294E+01  0.31886068185E+02  0.00000000000E+00 0.  1.
         11    1    3    3    0    0 -0.23578036257E+01  0.14329664920E+02 -0.30809966871E+01  0.14845574273E+02  0.51100000000E-03 0. -1.
        -11    1    3    3    0    0 -0.45422627611E+01  0.14738046643E+02  0.15655088308E+01  0.15501386648E+02  0.51100000000E-03 0.  1.
        -12    1    3    3    0    0 -0.20724870875E+02 -0.16645960168E+02  0.11479637486E+02  0.28954970895E+02  0.00000000000E+00 0.  1.
</event>
<event>
 7    1  0.6830263E-012  0.5930195E+02  0.7816164E-02  0.1266605E+00
        -11   -1    0    0    0    0  0.00000000000E+00  0.00000000000E+00  0.45593999997E+02  0.45594000000E+02  0.51100000000E-03 0. -1.
         11   -1    0    0    0    0 -0.00000000000E+00 -0.00000000000E+00 -0.45593999997E+02  0.45594000000E+02  0.51100000000E-03 0.  1.
    9900012    2    1    2    0    0  0.14602724440E+02 -0.28311639376E+02  0.13897446785E+01  0.59301954847E+02  0.50000019732E+02 0.  0.
        -12    1    1    2    0    0 -0.14602724440E+02  0.28311639376E+02 -0.13897446785E+01  0.31886045153E+02  0.00000000000E+00 0.  1.
         11    1    3    3    0    0  0.10394921171E+02  0.61979411393E+01  0.41346931836E+01  0.12789235649E+02  0.51100000000E-03 0. -1.
        -11    1    3    3    0    0  0.84690141482E+01 -0.13075857160E+01 -0.90350350970E+01  0.12452543536E+02  0.51100000000E-03 0.  1.
         12    1    3    3    0    0 -0.42612108791E+01 -0.33201994799E+02  0.62900865919E+01  0.34060175662E+02  0.00000000000E+00 0. -1.
</event>
<event>
 7    1  0.6830263E-012  0.5930195E+02  0.7816164E-02  0.1266605E+00
        -11   -1    0    0    0    0  0.00000000000E+00  0.00000000000E+00  0.45593999997E+02  0.45594000000E+02  0.51100000000E-03 0. -1.
         11   -1    0    0    0    0 -0.00000000000E+00 -0.00000000000E+00 -0.45593999997E+02  0.45594000000E+02  0.51100000000E-03 0.  1.
    9900012    2    1    2    0    0 -0.27431412930E+02  0.95149474161E+01  0.13179674435E+02  0.59301945715E+02  0.50000003078E+02 0.  0.
        -12    1    1    2    0    0  0.27431412930E+02 -0.95149474161E+01 -0.13179674435E+02  0.31886054285E+02  0.00000000000E+00 0.  1.
         11    1    3    3    0    0  0.37307878186E+01  0.39452175293E+01 -0.29463357423E+00  0.54378606368E+01  0.51100000000E-03 0. -1.
        -11    1    3    3    0    0 -0.21815652407E+02  0.86010063259E+01 -0.12157047425E+02  0.26413894111E+02  0.51100000000E-03 0.  1.
         12    1    3    3    0    0 -0.93465483411E+01 -0.30312764391E+01  0.25631355434E+02  0.27450190967E+02  0.00000000000E+00 0. -1.
</event>
<event>
 7    1  0.6830263E-012  0.5930195E+02  0.7816164E-02  0.1266605E+00
        -11   -1    0    0    0    0  0.00000000000E+00  0.00000000000E+00  0.45593999997E+02  0.45594000000E+02  0.51100000000E-03 0. -1.
         11   -1    0    0    0    0 -0.00000000000E+00 -0.00000000000E+00 -0.45593999997E+02  0.45594000000E+02  0.51100000000E-03 0.  1.
    9900012    2    1    2    0    0  0.17565721055E+02  0.26583722975E+02  0.12131028241E+01  0.59301945026E+02  0.50000001820E+02 0.  0.
        -12    1    1    2    0    0 -0.17565721055E+02 -0.26583722975E+02 -0.12131028241E+01  0.31886054974E+02  0.00000000000E+00 0.  1.
         11    1    3    3    0    0 -0.33674002078E+01  0.10295463621E+02 -0.31471850937E+00  0.10836743207E+02  0.51100000000E-03 0. -1.
        -11    1    3    3    0    0 -0.89086949260E+01  0.95020007337E+01 -0.92978189029E+01  0.16003196551E+02  0.51100000000E-03 0.  1.
         12    1    3    3    0    0  0.29841816188E+02  0.67862586199E+01  0.10825640236E+02  0.32462005268E+02  0.00000000000E+00 0. -1.
</event>
<event>
 7    1  0.6830263E-012  0.5930195E+02  0.7816164E-02  0.1266605E+00
        -11   -1    0    0    0    0  0.00000000000E+00  0.00000000000E+00  0.45593999997E+02  0.45594000000E+02  0.51100000000E-03 0.  1.
         11   -1    0    0    0    0 -0.00000000000E+00 -0.00000000000E+00 -0.45593999997E+02  0.45594000000E+02  0.51100000000E-03 0. -1.
    9900012    2    1    2    0    0 -0.19294610258E+02  0.12175799576E+01 -0.25356574647E+02  0.59301947190E+02  0.50000005768E+02 0.  0.
        -12    1    1    2    0    0  0.19294610258E+02 -0.12175799576E+01  0.25356574647E+02  0.31886052810E+02  0.00000000000E+00 0.  1.
         11    1    3    3    0    0 -0.46051127525E+01  0.51216929050E+01 -0.97848238374E+00  0.69567398767E+01  0.51100000000E-03 0. -1.
        -11    1    3    3    0    0 -0.98296152589E+01  0.36924546029E+01  0.11370194143E+02  0.15476978783E+02  0.51100000000E-03 0.  1.
         12    1    3    3    0    0 -0.48598822465E+01 -0.75965675503E+01 -0.35748286406E+02  0.36868228531E+02  0.00000000000E+00 0. -1.
</event>
<event>
 7    1  0.6830263E-012  0.5930194E+02  0.7816164E-02  0.1266605E+00
        -11   -1    0    0    0    0  0.00000000000E+00  0.00000000000E+00  0.45593999997E+02  0.45594000000E+02  0.51100000000E-03 0.  1.
         11   -1    0    0    0    0 -0.00000000000E+00 -0.00000000000E+00 -0.45593999997E+02  0.45594000000E+02  0.51100000000E-03 0. -1.
    9900012    2    1    2    0    0  0.14016679189E+02  0.22641716652E+02 -0.17538698267E+02  0.59301944030E+02  0.50000000003E+02 0.  0.
        -12    1    1    2    0    0 -0.14016679189E+02 -0.22641716652E+02  0.17538698267E+02  0.31886055970E+02  0.00000000000E+00 0.  1.
         11    1    3    3    0    0  0.57440394242E+01 -0.10193646700E+02  0.41171220075E+01  0.12403834723E+02  0.51100000000E-03 0.  1.
        -11    1    3    3    0    0  0.48772029654E+01  0.96852206714E+01 -0.20832485288E+02  0.23485805325E+02  0.51100000000E-03 0. -1.
        -12    1    3    3    0    0  0.33954367994E+01  0.23150142681E+02 -0.82333498654E+00  0.23412303981E+02  0.00000000000E+00 0.  1.
</event>
<event>
 7    1  0.6830263E-012  0.5930196E+02  0.7816164E-02  0.1266605E+00
        -11   -1    0    0    0    0  0.00000000000E+00  0.00000000000E+00  0.45593999997E+02  0.45594000000E+02  0.51100000000E-03 0.  1.
         11   -1    0    0    0    0 -0.00000000000E+00 -0.00000000000E+00 -0.45593999997E+02  0.45594000000E+02  0.51100000000E-03 0. -1.
    9900012    2    1    2    0    0  0.11848360543E+02  0.73828226289E+01 -0.28667578113E+02  0.59301956778E+02  0.50000023253E+02 0.  0.
        -12    1    1    2    0    0 -0.11848360543E+02 -0.73828226289E+01  0.28667578113E+02  0.31886043222E+02  0.00000000000E+00 0.  1.
         11    1    3    3    0    0  0.11474735795E+02  0.15833086761E+02 -0.22185188125E+02  0.29572601683E+02  0.51100000000E-03 0. -1.
        -11    1    3    3    0    0  0.35283989240E+01  0.41396145021E+01 -0.13797359748E+02  0.14830817357E+02  0.51100000000E-03 0.  1.
        -12    1    3    3    0    0 -0.31547741762E+01 -0.12589878634E+02  0.73149697602E+01  0.14898537738E+02  0.00000000000E+00 0.  1.
</event>
<event>
 7    1  0.6830263E-012  0.5930192E+02  0.7816164E-02  0.1266605E+00
        -11   -1    0    0    0    0  0.00000000000E+00  0.00000000000E+00  0.45593999997E+02  0.45594000000E+02  0.51100000000E-03 0. -1.
         11   -1    0    0    0    0 -0.00000000000E+00 -0.00000000000E+00 -0.45593999997E+02  0.45594000000E+02  0.51100000000E-03 0.  1.
    9900012    2    1    2    0    0  0.24125354282E+02 -0.17135562401E+01  0.20778665775E+02  0.59301922385E+02  0.49999960530E+02 0.  0.
        -12    1    1    2    0    0 -0.24125354282E+02  0.17135562401E+01 -0.20778665775E+02  0.31886077615E+02  0.00000000000E+00 0.  1.
         11    1    3    3    0    0  0.17532638411E+02 -0.20048828525E+02  0.11978939330E+02  0.29203491617E+02  0.51100000000E-03 0. -1.
        -11    1    3    3    0    0  0.71114516458E+01  0.18025443396E+01  0.11195354299E+02  0.13384986692E+02  0.51100000000E-03 0.  1.
        -12    1    3    3    0    0 -0.51873577467E+00  0.16532727945E+02 -0.23956278536E+01  0.16713444077E+02  0.00000000000E+00 0.  1.
</event>
<event>
 7    1  0.6830263E-012  0.5930194E+02  0.7816164E-02  0.1266605E+00
        -11   -1    0    0    0    0  0.00000000000E+00  0.00000000000E+00  0.45593999997E+02  0.45594000000E+02  0.51100000000E-03 0.  1.
         11   -1    0    0    0    0 -0.00000000000E+00 -0.00000000000E+00 -0.45593999997E+02  0.45594000000E+02  0.51100000000E-03 0. -1.
    9900012    2    1    2    0    0 -0.11231747952E+02  0.51015814857E+01 -0.29403102216E+02  0.59301941673E+02  0.49999995705E+02 0.  0.
        -12    1    1    2    0    0  0.11231747952E+02 -0.51015814857E+01  0.29403102216E+02  0.31886058327E+02  0.00000000000E+00 0.  1.
         11    1    3    3    0    0 -0.45964148783E+01 -0.69132040230E+01 -0.82901698879E+01  0.11732277555E+02  0.51100000000E-03 0. -1.
        -11    1    3    3    0    0 -0.27379017931E+01 -0.14254344936E+02 -0.13791628706E+02  0.20022274557E+02  0.51100000000E-03 0.  1.
         12    1    3    3    0    0 -0.38974312803E+01  0.26269130445E+02 -0.73213036217E+01  0.27547389561E+02  0.00000000000E+00 0. -1.
</event>
<event>
 7    1  0.6830263E-012  0.5930194E+02  0.7816164E-02  0.1266605E+00
        -11   -1    0    0    0    0  0.00000000000E+00  0.00000000000E+00  0.45593999997E+02  0.45594000000E+02  0.51100000000E-03 0.  1.
         11   -1    0    0    0    0 -0.00000000000E+00 -0.00000000000E+00 -0.45593999997E+02  0.45594000000E+02  0.51100000000E-03 0. -1.
    9900012    2    1    2    0    0  0.18891225111E+02 -0.21337065742E+02 -0.14302860024E+02  0.59301944026E+02  0.49999999997E+02 0.  0.
        -12    1    1    2    0    0 -0.18891225111E+02  0.21337065742E+02  0.14302860024E+02  0.31886055974E+02  0.00000000000E+00 0.  1.
         11    1    3    3    0    0  0.68011789090E+01  0.35844049039E+01 -0.14224701439E+01  0.78184023073E+01  0.51100000000E-03 0. -1.
        -11    1    3    3    0    0 -0.15424612718E+02 -0.10442001098E+02 -0.66158866094E+01  0.19766740255E+02  0.51100000000E-03 0.  1.
         12    1    3    3    0    0  0.27514658920E+02 -0.14479469547E+02 -0.62645032710E+01  0.31716801464E+02  0.00000000000E+00 0. -1.
</event>
<event>
 7    1  0.6830263E-012  0.5930194E+02  0.7816164E-02  0.1266605E+00
        -11   -1    0    0    0    0  0.00000000000E+00  0.00000000000E+00  0.45593999997E+02  0.45594000000E+02  0.51100000000E-03 0. -1.
         11   -1    0    0    0    0 -0.00000000000E+00 -0.00000000000E+00 -0.45593999997E+02  0.45594000000E+02  0.51100000000E-03 0.  1.
    9900012    2    1    2    0    0  0.19977752787E+02 -0.16071964039E+02  0.18955272096E+02  0.59301937610E+02  0.49999988296E+02 0.  0.
        -12    1    1    2    0    0 -0.19977752787E+02  0.16071964039E+02 -0.18955272096E+02  0.31886062390E+02  0.00000000000E+00 0.  1.
         11    1    3    3    0    0 -0.11978724359E+01 -0.96179233392E+01 -0.26255985451E+01  0.10041569385E+02  0.51100000000E-03 0. -1.
        -11    1    3    3    0    0 -0.30797230889E+00  0.10785032863E+01 -0.10147587699E+02  0.10209385518E+02  0.51100000000E-03 0.  1.
         12    1    3    3    0    0  0.21483597532E+02 -0.75325439866E+01  0.31728458340E+02  0.39050982708E+02  0.00000000000E+00 0. -1.
</event>
<event>
 7    1  0.6830263E-012  0.5930194E+02  0.7816164E-02  0.1266605E+00
        -11   -1    0    0    0    0  0.00000000000E+00  0.00000000000E+00  0.45593999997E+02  0.45594000000E+02  0.51100000000E-03 0. -1.
         11   -1    0    0    0    0 -0.00000000000E+00 -0.00000000000E+00 -0.45593999997E+02  0.45594000000E+02  0.51100000000E-03 0.  1.
    9900012    2    1    2    0    0 -0.12507878371E+01 -0.58459787059E+01  0.31320613558E+02  0.59301940806E+02  0.49999994125E+02 0.  0.
        -12    1    1    2    0    0  0.12507878371E+01  0.58459787059E+01 -0.31320613558E+02  0.31886059194E+02  0.00000000000E+00 0.  1.
         11    1    3    3    0    0  0.89643456681E+01 -0.74679035693E+01  0.11230080292E+01  0.11721357612E+02  0.51100000000E-03 0. -1.
        -11    1    3    3    0    0 -0.10476304304E+00 -0.79252563018E+01 -0.52473107271E+01  0.95055211783E+01  0.51100000000E-03 0.  1.
         12    1    3    3    0    0 -0.10110370462E+02  0.95471811651E+01  0.35444916256E+02  0.38075062016E+02  0.00000000000E+00 0. -1.
</event>
<event>
 7    1  0.6830263E-012  0.5930194E+02  0.7816164E-02  0.1266605E+00
        -11   -1    0    0    0    0  0.00000000000E+00  0.00000000000E+00  0.45593999997E+02  0.45594000000E+02  0.51100000000E-03 0.  1.
         11   -1    0    0    0    0 -0.00000000000E+00 -0.00000000000E+00 -0.45593999997E+02  0.45594000000E+02  0.51100000000E-03 0. -1.
    9900012    2    1    2    0    0 -0.53255667262E+01  0.10097472085E+02 -0.29772476538E+02  0.59301937799E+02  0.49999988640E+02 0.  0.
        -12    1    1    2    0    0  0.53255667262E+01 -0.10097472085E+02  0.29772476538E+02  0.31886062201E+02  0.00000000000E+00 0.  1.
         11    1    3    3    0    0  0.14948539131E+01 -0.17505421002E+02 -0.22542405657E+02  0.28580315004E+02  0.51100000000E-03 0. -1.
        -11    1    3    3    0    0  0.19755445787E+01  0.23912797375E+01 -0.13339249554E+01  0.33764406130E+01  0.51100000000E-03 0.  1.
        -12    1    3    3    0    0 -0.87959652179E+01  0.25211613349E+02 -0.58961459258E+01  0.27345182182E+02  0.00000000000E+00 0.  1.
</event>
<event>
 7    1  0.6830263E-012  0.5930195E+02  0.7816164E-02  0.1266605E+00
        -11   -1    0    0    0    0  0.00000000000E+00  0.00000000000E+00  0.45593999997E+02  0.45594000000E+02  0.51100000000E-03 0. -1.
         11   -1    0    0    0    0 -0.00000000000E+00 -0.00000000000E+00 -0.45593999997E+02  0.45594000000E+02  0.51100000000E-03 0.  1.
    9900012    2    1    2    0    0 -0.15178138176E+02 -0.19416374324E+02  0.20232370415E+02  0.59301948457E+02  0.50000008078E+02 0.  0.
        -12    1    1    2    0    0  0.15178138176E+02  0.19416374324E+02 -0.20232370415E+02  0.31886051543E+02  0.00000000000E+00 0.  1.
         11    1    3    3    0    0 -0.15929402043E+02  0.93621543442E+01  0.59190598710E+01  0.19401831187E+02  0.51100000000E-03 0. -1.
        -11    1    3    3    0    0  0.81088464763E+01 -0.10223998026E+01  0.94981563627E+00  0.82280521715E+01  0.51100000000E-03 0.  1.
         12    1    3    3    0    0 -0.73575826094E+01 -0.27756128865E+02  0.13363494908E+02  0.31672065098E+02  0.00000000000E+00 0. -1.
</event>
<event>
 7    1  0.6830263E-012  0.5930186E+02  0.7816164E-02  0.1266605E+00
        -11   -1    0    0    0    0  0.00000000000E+00  0.00000000000E+00  0.45593999997E+02  0.45594000000E+02  0.51100000000E-03 0.  1.
         11   -1    0    0    0    0 -0.00000000000E+00 -0.00000000000E+00 -0.45593999997E+02  0.45594000000E+02  0.51100000000E-03 0. -1.
    9900012    2    1    2    0    0 -0.29589431619E+02 -0.71093537369E+01 -0.95209455638E+01  0.59301862283E+02  0.49999850917E+02 0.  0.
        -12    1    1    2    0    0  0.29589431619E+02  0.71093537369E+01  0.95209455638E+01  0.31886137717E+02  0.00000000000E+00 0.  1.
         11    1    3    3    0    0 -0.21931533355E+01 -0.77361871203E+01 -0.59002963896E+00  0.80626700261E+01  0.51100000000E-03 0. -1.
        -11    1    3    3    0    0  0.27955432082E+01 -0.15654302672E+02 -0.52215830083E+01  0.16737299165E+02  0.51100000000E-03 0.  1.
        -12    1    3    3    0    0 -0.30191821491E+02  0.16281136056E+02 -0.37093329165E+01  0.34501893092E+02  0.00000000000E+00 0.  1.
</event>
<event>
 7    1  0.6830263E-012  0.5930196E+02  0.7816164E-02  0.1266605E+00
        -11   -1    0    0    0    0  0.00000000000E+00  0.00000000000E+00  0.45593999997E+02  0.45594000000E+02  0.51100000000E-03 0.  1.
         11   -1    0    0    0    0 -0.00000000000E+00 -0.00000000000E+00 -0.45593999997E+02  0.45594000000E+02  0.51100000000E-03 0. -1.
    9900012    2    1    2    0    0 -0.16920635982E+02 -0.20813971137E+02  0.17239214091E+02  0.59301955733E+02  0.50000021347E+02 0.  0.
        -12    1    1    2    0    0  0.16920635982E+02  0.20813971137E+02 -0.17239214091E+02  0.31886044267E+02  0.00000000000E+00 0.  1.
         11    1    3    3    0    0 -0.21095328114E+01  0.23437127061E+00 -0.81793628488E+01  0.84502683655E+01  0.51100000000E-03 0. -1.
        -11    1    3    3    0    0 -0.12836409043E+02 -0.18973785816E+02 -0.22655583562E+01  0.23019789318E+02  0.51100000000E-03 0.  1.
        -12    1    3    3    0    0 -0.19746941274E+01 -0.20745565917E+01  0.27684135296E+02  0.27831898050E+02  0.00000000000E+00 0.  1.
</event>
<event>
 7    1  0.6830263E-012  0.5930194E+02  0.7816164E-02  0.1266605E+00
        -11   -1    0    0    0    0  0.00000000000E+00  0.00000000000E+00  0.45593999997E+02  0.45594000000E+02  0.51100000000E-03 0.  1.
         11   -1    0    0    0    0 -0.00000000000E+00 -0.00000000000E+00 -0.45593999997E+02  0.45594000000E+02  0.51100000000E-03 0. -1.
    9900012    2    1    2    0    0 -0.39148387809E+01  0.35677107912E+01 -0.31443060127E+02  0.59301944221E+02  0.50000000353E+02 0.  0.
        -12    1    1    2    0    0  0.39148387809E+01 -0.35677107912E+01  0.31443060127E+02  0.31886055779E+02  0.00000000000E+00 0.  1.
         11    1    3    3    0    0 -0.88178706085E+01 -0.79941484953E+01  0.24359047846E+01  0.12148863511E+02  0.51100000000E-03 0. -1.
        -11    1    3    3    0    0  0.30612506567E+01  0.13087125886E+02 -0.25359446693E+00  0.13442783564E+02  0.51100000000E-03 0.  1.
         12    1    3    3    0    0  0.18417811709E+01 -0.15252665994E+01 -0.33625370445E+02  0.33710297146E+02  0.00000000000E+00 0. -1.
</event>
<event>
 7    1  0.6830263E-012  0.5930195E+02  0.7816164E-02  0.1266605E+00
        -11   -1    0    0    0    0  0.00000000000E+00  0.00000000000E+00  0.45593999997E+02  0.45594000000E+02  0.51100000000E-03 0. -1.
         11   -1    0    0    0    0 -0.00000000000E+00 -0.00000000000E+00 -0.45593999997E+02  0.45594000000E+02  0.51100000000E-03 0.  1.
    9900012    2    1    2    0    0 -0.23128956417E+01 -0.29302641835E+02  0.12358227978E+02  0.59301951272E+02  0.50000013211E+02 0.  0.
        -12    1    1    2    0    0  0.23128956417E+01  0.29302641835E+02 -0.12358227978E+02  0.31886048728E+02  0.00000000000E+00 0.  1.
         11    1    3    3    0    0 -0.12952469011E+02 -0.65554737730E+01  0.14315019721E+02  0.20387753180E+02  0.51100000000E-03 0. -1.
        -11    1    3    3    0    0  0.44015212884E+01 -0.26622781388E+02  0.64571727282E+01  0.27746007972E+02  0.51100000000E-03 0.  1.
        -12    1    3    3    0    0  0.62380520812E+01  0.38756133261E+01 -0.84139644707E+01  0.11168190119E+02  0.00000000000E+00 0.  1.
</event>
<event>
 7    1  0.6830263E-012  0.5930194E+02  0.7816164E-02  0.1266605E+00
        -11   -1    0    0    0    0  0.00000000000E+00  0.00000000000E+00  0.45593999997E+02  0.45594000000E+02  0.51100000000E-03 0.  1.
         11   -1    0    0    0    0 -0.00000000000E+00 -0.00000000000E+00 -0.45593999997E+02  0.45594000000E+02  0.51100000000E-03 0. -1.
    9900012    2    1    2    0    0  0.23211712997E+02  0.18080466765E+02  0.12289598411E+02  0.59301935210E+02  0.49999983919E+02 0.  0.
        -12    1    1    2    0    0 -0.23211712997E+02 -0.18080466765E+02 -0.12289598411E+02  0.31886064790E+02  0.00000000000E+00 0.  1.
         11    1    3    3    0    0  0.15467340976E+01 -0.55014389485E+01 -0.40551880806E+01  0.70073366911E+01  0.51100000000E-03 0. -1.
        -11    1    3    3    0    0 -0.27709612250E+01  0.22516839081E+02  0.16126759713E+02  0.27834486655E+02  0.51100000000E-03 0.  1.
         12    1    3    3    0    0  0.24435940124E+02  0.10650666325E+01  0.21802677945E+00  0.24460111863E+02  0.00000000000E+00 0. -1.
</event>
<event>
 7    1  0.6830263E-012  0.5930191E+02  0.7816164E-02  0.1266605E+00
        -11   -1    0    0    0    0  0.00000000000E+00  0.00000000000E+00  0.45593999997E+02  0.45594000000E+02  0.51100000000E-03 0.  1.
         11   -1    0    0    0    0 -0.00000000000E+00 -0.00000000000E+00 -0.45593999997E+02  0.45594000000E+02  0.51100000000E-03 0. -1.
    9900012    2    1    2    0    0  0.10708748979E+02  0.42442958053E+01 -0.29732669783E+02  0.59301905790E+02  0.49999930263E+02 0.  0.
        -12    1    1    2    0    0 -0.10708748979E+02 -0.42442958053E+01  0.29732669783E+02  0.31886094210E+02  0.00000000000E+00 0.  1.
         11    1    3    3    0    0 -0.94640944534E+01 -0.72533660614E+01 -0.15823271489E+02  0.19813034193E+02  0.51100000000E-03 0. -1.
        -11    1    3    3    0    0  0.17048603150E+02  0.71729374410E+00 -0.20342847593E+02  0.26551851689E+02  0.51100000000E-03 0.  1.
         12    1    3    3    0    0  0.31242402825E+01  0.10780368123E+02  0.64334492996E+01  0.12937019908E+02  0.00000000000E+00 0. -1.
</event>
<event>
 7    1  0.6830263E-012  0.5930193E+02  0.7816164E-02  0.1266605E+00
        -11   -1    0    0    0    0  0.00000000000E+00  0.00000000000E+00  0.45593999997E+02  0.45594000000E+02  0.51100000000E-03 0.  1.
         11   -1    0    0    0    0 -0.00000000000E+00 -0.00000000000E+00 -0.45593999997E+02  0.45594000000E+02  0.51100000000E-03 0. -1.
    9900012    2    1    2    0    0 -0.26858311138E+01 -0.18314958030E+02 -0.25962857125E+02  0.59301932094E+02  0.49999978235E+02 0.  0.
        -12    1    1    2    0    0  0.26858311138E+01  0.18314958030E+02  0.25962857125E+02  0.31886067906E+02  0.00000000000E+00 0.  1.
         11    1    3    3    0    0 -0.36515921507E+01  0.20645097290E+01  0.38078831271E+01  0.56653596379E+01  0.51100000000E-03 0. -1.
        -11    1    3    3    0    0 -0.22856343149E+01  0.11916473638E+02 -0.73397388611E+01  0.14180910937E+02  0.51100000000E-03 0.  1.
         12    1    3    3    0    0  0.32513953517E+01 -0.32295941397E+02 -0.22431001391E+02  0.39455661519E+02  0.00000000000E+00 0. -1.
</event>
<event>
 7    1  0.6830263E-012  0.5930194E+02  0.7816164E-02  0.1266605E+00
        -11   -1    0    0    0    0  0.00000000000E+00  0.00000000000E+00  0.45593999997E+02  0.45594000000E+02  0.51100000000E-03 0.  1.
         11   -1    0    0    0    0 -0.00000000000E+00 -0.00000000000E+00 -0.45593999997E+02  0.45594000000E+02  0.51100000000E-03 0. -1.
    9900012    2    1    2    0    0  0.19799233380E+02  0.15162972934E+02 -0.19869458082E+02  0.59301941054E+02  0.49999994576E+02 0.  0.
        -12    1    1    2    0    0 -0.19799233380E+02 -0.15162972934E+02  0.19869458082E+02  0.31886058946E+02  0.00000000000E+00 0.  1.
         11    1    3    3    0    0  0.24714539993E+01  0.40439440266E+00  0.28261294447E+01  0.37760597987E+01  0.51100000000E-03 0. -1.
        -11    1    3    3    0    0  0.28025422238E+02  0.38896112033E+01 -0.13498056485E+00  0.28294373769E+02  0.51100000000E-03 0.  1.
         12    1    3    3    0    0 -0.10697642858E+02  0.10868967328E+02 -0.22560606962E+02  0.27231507487E+02  0.00000000000E+00 0. -1.
</event>
<event>
 7    1  0.6830263E-012  0.5930199E+02  0.7816164E-02  0.1266605E+00
        -11   -1    0    0    0    0  0.00000000000E+00  0.00000000000E+00  0.45593999997E+02  0.45594000000E+02  0.51100000000E-03 0. -1.
         11   -1    0    0    0    0 -0.00000000000E+00 -0.00000000000E+00 -0.45593999997E+02  0.45594000000E+02  0.51100000000E-03 0.  1.
    9900012    2    1    2    0    0  0.24498576353E+02  0.51474872776E+01  0.19749449428E+02  0.59301990195E+02  0.50000084198E+02 0.  0.
        -12    1    1    2    0    0 -0.24498576353E+02 -0.51474872776E+01 -0.19749449428E+02  0.31886009805E+02  0.00000000000E+00 0.  1.
         11    1    3    3    0    0  0.33777655089E+00 -0.66765084452E+01  0.15753647000E+02  0.17113364722E+02  0.51100000000E-03 0. -1.
        -11    1    3    3    0    0 -0.25937895236E+01 -0.71253208991E+01  0.55020796827E+01  0.93686083867E+01  0.51100000000E-03 0.  1.
         12    1    3    3    0    0  0.26754589325E+02  0.18949316622E+02 -0.15062772550E+01  0.32820017087E+02  0.00000000000E+00 0. -1.
</event>
<event>
 7    1  0.6830263E-012  0.5930195E+02  0.7816164E-02  0.1266605E+00
        -11   -1    0    0    0    0  0.00000000000E+00  0.00000000000E+00  0.45593999997E+02  0.45594000000E+02  0.51100000000E-03 0. -1.
         11   -1    0    0    0    0 -0.00000000000E+00 -0.00000000000E+00 -0.45593999997E+02  0.45594000000E+02  0.51100000000E-03 0.  1.
    9900012    2    1    2    0    0 -0.22522143427E+02 -0.37560445047E+00  0.22568388128E+02  0.59301950293E+02  0.50000011426E+02 0.  0.
        -12    1    1    2    0    0  0.22522143427E+02  0.37560445047E+00 -0.22568388128E+02  0.31886049707E+02  0.00000000000E+00 0.  1.
         11    1    3    3    0    0  0.64264221111E+01  0.32979147471E+01  0.21738922643E+02  0.22907551174E+02  0.51100000000E-03 0. -1.
        -11    1    3    3    0    0 -0.19463567193E+02  0.59558000437E+01  0.70159219478E+01  0.21529634532E+02  0.51100000000E-03 0.  1.
         12    1    3    3    0    0 -0.94849983445E+01 -0.96293192413E+01 -0.61864564632E+01  0.14864764587E+02  0.00000000000E+00 0. -1.
</event>
<event>
 7    1  0.6830263E-012  0.5930211E+02  0.7816164E-02  0.1266604E+00
        -11   -1    0    0    0    0  0.00000000000E+00  0.00000000000E+00  0.45593999997E+02  0.45594000000E+02  0.51100000000E-03 0.  1.
         11   -1    0    0    0    0 -0.00000000000E+00 -0.00000000000E+00 -0.45593999997E+02  0.45594000000E+02  0.51100000000E-03 0. -1.
    9900012    2    1    2    0    0  0.19058002565E+02 -0.20990228490E+02 -0.14591524940E+02  0.59302113563E+02  0.50000309190E+02 0.  0.
        -12    1    1    2    0    0 -0.19058002565E+02  0.20990228490E+02  0.14591524940E+02  0.31885886437E+02  0.00000000000E+00 0.  1.
         11    1    3    3    0    0  0.79746554021E+01 -0.60207846108E+01 -0.12399136077E+02  0.15924306949E+02  0.51100000000E-03 0. -1.
        -11    1    3    3    0    0 -0.73640951884E+00  0.10230325703E+02 -0.10148551725E+02  0.14428962726E+02  0.51100000000E-03 0.  1.
        -12    1    3    3    0    0  0.11819756681E+02 -0.25199769582E+02  0.79561628611E+01  0.28948843888E+02  0.00000000000E+00 0.  1.
</event>
<event>
 7    1  0.6830263E-012  0.5930196E+02  0.7816164E-02  0.1266605E+00
        -11   -1    0    0    0    0  0.00000000000E+00  0.00000000000E+00  0.45593999997E+02  0.45594000000E+02  0.51100000000E-03 0.  1.
         11   -1    0    0    0    0 -0.00000000000E+00 -0.00000000000E+00 -0.45593999997E+02  0.45594000000E+02  0.51100000000E-03 0. -1.
    9900012    2    1    2    0    0 -0.15025872208E+02  0.76509357963E+01 -0.27062997764E+02  0.59301960701E+02  0.50000030409E+02 0.  0.
        -12    1    1    2    0    0  0.15025872208E+02 -0.76509357963E+01  0.27062997764E+02  0.31886039299E+02  0.00000000000E+00 0.  1.
         11    1    3    3    0    0 -0.20723725745E+02  0.48982090363E+01 -0.22455384864E+02  0.30946883045E+02  0.51100000000E-03 0. -1.
        -11    1    3    3    0    0 -0.10654545371E+02 -0.20390170393E+01 -0.68560673945E+00  0.10869543892E+02  0.51100000000E-03 0.  1.
         12    1    3    3    0    0  0.16352398909E+02  0.47917437993E+01 -0.39220061609E+01  0.17485533765E+02  0.00000000000E+00 0. -1.
</event>
<event>
 7    1  0.6830263E-012  0.5930195E+02  0.7816164E-02  0.1266605E+00
        -11   -1    0    0    0    0  0.00000000000E+00  0.00000000000E+00  0.45593999997E+02  0.45594000000E+02  0.51100000000E-03 0. -1.
         11   -1    0    0    0    0 -0.00000000000E+00 -0.00000000000E+00 -0.45593999997E+02  0.45594000000E+02  0.51100000000E-03 0.  1.
    9900012    2    1    2    0    0 -0.25204404643E+02  0.19130398260E+02 -0.39352329135E+01  0.59301949616E+02  0.50000010192E+02 0.  0.
        -12    1    1    2    0    0  0.25204404643E+02 -0.19130398260E+02  0.39352329135E+01  0.31886050384E+02  0.00000000000E+00 0.  1.
         11    1    3    3    0    0 -0.54779963403E+01  0.59345035445E+00  0.12839521328E+01  0.56576638790E+01  0.51100000000E-03 0. -1.
        -11    1    3    3    0    0 -0.23276899688E+02 -0.94864566594E+01 -0.20368039963E+01  0.25218157938E+02  0.51100000000E-03 0.  1.
        -12    1    3    3    0    0  0.35504913849E+01  0.28023404565E+02 -0.31823810500E+01  0.28426127799E+02  0.00000000000E+00 0.  1.
</event>
<event>
 7    1  0.6830263E-012  0.5930193E+02  0.7816164E-02  0.1266605E+00
        -11   -1    0    0    0    0  0.00000000000E+00  0.00000000000E+00  0.45593999997E+02  0.45594000000E+02  0.51100000000E-03 0.  1.
         11   -1    0    0    0    0 -0.00000000000E+00 -0.00000000000E+00 -0.45593999997E+02  0.45594000000E+02  0.51100000000E-03 0. -1.
    9900012    2    1    2    0    0 -0.53368191538E+01  0.28106173600E+02  0.14081295640E+02  0.59301929060E+02  0.49999972703E+02 0.  0.
        -12    1    1    2    0    0  0.53368191538E+01 -0.28106173600E+02 -0.14081295640E+02  0.31886070940E+02  0.00000000000E+00 0.  1.
         11    1    3    3    0    0 -0.18182032864E+02 -0.16863908932E+00  0.78647476611E+01  0.19810830731E+02  0.51100000000E-03 0. -1.
        -11    1    3    3    0    0 -0.69524379074E+01  0.87198149648E+01  0.12157980069E+01  0.11218276647E+02  0.51100000000E-03 0.  1.
         12    1    3    3    0    0  0.19797651618E+02  0.19554997724E+02  0.50007499715E+01  0.28272821682E+02  0.00000000000E+00 0. -1.
</event>
<event>
 7    1  0.6830263E-012  0.5930196E+02  0.7816164E-02  0.1266605E+00
        -11   -1    0    0    0    0  0.00000000000E+00  0.00000000000E+00  0.45593999997E+02  0.45594000000E+02  0.51100000000E-03 0.  1.
         11   -1    0    0    0    0 -0.00000000000E+00 -0.00000000000E+00 -0.45593999997E+02  0.45594000000E+02  0.51100000000E-03 0. -1.
    9900012    2    1    2    0    0  0.19545797611E+02 -0.23676148489E+02  0.86093876654E+01  0.59301956541E+02  0.50000022821E+02 0.  0.
        -12    1    1    2    0    0 -0.19545797611E+02  0.23676148489E+02 -0.86093876654E+01  0.31886043459E+02  0.00000000000E+00 0.  1.
         11    1    3    3    0    0  0.63295731767E+01  0.35389344385E+01 -0.53895428109E+01  0.90351937185E+01  0.51100000000E-03 0. -1.
        -11    1    3    3    0    0  0.87664381584E+01  0.72388135766E+01 -0.27548324525E+01  0.11697861432E+02  0.51100000000E-03 0.  1.
        -12    1    3    3    0    0  0.44497862758E+01 -0.34453896504E+02  0.16753762929E+02  0.38568901390E+02  0.00000000000E+00 0.  1.
</event>
<event>
 7    1  0.6830263E-012  0.5930194E+02  0.7816164E-02  0.1266605E+00
        -11   -1    0    0    0    0  0.00000000000E+00  0.00000000000E+00  0.45593999997E+02  0.45594000000E+02  0.51100000000E-03 0.  1.
         11   -1    0    0    0    0 -0.00000000000E+00 -0.00000000000E+00 -0.45593999997E+02  0.45594000000E+02  0.51100000000E-03 0. -1.
    9900012    2    1    2    0    0  0.87457854759E+01  0.23005271419E+02 -0.20272871739E+02  0.59301943404E+02  0.49999998863E+02 0.  0.
        -12    1    1    2    0    0 -0.87457854759E+01 -0.23005271419E+02  0.20272871739E+02  0.31886056596E+02  0.00000000000E+00 0.  1.
         11    1    3    3    0    0 -0.33120785645E+00  0.10135519309E+01 -0.20639482409E+02  0.20667008021E+02  0.51100000000E-03 0. -1.
        -11    1    3    3    0    0  0.13946554411E+02  0.24510683790E+02 -0.73745334698E+01  0.29148992160E+02  0.51100000000E-03 0.  1.
         12    1    3    3    0    0 -0.48695610785E+01 -0.25189643018E+01  0.77411441396E+01  0.94859432236E+01  0.00000000000E+00 0. -1.
</event>
<event>
 7    1  0.6830263E-012  0.5930210E+02  0.7816164E-02  0.1266604E+00
        -11   -1    0    0    0    0  0.00000000000E+00  0.00000000000E+00  0.45593999997E+02  0.45594000000E+02  0.51100000000E-03 0.  1.
         11   -1    0    0    0    0 -0.00000000000E+00 -0.00000000000E+00 -0.45593999997E+02  0.45594000000E+02  0.51100000000E-03 0. -1.
    9900012    2    1    2    0    0  0.87648216283E+01 -0.22049545954E+02 -0.21300381288E+02  0.59302096877E+02  0.50000278760E+02 0.  0.
        -12    1    1    2    0    0 -0.87648216283E+01  0.22049545954E+02  0.21300381288E+02  0.31885903123E+02  0.00000000000E+00 0.  1.
         11    1    3    3    0    0  0.13276355034E+02 -0.93192624353E+01 -0.24049088448E+02  0.29008083541E+02  0.51100000000E-03 0. -1.
        -11    1    3    3    0    0  0.13149268285E+01  0.52919079711E+01  0.88499635354E+01  0.10394959229E+02  0.51100000000E-03 0.  1.
         12    1    3    3    0    0 -0.58264602339E+01 -0.18022191490E+02 -0.61012563752E+01  0.19899054106E+02  0.00000000000E+00 0. -1.
</event>
<event>
 7    1  0.6830263E-012  0.5930195E+02  0.7816164E-02  0.1266605E+00
        -11   -1    0    0    0    0  0.00000000000E+00  0.00000000000E+00  0.45593999997E+02  0.45594000000E+02  0.51100000000E-03 0.  1.
         11   -1    0    0    0    0 -0.00000000000E+00 -0.00000000000E+00 -0.45593999997E+02  0.45594000000E+02  0.51100000000E-03 0. -1.
    9900012    2    1    2    0    0 -0.12608832777E+02  0.27894954625E+02 -0.89224028441E+01  0.59301946151E+02  0.50000003873E+02 0.  0.
        -12    1    1    2    0    0  0.12608832777E+02 -0.27894954625E+02  0.89224028441E+01  0.31886053849E+02  0.00000000000E+00 0.  1.
         11    1    3    3    0    0  0.70089480679E+01 -0.76394210177E+01 -0.27924724535E+00  0.10371310707E+02  0.51100000000E-03 0. -1.
        -11    1    3    3    0    0  0.48006217076E+01  0.18549837462E+01  0.27001211737E+01  0.58118489392E+01  0.51100000000E-03 0.  1.
         12    1    3    3    0    0 -0.24418402553E+02  0.33679391896E+02 -0.11343276772E+02  0.43118786505E+02  0.00000000000E+00 0. -1.
</event>
<event>
 7    1  0.6830263E-012  0.5930201E+02  0.7816164E-02  0.1266605E+00
        -11   -1    0    0    0    0  0.00000000000E+00  0.00000000000E+00  0.45593999997E+02  0.45594000000E+02  0.51100000000E-03 0.  1.
         11   -1    0    0    0    0 -0.00000000000E+00 -0.00000000000E+00 -0.45593999997E+02  0.45594000000E+02  0.51100000000E-03 0. -1.
    9900012    2    1    2    0    0 -0.16552598584E+02  0.26826741466E+02 -0.48014443727E+01  0.59302008630E+02  0.50000117819E+02 0.  0.
        -12    1    1    2    0    0  0.16552598584E+02 -0.26826741466E+02  0.48014443727E+01  0.31885991370E+02  0.00000000000E+00 0.  1.
         11    1    3    3    0    0 -0.92477712160E+01  0.19843288109E+02  0.46919205727E+01  0.22389539396E+02  0.51100000000E-03 0. -1.
        -11    1    3    3    0    0  0.76476512827E+01 -0.35229331048E+01  0.80000922010E+01  0.11614607324E+02  0.51100000000E-03 0.  1.
        -12    1    3    3    0    0 -0.14952478651E+02  0.10506386462E+02 -0.17493457146E+02  0.25297861910E+02  0.00000000000E+00 0.  1.
</event>
<event>
 7    1  0.6830263E-012  0.5930194E+02  0.7816164E-02  0.1266605E+00
        -11   -1    0    0    0    0  0.00000000000E+00  0.00000000000E+00  0.45593999997E+02  0.45594000000E+02  0.51100000000E-03 0.  1.
         11   -1    0    0    0    0 -0.00000000000E+00 -0.00000000000E+00 -0.45593999997E+02  0.45594000000E+02  0.51100000000E-03 0. -1.
    9900012    2    1    2    0    0  0.83965917100E+01 -0.20862110435E+02 -0.22605090690E+02  0.59301944596E+02  0.50000001036E+02 0.  0.
        -12    1    1    2    0    0 -0.83965917100E+01  0.20862110435E+02  0.22605090690E+02  0.31886055404E+02  0.00000000000E+00 0.  1.
         11    1    3    3    0    0  0.40160322746E+01 -0.45661763309E+01  0.23459318973E+01  0.65178123817E+01  0.51100000000E-03 0. -1.
        -11    1    3    3    0    0 -0.52457803976E+01 -0.19683229980E+02  0.51408638065E+01  0.21008956075E+02  0.51100000000E-03 0.  1.
         12    1    3    3    0    0  0.96263398330E+01  0.33872958764E+01 -0.30091886394E+02  0.31775176139E+02  0.00000000000E+00 0. -1.
</event>
<event>
 7    1  0.6830263E-012  0.5930195E+02  0.7816164E-02  0.1266605E+00
        -11   -1    0    0    0    0  0.00000000000E+00  0.00000000000E+00  0.45593999997E+02  0.45594000000E+02  0.51100000000E-03 0.  1.
         11   -1    0    0    0    0 -0.00000000000E+00 -0.00000000000E+00 -0.45593999997E+02  0.45594000000E+02  0.51100000000E-03 0. -1.
    9900012    2    1    2    0    0 -0.25873924459E+02 -0.32352714911E+01 -0.18351935941E+02  0.59301945034E+02  0.50000001835E+02 0.  0.
        -12    1    1    2    0    0  0.25873924459E+02  0.32352714911E+01  0.18351935941E+02  0.31886054966E+02  0.00000000000E+00 0.  1.
         11    1    3    3    0    0 -0.17302627275E+02  0.18709991161E+01  0.28820881320E+01  0.17640520983E+02  0.51100000000E-03 0. -1.
        -11    1    3    3    0    0 -0.74485873552E+01 -0.10851275902E+02  0.55215267051E+01  0.14273012987E+02  0.51100000000E-03 0.  1.
         12    1    3    3    0    0 -0.11227098290E+01  0.57450052953E+01 -0.26755550778E+02  0.27388411064E+02  0.00000000000E+00 0. -1.
</event>
<event>
 7    1  0.6830263E-012  0.5930195E+02  0.7816164E-02  0.1266605E+00
        -11   -1    0    0    0    0  0.00000000000E+00  0.00000000000E+00  0.45593999997E+02  0.45594000000E+02  0.51100000000E-03 0. -1.
         11   -1    0    0    0    0 -0.00000000000E+00 -0.00000000000E+00 -0.45593999997E+02  0.45594000000E+02  0.51100000000E-03 0.  1.
    9900012    2    1    2    0    0  0.21480761645E+01 -0.26388439384E+02  0.17769536792E+02  0.59301946589E+02  0.50000004671E+02 0.  0.
        -12    1    1    2    0    0 -0.21480761645E+01  0.26388439384E+02 -0.17769536792E+02  0.31886053411E+02  0.00000000000E+00 0.  1.
         11    1    3    3    0    0  0.15062759655E+01 -0.81287849369E+00 -0.67594112613E+01  0.69727526551E+01  0.51100000000E-03 0. -1.
        -11    1    3    3    0    0 -0.22752461139E+01 -0.21079339606E+02 -0.54369278447E+01  0.21887793122E+02  0.51100000000E-03 0.  1.
         12    1    3    3    0    0  0.29170463129E+01 -0.44962212842E+01  0.29965875898E+02  0.30441400811E+02  0.00000000000E+00 0. -1.
</event>
<event>
 7    1  0.6830263E-012  0.5930192E+02  0.7816164E-02  0.1266605E+00
        -11   -1    0    0    0    0  0.00000000000E+00  0.00000000000E+00  0.45593999997E+02  0.45594000000E+02  0.51100000000E-03 0. -1.
         11   -1    0    0    0    0 -0.00000000000E+00 -0.00000000000E+00 -0.45593999997E+02  0.45594000000E+02  0.51100000000E-03 0.  1.
    9900012    2    1    2    0    0 -0.10426636300E+02  0.17562191364E+02  0.24486252562E+02  0.59301923500E+02  0.49999962562E+02 0.  0.
        -12    1    1    2    0    0  0.10426636300E+02 -0.17562191364E+02 -0.24486252562E+02  0.31886076500E+02  0.00000000000E+00 0.  1.
         11    1    3    3    0    0 -0.88709563429E+01  0.10870951300E+02  0.19990134604E+02  0.24422877192E+02  0.51100000000E-03 0. -1.
        -11    1    3    3    0    0 -0.60585526778E+01 -0.11183252578E+02  0.93875501697E+01  0.15808140220E+02  0.51100000000E-03 0.  1.
        -12    1    3    3    0    0  0.45028727205E+01  0.17874492642E+02 -0.48914322114E+01  0.19070906088E+02  0.00000000000E+00 0.  1.
</event>
<event>
 7    1  0.6830263E-012  0.5930194E+02  0.7816164E-02  0.1266605E+00
        -11   -1    0    0    0    0  0.00000000000E+00  0.00000000000E+00  0.45593999997E+02  0.45594000000E+02  0.51100000000E-03 0.  1.
         11   -1    0    0    0    0 -0.00000000000E+00 -0.00000000000E+00 -0.45593999997E+02  0.45594000000E+02  0.51100000000E-03 0. -1.
    9900012    2    1    2    0    0 -0.88844646652E+01 -0.30542357807E+02 -0.22251342359E+01  0.59301944189E+02  0.50000000294E+02 0.  0.
        -12    1    1    2    0    0  0.88844646652E+01  0.30542357807E+02  0.22251342359E+01  0.31886055811E+02  0.00000000000E+00 0.  1.
         11    1    3    3    0    0 -0.30798802454E+00 -0.19827451383E+01 -0.83257525427E+00  0.21723988404E+01  0.51100000000E-03 0. -1.
        -11    1    3    3    0    0  0.18294979473E+02 -0.11613019073E+02  0.93400404237E+01  0.23596712510E+02  0.51100000000E-03 0.  1.
         12    1    3    3    0    0 -0.26871456114E+02 -0.16946593596E+02 -0.10732599405E+02  0.33532832839E+02  0.00000000000E+00 0. -1.
</event>
<event>
 7    1  0.6830263E-012  0.5930195E+02  0.7816164E-02  0.1266605E+00
        -11   -1    0    0    0    0  0.00000000000E+00  0.00000000000E+00  0.45593999997E+02  0.45594000000E+02  0.51100000000E-03 0.  1.
         11   -1    0    0    0    0 -0.00000000000E+00 -0.00000000000E+00 -0.45593999997E+02  0.45594000000E+02  0.51100000000E-03 0. -1.
    9900012    2    1    2    0    0 -0.19055151978E+02 -0.10179784782E+02 -0.23451933987E+02  0.59301952223E+02  0.50000014946E+02 0.  0.
        -12    1    1    2    0    0  0.19055151978E+02  0.10179784782E+02  0.23451933987E+02  0.31886047777E+02  0.00000000000E+00 0.  1.
         11    1    3    3    0    0 -0.34754305520E+01 -0.17115687032E+02 -0.13208555276E+02  0.21897289623E+02  0.51100000000E-03 0. -1.
        -11    1    3    3    0    0  0.13029295481E+01  0.43053017422E+01 -0.18062503126E+02  0.18614168473E+02  0.51100000000E-03 0.  1.
         12    1    3    3    0    0 -0.16882650974E+02  0.26306005083E+01  0.78191244141E+01  0.18790494127E+02  0.00000000000E+00 0. -1.
</event>
<event>
 7    1  0.6830263E-012  0.5930188E+02  0.7816164E-02  0.1266605E+00
        -11   -1    0    0    0    0  0.00000000000E+00  0.00000000000E+00  0.45593999997E+02  0.45594000000E+02  0.51100000000E-03 0. -1.
         11   -1    0    0    0    0 -0.00000000000E+00 -0.00000000000E+00 -0.45593999997E+02  0.45594000000E+02  0.51100000000E-03 0.  1.
    9900012    2    1    2    0    0 -0.30323873826E+02  0.65880706098E+01  0.73338031511E+01  0.59301879715E+02  0.49999882709E+02 0.  0.
        -12    1    1    2    0    0  0.30323873826E+02 -0.65880706098E+01 -0.73338031511E+01  0.31886120285E+02  0.00000000000E+00 0.  1.
         11    1    3    3    0    0 -0.28158602436E+02  0.39478666423E+01  0.15639987370E+02  0.32451529199E+02  0.51100000000E-03 0. -1.
        -11    1    3    3    0    0  0.95255643306E+01  0.60472897877E+01  0.12762720025E+01  0.11354953108E+02  0.51100000000E-03 0.  1.
         12    1    3    3    0    0 -0.11690835720E+02 -0.34070858202E+01 -0.95824562209E+01  0.15495397409E+02  0.00000000000E+00 0. -1.
</event>
<event>
 7    1  0.6830263E-012  0.5930195E+02  0.7816164E-02  0.1266605E+00
        -11   -1    0    0    0    0  0.00000000000E+00  0.00000000000E+00  0.45593999997E+02  0.45594000000E+02  0.51100000000E-03 0.  1.
         11   -1    0    0    0    0 -0.00000000000E+00 -0.00000000000E+00 -0.45593999997E+02  0.45594000000E+02  0.51100000000E-03 0. -1.
    9900012    2    1    2    0    0  0.17290052053E+02 -0.48873224321E+01 -0.26341762467E+02  0.59301948655E+02  0.50000008439E+02 0.  0.
        -12    1    1    2    0    0 -0.17290052053E+02  0.48873224321E+01  0.26341762467E+02  0.31886051345E+02  0.00000000000E+00 0.  1.
         11    1    3    3    0    0  0.72714908652E+01  0.36257223391E+01  0.32659296769E+01  0.87570964822E+01  0.51100000000E-03 0. -1.
        -11    1    3    3    0    0 -0.89802341372E+01  0.10366503235E+02 -0.65324100939E+01  0.15191490262E+02  0.51100000000E-03 0.  1.
        -12    1    3    3    0    0  0.18998795325E+02 -0.18879548006E+02 -0.23075282050E+02  0.35353361911E+02  0.00000000000E+00 0.  1.
</event>
<event>
 7    1  0.6830263E-012  0.5930193E+02  0.7816164E-02  0.1266605E+00
        -11   -1    0    0    0    0  0.00000000000E+00  0.00000000000E+00  0.45593999997E+02  0.45594000000E+02  0.51100000000E-03 0. -1.
         11   -1    0    0    0    0 -0.00000000000E+00 -0.00000000000E+00 -0.45593999997E+02  0.45594000000E+02  0.51100000000E-03 0.  1.
    9900012    2    1    2    0    0 -0.28196938291E+02 -0.11557292449E+02  0.93852695399E+01  0.59301927460E+02  0.49999969784E+02 0.  0.
        -12    1    1    2    0    0  0.28196938291E+02  0.11557292449E+02 -0.93852695399E+01  0.31886072540E+02  0.00000000000E+00 0.  1.
         11    1    3    3    0    0 -0.32057751988E+02  0.10490027479E+02  0.72985705566E+01  0.34511002180E+02  0.51100000000E-03 0. -1.
        -11    1    3    3    0    0 -0.31056378995E+01 -0.44315709458E+01 -0.12553258961E+01  0.55551463686E+01  0.51100000000E-03 0.  1.
        -12    1    3    3    0    0  0.69664515965E+01 -0.17615748982E+02  0.33420248794E+01  0.19235778911E+02  0.00000000000E+00 0.  1.
</event>
<event>
 7    1  0.6830263E-012  0.5930194E+02  0.7816164E-02  0.1266605E+00
        -11   -1    0    0    0    0  0.00000000000E+00  0.00000000000E+00  0.45593999997E+02  0.45594000000E+02  0.51100000000E-03 0. -1.
         11   -1    0    0    0    0 -0.00000000000E+00 -0.00000000000E+00 -0.45593999997E+02  0.45594000000E+02  0.51100000000E-03 0.  1.
    9900012    2    1    2    0    0 -0.53079142586E+01 -0.24857401807E+02  0.19252439227E+02  0.59301940435E+02  0.49999993448E+02 0.  0.
        -12    1    1    2    0    0  0.53079142586E+01  0.24857401807E+02 -0.19252439227E+02  0.31886059565E+02  0.00000000000E+00 0.  1.
         11    1    3    3    0    0 -0.44266940712E+01 -0.13650096363E+01  0.75991725174E+01  0.88997918468E+01  0.51100000000E-03 0. -1.
        -11    1    3    3    0    0 -0.29327131956E+01  0.10735350144E+02 -0.50969829478E+01  0.12240416040E+02  0.51100000000E-03 0.  1.
         12    1    3    3    0    0  0.20514930083E+01 -0.34227742315E+02  0.16750249657E+02  0.38161732549E+02  0.00000000000E+00 0. -1.
</event>
<event>
 7    1  0.6830263E-012  0.5930196E+02  0.7816164E-02  0.1266605E+00
        -11   -1    0    0    0    0  0.00000000000E+00  0.00000000000E+00  0.45593999997E+02  0.45594000000E+02  0.51100000000E-03 0. -1.
         11   -1    0    0    0    0 -0.00000000000E+00 -0.00000000000E+00 -0.45593999997E+02  0.45594000000E+02  0.51100000000E-03 0.  1.
    9900012    2    1    2    0    0 -0.29669725873E+02  0.17110021628E+01  0.11554184028E+02  0.59301963395E+02  0.50000035322E+02 0.  0.
        -12    1    1    2    0    0  0.29669725873E+02 -0.17110021628E+01 -0.11554184028E+02  0.31886036605E+02  0.00000000000E+00 0.  1.
         11    1    3    3    0    0 -0.56150717645E+01 -0.32892920504E+01 -0.64310349806E+01  0.91491357131E+01  0.51100000000E-03 0. -1.
        -11    1    3    3    0    0  0.37405539785E+01  0.15460356154E+02  0.11830292519E+02  0.19823475422E+02  0.51100000000E-03 0.  1.
         12    1    3    3    0    0 -0.27795208087E+02 -0.10460061940E+02  0.61549264902E+01  0.30329352260E+02  0.00000000000E+00 0. -1.
</event>
<event>
 7    1  0.6830263E-012  0.5930196E+02  0.7816164E-02  0.1266605E+00
        -11   -1    0    0    0    0  0.00000000000E+00  0.00000000000E+00  0.45593999997E+02  0.45594000000E+02  0.51100000000E-03 0. -1.
         11   -1    0    0    0    0 -0.00000000000E+00 -0.00000000000E+00 -0.45593999997E+02  0.45594000000E+02  0.51100000000E-03 0.  1.
    9900012    2    1    2    0    0 -0.19030818986E+02  0.17196865610E+02  0.18942426996E+02  0.59301956053E+02  0.50000021931E+02 0.  0.
        -12    1    1    2    0    0  0.19030818986E+02 -0.17196865610E+02 -0.18942426996E+02  0.31886043947E+02  0.00000000000E+00 0.  1.
         11    1    3    3    0    0  0.41744467026E+01  0.70066549458E+01  0.27652562627E+02  0.28830252148E+02  0.51100000000E-03 0. -1.
        -11    1    3    3    0    0 -0.54510109851E+01  0.71860772094E+01  0.23743260276E+01  0.93268778680E+01  0.51100000000E-03 0.  1.
        -12    1    3    3    0    0 -0.17754254703E+02  0.30041334551E+01 -0.11084461658E+02  0.21144826037E+02  0.00000000000E+00 0.  1.
</event>
<event>
 7    1  0.6830263E-012  0.5930197E+02  0.7816164E-02  0.1266605E+00
        -11   -1    0    0    0    0  0.00000000000E+00  0.00000000000E+00  0.45593999997E+02  0.45594000000E+02  0.51100000000E-03 0.  1.
         11   -1    0    0    0    0 -0.00000000000E+00 -0.00000000000E+00 -0.45593999997E+02  0.45594000000E+02  0.51100000000E-03 0. -1.
    9900012    2    1    2    0    0  0.31556317494E+02  0.11644188799E+01  0.44228836354E+01  0.59301969442E+02  0.50000046349E+02 0.  0.
        -12    1    1    2    0    0 -0.31556317494E+02 -0.11644188799E+01 -0.44228836354E+01  0.31886030558E+02  0.00000000000E+00 0.  1.
         11    1    3    3    0    0 -0.91566818366E+01  0.13741700540E+01 -0.98186209719E+00  0.93111341432E+01  0.51100000000E-03 0. -1.
        -11    1    3    3    0    0 -0.41708661168E+01  0.13697726839E+01  0.23400062438E+01  0.49747392748E+01  0.51100000000E-03 0.  1.
         12    1    3    3    0    0  0.44883865447E+02 -0.15795238581E+01  0.30647394888E+01  0.45016096024E+02  0.00000000000E+00 0. -1.
</event>
<event>
 7    1  0.6830263E-012  0.5930196E+02  0.7816164E-02  0.1266605E+00
        -11   -1    0    0    0    0  0.00000000000E+00  0.00000000000E+00  0.45593999997E+02  0.45594000000E+02  0.51100000000E-03 0. -1.
         11   -1    0    0    0    0 -0.00000000000E+00 -0.00000000000E+00 -0.45593999997E+02  0.45594000000E+02  0.51100000000E-03 0.  1.
    9900012    2    1    2    0    0 -0.16137858702E+02  0.86279426923E+01  0.26112216445E+02  0.59301957187E+02  0.50000024000E+02 0.  0.
        -12    1    1    2    0    0  0.16137858702E+02 -0.86279426923E+01 -0.26112216445E+02  0.31886042813E+02  0.00000000000E+00 0.  1.
         11    1    3    3    0    0 -0.67727233879E+01  0.14028025224E+02  0.19751759562E+02  0.25155263462E+02  0.51100000000E-03 0. -1.
        -11    1    3    3    0    0  0.74773043883E+01 -0.94711211438E+00  0.13386180648E+02  0.15362191734E+02  0.51100000000E-03 0.  1.
        -12    1    3    3    0    0 -0.16842439702E+02 -0.44529704176E+01 -0.70257237644E+01  0.18784501992E+02  0.00000000000E+00 0.  1.
</event>
<event>
 7    1  0.6830263E-012  0.5930197E+02  0.7816164E-02  0.1266605E+00
        -11   -1    0    0    0    0  0.00000000000E+00  0.00000000000E+00  0.45593999997E+02  0.45594000000E+02  0.51100000000E-03 0. -1.
         11   -1    0    0    0    0 -0.00000000000E+00 -0.00000000000E+00 -0.45593999997E+02  0.45594000000E+02  0.51100000000E-03 0.  1.
    9900012    2    1    2    0    0  0.10355382819E+02  0.27908029142E+02  0.11429200295E+02  0.59301973855E+02  0.50000054398E+02 0.  0.
        -12    1    1    2    0    0 -0.10355382819E+02 -0.27908029142E+02 -0.11429200295E+02  0.31886026145E+02  0.00000000000E+00 0.  1.
         11    1    3    3    0    0  0.28336538436E+01 -0.60342494218E+01 -0.35346667488E+01  0.75455701890E+01  0.51100000000E-03 0.  1.
        -11    1    3    3    0    0 -0.10827849543E+02  0.44321305468E+01  0.12189604223E+02  0.16895933187E+02  0.51100000000E-03 0. -1.
        -12    1    3    3    0    0  0.18349578518E+02  0.29510148017E+02  0.27742628208E+01  0.34860470479E+02  0.00000000000E+00 0.  1.
</event>
<event>
 7    1  0.6830263E-012  0.5930193E+02  0.7816164E-02  0.1266605E+00
        -11   -1    0    0    0    0  0.00000000000E+00  0.00000000000E+00  0.45593999997E+02  0.45594000000E+02  0.51100000000E-03 0. -1.
         11   -1    0    0    0    0 -0.00000000000E+00 -0.00000000000E+00 -0.45593999997E+02  0.45594000000E+02  0.51100000000E-03 0.  1.
    9900012    2    1    2    0    0 -0.14320398145E+02 -0.81149630562E+01  0.27309253836E+02  0.59301925084E+02  0.49999965452E+02 0.  0.
        -12    1    1    2    0    0  0.14320398145E+02  0.81149630562E+01 -0.27309253836E+02  0.31886074916E+02  0.00000000000E+00 0.  1.
         11    1    3    3    0    0 -0.34235751958E+01  0.12356293038E+02  0.11791980381E+02  0.17419806151E+02  0.51100000000E-03 0. -1.
        -11    1    3    3    0    0 -0.53691246933E+01  0.41586096073E+01  0.15188244076E+02  0.16637436467E+02  0.51100000000E-03 0.  1.
        -12    1    3    3    0    0 -0.55276982564E+01 -0.24629865701E+02  0.32902937937E+00  0.25244682466E+02  0.00000000000E+00 0.  1.
</event>
<event>
 7    1  0.6830263E-012  0.5930194E+02  0.7816164E-02  0.1266605E+00
        -11   -1    0    0    0    0  0.00000000000E+00  0.00000000000E+00  0.45593999997E+02  0.45594000000E+02  0.51100000000E-03 0.  1.
         11   -1    0    0    0    0 -0.00000000000E+00 -0.00000000000E+00 -0.45593999997E+02  0.45594000000E+02  0.51100000000E-03 0. -1.
    9900012    2    1    2    0    0 -0.17753478432E+02 -0.16130571879E+02 -0.21008074934E+02  0.59301944145E+02  0.50000000214E+02 0.  0.
        -12    1    1    2    0    0  0.17753478432E+02  0.16130571879E+02  0.21008074934E+02  0.31886055855E+02  0.00000000000E+00 0.  1.
         11    1    3    3    0    0 -0.16185468145E+02 -0.20900301448E+02 -0.16714184762E+02  0.31275484844E+02  0.51100000000E-03 0. -1.
        -11    1    3    3    0    0 -0.55782677237E+01 -0.88391599620E+01  0.44509871672E+01  0.11360418419E+02  0.51100000000E-03 0.  1.
        -12    1    3    3    0    0  0.40102574372E+01  0.13608889532E+02 -0.87448773398E+01  0.16666040882E+02  0.00000000000E+00 0.  1.
</event>
<event>
 7    1  0.6830263E-012  0.5930195E+02  0.7816164E-02  0.1266605E+00
        -11   -1    0    0    0    0  0.00000000000E+00  0.00000000000E+00  0.45593999997E+02  0.45594000000E+02  0.51100000000E-03 0.  1.
         11   -1    0    0    0    0 -0.00000000000E+00 -0.00000000000E+00 -0.45593999997E+02  0.45594000000E+02  0.51100000000E-03 0. -1.
    9900012    2    1    2    0    0  0.11785310534E+02  0.22568880282E+02 -0.19195632956E+02  0.59301949348E+02  0.50000009704E+02 0.  0.
        -12    1    1    2    0    0 -0.11785310534E+02 -0.22568880282E+02  0.19195632956E+02  0.31886050652E+02  0.00000000000E+00 0.  1.
         11    1    3    3    0    0  0.24731124266E+02  0.20344513590E+02 -0.23848689669E+02  0.39928532904E+02  0.51100000000E-03 0. -1.
        -11    1    3    3    0    0 -0.56910425519E+01  0.72941697815E+01 -0.25071387271E+00  0.92550384027E+01  0.51100000000E-03 0.  1.
        -12    1    3    3    0    0 -0.72547711802E+01 -0.50698030891E+01  0.49037705857E+01  0.10118378042E+02  0.00000000000E+00 0.  1.
</event>
<event>
 7    1  0.6830263E-012  0.5930193E+02  0.7816164E-02  0.1266605E+00
        -11   -1    0    0    0    0  0.00000000000E+00  0.00000000000E+00  0.45593999997E+02  0.45594000000E+02  0.51100000000E-03 0.  1.
         11   -1    0    0    0    0 -0.00000000000E+00 -0.00000000000E+00 -0.45593999997E+02  0.45594000000E+02  0.51100000000E-03 0. -1.
    9900012    2    1    2    0    0 -0.49618785758E+01 -0.73699055318E+01 -0.30623282305E+02  0.59301934616E+02  0.49999982835E+02 0.  0.
        -12    1    1    2    0    0  0.49618785758E+01  0.73699055318E+01  0.30623282305E+02  0.31886065384E+02  0.00000000000E+00 0.  1.
         11    1    3    3    0    0  0.95112999493E+01 -0.56211068462E+01 -0.26412316226E+02  0.28629916479E+02  0.51100000000E-03 0.  1.
        -11    1    3    3    0    0  0.47693637039E+01 -0.11863161253E+00  0.69026864868E+01  0.83909465852E+01  0.51100000000E-03 0. -1.
         12    1    3    3    0    0 -0.19242542229E+02 -0.16301670730E+01 -0.11113652566E+02  0.22281071551E+02  0.00000000000E+00 0. -1.
</event>
<event>
 7    1  0.6830263E-012  0.5930192E+02  0.7816164E-02  0.1266605E+00
        -11   -1    0    0    0    0  0.00000000000E+00  0.00000000000E+00  0.45593999997E+02  0.45594000000E+02  0.51100000000E-03 0.  1.
         11   -1    0    0    0    0 -0.00000000000E+00 -0.00000000000E+00 -0.45593999997E+02  0.45594000000E+02  0.51100000000E-03 0. -1.
    9900012    2    1    2    0    0 -0.75118457382E+01 -0.65922130730E+01 -0.30279317950E+02  0.59301918473E+02  0.49999953394E+02 0.  0.
        -12    1    1    2    0    0  0.75118457382E+01  0.65922130730E+01  0.30279317950E+02  0.31886081527E+02  0.00000000000E+00 0.  1.
         11    1    3    3    0    0 -0.12038943633E+02 -0.50775005918E+01 -0.36588735202E+01  0.13568512511E+02  0.51100000000E-03 0. -1.
        -11    1    3    3    0    0  0.34564855796E+01 -0.12247178278E+02  0.39431656721E+01  0.13322508176E+02  0.51100000000E-03 0.  1.
         12    1    3    3    0    0  0.10706123150E+01  0.10732465797E+02 -0.30563610102E+02  0.32410897786E+02  0.00000000000E+00 0. -1.
</event>
<event>
 7    1  0.6830263E-012  0.5930195E+02  0.7816164E-02  0.1266605E+00
        -11   -1    0    0    0    0  0.00000000000E+00  0.00000000000E+00  0.45593999997E+02  0.45594000000E+02  0.51100000000E-03 0.  1.
         11   -1    0    0    0    0 -0.00000000000E+00 -0.00000000000E+00 -0.45593999997E+02  0.45594000000E+02  0.51100000000E-03 0. -1.
    9900012    2    1    2    0    0  0.27397028491E+02  0.13086047490E+02 -0.97405638606E+01  0.59301946726E+02  0.50000004922E+02 0.  0.
        -12    1    1    2    0    0 -0.27397028491E+02 -0.13086047490E+02  0.97405638606E+01  0.31886053274E+02  0.00000000000E+00 0.  1.
         11    1    3    3    0    0  0.13902276707E+01  0.15198582787E+02 -0.10433030296E+02  0.18487232706E+02  0.51100000000E-03 0. -1.
        -11    1    3    3    0    0  0.14182276260E+02 -0.78147494550E+01 -0.13789218342E+02  0.21268516913E+02  0.51100000000E-03 0.  1.
        -12    1    3    3    0    0  0.11824524561E+02  0.57022141579E+01  0.14481684777E+02  0.19546197107E+02  0.00000000000E+00 0.  1.
</event>
<event>
 7    1  0.6830263E-012  0.5930195E+02  0.7816164E-02  0.1266605E+00
        -11   -1    0    0    0    0  0.00000000000E+00  0.00000000000E+00  0.45593999997E+02  0.45594000000E+02  0.51100000000E-03 0. -1.
         11   -1    0    0    0    0 -0.00000000000E+00 -0.00000000000E+00 -0.45593999997E+02  0.45594000000E+02  0.51100000000E-03 0.  1.
    9900012    2    1    2    0    0  0.44379764592E+01 -0.29877619370E+02  0.10215305112E+02  0.59301949244E+02  0.50000009513E+02 0.  0.
        -12    1    1    2    0    0 -0.44379764592E+01  0.29877619370E+02 -0.10215305112E+02  0.31886050756E+02  0.00000000000E+00 0.  1.
         11    1    3    3    0    0 -0.16033775688E+02 -0.15138962953E+02  0.15411264644E+02  0.26903108376E+02  0.51100000000E-03 0. -1.
        -11    1    3    3    0    0 -0.23867776765E+01 -0.61009983611E+01  0.21290188978E+01  0.68885129315E+01  0.51100000000E-03 0.  1.
        -12    1    3    3    0    0  0.22858529824E+02 -0.86376580565E+01 -0.73249784304E+01  0.25510327936E+02  0.00000000000E+00 0.  1.
</event>
<event>
 7    1  0.6830263E-012  0.5930194E+02  0.7816164E-02  0.1266605E+00
        -11   -1    0    0    0    0  0.00000000000E+00  0.00000000000E+00  0.45593999997E+02  0.45594000000E+02  0.51100000000E-03 0.  1.
         11   -1    0    0    0    0 -0.00000000000E+00 -0.00000000000E+00 -0.45593999997E+02  0.45594000000E+02  0.51100000000E-03 0. -1.
    9900012    2    1    2    0    0 -0.51013025944E+01  0.23407527912E+02 -0.21042453996E+02  0.59301944720E+02  0.50000001263E+02 0.  0.
        -12    1    1    2    0    0  0.51013025944E+01 -0.23407527912E+02  0.21042453996E+02  0.31886055280E+02  0.00000000000E+00 0.  1.
         11    1    3    3    0    0  0.88885196298E+01  0.32470355484E+02 -0.12125613593E+02  0.35782122237E+02  0.51100000000E-03 0. -1.
        -11    1    3    3    0    0  0.22629889388E+01 -0.10090086096E+01 -0.40358293923E+01  0.47357297702E+01  0.51100000000E-03 0.  1.
        -12    1    3    3    0    0 -0.16252811163E+02 -0.80538189625E+01 -0.48810110107E+01  0.18784092713E+02  0.00000000000E+00 0.  1.
</event>
<event>
 7    1  0.6830263E-012  0.5930194E+02  0.7816164E-02  0.1266605E+00
        -11   -1    0    0    0    0  0.00000000000E+00  0.00000000000E+00  0.45593999997E+02  0.45594000000E+02  0.51100000000E-03 0. -1.
         11   -1    0    0    0    0 -0.00000000000E+00 -0.00000000000E+00 -0.45593999997E+02  0.45594000000E+02  0.51100000000E-03 0.  1.
    9900012    2    1    2    0    0  0.24610600388E+00  0.31721732208E+02  0.32236345725E+01  0.59301942196E+02  0.49999996659E+02 0.  0.
        -12    1    1    2    0    0 -0.24610600388E+00 -0.31721732208E+02 -0.32236345725E+01  0.31886057804E+02  0.00000000000E+00 0.  1.
         11    1    3    3    0    0  0.66388149898E+01  0.20453659404E+02 -0.11345359874E+01  0.21534001478E+02  0.51100000000E-03 0. -1.
        -11    1    3    3    0    0  0.10250889096E+02  0.11947195135E+02 -0.73839077294E+01  0.17387877745E+02  0.51100000000E-03 0.  1.
        -12    1    3    3    0    0 -0.16643598082E+02 -0.67912233068E+00  0.11742078289E+02  0.20380062973E+02  0.00000000000E+00 0.  1.
</event>
<event>
 7    1  0.6830263E-012  0.5930194E+02  0.7816164E-02  0.1266605E+00
        -11   -1    0    0    0    0  0.00000000000E+00  0.00000000000E+00  0.45593999997E+02  0.45594000000E+02  0.51100000000E-03 0. -1.
         11   -1    0    0    0    0 -0.00000000000E+00 -0.00000000000E+00 -0.45593999997E+02  0.45594000000E+02  0.51100000000E-03 0.  1.
    9900012    2    1    2    0    0  0.12726474842E+02  0.25307444599E+02  0.14638668354E+02  0.59301944659E+02  0.50000001151E+02 0.  0.
        -12    1    1    2    0    0 -0.12726474842E+02 -0.25307444599E+02 -0.14638668354E+02  0.31886055341E+02  0.00000000000E+00 0.  1.
         11    1    3    3    0    0  0.29689468168E+01 -0.41295007762E+01  0.63526093431E+01  0.81377556850E+01  0.51100000000E-03 0. -1.
        -11    1    3    3    0    0  0.21769134818E+02  0.10491301371E+02 -0.55679707687E+01  0.24798486525E+02  0.51100000000E-03 0.  1.
        -12    1    3    3    0    0 -0.12011606793E+02  0.18945644004E+02  0.13854029780E+02  0.26365702449E+02  0.00000000000E+00 0.  1.
</event>
<event>
 7    1  0.6830263E-012  0.5930203E+02  0.7816164E-02  0.1266604E+00
        -11   -1    0    0    0    0  0.00000000000E+00  0.00000000000E+00  0.45593999997E+02  0.45594000000E+02  0.51100000000E-03 0.  1.
         11   -1    0    0    0    0 -0.00000000000E+00 -0.00000000000E+00 -0.45593999997E+02  0.45594000000E+02  0.51100000000E-03 0. -1.
    9900012    2    1    2    0    0 -0.25426717195E+01  0.26174932940E+02  0.18031154328E+02  0.59302034117E+02  0.50000164301E+02 0.  0.
        -12    1    1    2    0    0  0.25426717195E+01 -0.26174932940E+02 -0.18031154328E+02  0.31885965883E+02  0.00000000000E+00 0.  1.
         11    1    3    3    0    0  0.11904650725E+02 -0.79992736521E+01 -0.18427730673E+01  0.14460459906E+02  0.51100000000E-03 0. -1.
        -11    1    3    3    0    0  0.25838944380E+01  0.11678442071E+02  0.52669716717E+01  0.13069181708E+02  0.51100000000E-03 0.  1.
        -12    1    3    3    0    0 -0.17031216882E+02  0.22495764521E+02  0.14606955723E+02  0.31772392503E+02  0.00000000000E+00 0.  1.
</event>
<event>
 7    1  0.6830263E-012  0.5930185E+02  0.7816164E-02  0.1266605E+00
        -11   -1    0    0    0    0  0.00000000000E+00  0.00000000000E+00  0.45593999997E+02  0.45594000000E+02  0.51100000000E-03 0.  1.
         11   -1    0    0    0    0 -0.00000000000E+00 -0.00000000000E+00 -0.45593999997E+02  0.45594000000E+02  0.51100000000E-03 0. -1.
    9900012    2    1    2    0    0  0.17893972789E+02 -0.26391890480E+02  0.11365481864E-01  0.59301854506E+02  0.49999836734E+02 0.  0.
        -12    1    1    2    0    0 -0.17893972789E+02  0.26391890480E+02 -0.11365481864E-01  0.31886145494E+02  0.00000000000E+00 0.  1.
         11    1    3    3    0    0  0.40975840997E+01  0.21930896663E+01 -0.17648795472E+01  0.49713818819E+01  0.51100000000E-03 0. -1.
        -11    1    3    3    0    0  0.36673493828E+01  0.92877126966E+01 -0.92437514747E+01  0.13607277473E+02  0.51100000000E-03 0.  1.
         12    1    3    3    0    0  0.10129039306E+02 -0.37872692843E+02  0.11019996504E+02  0.40723195152E+02  0.00000000000E+00 0. -1.
</event>
<event>
 7    1  0.6830263E-012  0.5930195E+02  0.7816164E-02  0.1266605E+00
        -11   -1    0    0    0    0  0.00000000000E+00  0.00000000000E+00  0.45593999997E+02  0.45594000000E+02  0.51100000000E-03 0. -1.
         11   -1    0    0    0    0 -0.00000000000E+00 -0.00000000000E+00 -0.45593999997E+02  0.45594000000E+02  0.51100000000E-03 0.  1.
    9900012    2    1    2    0    0 -0.16809596445E+02 -0.18773468866E+02  0.19537518252E+02  0.59301948420E+02  0.50000008010E+02 0.  0.
        -12    1    1    2    0    0  0.16809596445E+02  0.18773468866E+02 -0.19537518252E+02  0.31886051580E+02  0.00000000000E+00 0.  1.
         11    1    3    3    0    0 -0.13112741380E+02 -0.12089315728E+02 -0.68838923181E+01  0.19117623152E+02  0.51100000000E-03 0. -1.
        -11    1    3    3    0    0 -0.34068191849E+00 -0.68280036279E+01 -0.50718428991E+01  0.85124196540E+01  0.51100000000E-03 0.  1.
         12    1    3    3    0    0 -0.33561731472E+01  0.14385048931E+00  0.31493253469E+02  0.31671905614E+02  0.00000000000E+00 0. -1.
</event>
<event>
 7    1  0.6830263E-012  0.5930192E+02  0.7816164E-02  0.1266605E+00
        -11   -1    0    0    0    0  0.00000000000E+00  0.00000000000E+00  0.45593999997E+02  0.45594000000E+02  0.51100000000E-03 0.  1.
         11   -1    0    0    0    0 -0.00000000000E+00 -0.00000000000E+00 -0.45593999997E+02  0.45594000000E+02  0.51100000000E-03 0. -1.
    9900012    2    1    2    0    0 -0.69384358974E+01  0.27442126575E+02 -0.14680248854E+02  0.59301922943E+02  0.49999961547E+02 0.  0.
        -12    1    1    2    0    0  0.69384358974E+01 -0.27442126575E+02  0.14680248854E+02  0.31886077057E+02  0.00000000000E+00 0.  1.
         11    1    3    3    0    0 -0.52685624496E+01 -0.68502246143E+01  0.22790221042E+01  0.89374084367E+01  0.51100000000E-03 0. -1.
        -11    1    3    3    0    0  0.84097872833E+00  0.17357153094E+01  0.86526493607E+01  0.88650038961E+01  0.51100000000E-03 0.  1.
         12    1    3    3    0    0 -0.25108521761E+01  0.32556635880E+02 -0.25611920319E+02  0.41499510610E+02  0.00000000000E+00 0. -1.
</event>
<event>
 7    1  0.6830263E-012  0.5930195E+02  0.7816164E-02  0.1266605E+00
        -11   -1    0    0    0    0  0.00000000000E+00  0.00000000000E+00  0.45593999997E+02  0.45594000000E+02  0.51100000000E-03 0. -1.
         11   -1    0    0    0    0 -0.00000000000E+00 -0.00000000000E+00 -0.45593999997E+02  0.45594000000E+02  0.51100000000E-03 0.  1.
    9900012    2    1    2    0    0  0.23214538845E+02  0.15156672362E+02  0.15750569332E+02  0.59301953441E+02  0.50000017168E+02 0.  0.
        -12    1    1    2    0    0 -0.23214538845E+02 -0.15156672362E+02 -0.15750569332E+02  0.31886046559E+02  0.00000000000E+00 0.  1.
         11    1    3    3    0    0 -0.63985445369E+00 -0.43414960244E+01  0.61262424771E+01  0.75358376178E+01  0.51100000000E-03 0.  1.
        -11    1    3    3    0    0  0.23869225172E+01 -0.14415751796E+01  0.19878169929E+02  0.20072796967E+02  0.51100000000E-03 0. -1.
        -12    1    3    3    0    0  0.21467470781E+02  0.20939743566E+02 -0.10253843074E+02  0.31693318856E+02  0.00000000000E+00 0.  1.
</event>
<event>
 7    1  0.6830263E-012  0.5930193E+02  0.7816164E-02  0.1266605E+00
        -11   -1    0    0    0    0  0.00000000000E+00  0.00000000000E+00  0.45593999997E+02  0.45594000000E+02  0.51100000000E-03 0. -1.
         11   -1    0    0    0    0 -0.00000000000E+00 -0.00000000000E+00 -0.45593999997E+02  0.45594000000E+02  0.51100000000E-03 0.  1.
    9900012    2    1    2    0    0 -0.15931798373E+02 -0.26698392848E+02 -0.70777725410E+01  0.59301933384E+02  0.49999980589E+02 0.  0.
        -12    1    1    2    0    0  0.15931798373E+02  0.26698392848E+02  0.70777725410E+01  0.31886066616E+02  0.00000000000E+00 0.  1.
         11    1    3    3    0    0 -0.10764141836E+02  0.87425228464E+01  0.11327585391E+01  0.13913360391E+02  0.51100000000E-03 0. -1.
        -11    1    3    3    0    0 -0.36786487694E+01  0.19328662101E+01  0.42695841777E+01  0.59580011636E+01  0.51100000000E-03 0.  1.
         12    1    3    3    0    0 -0.14890077675E+01 -0.37373781905E+02 -0.12480115258E+02  0.39430571830E+02  0.00000000000E+00 0. -1.
</event>
<event>
 7    1  0.6830263E-012  0.5930195E+02  0.7816164E-02  0.1266605E+00
        -11   -1    0    0    0    0  0.00000000000E+00  0.00000000000E+00  0.45593999997E+02  0.45594000000E+02  0.51100000000E-03 0.  1.
         11   -1    0    0    0    0 -0.00000000000E+00 -0.00000000000E+00 -0.45593999997E+02  0.45594000000E+02  0.51100000000E-03 0. -1.
    9900012    2    1    2    0    0 -0.11915674908E+02  0.15300063544E+02 -0.25310966383E+02  0.59301948626E+02  0.50000008387E+02 0.  0.
        -12    1    1    2    0    0  0.11915674908E+02 -0.15300063544E+02  0.25310966383E+02  0.31886051374E+02  0.00000000000E+00 0.  1.
         11    1    3    3    0    0  0.87666234158E+01 -0.26511203946E+01 -0.64531786004E+01  0.11203822552E+02  0.51100000000E-03 0. -1.
        -11    1    3    3    0    0  0.88247601254E+01 -0.11505903675E+01 -0.20331437870E+01  0.91287416102E+01  0.51100000000E-03 0.  1.
        -12    1    3    3    0    0 -0.29507058449E+02  0.19101774306E+02 -0.16824643996E+02  0.38969384464E+02  0.00000000000E+00 0.  1.
</event>
<event>
 7    1  0.6830263E-012  0.5930194E+02  0.7816164E-02  0.1266605E+00
        -11   -1    0    0    0    0  0.00000000000E+00  0.00000000000E+00  0.45593999997E+02  0.45594000000E+02  0.51100000000E-03 0.  1.
         11   -1    0    0    0    0 -0.00000000000E+00 -0.00000000000E+00 -0.45593999997E+02  0.45594000000E+02  0.51100000000E-03 0. -1.
    9900012    2    1    2    0    0 -0.23956360117E+02  0.20883315333E+02 -0.25885354231E+01  0.59301944035E+02  0.50000000014E+02 0.  0.
        -12    1    1    2    0    0  0.23956360117E+02 -0.20883315333E+02  0.25885354231E+01  0.31886055965E+02  0.00000000000E+00 0.  1.
         11    1    3    3    0    0 -0.27990591416E+02  0.23958062493E+02 -0.39716925946E+00  0.36845891357E+02  0.51100000000E-03 0. -1.
        -11    1    3    3    0    0 -0.65894583283E+01 -0.41540631981E+01  0.52914886150E+01  0.94168494804E+01  0.51100000000E-03 0.  1.
        -12    1    3    3    0    0  0.10623689627E+02  0.10793160384E+01 -0.74828547786E+01  0.13039203198E+02  0.00000000000E+00 0.  1.
</event>
<event>
 7    1  0.6830263E-012  0.5930195E+02  0.7816164E-02  0.1266605E+00
        -11   -1    0    0    0    0  0.00000000000E+00  0.00000000000E+00  0.45593999997E+02  0.45594000000E+02  0.51100000000E-03 0.  1.
         11   -1    0    0    0    0 -0.00000000000E+00 -0.00000000000E+00 -0.45593999997E+02  0.45594000000E+02  0.51100000000E-03 0. -1.
    9900012    2    1    2    0    0 -0.32071235627E+01 -0.29559039619E+02 -0.11519453121E+02  0.59301948740E+02  0.50000008595E+02 0.  0.
        -12    1    1    2    0    0  0.32071235627E+01  0.29559039619E+02  0.11519453121E+02  0.31886051260E+02  0.00000000000E+00 0.  1.
         11    1    3    3    0    0 -0.27881048579E+01 -0.25838601553E+02 -0.25025118390E+01  0.26108799756E+02  0.51100000000E-03 0. -1.
        -11    1    3    3    0    0 -0.13722736679E+01 -0.54202705792E+01  0.11392638847E+02  0.12690732380E+02  0.51100000000E-03 0.  1.
         12    1    3    3    0    0  0.95325496310E+00  0.16998325137E+01 -0.20409580129E+02  0.20502416605E+02  0.00000000000E+00 0. -1.
</event>
<event>
 7    1  0.6830263E-012  0.5930196E+02  0.7816164E-02  0.1266605E+00
        -11   -1    0    0    0    0  0.00000000000E+00  0.00000000000E+00  0.45593999997E+02  0.45594000000E+02  0.51100000000E-03 0. -1.
         11   -1    0    0    0    0 -0.00000000000E+00 -0.00000000000E+00 -0.45593999997E+02  0.45594000000E+02  0.51100000000E-03 0.  1.
    9900012    2    1    2    0    0 -0.93032549237E+01 -0.23090854579E+02  0.19924398369E+02  0.59301956537E+02  0.50000022814E+02 0.  0.
        -12    1    1    2    0    0  0.93032549237E+01  0.23090854579E+02 -0.19924398369E+02  0.31886043463E+02  0.00000000000E+00 0.  1.
         11    1    3    3    0    0  0.14298338746E+01  0.60634407647E+01  0.14828100642E+02  0.16083603692E+02  0.51100000000E-03 0.  1.
        -11    1    3    3    0    0 -0.78041267300E+01 -0.14319575179E+02  0.17308931342E+02  0.23781373631E+02  0.51100000000E-03 0. -1.
        -12    1    3    3    0    0 -0.29289620683E+01 -0.14834720165E+02 -0.12212633615E+02  0.19436979214E+02  0.00000000000E+00 0.  1.
</event>
<event>
 7    1  0.6830263E-012  0.5930155E+02  0.7816164E-02  0.1266606E+00
        -11   -1    0    0    0    0  0.00000000000E+00  0.00000000000E+00  0.45593999997E+02  0.45594000000E+02  0.51100000000E-03 0.  1.
         11   -1    0    0    0    0 -0.00000000000E+00 -0.00000000000E+00 -0.45593999997E+02  0.45594000000E+02  0.51100000000E-03 0. -1.
    9900012    2    1    2    0    0  0.16340027983E+02 -0.62206617487E+01 -0.26665572494E+02  0.59301546708E+02  0.49999275380E+02 0.  0.
        -12    1    1    2    0    0 -0.16340027983E+02  0.62206617487E+01  0.26665572494E+02  0.31886453292E+02  0.00000000000E+00 0.  1.
         11    1    3    3    0    0  0.70579091677E+01 -0.90167982908E+01 -0.17653518933E+02  0.21041945353E+02  0.51100000000E-03 0. -1.
        -11    1    3    3    0    0  0.86851283744E+01 -0.91586536905E+00 -0.22564350986E+02  0.24195458251E+02  0.51100000000E-03 0.  1.
        -12    1    3    3    0    0  0.59699044091E+00  0.37120019112E+01  0.13552297425E+02  0.14064143105E+02  0.00000000000E+00 0.  1.
</event>
<event>
 7    1  0.6830263E-012  0.5930198E+02  0.7816164E-02  0.1266605E+00
        -11   -1    0    0    0    0  0.00000000000E+00  0.00000000000E+00  0.45593999997E+02  0.45594000000E+02  0.51100000000E-03 0.  1.
         11   -1    0    0    0    0 -0.00000000000E+00 -0.00000000000E+00 -0.45593999997E+02  0.45594000000E+02  0.51100000000E-03 0. -1.
    9900012    2    1    2    0    0  0.30122183777E+02  0.23390791462E+01 -0.10193181744E+02  0.59301981108E+02  0.50000067625E+02 0.  0.
        -12    1    1    2    0    0 -0.30122183777E+02 -0.23390791462E+01  0.10193181744E+02  0.31886018892E+02  0.00000000000E+00 0.  1.
         11    1    3    3    0    0  0.10856127096E+02  0.16045341216E+00 -0.46078372292E+01  0.11794634586E+02  0.51100000000E-03 0. -1.
        -11    1    3    3    0    0  0.31821736883E+02 -0.65888833257E+00  0.30996360581E+01  0.31979130946E+02  0.51100000000E-03 0.  1.
        -12    1    3    3    0    0 -0.12555680202E+02  0.28375140666E+01 -0.86849805732E+01  0.15528215576E+02  0.00000000000E+00 0.  1.
</event>
<event>
 7    1  0.6830263E-012  0.5930190E+02  0.7816164E-02  0.1266605E+00
        -11   -1    0    0    0    0  0.00000000000E+00  0.00000000000E+00  0.45593999997E+02  0.45594000000E+02  0.51100000000E-03 0. -1.
         11   -1    0    0    0    0 -0.00000000000E+00 -0.00000000000E+00 -0.45593999997E+02  0.45594000000E+02  0.51100000000E-03 0.  1.
    9900012    2    1    2    0    0 -0.14053308813E+02  0.81550696599E+01  0.27435788323E+02  0.59301903804E+02  0.49999926641E+02 0.  0.
        -12    1    1    2    0    0  0.14053308813E+02 -0.81550696599E+01 -0.27435788323E+02  0.31886096196E+02  0.00000000000E+00 0.  1.
         11    1    3    3    0    0 -0.19170466376E+01 -0.11743558820E+02  0.39169275154E+01  0.12527113115E+02  0.51100000000E-03 0. -1.
        -11    1    3    3    0    0 -0.13566185118E+00  0.16307791635E+02 -0.37786880250E+01  0.16740398908E+02  0.51100000000E-03 0.  1.
         12    1    3    3    0    0 -0.12000600324E+02  0.35908368444E+01  0.27297548833E+02  0.30034391781E+02  0.00000000000E+00 0. -1.
</event>
<event>
 7    1  0.6830263E-012  0.5930179E+02  0.7816164E-02  0.1266605E+00
        -11   -1    0    0    0    0  0.00000000000E+00  0.00000000000E+00  0.45593999997E+02  0.45594000000E+02  0.51100000000E-03 0. -1.
         11   -1    0    0    0    0 -0.00000000000E+00 -0.00000000000E+00 -0.45593999997E+02  0.45594000000E+02  0.51100000000E-03 0.  1.
    9900012    2    1    2    0    0  0.49715551826E+01  0.15860663599E+02  0.27211269947E+02  0.59301792592E+02  0.49999723817E+02 0.  0.
        -12    1    1    2    0    0 -0.49715551826E+01 -0.15860663599E+02 -0.27211269947E+02  0.31886207408E+02  0.00000000000E+00 0.  1.
         11    1    3    3    0    0  0.70566993933E+01  0.20235418261E+00  0.18785065180E+02  0.20067800767E+02  0.51100000000E-03 0. -1.
        -11    1    3    3    0    0  0.99813938882E+01  0.16715725449E+02 -0.60229095820E+01  0.20379380298E+02  0.51100000000E-03 0.  1.
         12    1    3    3    0    0 -0.12066538099E+02 -0.10574160323E+01  0.14449114349E+02  0.18854611527E+02  0.00000000000E+00 0. -1.
</event>
<event>
 7    1  0.6830263E-012  0.5930194E+02  0.7816164E-02  0.1266605E+00
        -11   -1    0    0    0    0  0.00000000000E+00  0.00000000000E+00  0.45593999997E+02  0.45594000000E+02  0.51100000000E-03 0.  1.
         11   -1    0    0    0    0 -0.00000000000E+00 -0.00000000000E+00 -0.45593999997E+02  0.45594000000E+02  0.51100000000E-03 0. -1.
    9900012    2    1    2    0    0 -0.69223048492E+01  0.22093626922E+01 -0.31047081649E+02  0.59301939302E+02  0.49999991382E+02 0.  0.
        -12    1    1    2    0    0  0.69223048492E+01 -0.22093626922E+01  0.31047081649E+02  0.31886060698E+02  0.00000000000E+00 0.  1.
         11    1    3    3    0    0 -0.20352572254E+02  0.66104602203E+01 -0.10498355874E+02  0.23835705528E+02  0.51100000000E-03 0.  1.
        -11    1    3    3    0    0 -0.13214256859E+01 -0.10734001424E+01 -0.20269927545E+02  0.20341295844E+02  0.51100000000E-03 0. -1.
        -12    1    3    3    0    0  0.14751693091E+02 -0.33276973857E+01 -0.27879822966E+00  0.15124937930E+02  0.00000000000E+00 0.  1.
</event>
<event>
 7    1  0.6830263E-012  0.5930196E+02  0.7816164E-02  0.1266605E+00
        -11   -1    0    0    0    0  0.00000000000E+00  0.00000000000E+00  0.45593999997E+02  0.45594000000E+02  0.51100000000E-03 0.  1.
         11   -1    0    0    0    0 -0.00000000000E+00 -0.00000000000E+00 -0.45593999997E+02  0.45594000000E+02  0.51100000000E-03 0. -1.
    9900012    2    1    2    0    0  0.20666143586E+02 -0.18913768976E+02 -0.15228247638E+02  0.59301958011E+02  0.50000025502E+02 0.  0.
        -12    1    1    2    0    0 -0.20666143586E+02  0.18913768976E+02  0.15228247638E+02  0.31886041989E+02  0.00000000000E+00 0.  1.
         11    1    3    3    0    0 -0.78375745067E+01 -0.96732595780E+01 -0.66552083475E+01  0.14117057888E+02  0.51100000000E-03 0. -1.
        -11    1    3    3    0    0 -0.60702047417E+01  0.41269808501E+00  0.38496806452E+01  0.71998435154E+01  0.51100000000E-03 0.  1.
         12    1    3    3    0    0  0.34573922835E+02 -0.96532074828E+01 -0.12422719935E+02  0.37985056608E+02  0.00000000000E+00 0. -1.
</event>
<event>
 7    1  0.6830263E-012  0.5930195E+02  0.7816164E-02  0.1266605E+00
        -11   -1    0    0    0    0  0.00000000000E+00  0.00000000000E+00  0.45593999997E+02  0.45594000000E+02  0.51100000000E-03 0.  1.
         11   -1    0    0    0    0 -0.00000000000E+00 -0.00000000000E+00 -0.45593999997E+02  0.45594000000E+02  0.51100000000E-03 0. -1.
    9900012    2    1    2    0    0  0.96779893762E+00 -0.31678218719E+02 -0.35034089224E+01  0.59301952110E+02  0.50000014739E+02 0.  0.
        -12    1    1    2    0    0 -0.96779893762E+00  0.31678218719E+02  0.35034089224E+01  0.31886047890E+02  0.00000000000E+00 0.  1.
         11    1    3    3    0    0  0.80137346705E+01 -0.88348437562E+01 -0.10605806935E+02  0.15961126169E+02  0.51100000000E-03 0.  1.
        -11    1    3    3    0    0 -0.40207030795E+01 -0.32335706776E+02  0.72302932903E+01  0.33377254640E+02  0.51100000000E-03 0. -1.
        -12    1    3    3    0    0 -0.30252326534E+01  0.94923318136E+01 -0.12789527770E+00  0.99635713010E+01  0.00000000000E+00 0.  1.
</event>
<event>
 7    1  0.6830263E-012  0.5930195E+02  0.7816164E-02  0.1266605E+00
        -11   -1    0    0    0    0  0.00000000000E+00  0.00000000000E+00  0.45593999997E+02  0.45594000000E+02  0.51100000000E-03 0.  1.
         11   -1    0    0    0    0 -0.00000000000E+00 -0.00000000000E+00 -0.45593999997E+02  0.45594000000E+02  0.51100000000E-03 0. -1.
    9900012    2    1    2    0    0 -0.57479803402E+01  0.49463546084E+01 -0.30971187350E+02  0.59301950577E+02  0.50000011945E+02 0.  0.
        -12    1    1    2    0    0  0.57479803402E+01 -0.49463546084E+01  0.30971187350E+02  0.31886049423E+02  0.00000000000E+00 0.  1.
         11    1    3    3    0    0 -0.66892557335E+01 -0.13421360860E+02  0.29404466982E+01  0.15281534499E+02  0.51100000000E-03 0. -1.
        -11    1    3    3    0    0 -0.37970155402E+00 -0.42955960550E+01 -0.10776887593E+02  0.11607653733E+02  0.51100000000E-03 0.  1.
        -12    1    3    3    0    0  0.13209769473E+01  0.22663311523E+02 -0.23134746455E+02  0.32412762345E+02  0.00000000000E+00 0.  1.
</event>
<event>
 7    1  0.6830263E-012  0.5930195E+02  0.7816164E-02  0.1266605E+00
        -11   -1    0    0    0    0  0.00000000000E+00  0.00000000000E+00  0.45593999997E+02  0.45594000000E+02  0.51100000000E-03 0.  1.
         11   -1    0    0    0    0 -0.00000000000E+00 -0.00000000000E+00 -0.45593999997E+02  0.45594000000E+02  0.51100000000E-03 0. -1.
    9900012    2    1    2    0    0  0.10496923980E+02 -0.22172436704E+02 -0.20369537950E+02  0.59301946015E+02  0.50000003624E+02 0.  0.
        -12    1    1    2    0    0 -0.10496923980E+02  0.22172436704E+02  0.20369537950E+02  0.31886053985E+02  0.00000000000E+00 0.  1.
         11    1    3    3    0    0  0.57013680146E+01  0.26803213289E+01 -0.20235117325E+02  0.21193152033E+02  0.51100000000E-03 0. -1.
        -11    1    3    3    0    0  0.11100801695E+02 -0.22324969143E+02 -0.93776719642E+01  0.26637807290E+02  0.51100000000E-03 0.  1.
        -12    1    3    3    0    0 -0.63052457294E+01 -0.25277888907E+01  0.92432513392E+01  0.11470986693E+02  0.00000000000E+00 0.  1.
</event>
<event>
 7    1  0.6830263E-012  0.5930220E+02  0.7816164E-02  0.1266604E+00
        -11   -1    0    0    0    0  0.00000000000E+00  0.00000000000E+00  0.45593999997E+02  0.45594000000E+02  0.51100000000E-03 0.  1.
         11   -1    0    0    0    0 -0.00000000000E+00 -0.00000000000E+00 -0.45593999997E+02  0.45594000000E+02  0.51100000000E-03 0. -1.
    9900012    2    1    2    0    0  0.24290706833E+02 -0.31788939344E+01  0.20409815712E+02  0.59302197791E+02  0.50000462802E+02 0.  0.
        -12    1    1    2    0    0 -0.24290706833E+02  0.31788939344E+01 -0.20409815712E+02  0.31885802209E+02  0.00000000000E+00 0.  1.
         11    1    3    3    0    0  0.27389825702E+02  0.11066721167E+02  0.25617049928E+02  0.39101254669E+02  0.51100000000E-03 0. -1.
        -11    1    3    3    0    0  0.47198932621E+00  0.17168527779E+01  0.16847013401E+01  0.24512397377E+01  0.51100000000E-03 0.  1.
        -12    1    3    3    0    0 -0.35711081952E+01 -0.15962467880E+02 -0.68919355563E+01  0.17749703385E+02  0.00000000000E+00 0.  1.
</event>
<event>
 7    1  0.6830263E-012  0.5930233E+02  0.7816164E-02  0.1266603E+00
        -11   -1    0    0    0    0  0.00000000000E+00  0.00000000000E+00  0.45593999997E+02  0.45594000000E+02  0.51100000000E-03 0. -1.
         11   -1    0    0    0    0 -0.00000000000E+00 -0.00000000000E+00 -0.45593999997E+02  0.45594000000E+02  0.51100000000E-03 0.  1.
    9900012    2    1    2    0    0 -0.19029698929E+02 -0.19581563399E+02  0.16465995598E+02  0.59302328022E+02  0.50000700308E+02 0.  0.
        -12    1    1    2    0    0  0.19029698929E+02  0.19581563399E+02 -0.16465995598E+02  0.31885671978E+02  0.00000000000E+00 0.  1.
         11    1    3    3    0    0 -0.29494985181E+02 -0.12483469866E+02 -0.18330865312E+01  0.32080389294E+02  0.51100000000E-03 0. -1.
        -11    1    3    3    0    0  0.40710857834E+01  0.46905263547E+01  0.88683813519E+01  0.10826955482E+02  0.51100000000E-03 0.  1.
        -12    1    3    3    0    0  0.63942004689E+01 -0.11788619888E+02  0.94307007771E+01  0.16394983246E+02  0.00000000000E+00 0.  1.
</event>
<event>
 7    1  0.6830263E-012  0.5930194E+02  0.7816164E-02  0.1266605E+00
        -11   -1    0    0    0    0  0.00000000000E+00  0.00000000000E+00  0.45593999997E+02  0.45594000000E+02  0.51100000000E-03 0.  1.
         11   -1    0    0    0    0 -0.00000000000E+00 -0.00000000000E+00 -0.45593999997E+02  0.45594000000E+02  0.51100000000E-03 0. -1.
    9900012    2    1    2    0    0 -0.28830599082E+02 -0.12639816728E+02  0.50746996080E+01  0.59301937427E+02  0.49999987961E+02 0.  0.
        -12    1    1    2    0    0  0.28830599082E+02  0.12639816728E+02 -0.50746996080E+01  0.31886062573E+02  0.00000000000E+00 0.  1.
         11    1    3    3    0    0  0.95402029083E+01 -0.60396506034E+01  0.90550357071E+01  0.14473649259E+02  0.51100000000E-03 0. -1.
        -11    1    3    3    0    0  0.13497479821E+01 -0.40442352438E+01  0.17624269174E+01  0.46134376795E+01  0.51100000000E-03 0.  1.
         12    1    3    3    0    0 -0.39720549972E+02 -0.25559308810E+01 -0.57427630165E+01  0.40214850488E+02  0.00000000000E+00 0. -1.
</event>
<event>
 7    1  0.6830263E-012  0.5930193E+02  0.7816164E-02  0.1266605E+00
        -11   -1    0    0    0    0  0.00000000000E+00  0.00000000000E+00  0.45593999997E+02  0.45594000000E+02  0.51100000000E-03 0. -1.
         11   -1    0    0    0    0 -0.00000000000E+00 -0.00000000000E+00 -0.45593999997E+02  0.45594000000E+02  0.51100000000E-03 0.  1.
    9900012    2    1    2    0    0  0.60101224129E+01 -0.31313515492E+02  0.25276612669E+00  0.59301926008E+02  0.49999967137E+02 0.  0.
        -12    1    1    2    0    0 -0.60101224129E+01  0.31313515492E+02 -0.25276612669E+00  0.31886073992E+02  0.00000000000E+00 0.  1.
         11    1    3    3    0    0  0.89797275728E+01 -0.20903486954E+02  0.17230952404E+02  0.28539393742E+02  0.51100000000E-03 0. -1.
        -11    1    3    3    0    0  0.41208111213E+01 -0.87187212071E+01  0.25023458963E+01  0.99628770459E+01  0.51100000000E-03 0.  1.
        -12    1    3    3    0    0 -0.70904162812E+01 -0.16913073308E+01 -0.19480532174E+02  0.20799655221E+02  0.00000000000E+00 0.  1.
</event>
<event>
 7    1  0.6830263E-012  0.5930193E+02  0.7816164E-02  0.1266605E+00
        -11   -1    0    0    0    0  0.00000000000E+00  0.00000000000E+00  0.45593999997E+02  0.45594000000E+02  0.51100000000E-03 0.  1.
         11   -1    0    0    0    0 -0.00000000000E+00 -0.00000000000E+00 -0.45593999997E+02  0.45594000000E+02  0.51100000000E-03 0. -1.
    9900012    2    1    2    0    0  0.63584342770E+01 -0.75637802462E+01 -0.30316346582E+02  0.59301932068E+02  0.49999978188E+02 0.  0.
        -12    1    1    2    0    0 -0.63584342770E+01  0.75637802462E+01  0.30316346582E+02  0.31886067932E+02  0.00000000000E+00 0.  1.
         11    1    3    3    0    0  0.75833473694E+01  0.23743615454E+01 -0.88606518027E+00  0.79956151632E+01  0.51100000000E-03 0. -1.
        -11    1    3    3    0    0  0.18984013405E+02  0.11234839256E+00 -0.17292081871E+02  0.25679203314E+02  0.51100000000E-03 0.  1.
         12    1    3    3    0    0 -0.20208926498E+02 -0.10050490184E+02 -0.12138199531E+02  0.25627113591E+02  0.00000000000E+00 0. -1.
</event>
<event>
 7    1  0.6830263E-012  0.5930194E+02  0.7816164E-02  0.1266605E+00
        -11   -1    0    0    0    0  0.00000000000E+00  0.00000000000E+00  0.45593999997E+02  0.45594000000E+02  0.51100000000E-03 0.  1.
         11   -1    0    0    0    0 -0.00000000000E+00 -0.00000000000E+00 -0.45593999997E+02  0.45594000000E+02  0.51100000000E-03 0. -1.
    9900012    2    1    2    0    0  0.20129527777E+02  0.60140769570E+01 -0.23986534027E+02  0.59301939961E+02  0.49999992583E+02 0.  0.
        -12    1    1    2    0    0 -0.20129527777E+02 -0.60140769570E+01  0.23986534027E+02  0.31886060039E+02  0.00000000000E+00 0.  1.
         11    1    3    3    0    0  0.14213167039E+02  0.16299752161E+02 -0.82286521129E+00  0.21641930256E+02  0.51100000000E-03 0. -1.
        -11    1    3    3    0    0 -0.53881556160E+00  0.72113685148E+01 -0.16220858011E+02  0.17759797097E+02  0.51100000000E-03 0.  1.
         12    1    3    3    0    0  0.64551763000E+01 -0.17497043719E+02 -0.69428108050E+01  0.19900212608E+02  0.00000000000E+00 0. -1.
</event>
<event>
 7    1  0.6830263E-012  0.5930196E+02  0.7816164E-02  0.1266605E+00
        -11   -1    0    0    0    0  0.00000000000E+00  0.00000000000E+00  0.45593999997E+02  0.45594000000E+02  0.51100000000E-03 0.  1.
         11   -1    0    0    0    0 -0.00000000000E+00 -0.00000000000E+00 -0.45593999997E+02  0.45594000000E+02  0.51100000000E-03 0. -1.
    9900012    2    1    2    0    0 -0.19444466619E+02  0.18289989912E+02 -0.17438706884E+02  0.59301960565E+02  0.50000030160E+02 0.  0.
        -12    1    1    2    0    0  0.19444466619E+02 -0.18289989912E+02  0.17438706884E+02  0.31886039435E+02  0.00000000000E+00 0.  1.
         11    1    3    3    0    0 -0.94256638647E+00  0.15425876330E+02  0.24136797445E+01  0.15641992908E+02  0.51100000000E-03 0. -1.
        -11    1    3    3    0    0  0.69857863606E+01 -0.52474153936E+01  0.21820652178E+01  0.90054421471E+01  0.51100000000E-03 0.  1.
         12    1    3    3    0    0 -0.25487686593E+02  0.81115289756E+01 -0.22034451846E+02  0.34654525510E+02  0.00000000000E+00 0. -1.
</event>
<event>
 7    1  0.6830263E-012  0.5930197E+02  0.7816164E-02  0.1266605E+00
        -11   -1    0    0    0    0  0.00000000000E+00  0.00000000000E+00  0.45593999997E+02  0.45594000000E+02  0.51100000000E-03 0.  1.
         11   -1    0    0    0    0 -0.00000000000E+00 -0.00000000000E+00 -0.45593999997E+02  0.45594000000E+02  0.51100000000E-03 0. -1.
    9900012    2    1    2    0    0  0.26716990452E+02 -0.11779172631E+02 -0.12812982218E+02  0.59301968575E+02  0.50000044769E+02 0.  0.
        -12    1    1    2    0    0 -0.26716990452E+02  0.11779172631E+02  0.12812982218E+02  0.31886031425E+02  0.00000000000E+00 0.  1.
         11    1    3    3    0    0  0.18255792394E+02 -0.81491248215E+00  0.95016144788E+00  0.18298656927E+02  0.51100000000E-03 0. -1.
        -11    1    3    3    0    0  0.16496840596E+02 -0.20284989082E+02 -0.75331998266E+01  0.27209844387E+02  0.51100000000E-03 0.  1.
        -12    1    3    3    0    0 -0.80356425376E+01  0.93207289333E+01 -0.62299438394E+01  0.13793467261E+02  0.00000000000E+00 0.  1.
</event>
<event>
 7    1  0.6830263E-012  0.5930196E+02  0.7816164E-02  0.1266605E+00
        -11   -1    0    0    0    0  0.00000000000E+00  0.00000000000E+00  0.45593999997E+02  0.45594000000E+02  0.51100000000E-03 0.  1.
         11   -1    0    0    0    0 -0.00000000000E+00 -0.00000000000E+00 -0.45593999997E+02  0.45594000000E+02  0.51100000000E-03 0. -1.
    9900012    2    1    2    0    0 -0.59019981897E+01 -0.28932513949E+02 -0.12033116102E+02  0.59301955573E+02  0.50000021057E+02 0.  0.
        -12    1    1    2    0    0  0.59019981897E+01  0.28932513949E+02  0.12033116102E+02  0.31886044427E+02  0.00000000000E+00 0.  1.
         11    1    3    3    0    0  0.12567179939E+01 -0.12245579793E+02 -0.13954513023E+02  0.18608116470E+02  0.51100000000E-03 0.  1.
        -11    1    3    3    0    0 -0.11443867752E+02  0.12192055516E+01 -0.12732127047E+02  0.17162623072E+02  0.51100000000E-03 0. -1.
        -12    1    3    3    0    0  0.42851515684E+01 -0.17906139708E+02  0.14653523969E+02  0.23531216031E+02  0.00000000000E+00 0.  1.
</event>
<event>
 7    1  0.6830263E-012  0.5930193E+02  0.7816164E-02  0.1266605E+00
        -11   -1    0    0    0    0  0.00000000000E+00  0.00000000000E+00  0.45593999997E+02  0.45594000000E+02  0.51100000000E-03 0. -1.
         11   -1    0    0    0    0 -0.00000000000E+00 -0.00000000000E+00 -0.45593999997E+02  0.45594000000E+02  0.51100000000E-03 0.  1.
    9900012    2    1    2    0    0 -0.54395688958E+01  0.98831540849E+00  0.31403117659E+02  0.59301929753E+02  0.49999973966E+02 0.  0.
        -12    1    1    2    0    0  0.54395688958E+01 -0.98831540849E+00 -0.31403117659E+02  0.31886070247E+02  0.00000000000E+00 0.  1.
         11    1    3    3    0    0  0.24481896390E+01 -0.14533403960E+01 -0.66978247420E+00  0.29247973672E+01  0.51100000000E-03 0. -1.
        -11    1    3    3    0    0 -0.25480172331E+02 -0.59056885985E+01  0.13357428100E+02  0.29368984074E+02  0.51100000000E-03 0.  1.
         12    1    3    3    0    0  0.17592413797E+02  0.83473444030E+01  0.18715472033E+02  0.27008148311E+02  0.00000000000E+00 0. -1.
</event>
<event>
 7    1  0.6830263E-012  0.5930191E+02  0.7816164E-02  0.1266605E+00
        -11   -1    0    0    0    0  0.00000000000E+00  0.00000000000E+00  0.45593999997E+02  0.45594000000E+02  0.51100000000E-03 0. -1.
         11   -1    0    0    0    0 -0.00000000000E+00 -0.00000000000E+00 -0.45593999997E+02  0.45594000000E+02  0.51100000000E-03 0.  1.
    9900012    2    1    2    0    0  0.26817964548E+02 -0.38182867834E+01  0.16820833003E+02  0.59301906490E+02  0.49999931539E+02 0.  0.
        -12    1    1    2    0    0 -0.26817964548E+02  0.38182867834E+01 -0.16820833003E+02  0.31886093510E+02  0.00000000000E+00 0.  1.
         11    1    3    3    0    0  0.15252097447E+02 -0.62219452669E+01  0.21995107008E+01  0.16618571750E+02  0.51100000000E-03 0. -1.
        -11    1    3    3    0    0  0.23684278622E+02 -0.32185725687E+00  0.24958786275E+00  0.23687780400E+02  0.51100000000E-03 0.  1.
        -12    1    3    3    0    0 -0.12118411521E+02  0.27255157404E+01  0.14371734440E+02  0.18995554339E+02  0.00000000000E+00 0.  1.
</event>
<event>
 7    1  0.6830263E-012  0.5930195E+02  0.7816164E-02  0.1266605E+00
        -11   -1    0    0    0    0  0.00000000000E+00  0.00000000000E+00  0.45593999997E+02  0.45594000000E+02  0.51100000000E-03 0.  1.
         11   -1    0    0    0    0 -0.00000000000E+00 -0.00000000000E+00 -0.45593999997E+02  0.45594000000E+02  0.51100000000E-03 0. -1.
    9900012    2    1    2    0    0 -0.91513683919E+01  0.27674614229E+02 -0.12926258837E+02  0.59301953150E+02  0.50000016638E+02 0.  0.
        -12    1    1    2    0    0  0.91513683919E+01 -0.27674614229E+02  0.12926258837E+02  0.31886046850E+02  0.00000000000E+00 0.  1.
         11    1    3    3    0    0 -0.25850122781E+01 -0.28884372810E+01 -0.92435080041E+01  0.10023362654E+02  0.51100000000E-03 0. -1.
        -11    1    3    3    0    0  0.17666565319E+01  0.10451458431E+02  0.16487681873E+02  0.19600962029E+02  0.51100000000E-03 0.  1.
         12    1    3    3    0    0 -0.83330126457E+01  0.20111593080E+02 -0.20170432706E+02  0.29677628468E+02  0.00000000000E+00 0. -1.
</event>
<event>
 7    1  0.6830263E-012  0.5930195E+02  0.7816164E-02  0.1266605E+00
        -11   -1    0    0    0    0  0.00000000000E+00  0.00000000000E+00  0.45593999997E+02  0.45594000000E+02  0.51100000000E-03 0.  1.
         11   -1    0    0    0    0 -0.00000000000E+00 -0.00000000000E+00 -0.45593999997E+02  0.45594000000E+02  0.51100000000E-03 0. -1.
    9900012    2    1    2    0    0 -0.29949849000E+02  0.27739104566E+01 -0.10584525203E+02  0.59301949632E+02  0.50000010220E+02 0.  0.
        -12    1    1    2    0    0  0.29949849000E+02 -0.27739104566E+01  0.10584525203E+02  0.31886050368E+02  0.00000000000E+00 0.  1.
         11    1    3    3    0    0 -0.80491356115E+00 -0.68778301708E+01 -0.16935937670E+02  0.18296951077E+02  0.51100000000E-03 0. -1.
        -11    1    3    3    0    0  0.19737335231E+01  0.66362102448E+01  0.68459809794E+01  0.97366506698E+01  0.51100000000E-03 0.  1.
         12    1    3    3    0    0 -0.31118668962E+02  0.30155303826E+01 -0.49456851248E+00  0.31268347885E+02  0.00000000000E+00 0. -1.
</event>
<event>
 7    1  0.6830263E-012  0.5930190E+02  0.7816164E-02  0.1266605E+00
        -11   -1    0    0    0    0  0.00000000000E+00  0.00000000000E+00  0.45593999997E+02  0.45594000000E+02  0.51100000000E-03 0.  1.
         11   -1    0    0    0    0 -0.00000000000E+00 -0.00000000000E+00 -0.45593999997E+02  0.45594000000E+02  0.51100000000E-03 0. -1.
    9900012    2    1    2    0    0 -0.15878838396E+02  0.70743765511E+00 -0.27642089616E+02  0.59301904360E+02  0.49999927656E+02 0.  0.
        -12    1    1    2    0    0  0.15878838396E+02 -0.70743765511E+00  0.27642089616E+02  0.31886095640E+02  0.00000000000E+00 0.  1.
         11    1    3    3    0    0 -0.17410816919E+02 -0.11012630075E+02 -0.13989626779E+02  0.24902293562E+02  0.51100000000E-03 0. -1.
        -11    1    3    3    0    0  0.14134777294E+00 -0.79661166642E+01  0.30639043823E+01  0.85361879212E+01  0.51100000000E-03 0.  1.
         12    1    3    3    0    0  0.13906307510E+01  0.19686184395E+02 -0.16716367219E+02  0.25863422877E+02  0.00000000000E+00 0. -1.
</event>
<event>
 7    1  0.6830263E-012  0.5930195E+02  0.7816164E-02  0.1266605E+00
        -11   -1    0    0    0    0  0.00000000000E+00  0.00000000000E+00  0.45593999997E+02  0.45594000000E+02  0.51100000000E-03 0.  1.
         11   -1    0    0    0    0 -0.00000000000E+00 -0.00000000000E+00 -0.45593999997E+02  0.45594000000E+02  0.51100000000E-03 0. -1.
    9900012    2    1    2    0    0  0.22663039513E+02 -0.11083268457E+02 -0.19500456076E+02  0.59301953102E+02  0.50000016549E+02 0.  0.
        -12    1    1    2    0    0 -0.22663039513E+02  0.11083268457E+02  0.19500456076E+02  0.31886046898E+02  0.00000000000E+00 0.  1.
         11    1    3    3    0    0  0.17789755826E+00 -0.21417046186E+02 -0.10049401153E+02  0.23658232789E+02  0.51100000000E-03 0. -1.
        -11    1    3    3    0    0  0.73550759627E+01 -0.22636930370E+01  0.66807072996E+01  0.10190843874E+02  0.51100000000E-03 0.  1.
         12    1    3    3    0    0  0.15130065992E+02  0.12597470766E+02 -0.16131762222E+02  0.25452876439E+02  0.00000000000E+00 0. -1.
</event>
<event>
 7    1  0.6830263E-012  0.5930194E+02  0.7816164E-02  0.1266605E+00
        -11   -1    0    0    0    0  0.00000000000E+00  0.00000000000E+00  0.45593999997E+02  0.45594000000E+02  0.51100000000E-03 0.  1.
         11   -1    0    0    0    0 -0.00000000000E+00 -0.00000000000E+00 -0.45593999997E+02  0.45594000000E+02  0.51100000000E-03 0. -1.
    9900012    2    1    2    0    0 -0.14377462076E+02  0.25299340819E+02 -0.13036587819E+02  0.59301942176E+02  0.49999996623E+02 0.  0.
        -12    1    1    2    0    0  0.14377462076E+02 -0.25299340819E+02  0.13036587819E+02  0.31886057824E+02  0.00000000000E+00 0.  1.
         11    1    3    3    0    0  0.86996681616E+00  0.15029499613E+01  0.83460717531E+01  0.85248234478E+01  0.51100000000E-03 0. -1.
        -11    1    3    3    0    0 -0.33393872046E+01 -0.56083661676E+01  0.60026353320E+01  0.88677454385E+01  0.51100000000E-03 0.  1.
         12    1    3    3    0    0 -0.11908041687E+02  0.29404757025E+02 -0.27385294905E+02  0.41909373290E+02  0.00000000000E+00 0. -1.
</event>
<event>
 7    1  0.6830263E-012  0.5930196E+02  0.7816164E-02  0.1266605E+00
        -11   -1    0    0    0    0  0.00000000000E+00  0.00000000000E+00  0.45593999997E+02  0.45594000000E+02  0.51100000000E-03 0.  1.
         11   -1    0    0    0    0 -0.00000000000E+00 -0.00000000000E+00 -0.45593999997E+02  0.45594000000E+02  0.51100000000E-03 0. -1.
    9900012    2    1    2    0    0 -0.24068916767E+02 -0.75019590626E+01 -0.19522478476E+02  0.59301963715E+02  0.50000035905E+02 0.  0.
        -12    1    1    2    0    0  0.24068916767E+02  0.75019590626E+01  0.19522478476E+02  0.31886036285E+02  0.00000000000E+00 0.  1.
         11    1    3    3    0    0 -0.55098190119E+01  0.51208372491E+00 -0.25374417382E+01  0.60876059433E+01  0.51100000000E-03 0. -1.
        -11    1    3    3    0    0 -0.26892493286E+02 -0.21020120271E+02 -0.70645646785E+01  0.34856272401E+02  0.51100000000E-03 0.  1.
         12    1    3    3    0    0  0.83333955312E+01  0.13006077484E+02 -0.99204720593E+01  0.18358085371E+02  0.00000000000E+00 0. -1.
</event>
<event>
 7    1  0.6830263E-012  0.5930195E+02  0.7816164E-02  0.1266605E+00
        -11   -1    0    0    0    0  0.00000000000E+00  0.00000000000E+00  0.45593999997E+02  0.45594000000E+02  0.51100000000E-03 0.  1.
         11   -1    0    0    0    0 -0.00000000000E+00 -0.00000000000E+00 -0.45593999997E+02  0.45594000000E+02  0.51100000000E-03 0. -1.
    9900012    2    1    2    0    0  0.26461169560E+02 -0.14716723287E+02  0.99972399611E+01  0.59301949043E+02  0.50000009147E+02 0.  0.
        -12    1    1    2    0    0 -0.26461169560E+02  0.14716723287E+02 -0.99972399611E+01  0.31886050957E+02  0.00000000000E+00 0.  1.
         11    1    3    3    0    0  0.17249343723E+01  0.97419500960E+00  0.16815152896E+01  0.25984511609E+01  0.51100000000E-03 0.  1.
        -11    1    3    3    0    0  0.33863157038E+02  0.28670198212E+01 -0.10505167534E+01  0.34000541068E+02  0.51100000000E-03 0. -1.
         12    1    3    3    0    0 -0.91269218504E+01 -0.18557938118E+02  0.93662414249E+01  0.22702956814E+02  0.00000000000E+00 0. -1.
</event>
<event>
 7    1  0.6830263E-012  0.5930194E+02  0.7816164E-02  0.1266605E+00
        -11   -1    0    0    0    0  0.00000000000E+00  0.00000000000E+00  0.45593999997E+02  0.45594000000E+02  0.51100000000E-03 0.  1.
         11   -1    0    0    0    0 -0.00000000000E+00 -0.00000000000E+00 -0.45593999997E+02  0.45594000000E+02  0.51100000000E-03 0. -1.
    9900012    2    1    2    0    0  0.15867177528E+02 -0.44303660578E+01 -0.27300648159E+02  0.59301939472E+02  0.49999991691E+02 0.  0.
        -12    1    1    2    0    0 -0.15867177528E+02  0.44303660578E+01  0.27300648159E+02  0.31886060528E+02  0.00000000000E+00 0.  1.
         11    1    3    3    0    0 -0.21887179242E+01  0.11531751493E+02 -0.42628640250E+01  0.12487745538E+02  0.51100000000E-03 0. -1.
        -11    1    3    3    0    0  0.67372525599E+01  0.97104174030E+01 -0.25966317285E+01  0.12100631173E+02  0.51100000000E-03 0.  1.
        -12    1    3    3    0    0  0.11318642892E+02 -0.25672534954E+02 -0.20441152406E+02  0.34713562761E+02  0.00000000000E+00 0.  1.
</event>
<event>
 7    1  0.6830263E-012  0.5930194E+02  0.7816164E-02  0.1266605E+00
        -11   -1    0    0    0    0  0.00000000000E+00  0.00000000000E+00  0.45593999997E+02  0.45594000000E+02  0.51100000000E-03 0. -1.
         11   -1    0    0    0    0 -0.00000000000E+00 -0.00000000000E+00 -0.45593999997E+02  0.45594000000E+02  0.51100000000E-03 0.  1.
    9900012    2    1    2    0    0 -0.31451321475E+02 -0.47171866845E+01  0.22986099601E+01  0.59301935952E+02  0.49999985271E+02 0.  0.
        -12    1    1    2    0    0  0.31451321475E+02  0.47171866845E+01 -0.22986099601E+01  0.31886064048E+02  0.00000000000E+00 0.  1.
         11    1    3    3    0    0  0.63287254428E+01 -0.52669351559E+01 -0.76931846523E+01  0.11268472036E+02  0.51100000000E-03 0. -1.
        -11    1    3    3    0    0 -0.21608577401E+02  0.13102081843E+02  0.38080401650E-01  0.25270469254E+02  0.51100000000E-03 0.  1.
        -12    1    3    3    0    0 -0.16171469517E+02 -0.12552333371E+02  0.99537142107E+01  0.22762994662E+02  0.00000000000E+00 0.  1.
</event>
<event>
 7    1  0.6830263E-012  0.5930194E+02  0.7816164E-02  0.1266605E+00
        -11   -1    0    0    0    0  0.00000000000E+00  0.00000000000E+00  0.45593999997E+02  0.45594000000E+02  0.51100000000E-03 0.  1.
         11   -1    0    0    0    0 -0.00000000000E+00 -0.00000000000E+00 -0.45593999997E+02  0.45594000000E+02  0.51100000000E-03 0. -1.
    9900012    2    1    2    0    0 -0.20689953328E+02 -0.16987872948E+02 -0.17322201699E+02  0.59301942424E+02  0.49999997075E+02 0.  0.
        -12    1    1    2    0    0  0.20689953328E+02  0.16987872948E+02  0.17322201699E+02  0.31886057576E+02  0.00000000000E+00 0.  1.
         11    1    3    3    0    0 -0.23534926250E+01 -0.74590735411E+00 -0.15593276301E+02  0.15787513148E+02  0.51100000000E-03 0. -1.
        -11    1    3    3    0    0 -0.93557676516E+01  0.38107815254E+01 -0.14821987382E+02  0.17937217019E+02  0.51100000000E-03 0.  1.
        -12    1    3    3    0    0 -0.89806930517E+01 -0.20052747120E+02  0.13093061984E+02  0.25577212257E+02  0.00000000000E+00 0.  1.
</event>
<event>
 7    1  0.6830263E-012  0.5930196E+02  0.7816164E-02  0.1266605E+00
        -11   -1    0    0    0    0  0.00000000000E+00  0.00000000000E+00  0.45593999997E+02  0.45594000000E+02  0.51100000000E-03 0. -1.
         11   -1    0    0    0    0 -0.00000000000E+00 -0.00000000000E+00 -0.45593999997E+02  0.45594000000E+02  0.51100000000E-03 0.  1.
    9900012    2    1    2    0    0 -0.77485792761E+01  0.27296486081E+02 -0.14545830140E+02  0.59301955911E+02  0.50000021673E+02 0.  0.
        -12    1    1    2    0    0  0.77485792761E+01 -0.27296486081E+02  0.14545830140E+02  0.31886044089E+02  0.00000000000E+00 0.  1.
         11    1    3    3    0    0  0.99136786510E+01  0.16211065116E+02 -0.52942834633E+01  0.19725848378E+02  0.51100000000E-03 0. -1.
        -11    1    3    3    0    0 -0.13464134686E+02 -0.10013423017E+02 -0.21226984381E+01  0.16913231870E+02  0.51100000000E-03 0.  1.
         12    1    3    3    0    0 -0.41981232406E+01  0.21098843982E+02 -0.71288482381E+01  0.22662875663E+02  0.00000000000E+00 0. -1.
</event>
<event>
 7    1  0.6830263E-012  0.5930193E+02  0.7816164E-02  0.1266605E+00
        -11   -1    0    0    0    0  0.00000000000E+00  0.00000000000E+00  0.45593999997E+02  0.45594000000E+02  0.51100000000E-03 0. -1.
         11   -1    0    0    0    0 -0.00000000000E+00 -0.00000000000E+00 -0.45593999997E+02  0.45594000000E+02  0.51100000000E-03 0.  1.
    9900012    2    1    2    0    0 -0.29283793697E+00  0.21568985139E+02  0.23482217892E+02  0.59301930453E+02  0.49999975244E+02 0.  0.
        -12    1    1    2    0    0  0.29283793697E+00 -0.21568985139E+02 -0.23482217892E+02  0.31886069547E+02  0.00000000000E+00 0.  1.
         11    1    3    3    0    0 -0.11834622151E+02 -0.51370928874E+01  0.83454639391E+01  0.15365375798E+02  0.51100000000E-03 0. -1.
        -11    1    3    3    0    0  0.59542097662E+01  0.10577918846E+01  0.16578578650E+02  0.17647118969E+02  0.51100000000E-03 0.  1.
        -12    1    3    3    0    0  0.55875744480E+01  0.25648286142E+02 -0.14418246967E+01  0.26289435686E+02  0.00000000000E+00 0.  1.
</event>
<event>
 7    1  0.6830263E-012  0.5930197E+02  0.7816164E-02  0.1266605E+00
        -11   -1    0    0    0    0  0.00000000000E+00  0.00000000000E+00  0.45593999997E+02  0.45594000000E+02  0.51100000000E-03 0.  1.
         11   -1    0    0    0    0 -0.00000000000E+00 -0.00000000000E+00 -0.45593999997E+02  0.45594000000E+02  0.51100000000E-03 0. -1.
    9900012    2    1    2    0    0  0.98152056988E+01  0.13727426862E+02 -0.27054355602E+02  0.59301973779E+02  0.50000054258E+02 0.  0.
        -12    1    1    2    0    0 -0.98152056988E+01 -0.13727426862E+02  0.27054355602E+02  0.31886026221E+02  0.00000000000E+00 0.  1.
         11    1    3    3    0    0 -0.78830953703E+01 -0.37071900055E+01 -0.11331358648E+01  0.87846711665E+01  0.51100000000E-03 0. -1.
        -11    1    3    3    0    0  0.73522951742E+01  0.10800443390E+02  0.73903634857E+01  0.15010772614E+02  0.51100000000E-03 0.  1.
        -12    1    3    3    0    0  0.10346005895E+02  0.66341734770E+01 -0.33311583223E+02  0.35506529998E+02  0.00000000000E+00 0.  1.
</event>
<event>
 7    1  0.6830263E-012  0.5930192E+02  0.7816164E-02  0.1266605E+00
        -11   -1    0    0    0    0  0.00000000000E+00  0.00000000000E+00  0.45593999997E+02  0.45594000000E+02  0.51100000000E-03 0.  1.
         11   -1    0    0    0    0 -0.00000000000E+00 -0.00000000000E+00 -0.45593999997E+02  0.45594000000E+02  0.51100000000E-03 0. -1.
    9900012    2    1    2    0    0  0.30439961464E+02  0.70061394740E+01 -0.64066223917E+01  0.59301920675E+02  0.49999957411E+02 0.  0.
        -12    1    1    2    0    0 -0.30439961464E+02 -0.70061394740E+01  0.64066223917E+01  0.31886079325E+02  0.00000000000E+00 0.  1.
         11    1    3    3    0    0  0.71540086913E+01  0.20687345702E+02  0.57182080373E+01  0.22623969943E+02  0.51100000000E-03 0. -1.
        -11    1    3    3    0    0 -0.24123653713E+01  0.19169188256E+01  0.17775825866E+01  0.35572299029E+01  0.51100000000E-03 0.  1.
         12    1    3    3    0    0  0.25698318144E+02 -0.15598125054E+02 -0.13902413016E+02  0.33120720829E+02  0.00000000000E+00 0. -1.
</event>
<event>
 7    1  0.6830263E-012  0.5930191E+02  0.7816164E-02  0.1266605E+00
        -11   -1    0    0    0    0  0.00000000000E+00  0.00000000000E+00  0.45593999997E+02  0.45594000000E+02  0.51100000000E-03 0.  1.
         11   -1    0    0    0    0 -0.00000000000E+00 -0.00000000000E+00 -0.45593999997E+02  0.45594000000E+02  0.51100000000E-03 0. -1.
    9900012    2    1    2    0    0 -0.18884629562E+02 -0.25667374862E+02 -0.11310138034E+01  0.59301912780E+02  0.49999943012E+02 0.  0.
        -12    1    1    2    0    0  0.18884629562E+02  0.25667374862E+02  0.11310138034E+01  0.31886087220E+02  0.00000000000E+00 0.  1.
         11    1    3    3    0    0  0.35312749126E+01  0.49130814205E+01  0.63695715781E+01  0.87851985694E+01  0.51100000000E-03 0. -1.
        -11    1    3    3    0    0  0.37619259376E+01  0.14904936788E+01  0.57663547603E+01  0.70444663140E+01  0.51100000000E-03 0.  1.
         12    1    3    3    0    0 -0.26177830412E+02 -0.32070949961E+02 -0.13266940142E+02  0.43472247897E+02  0.00000000000E+00 0. -1.
</event>
<event>
 7    1  0.6830263E-012  0.5930196E+02  0.7816164E-02  0.1266605E+00
        -11   -1    0    0    0    0  0.00000000000E+00  0.00000000000E+00  0.45593999997E+02  0.45594000000E+02  0.51100000000E-03 0. -1.
         11   -1    0    0    0    0 -0.00000000000E+00 -0.00000000000E+00 -0.45593999997E+02  0.45594000000E+02  0.51100000000E-03 0.  1.
    9900012    2    1    2    0    0  0.20353086479E+02 -0.20854734192E+02  0.12944161128E+02  0.59301962699E+02  0.50000034053E+02 0.  0.
        -12    1    1    2    0    0 -0.20353086479E+02  0.20854734192E+02 -0.12944161128E+02  0.31886037301E+02  0.00000000000E+00 0.  1.
         11    1    3    3    0    0  0.17206485549E+01  0.55625683032E+01 -0.20711197074E+01  0.61799947153E+01  0.51100000000E-03 0. -1.
        -11    1    3    3    0    0 -0.66675206316E+00  0.82415441778E+01 -0.39363896970E+01  0.91576619754E+01  0.51100000000E-03 0.  1.
         12    1    3    3    0    0  0.19299189987E+02 -0.34658846673E+02  0.18951670533E+02  0.43964306009E+02  0.00000000000E+00 0. -1.
</event>
<event>
 7    1  0.6830263E-012  0.5930188E+02  0.7816164E-02  0.1266605E+00
        -11   -1    0    0    0    0  0.00000000000E+00  0.00000000000E+00  0.45593999997E+02  0.45594000000E+02  0.51100000000E-03 0.  1.
         11   -1    0    0    0    0 -0.00000000000E+00 -0.00000000000E+00 -0.45593999997E+02  0.45594000000E+02  0.51100000000E-03 0. -1.
    9900012    2    1    2    0    0  0.98614046390E+01  0.13037429868E+02 -0.27377049002E+02  0.59301879334E+02  0.49999882015E+02 0.  0.
        -12    1    1    2    0    0 -0.98614046390E+01 -0.13037429868E+02  0.27377049002E+02  0.31886120666E+02  0.00000000000E+00 0.  1.
         11    1    3    3    0    0 -0.14165399202E+02  0.49165610983E+01 -0.47968728196E+01  0.15742969755E+02  0.51100000000E-03 0. -1.
        -11    1    3    3    0    0 -0.34845551407E+01  0.90588880262E+01 -0.53294566595E+01  0.11072880625E+02  0.51100000000E-03 0.  1.
         12    1    3    3    0    0  0.27511358982E+02 -0.93801925598E+00 -0.17250719523E+02  0.32486028954E+02  0.00000000000E+00 0. -1.
</event>
<event>
 7    1  0.6830263E-012  0.5930197E+02  0.7816164E-02  0.1266605E+00
        -11   -1    0    0    0    0  0.00000000000E+00  0.00000000000E+00  0.45593999997E+02  0.45594000000E+02  0.51100000000E-03 0.  1.
         11   -1    0    0    0    0 -0.00000000000E+00 -0.00000000000E+00 -0.45593999997E+02  0.45594000000E+02  0.51100000000E-03 0. -1.
    9900012    2    1    2    0    0 -0.23600960169E+02  0.17439086417E+02 -0.12473648556E+02  0.59301969136E+02  0.50000045792E+02 0.  0.
        -12    1    1    2    0    0  0.23600960169E+02 -0.17439086417E+02  0.12473648556E+02  0.31886030864E+02  0.00000000000E+00 0.  1.
         11    1    3    3    0    0 -0.67983687532E+00  0.14737740106E+01 -0.71034605108E+01  0.72865176525E+01  0.51100000000E-03 0.  1.
        -11    1    3    3    0    0 -0.23720478398E+02  0.29380295088E+02 -0.72363385580E+01  0.38447723351E+02  0.51100000000E-03 0. -1.
         12    1    3    3    0    0  0.79935510411E+00 -0.13414982682E+02  0.18661505129E+01  0.13567728133E+02  0.00000000000E+00 0. -1.
</event>
<event>
 7    1  0.6830263E-012  0.5930194E+02  0.7816164E-02  0.1266605E+00
        -11   -1    0    0    0    0  0.00000000000E+00  0.00000000000E+00  0.45593999997E+02  0.45594000000E+02  0.51100000000E-03 0.  1.
         11   -1    0    0    0    0 -0.00000000000E+00 -0.00000000000E+00 -0.45593999997E+02  0.45594000000E+02  0.51100000000E-03 0. -1.
    9900012    2    1    2    0    0 -0.16363422588E+02  0.27331784961E+02 -0.13901268735E+01  0.59301944730E+02  0.50000001280E+02 0.  0.
        -12    1    1    2    0    0  0.16363422588E+02 -0.27331784961E+02  0.13901268735E+01  0.31886055270E+02  0.00000000000E+00 0.  1.
         11    1    3    3    0    0 -0.77089394729E+01 -0.58456105905E+01 -0.69100621442E+01  0.11888981036E+02  0.51100000000E-03 0. -1.
        -11    1    3    3    0    0 -0.33917416102E+01 -0.61731025439E+01  0.29271314766E+01  0.76275294238E+01  0.51100000000E-03 0.  1.
        -12    1    3    3    0    0 -0.52627415050E+01  0.39350498096E+02  0.25928037942E+01  0.39785434270E+02  0.00000000000E+00 0.  1.
</event>
<event>
 7    1  0.6830263E-012  0.5930188E+02  0.7816164E-02  0.1266605E+00
        -11   -1    0    0    0    0  0.00000000000E+00  0.00000000000E+00  0.45593999997E+02  0.45594000000E+02  0.51100000000E-03 0. -1.
         11   -1    0    0    0    0 -0.00000000000E+00 -0.00000000000E+00 -0.45593999997E+02  0.45594000000E+02  0.51100000000E-03 0.  1.
    9900012    2    1    2    0    0 -0.20086615323E+02 -0.12932838197E+02  0.21118582211E+02  0.59301875532E+02  0.49999875080E+02 0.  0.
        -12    1    1    2    0    0  0.20086615323E+02  0.12932838197E+02 -0.21118582211E+02  0.31886124468E+02  0.00000000000E+00 0.  1.
         11    1    3    3    0    0 -0.10102134388E+02  0.48380044833E+00  0.22177376118E+02  0.24374642434E+02  0.51100000000E-03 0. -1.
        -11    1    3    3    0    0 -0.41392146954E+01  0.53215826516E+00  0.13381106252E+02  0.14016786205E+02  0.51100000000E-03 0.  1.
        -12    1    3    3    0    0 -0.58452662394E+01 -0.13948796911E+02 -0.14439900159E+02  0.20910446893E+02  0.00000000000E+00 0.  1.
</event>
<event>
 7    1  0.6830263E-012  0.5930195E+02  0.7816164E-02  0.1266605E+00
        -11   -1    0    0    0    0  0.00000000000E+00  0.00000000000E+00  0.45593999997E+02  0.45594000000E+02  0.51100000000E-03 0.  1.
         11   -1    0    0    0    0 -0.00000000000E+00 -0.00000000000E+00 -0.45593999997E+02  0.45594000000E+02  0.51100000000E-03 0. -1.
    9900012    2    1    2    0    0 -0.18167984167E+02 -0.22223005851E+02 -0.13884615495E+02  0.59301949991E+02  0.50000010875E+02 0.  0.
        -12    1    1    2    0    0  0.18167984167E+02  0.22223005851E+02  0.13884615495E+02  0.31886050009E+02  0.00000000000E+00 0.  1.
         11    1    3    3    0    0 -0.21172544573E+02 -0.15204619552E+02  0.66655785966E+01  0.26905148907E+02  0.51100000000E-03 0. -1.
        -11    1    3    3    0    0 -0.34883502296E+01 -0.10225994810E+01  0.45281466721E+01  0.58067555113E+01  0.51100000000E-03 0.  1.
        -12    1    3    3    0    0  0.64929106358E+01 -0.59957868181E+01 -0.25078340764E+02  0.26590045572E+02  0.00000000000E+00 0.  1.
</event>
<event>
 7    1  0.6830263E-012  0.5930195E+02  0.7816164E-02  0.1266605E+00
        -11   -1    0    0    0    0  0.00000000000E+00  0.00000000000E+00  0.45593999997E+02  0.45594000000E+02  0.51100000000E-03 0.  1.
         11   -1    0    0    0    0 -0.00000000000E+00 -0.00000000000E+00 -0.45593999997E+02  0.45594000000E+02  0.51100000000E-03 0. -1.
    9900012    2    1    2    0    0 -0.19437397926E+02 -0.22819670386E+02 -0.10870631527E+02  0.59301946239E+02  0.50000004032E+02 0.  0.
        -12    1    1    2    0    0  0.19437397926E+02  0.22819670386E+02  0.10870631527E+02  0.31886053761E+02  0.00000000000E+00 0.  1.
         11    1    3    3    0    0 -0.86380163719E+01  0.25246993349E+01  0.90159958137E+01  0.12738823115E+02  0.51100000000E-03 0. -1.
        -11    1    3    3    0    0 -0.20876396224E+02 -0.21181507205E+02 -0.88029806717E+01  0.31015683706E+02  0.51100000000E-03 0.  1.
        -12    1    3    3    0    0  0.10077014670E+02 -0.41628625159E+01 -0.11083646669E+02  0.15547439418E+02  0.00000000000E+00 0.  1.
</event>
<event>
 7    1  0.6830263E-012  0.5930192E+02  0.7816164E-02  0.1266605E+00
        -11   -1    0    0    0    0  0.00000000000E+00  0.00000000000E+00  0.45593999997E+02  0.45594000000E+02  0.51100000000E-03 0.  1.
         11   -1    0    0    0    0 -0.00000000000E+00 -0.00000000000E+00 -0.45593999997E+02  0.45594000000E+02  0.51100000000E-03 0. -1.
    9900012    2    1    2    0    0 -0.11317427221E+02  0.11674830086E+02 -0.27428743642E+02  0.59301924760E+02  0.49999964860E+02 0.  0.
        -12    1    1    2    0    0  0.11317427221E+02 -0.11674830086E+02  0.27428743642E+02  0.31886075240E+02  0.00000000000E+00 0.  1.
         11    1    3    3    0    0 -0.11244692577E+02  0.15928270464E+02 -0.92931481235E+00  0.19519644910E+02  0.51100000000E-03 0. -1.
        -11    1    3    3    0    0 -0.10224240511E+02 -0.25092065465E+01  0.84568876127E+00  0.10561552976E+02  0.51100000000E-03 0.  1.
         12    1    3    3    0    0  0.10151505867E+02 -0.17442338317E+01 -0.27345117591E+02  0.29220726875E+02  0.00000000000E+00 0. -1.
</event>
<event>
 7    1  0.6830263E-012  0.5930194E+02  0.7816164E-02  0.1266605E+00
        -11   -1    0    0    0    0  0.00000000000E+00  0.00000000000E+00  0.45593999997E+02  0.45594000000E+02  0.51100000000E-03 0.  1.
         11   -1    0    0    0    0 -0.00000000000E+00 -0.00000000000E+00 -0.45593999997E+02  0.45594000000E+02  0.51100000000E-03 0. -1.
    9900012    2    1    2    0    0  0.15683403122E+02  0.71873678274E+01 -0.26815916972E+02  0.59301940462E+02  0.49999993497E+02 0.  0.
        -12    1    1    2    0    0 -0.15683403122E+02 -0.71873678274E+01  0.26815916972E+02  0.31886059538E+02  0.00000000000E+00 0.  1.
         11    1    3    3    0    0  0.44922437842E+01 -0.10968445242E+01  0.18514987942E+01  0.49811013012E+01  0.51100000000E-03 0. -1.
        -11    1    3    3    0    0  0.18822403836E+02 -0.13128788138E+02 -0.10577386129E+02  0.25269132587E+02  0.51100000000E-03 0.  1.
         12    1    3    3    0    0 -0.76312444978E+01  0.21413000489E+02 -0.18090029638E+02  0.29051706574E+02  0.00000000000E+00 0. -1.
</event>
<event>
 7    1  0.6830263E-012  0.5930196E+02  0.7816164E-02  0.1266605E+00
        -11   -1    0    0    0    0  0.00000000000E+00  0.00000000000E+00  0.45593999997E+02  0.45594000000E+02  0.51100000000E-03 0.  1.
         11   -1    0    0    0    0 -0.00000000000E+00 -0.00000000000E+00 -0.45593999997E+02  0.45594000000E+02  0.51100000000E-03 0. -1.
    9900012    2    1    2    0    0  0.32248787824E+01 -0.91003046474E+01 -0.30389209787E+02  0.59301961373E+02  0.50000031634E+02 0.  0.
        -12    1    1    2    0    0 -0.32248787824E+01  0.91003046474E+01  0.30389209787E+02  0.31886038627E+02  0.00000000000E+00 0.  1.
         11    1    3    3    0    0  0.14524646508E+02 -0.30113967850E+00 -0.10979299546E+02  0.18209916531E+02  0.51100000000E-03 0. -1.
        -11    1    3    3    0    0 -0.83223376834E+01  0.11867777393E+02 -0.36942920222E+01  0.14958383555E+02  0.51100000000E-03 0.  1.
         12    1    3    3    0    0 -0.29774300422E+01 -0.20666942362E+02 -0.15715618219E+02  0.26133661287E+02  0.00000000000E+00 0. -1.
</event>
<event>
 7    1  0.6830263E-012  0.5930193E+02  0.7816164E-02  0.1266605E+00
        -11   -1    0    0    0    0  0.00000000000E+00  0.00000000000E+00  0.45593999997E+02  0.45594000000E+02  0.51100000000E-03 0. -1.
         11   -1    0    0    0    0 -0.00000000000E+00 -0.00000000000E+00 -0.45593999997E+02  0.45594000000E+02  0.51100000000E-03 0.  1.
    9900012    2    1    2    0    0 -0.21326463008E+02 -0.93490021621E+01  0.21783005713E+02  0.59301934019E+02  0.49999981746E+02 0.  0.
        -12    1    1    2    0    0  0.21326463008E+02  0.93490021621E+01 -0.21783005713E+02  0.31886065981E+02  0.00000000000E+00 0.  1.
         11    1    3    3    0    0  0.68207156858E+00 -0.84377575904E+01  0.86113780367E+00  0.85089678197E+01  0.51100000000E-03 0.  1.
        -11    1    3    3    0    0  0.20049223622E+01 -0.15618811750E+02  0.15540102915E+02  0.22123783425E+02  0.51100000000E-03 0. -1.
        -12    1    3    3    0    0 -0.24013456939E+02  0.14707567178E+02  0.53817649946E+01  0.28669182774E+02  0.00000000000E+00 0.  1.
</event>
<event>
 7    1  0.6830263E-012  0.5930195E+02  0.7816164E-02  0.1266605E+00
        -11   -1    0    0    0    0  0.00000000000E+00  0.00000000000E+00  0.45593999997E+02  0.45594000000E+02  0.51100000000E-03 0. -1.
         11   -1    0    0    0    0 -0.00000000000E+00 -0.00000000000E+00 -0.45593999997E+02  0.45594000000E+02  0.51100000000E-03 0.  1.
    9900012    2    1    2    0    0 -0.13978825857E+02  0.17785914577E+02 -0.22471617730E+02  0.59301953944E+02  0.50000018084E+02 0.  0.
        -12    1    1    2    0    0  0.13978825857E+02 -0.17785914577E+02  0.22471617730E+02  0.31886046056E+02  0.00000000000E+00 0.  1.
         11    1    3    3    0    0 -0.18747556158E+02  0.38279509852E+01 -0.35015708507E+01  0.19452122489E+02  0.51100000000E-03 0. -1.
        -11    1    3    3    0    0 -0.69267858731E+01  0.24511546693E+01 -0.21974105135E+02  0.23170019821E+02  0.51100000000E-03 0.  1.
        -12    1    3    3    0    0  0.11695516173E+02  0.11506808923E+02  0.30040582557E+01  0.16679811634E+02  0.00000000000E+00 0.  1.
</event>
<event>
 7    1  0.6830263E-012  0.5930194E+02  0.7816164E-02  0.1266605E+00
        -11   -1    0    0    0    0  0.00000000000E+00  0.00000000000E+00  0.45593999997E+02  0.45594000000E+02  0.51100000000E-03 0. -1.
         11   -1    0    0    0    0 -0.00000000000E+00 -0.00000000000E+00 -0.45593999997E+02  0.45594000000E+02  0.51100000000E-03 0.  1.
    9900012    2    1    2    0    0  0.27910264083E+02 -0.11667010516E+02 -0.10080627559E+02  0.59301936782E+02  0.49999986786E+02 0.  0.
        -12    1    1    2    0    0 -0.27910264083E+02  0.11667010516E+02  0.10080627559E+02  0.31886063218E+02  0.00000000000E+00 0.  1.
         11    1    3    3    0    0  0.17778968776E+02 -0.43963642043E+01  0.28618350940E+01  0.18536716249E+02  0.51100000000E-03 0. -1.
        -11    1    3    3    0    0  0.14696862012E+02 -0.34079407557E+01 -0.23910730788E+02  0.28272510682E+02  0.51100000000E-03 0.  1.
         12    1    3    3    0    0 -0.45655667052E+01 -0.38627055557E+01  0.10968268135E+02  0.12492709851E+02  0.00000000000E+00 0. -1.
</event>
<event>
 7    1  0.6830263E-012  0.5930194E+02  0.7816164E-02  0.1266605E+00
        -11   -1    0    0    0    0  0.00000000000E+00  0.00000000000E+00  0.45593999997E+02  0.45594000000E+02  0.51100000000E-03 0.  1.
         11   -1    0    0    0    0 -0.00000000000E+00 -0.00000000000E+00 -0.45593999997E+02  0.45594000000E+02  0.51100000000E-03 0. -1.
    9900012    2    1    2    0    0 -0.17541409526E+01 -0.24271730982E+02 -0.20604055060E+02  0.59301936896E+02  0.49999986993E+02 0.  0.
        -12    1    1    2    0    0  0.17541409526E+01  0.24271730982E+02  0.20604055060E+02  0.31886063104E+02  0.00000000000E+00 0.  1.
         11    1    3    3    0    0  0.50889937595E+01 -0.23157160440E+02 -0.18116025312E+02  0.29838604365E+02  0.51100000000E-03 0. -1.
        -11    1    3    3    0    0  0.89284042209E+01 -0.63553513057E+01  0.39371391156E+01  0.11645082946E+02  0.51100000000E-03 0.  1.
        -12    1    3    3    0    0 -0.15771538933E+02  0.52407807631E+01 -0.64251688642E+01  0.17818249585E+02  0.00000000000E+00 0.  1.
</event>
<event>
 7    1  0.6830263E-012  0.5930199E+02  0.7816164E-02  0.1266605E+00
        -11   -1    0    0    0    0  0.00000000000E+00  0.00000000000E+00  0.45593999997E+02  0.45594000000E+02  0.51100000000E-03 0. -1.
         11   -1    0    0    0    0 -0.00000000000E+00 -0.00000000000E+00 -0.45593999997E+02  0.45594000000E+02  0.51100000000E-03 0.  1.
    9900012    2    1    2    0    0 -0.21705795806E+02 -0.12818123532E+02  0.19526176914E+02  0.59301992923E+02  0.50000089173E+02 0.  0.
        -12    1    1    2    0    0  0.21705795806E+02  0.12818123532E+02 -0.19526176914E+02  0.31886007077E+02  0.00000000000E+00 0.  1.
         11    1    3    3    0    0 -0.62434562707E+01 -0.80251212766E+01 -0.33712978716E+00  0.10173346277E+02  0.51100000000E-03 0. -1.
        -11    1    3    3    0    0 -0.97818521550E+01 -0.87731003815E+01 -0.11221567312E+02  0.17279337229E+02  0.51100000000E-03 0.  1.
         12    1    3    3    0    0 -0.56804873807E+01  0.39800981266E+01  0.31084874012E+02  0.31849309417E+02  0.00000000000E+00 0. -1.
</event>
<event>
 7    1  0.6830263E-012  0.5930197E+02  0.7816164E-02  0.1266605E+00
        -11   -1    0    0    0    0  0.00000000000E+00  0.00000000000E+00  0.45593999997E+02  0.45594000000E+02  0.51100000000E-03 0. -1.
         11   -1    0    0    0    0 -0.00000000000E+00 -0.00000000000E+00 -0.45593999997E+02  0.45594000000E+02  0.51100000000E-03 0.  1.
    9900012    2    1    2    0    0  0.16353503239E+02  0.26964938898E+02 -0.47089294875E+01  0.59301968343E+02  0.50000044344E+02 0.  0.
        -12    1    1    2    0    0 -0.16353503239E+02 -0.26964938898E+02  0.47089294875E+01  0.31886031657E+02  0.00000000000E+00 0.  1.
         11    1    3    3    0    0  0.35179922333E+01  0.31694560930E+01  0.14205873440E+01  0.49436615926E+01  0.51100000000E-03 0. -1.
        -11    1    3    3    0    0  0.28326586297E+02  0.21912989761E+02 -0.11873012305E+02  0.37729869241E+02  0.51100000000E-03 0.  1.
         12    1    3    3    0    0 -0.15491075291E+02  0.18824930437E+01  0.57434954736E+01  0.16628437509E+02  0.00000000000E+00 0. -1.
</event>
<event>
 7    1  0.6830263E-012  0.5930198E+02  0.7816164E-02  0.1266605E+00
        -11   -1    0    0    0    0  0.00000000000E+00  0.00000000000E+00  0.45593999997E+02  0.45594000000E+02  0.51100000000E-03 0. -1.
         11   -1    0    0    0    0 -0.00000000000E+00 -0.00000000000E+00 -0.45593999997E+02  0.45594000000E+02  0.51100000000E-03 0.  1.
    9900012    2    1    2    0    0  0.81006715470E+01  0.19998945870E+02  0.23476357096E+02  0.59301983349E+02  0.50000071712E+02 0.  0.
        -12    1    1    2    0    0 -0.81006715470E+01 -0.19998945870E+02 -0.23476357096E+02  0.31886016651E+02  0.00000000000E+00 0.  1.
         11    1    3    3    0    0  0.62562639497E+01  0.30364195981E+01  0.27315683665E+02  0.28187005108E+02  0.51100000000E-03 0. -1.
        -11    1    3    3    0    0  0.43219753836E+00 -0.68395045987E+01  0.53175377498E+00  0.68737457188E+01  0.51100000000E-03 0.  1.
         12    1    3    3    0    0  0.14122100590E+01  0.23802030870E+02 -0.43710803447E+01  0.24241232522E+02  0.00000000000E+00 0. -1.
</event>
<event>
 7    1  0.6830263E-012  0.5930191E+02  0.7816164E-02  0.1266605E+00
        -11   -1    0    0    0    0  0.00000000000E+00  0.00000000000E+00  0.45593999997E+02  0.45594000000E+02  0.51100000000E-03 0.  1.
         11   -1    0    0    0    0 -0.00000000000E+00 -0.00000000000E+00 -0.45593999997E+02  0.45594000000E+02  0.51100000000E-03 0. -1.
    9900012    2    1    2    0    0 -0.18550161370E+02  0.25444938380E+02  0.50169179812E+01  0.59301908329E+02  0.49999934894E+02 0.  0.
        -12    1    1    2    0    0  0.18550161370E+02 -0.25444938380E+02 -0.50169179812E+01  0.31886091671E+02  0.00000000000E+00 0.  1.
         11    1    3    3    0    0 -0.12591226356E+01  0.13007561485E+02 -0.51960817232E+01  0.14063474362E+02  0.51100000000E-03 0. -1.
        -11    1    3    3    0    0 -0.24962320727E+01  0.17269251216E+02  0.20241024224E+02  0.26723721186E+02  0.51100000000E-03 0.  1.
         12    1    3    3    0    0 -0.14794806662E+02 -0.48318743204E+01 -0.10028024520E+02  0.18514712781E+02  0.00000000000E+00 0. -1.
</event>
<event>
 7    1  0.6830263E-012  0.5930202E+02  0.7816164E-02  0.1266604E+00
        -11   -1    0    0    0    0  0.00000000000E+00  0.00000000000E+00  0.45593999997E+02  0.45594000000E+02  0.51100000000E-03 0. -1.
         11   -1    0    0    0    0 -0.00000000000E+00 -0.00000000000E+00 -0.45593999997E+02  0.45594000000E+02  0.51100000000E-03 0.  1.
    9900012    2    1    2    0    0  0.25099830271E+02  0.19184881471E+02 -0.43190667288E+01  0.59302023551E+02  0.50000145031E+02 0.  0.
        -12    1    1    2    0    0 -0.25099830271E+02 -0.19184881471E+02  0.43190667288E+01  0.31885976449E+02  0.00000000000E+00 0.  1.
         11    1    3    3    0    0  0.14376899408E+02 -0.78272744485E+01 -0.10523329785E+02  0.19460265463E+02  0.51100000000E-03 0. -1.
        -11    1    3    3    0    0  0.14056688050E+02  0.23623348731E+01  0.43301386077E+01  0.14897020025E+02  0.51100000000E-03 0.  1.
        -12    1    3    3    0    0 -0.33337571867E+01  0.24649821046E+02  0.18741244480E+01  0.24944738063E+02  0.00000000000E+00 0.  1.
</event>
<event>
 7    1  0.6830263E-012  0.5930194E+02  0.7816164E-02  0.1266605E+00
        -11   -1    0    0    0    0  0.00000000000E+00  0.00000000000E+00  0.45593999997E+02  0.45594000000E+02  0.51100000000E-03 0.  1.
         11   -1    0    0    0    0 -0.00000000000E+00 -0.00000000000E+00 -0.45593999997E+02  0.45594000000E+02  0.51100000000E-03 0. -1.
    9900012    2    1    2    0    0 -0.82663386480E+01  0.49675260461E+01 -0.30392631307E+02  0.59301941802E+02  0.49999995941E+02 0.  0.
        -12    1    1    2    0    0  0.82663386480E+01 -0.49675260461E+01  0.30392631307E+02  0.31886058198E+02  0.00000000000E+00 0.  1.
         11    1    3    3    0    0  0.13085530378E+02 -0.10439622550E+01 -0.65998337220E+01  0.14692813478E+02  0.51100000000E-03 0. -1.
        -11    1    3    3    0    0 -0.16546654713E+01 -0.82458987876E+01  0.25217973429E+01  0.87802179208E+01  0.51100000000E-03 0.  1.
        -12    1    3    3    0    0 -0.19697203555E+02  0.14257387089E+02 -0.26314594928E+02  0.35828910403E+02  0.00000000000E+00 0.  1.
</event>
<event>
 7    1  0.6830263E-012  0.5930193E+02  0.7816164E-02  0.1266605E+00
        -11   -1    0    0    0    0  0.00000000000E+00  0.00000000000E+00  0.45593999997E+02  0.45594000000E+02  0.51100000000E-03 0. -1.
         11   -1    0    0    0    0 -0.00000000000E+00 -0.00000000000E+00 -0.45593999997E+02  0.45594000000E+02  0.51100000000E-03 0.  1.
    9900012    2    1    2    0    0 -0.23003715285E+02 -0.21066167870E+02 -0.66156814275E+01  0.59301928019E+02  0.49999970804E+02 0.  0.
        -12    1    1    2    0    0  0.23003715285E+02  0.21066167870E+02  0.66156814275E+01  0.31886071981E+02  0.00000000000E+00 0.  1.
         11    1    3    3    0    0 -0.18738568062E+01 -0.74416178807E+01  0.36483459417E+01  0.84970256199E+01  0.51100000000E-03 0. -1.
        -11    1    3    3    0    0 -0.34428615094E+02 -0.11443542272E+02 -0.75548591272E+01  0.37058873346E+02  0.51100000000E-03 0.  1.
        -12    1    3    3    0    0  0.13298756615E+02 -0.21810077168E+01 -0.27091682421E+01  0.13746029053E+02  0.00000000000E+00 0.  1.
</event>
<event>
 7    1  0.6830263E-012  0.5930194E+02  0.7816164E-02  0.1266605E+00
        -11   -1    0    0    0    0  0.00000000000E+00  0.00000000000E+00  0.45593999997E+02  0.45594000000E+02  0.51100000000E-03 0.  1.
         11   -1    0    0    0    0 -0.00000000000E+00 -0.00000000000E+00 -0.45593999997E+02  0.45594000000E+02  0.51100000000E-03 0. -1.
    9900012    2    1    2    0    0  0.17955857299E+02  0.19216682673E+02 -0.18028511234E+02  0.59301938443E+02  0.49999989815E+02 0.  0.
        -12    1    1    2    0    0 -0.17955857299E+02 -0.19216682673E+02  0.18028511234E+02  0.31886061557E+02  0.00000000000E+00 0.  1.
         11    1    3    3    0    0  0.57484763497E+01  0.36364563949E+00 -0.67811567546E+01  0.88972639438E+01  0.51100000000E-03 0. -1.
        -11    1    3    3    0    0  0.18349115667E+02  0.18730596964E+02 -0.24444595886E+02  0.35847783428E+02  0.51100000000E-03 0.  1.
        -12    1    3    3    0    0 -0.61417347179E+01  0.12244006954E+00  0.13197241407E+02  0.14556891072E+02  0.00000000000E+00 0.  1.
</event>
<event>
 7    1  0.6830263E-012  0.5930196E+02  0.7816164E-02  0.1266605E+00
        -11   -1    0    0    0    0  0.00000000000E+00  0.00000000000E+00  0.45593999997E+02  0.45594000000E+02  0.51100000000E-03 0.  1.
         11   -1    0    0    0    0 -0.00000000000E+00 -0.00000000000E+00 -0.45593999997E+02  0.45594000000E+02  0.51100000000E-03 0. -1.
    9900012    2    1    2    0    0 -0.17511389244E+02 -0.19878275420E+02 -0.17746127812E+02  0.59301958551E+02  0.50000026487E+02 0.  0.
        -12    1    1    2    0    0  0.17511389244E+02  0.19878275420E+02  0.17746127812E+02  0.31886041449E+02  0.00000000000E+00 0.  1.
         11    1    3    3    0    0 -0.44224260407E+00  0.55197376927E+01 -0.19006077987E+01  0.58545190223E+01  0.51100000000E-03 0. -1.
        -11    1    3    3    0    0 -0.61326802885E+01 -0.17572873549E+02 -0.29114627650E+02  0.34555422089E+02  0.51100000000E-03 0.  1.
        -12    1    3    3    0    0 -0.10936466352E+02 -0.78251395644E+01  0.13269107637E+02  0.18892017440E+02  0.00000000000E+00 0.  1.
</event>
<event>
 7    1  0.6830263E-012  0.5930172E+02  0.7816164E-02  0.1266606E+00
        -11   -1    0    0    0    0  0.00000000000E+00  0.00000000000E+00  0.45593999997E+02  0.45594000000E+02  0.51100000000E-03 0.  1.
         11   -1    0    0    0    0 -0.00000000000E+00 -0.00000000000E+00 -0.45593999997E+02  0.45594000000E+02  0.51100000000E-03 0. -1.
    9900012    2    1    2    0    0 -0.23080478524E+02  0.11032853799E+02 -0.19034251857E+02  0.59301716184E+02  0.49999584466E+02 0.  0.
        -12    1    1    2    0    0  0.23080478524E+02 -0.11032853799E+02  0.19034251857E+02  0.31886283816E+02  0.00000000000E+00 0.  1.
         11    1    3    3    0    0 -0.17155056672E+02  0.38896638940E+01  0.21607682149E+01  0.17722707867E+02  0.51100000000E-03 0. -1.
        -11    1    3    3    0    0  0.10598399081E+02  0.61701963741E+01  0.26551040996E+01  0.12547787232E+02  0.51100000000E-03 0.  1.
         12    1    3    3    0    0 -0.16523820934E+02  0.97299353063E+00 -0.23850124172E+02  0.29031221084E+02  0.00000000000E+00 0. -1.
</event>
<event>
 7    1  0.6830263E-012  0.5930196E+02  0.7816164E-02  0.1266605E+00
        -11   -1    0    0    0    0  0.00000000000E+00  0.00000000000E+00  0.45593999997E+02  0.45594000000E+02  0.51100000000E-03 0.  1.
         11   -1    0    0    0    0 -0.00000000000E+00 -0.00000000000E+00 -0.45593999997E+02  0.45594000000E+02  0.51100000000E-03 0. -1.
    9900012    2    1    2    0    0 -0.30545419114E+02 -0.77876124372E+01 -0.48010625809E+01  0.59301957000E+02  0.50000023658E+02 0.  0.
        -12    1    1    2    0    0  0.30545419114E+02  0.77876124372E+01  0.48010625809E+01  0.31886043000E+02  0.00000000000E+00 0.  1.
         11    1    3    3    0    0 -0.23222499156E+02 -0.18071735028E+02 -0.10640411794E+02  0.31290420857E+02  0.51100000000E-03 0. -1.
        -11    1    3    3    0    0  0.62858806015E+01  0.20517215009E+01 -0.53991364276E+01  0.85365408966E+01  0.51100000000E-03 0.  1.
        -12    1    3    3    0    0 -0.13608800559E+02  0.82324010901E+01  0.11238485640E+02  0.19474995247E+02  0.00000000000E+00 0.  1.
</event>
<event>
 7    1  0.6830263E-012  0.5930195E+02  0.7816164E-02  0.1266605E+00
        -11   -1    0    0    0    0  0.00000000000E+00  0.00000000000E+00  0.45593999997E+02  0.45594000000E+02  0.51100000000E-03 0. -1.
         11   -1    0    0    0    0 -0.00000000000E+00 -0.00000000000E+00 -0.45593999997E+02  0.45594000000E+02  0.51100000000E-03 0.  1.
    9900012    2    1    2    0    0  0.10907556371E+02  0.29783058812E+02  0.32733577999E+01  0.59301948983E+02  0.50000009038E+02 0.  0.
        -12    1    1    2    0    0 -0.10907556371E+02 -0.29783058812E+02 -0.32733577999E+01  0.31886051017E+02  0.00000000000E+00 0.  1.
         11    1    3    3    0    0  0.25399044466E+01  0.24955730975E+02 -0.10125457913E+01  0.25105076625E+02  0.51100000000E-03 0. -1.
        -11    1    3    3    0    0 -0.89462198756E+01  0.26559395550E+01 -0.84536218502E+01  0.12591766660E+02  0.51100000000E-03 0.  1.
         12    1    3    3    0    0  0.17313871800E+02  0.21713882818E+01  0.12739525441E+02  0.21605105698E+02  0.00000000000E+00 0. -1.
</event>
<event>
 7    1  0.6830263E-012  0.5930216E+02  0.7816164E-02  0.1266604E+00
        -11   -1    0    0    0    0  0.00000000000E+00  0.00000000000E+00  0.45593999997E+02  0.45594000000E+02  0.51100000000E-03 0. -1.
         11   -1    0    0    0    0 -0.00000000000E+00 -0.00000000000E+00 -0.45593999997E+02  0.45594000000E+02  0.51100000000E-03 0.  1.
    9900012    2    1    2    0    0  0.16289102644E+02  0.21611616547E+02  0.16861486248E+02  0.59302163752E+02  0.50000400723E+02 0.  0.
        -12    1    1    2    0    0 -0.16289102644E+02 -0.21611616547E+02 -0.16861486248E+02  0.31885836248E+02  0.00000000000E+00 0.  1.
         11    1    3    3    0    0 -0.10630361730E+02  0.65452443197E+01  0.10445881034E+02  0.16277630189E+02  0.51100000000E-03 0. -1.
        -11    1    3    3    0    0  0.10819528170E+02 -0.85886196055E+01  0.35795036156E+01  0.14270228553E+02  0.51100000000E-03 0.  1.
        -12    1    3    3    0    0  0.16099936205E+02  0.23654991832E+02  0.28361015988E+01  0.28754305011E+02  0.00000000000E+00 0.  1.
</event>
<event>
 7    1  0.6830263E-012  0.5930196E+02  0.7816164E-02  0.1266605E+00
        -11   -1    0    0    0    0  0.00000000000E+00  0.00000000000E+00  0.45593999997E+02  0.45594000000E+02  0.51100000000E-03 0.  1.
         11   -1    0    0    0    0 -0.00000000000E+00 -0.00000000000E+00 -0.45593999997E+02  0.45594000000E+02  0.51100000000E-03 0. -1.
    9900012    2    1    2    0    0 -0.27090981974E+01 -0.25571026273E+01 -0.31667678175E+02  0.59301955594E+02  0.50000021093E+02 0.  0.
        -12    1    1    2    0    0  0.27090981974E+01  0.25571026273E+01  0.31667678175E+02  0.31886044406E+02  0.00000000000E+00 0.  1.
         11    1    3    3    0    0 -0.27868362958E+01  0.55623680423E+01 -0.79491803460E+01  0.10094348083E+02  0.51100000000E-03 0. -1.
        -11    1    3    3    0    0 -0.21365406981E+01  0.17233949719E+02 -0.68132728078E+01  0.18654611111E+02  0.51100000000E-03 0.  1.
         12    1    3    3    0    0  0.22142787965E+01 -0.25353420389E+02 -0.16905225021E+02  0.30552996400E+02  0.00000000000E+00 0. -1.
</event>
<event>
 7    1  0.6830263E-012  0.5930206E+02  0.7816164E-02  0.1266604E+00
        -11   -1    0    0    0    0  0.00000000000E+00  0.00000000000E+00  0.45593999997E+02  0.45594000000E+02  0.51100000000E-03 0.  1.
         11   -1    0    0    0    0 -0.00000000000E+00 -0.00000000000E+00 -0.45593999997E+02  0.45594000000E+02  0.51100000000E-03 0. -1.
    9900012    2    1    2    0    0  0.13343236301E+02  0.20533007738E+02 -0.20422216662E+02  0.59302058033E+02  0.50000207917E+02 0.  0.
        -12    1    1    2    0    0 -0.13343236301E+02 -0.20533007738E+02  0.20422216662E+02  0.31885941967E+02  0.00000000000E+00 0.  1.
         11    1    3    3    0    0  0.92331726535E+01  0.97164196418E+01  0.34924372270E-01  0.13403787072E+02  0.51100000000E-03 0.  1.
        -11    1    3    3    0    0  0.17440269708E+02  0.18450112197E+02 -0.98570031013E+01  0.27234723387E+02  0.51100000000E-03 0. -1.
         12    1    3    3    0    0 -0.13330206061E+02 -0.76335241012E+01 -0.10600137933E+02  0.18663547573E+02  0.00000000000E+00 0. -1.
</event>
<event>
 7    1  0.6830263E-012  0.5930190E+02  0.7816164E-02  0.1266605E+00
        -11   -1    0    0    0    0  0.00000000000E+00  0.00000000000E+00  0.45593999997E+02  0.45594000000E+02  0.51100000000E-03 0.  1.
         11   -1    0    0    0    0 -0.00000000000E+00 -0.00000000000E+00 -0.45593999997E+02  0.45594000000E+02  0.51100000000E-03 0. -1.
    9900012    2    1    2    0    0  0.30665523030E+02 -0.57543337020E+01 -0.65754403906E+01  0.59301904670E+02  0.49999928220E+02 0.  0.
        -12    1    1    2    0    0 -0.30665523030E+02  0.57543337020E+01  0.65754403906E+01  0.31886095330E+02  0.00000000000E+00 0.  1.
         11    1    3    3    0    0  0.24380019268E+01  0.53210854956E+01 -0.37942360143E+00  0.58653019340E+01  0.51100000000E-03 0. -1.
        -11    1    3    3    0    0 -0.77215709386E+01  0.86697653041E+01  0.14992278391E+01  0.11706202312E+02  0.51100000000E-03 0.  1.
         12    1    3    3    0    0  0.35949092042E+02 -0.19745184502E+02 -0.76952446282E+01  0.41730400424E+02  0.00000000000E+00 0. -1.
</event>
<event>
 7    1  0.6830263E-012  0.5930198E+02  0.7816164E-02  0.1266605E+00
        -11   -1    0    0    0    0  0.00000000000E+00  0.00000000000E+00  0.45593999997E+02  0.45594000000E+02  0.51100000000E-03 0.  1.
         11   -1    0    0    0    0 -0.00000000000E+00 -0.00000000000E+00 -0.45593999997E+02  0.45594000000E+02  0.51100000000E-03 0. -1.
    9900012    2    1    2    0    0  0.93852274418E+01  0.21514261772E+02 -0.21581753073E+02  0.59301983952E+02  0.50000072812E+02 0.  0.
        -12    1    1    2    0    0 -0.93852274418E+01 -0.21514261772E+02  0.21581753073E+02  0.31886016048E+02  0.00000000000E+00 0.  1.
         11    1    3    3    0    0  0.84949018042E+01 -0.42157261188E+01 -0.20844662301E+01  0.97098250807E+01  0.51100000000E-03 0. -1.
        -11    1    3    3    0    0 -0.10420130605E+02 -0.54068658321E+01 -0.13418168852E+01  0.11815828061E+02  0.51100000000E-03 0.  1.
         12    1    3    3    0    0  0.11310456242E+02  0.31136853722E+02 -0.18155469958E+02  0.37776330811E+02  0.00000000000E+00 0. -1.
</event>
<event>
 7    1  0.6830263E-012  0.5930196E+02  0.7816164E-02  0.1266605E+00
        -11   -1    0    0    0    0  0.00000000000E+00  0.00000000000E+00  0.45593999997E+02  0.45594000000E+02  0.51100000000E-03 0.  1.
         11   -1    0    0    0    0 -0.00000000000E+00 -0.00000000000E+00 -0.45593999997E+02  0.45594000000E+02  0.51100000000E-03 0. -1.
    9900012    2    1    2    0    0 -0.11025733553E+02 -0.29465721839E+02 -0.51888627006E+01  0.59301955090E+02  0.50000020176E+02 0.  0.
        -12    1    1    2    0    0  0.11025733553E+02  0.29465721839E+02  0.51888627006E+01  0.31886044910E+02  0.00000000000E+00 0.  1.
         11    1    3    3    0    0 -0.63052708963E+01 -0.10159348185E+02  0.15910745946E+02  0.19902779541E+02  0.51100000000E-03 0. -1.
        -11    1    3    3    0    0 -0.75238963657E+01 -0.93796321116E+01  0.36663784184E+01  0.12570952471E+02  0.51100000000E-03 0.  1.
         12    1    3    3    0    0  0.28034337089E+01 -0.99267415420E+01 -0.24765987066E+02  0.26828223078E+02  0.00000000000E+00 0. -1.
</event>
<event>
 7    1  0.6830263E-012  0.5930191E+02  0.7816164E-02  0.1266605E+00
        -11   -1    0    0    0    0  0.00000000000E+00  0.00000000000E+00  0.45593999997E+02  0.45594000000E+02  0.51100000000E-03 0.  1.
         11   -1    0    0    0    0 -0.00000000000E+00 -0.00000000000E+00 -0.45593999997E+02  0.45594000000E+02  0.51100000000E-03 0. -1.
    9900012    2    1    2    0    0  0.32304449582E+01 -0.11172605655E+01 -0.31702340664E+02  0.59301914486E+02  0.49999946124E+02 0.  0.
        -12    1    1    2    0    0 -0.32304449582E+01  0.11172605655E+01  0.31702340664E+02  0.31886085514E+02  0.00000000000E+00 0.  1.
         11    1    3    3    0    0 -0.28512256160E+01  0.81422287066E+01 -0.54570107314E+01  0.10208052812E+02  0.51100000000E-03 0. -1.
        -11    1    3    3    0    0  0.78949928384E+01  0.10905570056E+02 -0.25497363248E+02  0.28833624521E+02  0.51100000000E-03 0.  1.
        -12    1    3    3    0    0 -0.18133222643E+01 -0.20165059328E+02 -0.74796668439E+00  0.20260237153E+02  0.00000000000E+00 0.  1.
</event>
<event>
 7    1  0.6830263E-012  0.5930195E+02  0.7816164E-02  0.1266605E+00
        -11   -1    0    0    0    0  0.00000000000E+00  0.00000000000E+00  0.45593999997E+02  0.45594000000E+02  0.51100000000E-03 0.  1.
         11   -1    0    0    0    0 -0.00000000000E+00 -0.00000000000E+00 -0.45593999997E+02  0.45594000000E+02  0.51100000000E-03 0. -1.
    9900012    2    1    2    0    0 -0.20042090704E+02  0.14185964744E+02 -0.20341900163E+02  0.59301954498E+02  0.50000019095E+02 0.  0.
        -12    1    1    2    0    0  0.20042090704E+02 -0.14185964744E+02  0.20341900163E+02  0.31886045502E+02  0.00000000000E+00 0.  1.
         11    1    3    3    0    0 -0.20166492256E+02  0.59338459449E+01 -0.31892910429E+01  0.21261926424E+02  0.51100000000E-03 0. -1.
        -11    1    3    3    0    0 -0.96100467489E+01 -0.88418831758E+01 -0.20038592532E+01  0.13211636870E+02  0.51100000000E-03 0.  1.
         12    1    3    3    0    0  0.97344483012E+01  0.17094001975E+02 -0.15148749867E+02  0.24828391204E+02  0.00000000000E+00 0. -1.
</event>
<event>
 7    1  0.6830263E-012  0.5930192E+02  0.7816164E-02  0.1266605E+00
        -11   -1    0    0    0    0  0.00000000000E+00  0.00000000000E+00  0.45593999997E+02  0.45594000000E+02  0.51100000000E-03 0.  1.
         11   -1    0    0    0    0 -0.00000000000E+00 -0.00000000000E+00 -0.45593999997E+02  0.45594000000E+02  0.51100000000E-03 0. -1.
    9900012    2    1    2    0    0 -0.31435310061E+02 -0.48627669743E+01  0.22129543850E+01  0.59301915442E+02  0.49999947867E+02 0.  0.
        -12    1    1    2    0    0  0.31435310061E+02  0.48627669743E+01 -0.22129543850E+01  0.31886084558E+02  0.00000000000E+00 0.  1.
         11    1    3    3    0    0 -0.27471809649E+02 -0.20109466350E+01 -0.13225721324E+02  0.30555914920E+02  0.51100000000E-03 0. -1.
        -11    1    3    3    0    0 -0.89669266890E+01 -0.10749377143E+02  0.53352426559E+01  0.14980644101E+02  0.51100000000E-03 0.  1.
        -12    1    3    3    0    0  0.50034262771E+01  0.78975568037E+01  0.10103433053E+02  0.13765356422E+02  0.00000000000E+00 0.  1.
</event>
<event>
 7    1  0.6830263E-012  0.5930195E+02  0.7816164E-02  0.1266605E+00
        -11   -1    0    0    0    0  0.00000000000E+00  0.00000000000E+00  0.45593999997E+02  0.45594000000E+02  0.51100000000E-03 0. -1.
         11   -1    0    0    0    0 -0.00000000000E+00 -0.00000000000E+00 -0.45593999997E+02  0.45594000000E+02  0.51100000000E-03 0.  1.
    9900012    2    1    2    0    0  0.24939834251E+02  0.89949820896E+01  0.17714833331E+02  0.59301947325E+02  0.50000006013E+02 0.  0.
        -12    1    1    2    0    0 -0.24939834251E+02 -0.89949820896E+01 -0.17714833331E+02  0.31886052675E+02  0.00000000000E+00 0.  1.
         11    1    3    3    0    0 -0.51347488679E+01 -0.65683537312E+01  0.38684123209E+01  0.91909483091E+01  0.51100000000E-03 0. -1.
        -11    1    3    3    0    0  0.56170623554E+01  0.71327697340E+01  0.21328947037E+02  0.23180849328E+02  0.51100000000E-03 0.  1.
         12    1    3    3    0    0  0.24457520764E+02  0.84305660868E+01 -0.74825260271E+01  0.26930149688E+02  0.00000000000E+00 0. -1.
</event>
<event>
 7    1  0.6830263E-012  0.5930196E+02  0.7816164E-02  0.1266605E+00
        -11   -1    0    0    0    0  0.00000000000E+00  0.00000000000E+00  0.45593999997E+02  0.45594000000E+02  0.51100000000E-03 0.  1.
         11   -1    0    0    0    0 -0.00000000000E+00 -0.00000000000E+00 -0.45593999997E+02  0.45594000000E+02  0.51100000000E-03 0. -1.
    9900012    2    1    2    0    0  0.15966218774E+02  0.20290408688E+02 -0.18710916729E+02  0.59301964945E+02  0.50000038148E+02 0.  0.
        -12    1    1    2    0    0 -0.15966218774E+02 -0.20290408688E+02  0.18710916729E+02  0.31886035055E+02  0.00000000000E+00 0.  1.
         11    1    3    3    0    0  0.23499922738E+02  0.15518986721E+01  0.18823682059E+01  0.23626215704E+02  0.51100000000E-03 0. -1.
        -11    1    3    3    0    0  0.54283985710E+01 -0.96126344912E+00 -0.32089816639E+01  0.63788009880E+01  0.51100000000E-03 0.  1.
        -12    1    3    3    0    0 -0.12962102535E+02  0.19699773465E+02 -0.17384303271E+02  0.29296948253E+02  0.00000000000E+00 0.  1.
</event>
<event>
 7    1  0.6830263E-012  0.5930194E+02  0.7816164E-02  0.1266605E+00
        -11   -1    0    0    0    0  0.00000000000E+00  0.00000000000E+00  0.45593999997E+02  0.45594000000E+02  0.51100000000E-03 0.  1.
         11   -1    0    0    0    0 -0.00000000000E+00 -0.00000000000E+00 -0.45593999997E+02  0.45594000000E+02  0.51100000000E-03 0. -1.
    9900012    2    1    2    0    0  0.86208754199E+01 -0.13673790759E+02 -0.27485068601E+02  0.59301936543E+02  0.49999986350E+02 0.  0.
        -12    1    1    2    0    0 -0.86208754199E+01  0.13673790759E+02  0.27485068601E+02  0.31886063457E+02  0.00000000000E+00 0.  1.
         11    1    3    3    0    0  0.15766178260E+02  0.32008877338E+01 -0.77105263985E+01  0.17840131077E+02  0.51100000000E-03 0. -1.
        -11    1    3    3    0    0 -0.43951229321E+01  0.28196995354E+01  0.66093850353E+01  0.84232880672E+01  0.51100000000E-03 0.  1.
        -12    1    3    3    0    0 -0.27501799085E+01 -0.19694378028E+02 -0.26383927238E+02  0.33038517400E+02  0.00000000000E+00 0.  1.
</event>
<event>
 7    1  0.6830263E-012  0.5930189E+02  0.7816164E-02  0.1266605E+00
        -11   -1    0    0    0    0  0.00000000000E+00  0.00000000000E+00  0.45593999997E+02  0.45594000000E+02  0.51100000000E-03 0. -1.
         11   -1    0    0    0    0 -0.00000000000E+00 -0.00000000000E+00 -0.45593999997E+02  0.45594000000E+02  0.51100000000E-03 0.  1.
    9900012    2    1    2    0    0  0.11206975771E+01 -0.28394042430E+02  0.14465350156E+02  0.59301890740E+02  0.49999902816E+02 0.  0.
        -12    1    1    2    0    0 -0.11206975771E+01  0.28394042430E+02 -0.14465350156E+02  0.31886109260E+02  0.00000000000E+00 0.  1.
         11    1    3    3    0    0  0.70934764183E+01 -0.21845944571E+02 -0.35034059680E+01  0.23234383046E+02  0.51100000000E-03 0.  1.
        -11    1    3    3    0    0 -0.18203083057E+02 -0.46218901256E+01  0.93299734214E+01  0.20970515144E+02  0.51100000000E-03 0. -1.
         12    1    3    3    0    0  0.12230304216E+02 -0.19262077335E+01  0.86387827027E+01  0.15096992549E+02  0.00000000000E+00 0. -1.
</event>
<event>
 7    1  0.6830263E-012  0.5930193E+02  0.7816164E-02  0.1266605E+00
        -11   -1    0    0    0    0  0.00000000000E+00  0.00000000000E+00  0.45593999997E+02  0.45594000000E+02  0.51100000000E-03 0.  1.
         11   -1    0    0    0    0 -0.00000000000E+00 -0.00000000000E+00 -0.45593999997E+02  0.45594000000E+02  0.51100000000E-03 0. -1.
    9900012    2    1    2    0    0 -0.15298629437E+02 -0.24302841568E+02 -0.13858049997E+02  0.59301925914E+02  0.49999966964E+02 0.  0.
        -12    1    1    2    0    0  0.15298629437E+02  0.24302841568E+02  0.13858049997E+02  0.31886074086E+02  0.00000000000E+00 0.  1.
         11    1    3    3    0    0 -0.10853130025E+00  0.95079260592E+01  0.99627305878E+01  0.13772016483E+02  0.51100000000E-03 0.  1.
        -11    1    3    3    0    0 -0.53391598807E+01 -0.51665523730E+01 -0.93997844967E+01  0.11981479061E+02  0.51100000000E-03 0. -1.
        -12    1    3    3    0    0 -0.98509382564E+01 -0.28644215254E+02 -0.14420996088E+02  0.33548430369E+02  0.00000000000E+00 0.  1.
</event>
<event>
 7    1  0.6830263E-012  0.5930192E+02  0.7816164E-02  0.1266605E+00
        -11   -1    0    0    0    0  0.00000000000E+00  0.00000000000E+00  0.45593999997E+02  0.45594000000E+02  0.51100000000E-03 0.  1.
         11   -1    0    0    0    0 -0.00000000000E+00 -0.00000000000E+00 -0.45593999997E+02  0.45594000000E+02  0.51100000000E-03 0. -1.
    9900012    2    1    2    0    0  0.28764055946E+02  0.11378869273E+01 -0.13713365844E+02  0.59301919904E+02  0.49999956004E+02 0.  0.
        -12    1    1    2    0    0 -0.28764055946E+02 -0.11378869273E+01  0.13713365844E+02  0.31886080096E+02  0.00000000000E+00 0.  1.
         11    1    3    3    0    0  0.21598572899E+01  0.85513909210E+00 -0.25477009687E+02  0.25582694722E+02  0.51100000000E-03 0. -1.
        -11    1    3    3    0    0  0.18923862630E+02  0.11883843587E+01 -0.78673686871E+00  0.18977454765E+02  0.51100000000E-03 0.  1.
        -12    1    3    3    0    0  0.76803360265E+01 -0.90563652354E+00  0.12550380712E+02  0.14741770416E+02  0.00000000000E+00 0.  1.
</event>
<event>
 7    1  0.6830263E-012  0.5930185E+02  0.7816164E-02  0.1266605E+00
        -11   -1    0    0    0    0  0.00000000000E+00  0.00000000000E+00  0.45593999997E+02  0.45594000000E+02  0.51100000000E-03 0.  1.
         11   -1    0    0    0    0 -0.00000000000E+00 -0.00000000000E+00 -0.45593999997E+02  0.45594000000E+02  0.51100000000E-03 0. -1.
    9900012    2    1    2    0    0  0.26054834638E+02  0.16698383765E+02 -0.76834893636E+01  0.59301851955E+02  0.49999832081E+02 0.  0.
        -12    1    1    2    0    0 -0.26054834638E+02 -0.16698383765E+02  0.76834893636E+01  0.31886148045E+02  0.00000000000E+00 0.  1.
         11    1    3    3    0    0  0.16533886235E+01 -0.69295776786E+01 -0.36768744497E+01  0.80169911265E+01  0.51100000000E-03 0. -1.
        -11    1    3    3    0    0  0.31133159707E+02  0.12952879987E+02 -0.12621054491E+02  0.36004746216E+02  0.51100000000E-03 0.  1.
        -12    1    3    3    0    0 -0.67317136931E+01  0.10675081456E+02  0.86144395769E+01  0.15280114612E+02  0.00000000000E+00 0.  1.
</event>
<event>
 7    1  0.6830263E-012  0.5930194E+02  0.7816164E-02  0.1266605E+00
        -11   -1    0    0    0    0  0.00000000000E+00  0.00000000000E+00  0.45593999997E+02  0.45594000000E+02  0.51100000000E-03 0.  1.
         11   -1    0    0    0    0 -0.00000000000E+00 -0.00000000000E+00 -0.45593999997E+02  0.45594000000E+02  0.51100000000E-03 0. -1.
    9900012    2    1    2    0    0  0.48919978100E+01 -0.31120316423E+02 -0.49310517551E+01  0.59301937085E+02  0.49999987338E+02 0.  0.
        -12    1    1    2    0    0 -0.48919978100E+01  0.31120316423E+02  0.49310517551E+01  0.31886062915E+02  0.00000000000E+00 0.  1.
         11    1    3    3    0    0 -0.55820376726E+01  0.18267475031E+01 -0.75854839579E+00  0.59221235168E+01  0.51100000000E-03 0. -1.
        -11    1    3    3    0    0  0.10373333263E+02  0.15720888248E+01  0.11415126309E+02  0.15504277318E+02  0.51100000000E-03 0.  1.
        -12    1    3    3    0    0  0.10070221986E+00 -0.34519152750E+02 -0.15587629668E+02  0.37875536250E+02  0.00000000000E+00 0.  1.
</event>
<event>
 7    1  0.6830263E-012  0.5930196E+02  0.7816164E-02  0.1266605E+00
        -11   -1    0    0    0    0  0.00000000000E+00  0.00000000000E+00  0.45593999997E+02  0.45594000000E+02  0.51100000000E-03 0.  1.
         11   -1    0    0    0    0 -0.00000000000E+00 -0.00000000000E+00 -0.45593999997E+02  0.45594000000E+02  0.51100000000E-03 0. -1.
    9900012    2    1    2    0    0  0.12600397204E+02  0.57461534639E+01 -0.28721614034E+02  0.59301962271E+02  0.50000033271E+02 0.  0.
        -12    1    1    2    0    0 -0.12600397204E+02 -0.57461534639E+01  0.28721614034E+02  0.31886037729E+02  0.00000000000E+00 0.  1.
         11    1    3    3    0    0 -0.50150265042E+01 -0.40302105452E+01 -0.17432934705E+02  0.18582257682E+02  0.51100000000E-03 0. -1.
        -11    1    3    3    0    0  0.18661806639E+02  0.20380671499E+02 -0.11808523420E+02  0.30051223326E+02  0.51100000000E-03 0.  1.
         12    1    3    3    0    0 -0.10463829313E+01 -0.10604307489E+02  0.51984409113E+00  0.10668481262E+02  0.00000000000E+00 0. -1.
</event>
<event>
 7    1  0.6830263E-012  0.5930193E+02  0.7816164E-02  0.1266605E+00
        -11   -1    0    0    0    0  0.00000000000E+00  0.00000000000E+00  0.45593999997E+02  0.45594000000E+02  0.51100000000E-03 0. -1.
         11   -1    0    0    0    0 -0.00000000000E+00 -0.00000000000E+00 -0.45593999997E+02  0.45594000000E+02  0.51100000000E-03 0.  1.
    9900012    2    1    2    0    0  0.30693768837E+02  0.33200396258E+01 -0.79744303291E+01  0.59301927059E+02  0.49999969052E+02 0.  0.
        -12    1    1    2    0    0 -0.30693768837E+02 -0.33200396258E+01  0.79744303291E+01  0.31886072941E+02  0.00000000000E+00 0.  1.
         11    1    3    3    0    0 -0.23649991032E+01  0.55387209296E+01 -0.73350225473E+01  0.94906905083E+01  0.51100000000E-03 0. -1.
        -11    1    3    3    0    0  0.22366947484E+01  0.13130419763E+02 -0.66025560770E+01  0.14866219209E+02  0.51100000000E-03 0.  1.
         12    1    3    3    0    0  0.30822073192E+02 -0.15349101067E+02  0.59631482952E+01  0.34945017342E+02  0.00000000000E+00 0. -1.
</event>
<event>
 7    1  0.6830263E-012  0.5930196E+02  0.7816164E-02  0.1266605E+00
        -11   -1    0    0    0    0  0.00000000000E+00  0.00000000000E+00  0.45593999997E+02  0.45594000000E+02  0.51100000000E-03 0.  1.
         11   -1    0    0    0    0 -0.00000000000E+00 -0.00000000000E+00 -0.45593999997E+02  0.45594000000E+02  0.51100000000E-03 0. -1.
    9900012    2    1    2    0    0  0.82028742524E+01 -0.23328933525E+02 -0.20129417777E+02  0.59301956886E+02  0.50000023451E+02 0.  0.
        -12    1    1    2    0    0 -0.82028742524E+01  0.23328933525E+02  0.20129417777E+02  0.31886043114E+02  0.00000000000E+00 0.  1.
         11    1    3    3    0    0  0.18232226334E+01  0.55156854587E+01 -0.50899220659E+01  0.77236153289E+01  0.51100000000E-03 0. -1.
        -11    1    3    3    0    0 -0.10962101038E+02  0.22815474690E+01  0.30685962488E+01  0.11609883773E+02  0.51100000000E-03 0.  1.
        -12    1    3    3    0    0  0.17341752657E+02 -0.31126166453E+02 -0.18108091960E+02  0.39968457785E+02  0.00000000000E+00 0.  1.
</event>
<event>
 7    1  0.6830263E-012  0.5930195E+02  0.7816164E-02  0.1266605E+00
        -11   -1    0    0    0    0  0.00000000000E+00  0.00000000000E+00  0.45593999997E+02  0.45594000000E+02  0.51100000000E-03 0.  1.
         11   -1    0    0    0    0 -0.00000000000E+00 -0.00000000000E+00 -0.45593999997E+02  0.45594000000E+02  0.51100000000E-03 0. -1.
    9900012    2    1    2    0    0  0.31418380102E+01  0.15556837220E+02 -0.27655635314E+02  0.59301945133E+02  0.50000002015E+02 0.  0.
        -12    1    1    2    0    0 -0.31418380102E+01 -0.15556837220E+02  0.27655635314E+02  0.31886054867E+02  0.00000000000E+00 0.  1.
         11    1    3    3    0    0  0.63332786648E+01  0.43396908662E+01 -0.25896228682E+02  0.27010331277E+02  0.51100000000E-03 0. -1.
        -11    1    3    3    0    0  0.86589009571E+01 -0.65682161284E+01 -0.82542315496E+00  0.10899511573E+02  0.51100000000E-03 0.  1.
        -12    1    3    3    0    0 -0.11850341612E+02  0.17785362482E+02 -0.93398347709E+00  0.21392102282E+02  0.00000000000E+00 0.  1.
</event>
<event>
 7    1  0.6830263E-012  0.5930200E+02  0.7816164E-02  0.1266605E+00
        -11   -1    0    0    0    0  0.00000000000E+00  0.00000000000E+00  0.45593999997E+02  0.45594000000E+02  0.51100000000E-03 0.  1.
         11   -1    0    0    0    0 -0.00000000000E+00 -0.00000000000E+00 -0.45593999997E+02  0.45594000000E+02  0.51100000000E-03 0. -1.
    9900012    2    1    2    0    0  0.99957750652E+01  0.24499330617E+02 -0.17792814695E+02  0.59302000335E+02  0.50000102691E+02 0.  0.
        -12    1    1    2    0    0 -0.99957750652E+01 -0.24499330617E+02  0.17792814695E+02  0.31885999665E+02  0.00000000000E+00 0.  1.
         11    1    3    3    0    0  0.42765190584E+01  0.93937073112E+01 -0.85333131912E+01  0.13392079248E+02  0.51100000000E-03 0. -1.
        -11    1    3    3    0    0  0.17611551805E+02  0.22476670255E+02 -0.13077689591E+02  0.31406900962E+02  0.51100000000E-03 0.  1.
         12    1    3    3    0    0 -0.11892295798E+02 -0.73710469490E+01  0.38181880873E+01  0.14503020125E+02  0.00000000000E+00 0. -1.
</event>
<event>
 7    1  0.6830263E-012  0.5930192E+02  0.7816164E-02  0.1266605E+00
        -11   -1    0    0    0    0  0.00000000000E+00  0.00000000000E+00  0.45593999997E+02  0.45594000000E+02  0.51100000000E-03 0. -1.
         11   -1    0    0    0    0 -0.00000000000E+00 -0.00000000000E+00 -0.45593999997E+02  0.45594000000E+02  0.51100000000E-03 0.  1.
    9900012    2    1    2    0    0 -0.37339974632E+01 -0.10298233065E+02  0.29945383480E+02  0.59301916310E+02  0.49999949449E+02 0.  0.
        -12    1    1    2    0    0  0.37339974632E+01  0.10298233065E+02 -0.29945383480E+02  0.31886083690E+02  0.00000000000E+00 0.  1.
         11    1    3    3    0    0 -0.56334498044E+00  0.78353889994E+00  0.15906157253E+01  0.18604702151E+01  0.51100000000E-03 0. -1.
        -11    1    3    3    0    0 -0.21947923652E+02 -0.70599266158E+01 -0.16878175638E+00  0.23056070871E+02  0.51100000000E-03 0.  1.
        -12    1    3    3    0    0  0.18777271169E+02 -0.40218453491E+01  0.28523549511E+02  0.34385375224E+02  0.00000000000E+00 0.  1.
</event>
<event>
 7    1  0.6830263E-012  0.5930195E+02  0.7816164E-02  0.1266605E+00
        -11   -1    0    0    0    0  0.00000000000E+00  0.00000000000E+00  0.45593999997E+02  0.45594000000E+02  0.51100000000E-03 0. -1.
         11   -1    0    0    0    0 -0.00000000000E+00 -0.00000000000E+00 -0.45593999997E+02  0.45594000000E+02  0.51100000000E-03 0.  1.
    9900012    2    1    2    0    0 -0.29985352314E+02  0.99774578842E+01 -0.42484187637E+01  0.59301951621E+02  0.50000013849E+02 0.  0.
        -12    1    1    2    0    0  0.29985352314E+02 -0.99774578842E+01  0.42484187637E+01  0.31886048379E+02  0.00000000000E+00 0.  1.
         11    1    3    3    0    0 -0.17877165896E+02 -0.14912794366E+02 -0.76745478817E+01  0.24512918670E+02  0.51100000000E-03 0. -1.
        -11    1    3    3    0    0 -0.38477201877E+01  0.35953718618E+01  0.97566264867E+01  0.11087083031E+02  0.51100000000E-03 0.  1.
        -12    1    3    3    0    0 -0.82604662299E+01  0.21294880388E+02 -0.63304973686E+01  0.23701949920E+02  0.00000000000E+00 0.  1.
</event>
<event>
 7    1  0.6830263E-012  0.5930196E+02  0.7816164E-02  0.1266605E+00
        -11   -1    0    0    0    0  0.00000000000E+00  0.00000000000E+00  0.45593999997E+02  0.45594000000E+02  0.51100000000E-03 0.  1.
         11   -1    0    0    0    0 -0.00000000000E+00 -0.00000000000E+00 -0.45593999997E+02  0.45594000000E+02  0.51100000000E-03 0. -1.
    9900012    2    1    2    0    0 -0.14779161390E+01 -0.17156979948E+02 -0.26836045505E+02  0.59301960180E+02  0.50000029459E+02 0.  0.
        -12    1    1    2    0    0  0.14779161390E+01  0.17156979948E+02  0.26836045505E+02  0.31886039820E+02  0.00000000000E+00 0.  1.
         11    1    3    3    0    0  0.11899811825E+02  0.23817530910E+01 -0.17519774446E+02  0.21312455657E+02  0.51100000000E-03 0. -1.
        -11    1    3    3    0    0  0.27605463418E+01  0.53301457379E+01 -0.54213814188E+01  0.80884143342E+01  0.51100000000E-03 0.  1.
        -12    1    3    3    0    0 -0.16138274306E+02 -0.24868878777E+02 -0.38948896403E+01  0.29901090189E+02  0.00000000000E+00 0.  1.
</event>
<event>
 7    1  0.6830263E-012  0.5930197E+02  0.7816164E-02  0.1266605E+00
        -11   -1    0    0    0    0  0.00000000000E+00  0.00000000000E+00  0.45593999997E+02  0.45594000000E+02  0.51100000000E-03 0.  1.
         11   -1    0    0    0    0 -0.00000000000E+00 -0.00000000000E+00 -0.45593999997E+02  0.45594000000E+02  0.51100000000E-03 0. -1.
    9900012    2    1    2    0    0 -0.12745335469E+02 -0.15646605523E+02 -0.24687218785E+02  0.59301974661E+02  0.50000055867E+02 0.  0.
        -12    1    1    2    0    0  0.12745335469E+02  0.15646605523E+02  0.24687218785E+02  0.31886025339E+02  0.00000000000E+00 0.  1.
         11    1    3    3    0    0 -0.15388025570E+02 -0.16878748173E+02 -0.18981890759E+02  0.29698411537E+02  0.51100000000E-03 0. -1.
        -11    1    3    3    0    0  0.68434006762E+01  0.55522456304E+01 -0.15658798106E+02  0.17968236495E+02  0.51100000000E-03 0.  1.
         12    1    3    3    0    0 -0.42007105755E+01 -0.43201029811E+01  0.99534700804E+01  0.11635326628E+02  0.00000000000E+00 0. -1.
</event>
<event>
 7    1  0.6830263E-012  0.5930194E+02  0.7816164E-02  0.1266605E+00
        -11   -1    0    0    0    0  0.00000000000E+00  0.00000000000E+00  0.45593999997E+02  0.45594000000E+02  0.51100000000E-03 0.  1.
         11   -1    0    0    0    0 -0.00000000000E+00 -0.00000000000E+00 -0.45593999997E+02  0.45594000000E+02  0.51100000000E-03 0. -1.
    9900012    2    1    2    0    0  0.30221116051E+02 -0.99123240773E+01  0.22694993597E+01  0.59301942682E+02  0.49999997545E+02 0.  0.
        -12    1    1    2    0    0 -0.30221116051E+02  0.99123240773E+01 -0.22694993597E+01  0.31886057318E+02  0.00000000000E+00 0.  1.
         11    1    3    3    0    0  0.72854111406E+01 -0.35711432239E+01 -0.84194947796E+01  0.11692654618E+02  0.51100000000E-03 0. -1.
        -11    1    3    3    0    0  0.27436473302E+02  0.16841911536E+01  0.20400376560E+02  0.34231154394E+02  0.51100000000E-03 0.  1.
         12    1    3    3    0    0 -0.45007683920E+01 -0.80253720070E+01 -0.97113824203E+01  0.13378133670E+02  0.00000000000E+00 0. -1.
</event>
<event>
 7    1  0.6830263E-012  0.5930192E+02  0.7816164E-02  0.1266605E+00
        -11   -1    0    0    0    0  0.00000000000E+00  0.00000000000E+00  0.45593999997E+02  0.45594000000E+02  0.51100000000E-03 0.  1.
         11   -1    0    0    0    0 -0.00000000000E+00 -0.00000000000E+00 -0.45593999997E+02  0.45594000000E+02  0.51100000000E-03 0. -1.
    9900012    2    1    2    0    0 -0.88911468781E+01  0.30554037949E+02  0.20298367822E+01  0.59301922079E+02  0.49999959971E+02 0.  0.
        -12    1    1    2    0    0  0.88911468781E+01 -0.30554037949E+02 -0.20298367822E+01  0.31886077921E+02  0.00000000000E+00 0.  1.
         11    1    3    3    0    0  0.10130464328E+02  0.60567347577E+01  0.52413140789E+01  0.12914399598E+02  0.51100000000E-03 0.  1.
        -11    1    3    3    0    0 -0.15525921408E+02  0.21043791594E+02 -0.17374040817E+02  0.31396698788E+02  0.51100000000E-03 0. -1.
         12    1    3    3    0    0 -0.34956897988E+01  0.34535115970E+01  0.14162563521E+02  0.14990823693E+02  0.00000000000E+00 0. -1.
</event>
<event>
 7    1  0.6830263E-012  0.5930157E+02  0.7816164E-02  0.1266606E+00
        -11   -1    0    0    0    0  0.00000000000E+00  0.00000000000E+00  0.45593999997E+02  0.45594000000E+02  0.51100000000E-03 0. -1.
         11   -1    0    0    0    0 -0.00000000000E+00 -0.00000000000E+00 -0.45593999997E+02  0.45594000000E+02  0.51100000000E-03 0.  1.
    9900012    2    1    2    0    0  0.21819965289E+02  0.11340301754E+02  0.20298541231E+02  0.59301574907E+02  0.49999326809E+02 0.  0.
        -12    1    1    2    0    0 -0.21819965289E+02 -0.11340301754E+02 -0.20298541231E+02  0.31886425093E+02  0.00000000000E+00 0.  1.
         11    1    3    3    0    0  0.20393807725E+02  0.22366559087E+02  0.17547408726E+02  0.34986882002E+02  0.51100000000E-03 0. -1.
        -11    1    3    3    0    0  0.44128661951E+01  0.27763138410E+01 -0.58053124228E+01  0.78027533081E+01  0.51100000000E-03 0.  1.
        -12    1    3    3    0    0 -0.29867086318E+01 -0.13802571174E+02  0.85564449280E+01  0.16511939598E+02  0.00000000000E+00 0.  1.
</event>
<event>
 7    1  0.6830263E-012  0.5930195E+02  0.7816164E-02  0.1266605E+00
        -11   -1    0    0    0    0  0.00000000000E+00  0.00000000000E+00  0.45593999997E+02  0.45594000000E+02  0.51100000000E-03 0.  1.
         11   -1    0    0    0    0 -0.00000000000E+00 -0.00000000000E+00 -0.45593999997E+02  0.45594000000E+02  0.51100000000E-03 0. -1.
    9900012    2    1    2    0    0 -0.29153848324E+02 -0.10560536740E+02  0.74329209083E+01  0.59301950989E+02  0.50000012695E+02 0.  0.
        -12    1    1    2    0    0  0.29153848324E+02  0.10560536740E+02 -0.74329209083E+01  0.31886049011E+02  0.00000000000E+00 0.  1.
         11    1    3    3    0    0  0.50923182581E+00  0.32081883585E+01 -0.96321510700E+01  0.10165142601E+02  0.51100000000E-03 0. -1.
        -11    1    3    3    0    0 -0.12579428084E+02  0.89445917921E+01  0.13475934020E+02  0.20490205739E+02  0.51100000000E-03 0.  1.
        -12    1    3    3    0    0 -0.17083652066E+02 -0.22713316890E+02  0.35891379584E+01  0.28646602649E+02  0.00000000000E+00 0.  1.
</event>
<event>
 7    1  0.6830263E-012  0.5930196E+02  0.7816164E-02  0.1266605E+00
        -11   -1    0    0    0    0  0.00000000000E+00  0.00000000000E+00  0.45593999997E+02  0.45594000000E+02  0.51100000000E-03 0.  1.
         11   -1    0    0    0    0 -0.00000000000E+00 -0.00000000000E+00 -0.45593999997E+02  0.45594000000E+02  0.51100000000E-03 0. -1.
    9900012    2    1    2    0    0 -0.12987001395E+02 -0.30338797984E+01 -0.28962956105E+02  0.59301961390E+02  0.50000031665E+02 0.  0.
        -12    1    1    2    0    0  0.12987001395E+02  0.30338797984E+01  0.28962956105E+02  0.31886038610E+02  0.00000000000E+00 0.  1.
         11    1    3    3    0    0  0.77297036939E+01 -0.69174938419E+00  0.55204410571E+01  0.95237653337E+01  0.51100000000E-03 0. -1.
        -11    1    3    3    0    0 -0.69197040936E+01  0.11824548047E+02 -0.56604344083E+01  0.14823722852E+02  0.51100000000E-03 0.  1.
         12    1    3    3    0    0 -0.13797000995E+02 -0.14166678461E+02 -0.28822962754E+02  0.34954473204E+02  0.00000000000E+00 0. -1.
</event>
<event>
 7    1  0.6830263E-012  0.5930196E+02  0.7816164E-02  0.1266605E+00
        -11   -1    0    0    0    0  0.00000000000E+00  0.00000000000E+00  0.45593999997E+02  0.45594000000E+02  0.51100000000E-03 0.  1.
         11   -1    0    0    0    0 -0.00000000000E+00 -0.00000000000E+00 -0.45593999997E+02  0.45594000000E+02  0.51100000000E-03 0. -1.
    9900012    2    1    2    0    0  0.76873707464E+01 -0.24196223882E+02 -0.19291614213E+02  0.59301963901E+02  0.50000036244E+02 0.  0.
        -12    1    1    2    0    0 -0.76873707464E+01  0.24196223882E+02  0.19291614213E+02  0.31886036099E+02  0.00000000000E+00 0.  1.
         11    1    3    3    0    0 -0.43386945344E+01 -0.22398479996E+02 -0.16842027664E+02  0.28357892596E+02  0.51100000000E-03 0. -1.
        -11    1    3    3    0    0 -0.27559730364E+01 -0.92391724702E+01 -0.89581637694E+01  0.13160790010E+02  0.51100000000E-03 0.  1.
        -12    1    3    3    0    0  0.14782038317E+02  0.74414285842E+01  0.65085772197E+01  0.17783281295E+02  0.00000000000E+00 0.  1.
</event>
<event>
 7    1  0.6830263E-012  0.5930196E+02  0.7816164E-02  0.1266605E+00
        -11   -1    0    0    0    0  0.00000000000E+00  0.00000000000E+00  0.45593999997E+02  0.45594000000E+02  0.51100000000E-03 0. -1.
         11   -1    0    0    0    0 -0.00000000000E+00 -0.00000000000E+00 -0.45593999997E+02  0.45594000000E+02  0.51100000000E-03 0.  1.
    9900012    2    1    2    0    0  0.80761220932E+01 -0.21142919977E+02  0.22460469698E+02  0.59301960542E+02  0.50000030119E+02 0.  0.
        -12    1    1    2    0    0 -0.80761220932E+01  0.21142919977E+02 -0.22460469698E+02  0.31886039458E+02  0.00000000000E+00 0.  1.
         11    1    3    3    0    0  0.12755044470E+02  0.50866401199E+01  0.24416820319E+02  0.28013321508E+02  0.51100000000E-03 0. -1.
        -11    1    3    3    0    0  0.24817697635E+01 -0.27116457515E+01  0.45587031378E+01  0.58561060783E+01  0.51100000000E-03 0.  1.
        -12    1    3    3    0    0 -0.71606921404E+01 -0.23517914346E+02 -0.65150537586E+01  0.25432532957E+02  0.00000000000E+00 0.  1.
</event>
<event>
 7    1  0.6830263E-012  0.5930194E+02  0.7816164E-02  0.1266605E+00
        -11   -1    0    0    0    0  0.00000000000E+00  0.00000000000E+00  0.45593999997E+02  0.45594000000E+02  0.51100000000E-03 0.  1.
         11   -1    0    0    0    0 -0.00000000000E+00 -0.00000000000E+00 -0.45593999997E+02  0.45594000000E+02  0.51100000000E-03 0. -1.
    9900012    2    1    2    0    0 -0.21971247998E+02 -0.22909581849E+02 -0.30226386769E+01  0.59301936843E+02  0.49999986897E+02 0.  0.
        -12    1    1    2    0    0  0.21971247998E+02  0.22909581849E+02  0.30226386769E+01  0.31886063157E+02  0.00000000000E+00 0.  1.
         11    1    3    3    0    0 -0.67956055525E+01  0.22419225413E+01 -0.94389255530E+01  0.11844821120E+02  0.51100000000E-03 0. -1.
        -11    1    3    3    0    0 -0.55328110202E+01 -0.35121464121E+00 -0.13254126686E+02  0.14366879410E+02  0.51100000000E-03 0.  1.
         12    1    3    3    0    0 -0.96428314254E+01 -0.24800289749E+02  0.19670413562E+02  0.33090236313E+02  0.00000000000E+00 0. -1.
</event>
<event>
 7    1  0.6830263E-012  0.5930202E+02  0.7816164E-02  0.1266604E+00
        -11   -1    0    0    0    0  0.00000000000E+00  0.00000000000E+00  0.45593999997E+02  0.45594000000E+02  0.51100000000E-03 0.  1.
         11   -1    0    0    0    0 -0.00000000000E+00 -0.00000000000E+00 -0.45593999997E+02  0.45594000000E+02  0.51100000000E-03 0. -1.
    9900012    2    1    2    0    0 -0.28791967841E+02 -0.12177863806E+02 -0.62799395830E+01  0.59302024710E+02  0.50000147145E+02 0.  0.
        -12    1    1    2    0    0  0.28791967841E+02  0.12177863806E+02  0.62799395830E+01  0.31885975290E+02  0.00000000000E+00 0.  1.
         11    1    3    3    0    0  0.85676781810E+00 -0.69628040810E+01  0.15494159680E+00  0.70170292093E+01  0.51100000000E-03 0. -1.
        -11    1    3    3    0    0 -0.13032201278E+02 -0.22460252078E+02  0.37957530219E+01  0.26243264561E+02  0.51100000000E-03 0.  1.
         12    1    3    3    0    0 -0.16616534381E+02  0.17245192354E+02 -0.10230634202E+02  0.26041730939E+02  0.00000000000E+00 0. -1.
</event>
<event>
 7    1  0.6830263E-012  0.5930191E+02  0.7816164E-02  0.1266605E+00
        -11   -1    0    0    0    0  0.00000000000E+00  0.00000000000E+00  0.45593999997E+02  0.45594000000E+02  0.51100000000E-03 0.  1.
         11   -1    0    0    0    0 -0.00000000000E+00 -0.00000000000E+00 -0.45593999997E+02  0.45594000000E+02  0.51100000000E-03 0. -1.
    9900012    2    1    2    0    0  0.19313721606E+02 -0.23797494477E+02  0.87966966789E+01  0.59301914350E+02  0.49999945875E+02 0.  0.
        -12    1    1    2    0    0 -0.19313721606E+02  0.23797494477E+02 -0.87966966789E+01  0.31886085650E+02  0.00000000000E+00 0.  1.
         11    1    3    3    0    0 -0.64463566250E+01 -0.11346824557E+02  0.77316873223E+00  0.13073015391E+02  0.51100000000E-03 0.  1.
        -11    1    3    3    0    0  0.57240017429E+00 -0.17948485021E+02 -0.29709370271E+01  0.18201709359E+02  0.51100000000E-03 0. -1.
         12    1    3    3    0    0  0.25187678056E+02  0.54978151019E+01  0.10994464974E+02  0.28027189599E+02  0.00000000000E+00 0. -1.
</event>
<event>
 7    1  0.6830263E-012  0.5930195E+02  0.7816164E-02  0.1266605E+00
        -11   -1    0    0    0    0  0.00000000000E+00  0.00000000000E+00  0.45593999997E+02  0.45594000000E+02  0.51100000000E-03 0.  1.
         11   -1    0    0    0    0 -0.00000000000E+00 -0.00000000000E+00 -0.45593999997E+02  0.45594000000E+02  0.51100000000E-03 0. -1.
    9900012    2    1    2    0    0 -0.65468574986E+01 -0.11702958287E+02 -0.28929213975E+02  0.59301952942E+02  0.50000016258E+02 0.  0.
        -12    1    1    2    0    0  0.65468574986E+01  0.11702958287E+02  0.28929213975E+02  0.31886047058E+02  0.00000000000E+00 0.  1.
         11    1    3    3    0    0  0.21614685291E+01 -0.31601067745E+01 -0.49046008879E+01  0.62220037898E+01  0.51100000000E-03 0. -1.
        -11    1    3    3    0    0  0.12463262481E+02 -0.14235781136E+02 -0.24738664182E+02  0.31144692677E+02  0.51100000000E-03 0.  1.
         12    1    3    3    0    0 -0.21171588508E+02  0.56929296233E+01  0.71405109511E+00  0.21935256475E+02  0.00000000000E+00 0. -1.
</event>
<event>
 7    1  0.6830263E-012  0.5930195E+02  0.7816164E-02  0.1266605E+00
        -11   -1    0    0    0    0  0.00000000000E+00  0.00000000000E+00  0.45593999997E+02  0.45594000000E+02  0.51100000000E-03 0. -1.
         11   -1    0    0    0    0 -0.00000000000E+00 -0.00000000000E+00 -0.45593999997E+02  0.45594000000E+02  0.51100000000E-03 0.  1.
    9900012    2    1    2    0    0  0.64303676513E+01 -0.66752225669E+00  0.31223788341E+02  0.59301950191E+02  0.50000011240E+02 0.  0.
        -12    1    1    2    0    0 -0.64303676513E+01  0.66752225669E+00 -0.31223788341E+02  0.31886049809E+02  0.00000000000E+00 0.  1.
         11    1    3    3    0    0  0.88108202286E+01 -0.11389414534E+02  0.25713467795E+02  0.29470862608E+02  0.51100000000E-03 0. -1.
        -11    1    3    3    0    0  0.44612213212E+01 -0.81038146616E+01  0.10492380171E+01  0.93099521172E+01  0.51100000000E-03 0.  1.
         12    1    3    3    0    0 -0.68416738985E+01  0.18825706939E+02  0.44610825284E+01  0.20521135466E+02  0.00000000000E+00 0. -1.
</event>
<event>
 7    1  0.6830263E-012  0.5930199E+02  0.7816164E-02  0.1266605E+00
        -11   -1    0    0    0    0  0.00000000000E+00  0.00000000000E+00  0.45593999997E+02  0.45594000000E+02  0.51100000000E-03 0. -1.
         11   -1    0    0    0    0 -0.00000000000E+00 -0.00000000000E+00 -0.45593999997E+02  0.45594000000E+02  0.51100000000E-03 0.  1.
    9900012    2    1    2    0    0  0.28491273206E+02 -0.12234303931E+02  0.74355030674E+01  0.59301991353E+02  0.50000086310E+02 0.  0.
        -12    1    1    2    0    0 -0.28491273206E+02  0.12234303931E+02 -0.74355030674E+01  0.31886008647E+02  0.00000000000E+00 0.  1.
         11    1    3    3    0    0  0.10399289067E+02 -0.80532482473E+01  0.12553923728E+02  0.18182437176E+02  0.51100000000E-03 0. -1.
        -11    1    3    3    0    0  0.23948995542E+01 -0.75081865587E+01  0.14057491789E+02  0.16115876797E+02  0.51100000000E-03 0.  1.
        -12    1    3    3    0    0  0.15697084584E+02  0.33271308747E+01 -0.19175912449E+02  0.25003677380E+02  0.00000000000E+00 0.  1.
</event>
<event>
 7    1  0.6830263E-012  0.5930179E+02  0.7816164E-02  0.1266605E+00
        -11   -1    0    0    0    0  0.00000000000E+00  0.00000000000E+00  0.45593999997E+02  0.45594000000E+02  0.51100000000E-03 0. -1.
         11   -1    0    0    0    0 -0.00000000000E+00 -0.00000000000E+00 -0.45593999997E+02  0.45594000000E+02  0.51100000000E-03 0.  1.
    9900012    2    1    2    0    0 -0.24604089212E+02  0.18897377885E+02  0.73660131838E+01  0.59301792212E+02  0.49999723124E+02 0.  0.
        -12    1    1    2    0    0  0.24604089212E+02 -0.18897377885E+02 -0.73660131838E+01  0.31886207788E+02  0.00000000000E+00 0.  1.
         11    1    3    3    0    0 -0.19487351202E+01  0.11851691653E+02 -0.34289565943E+01  0.12490712838E+02  0.51100000000E-03 0.  1.
        -11    1    3    3    0    0  0.82475989078E+00  0.14630980099E+02  0.15889916324E+02  0.21615625102E+02  0.51100000000E-03 0. -1.
        -12    1    3    3    0    0 -0.23480113982E+02 -0.75852938665E+01 -0.50949465458E+01  0.25195454272E+02  0.00000000000E+00 0.  1.
</event>
<event>
 7    1  0.6830263E-012  0.5930196E+02  0.7816164E-02  0.1266605E+00
        -11   -1    0    0    0    0  0.00000000000E+00  0.00000000000E+00  0.45593999997E+02  0.45594000000E+02  0.51100000000E-03 0. -1.
         11   -1    0    0    0    0 -0.00000000000E+00 -0.00000000000E+00 -0.45593999997E+02  0.45594000000E+02  0.51100000000E-03 0.  1.
    9900012    2    1    2    0    0  0.73565929284E+01 -0.14675442675E+02  0.27335535049E+02  0.59301959895E+02  0.50000028937E+02 0.  0.
        -12    1    1    2    0    0 -0.73565929284E+01  0.14675442675E+02 -0.27335535049E+02  0.31886040105E+02  0.00000000000E+00 0.  1.
         11    1    3    3    0    0 -0.17527221412E+02 -0.10324227484E+02  0.11466055673E+02  0.23350879994E+02  0.51100000000E-03 0. -1.
        -11    1    3    3    0    0 -0.36644593608E+00  0.26968238813E+01  0.81953820843E+01  0.86354750558E+01  0.51100000000E-03 0.  1.
        -12    1    3    3    0    0  0.25250260276E+02 -0.70480390719E+01  0.76740972917E+01  0.27315604845E+02  0.00000000000E+00 0.  1.
</event>
<event>
 7    1  0.6830263E-012  0.5930194E+02  0.7816164E-02  0.1266605E+00
        -11   -1    0    0    0    0  0.00000000000E+00  0.00000000000E+00  0.45593999997E+02  0.45594000000E+02  0.51100000000E-03 0.  1.
         11   -1    0    0    0    0 -0.00000000000E+00 -0.00000000000E+00 -0.45593999997E+02  0.45594000000E+02  0.51100000000E-03 0. -1.
    9900012    2    1    2    0    0  0.11491966561E+02 -0.23209083446E+02 -0.18600920516E+02  0.59301935742E+02  0.49999984889E+02 0.  0.
        -12    1    1    2    0    0 -0.11491966561E+02  0.23209083446E+02  0.18600920516E+02  0.31886064258E+02  0.00000000000E+00 0.  1.
         11    1    3    3    0    0  0.16425452128E+02  0.23034973342E+01 -0.19528720899E+01  0.16700757086E+02  0.51100000000E-03 0. -1.
        -11    1    3    3    0    0  0.71694801550E+01 -0.20423070592E+01  0.45541598751E+01  0.87357218503E+01  0.51100000000E-03 0.  1.
         12    1    3    3    0    0 -0.12102965722E+02 -0.23470273721E+02 -0.21202208301E+02  0.33865456805E+02  0.00000000000E+00 0. -1.
</event>
<event>
 7    1  0.6830263E-012  0.5930192E+02  0.7816164E-02  0.1266605E+00
        -11   -1    0    0    0    0  0.00000000000E+00  0.00000000000E+00  0.45593999997E+02  0.45594000000E+02  0.51100000000E-03 0.  1.
         11   -1    0    0    0    0 -0.00000000000E+00 -0.00000000000E+00 -0.45593999997E+02  0.45594000000E+02  0.51100000000E-03 0. -1.
    9900012    2    1    2    0    0  0.24937167690E+02 -0.19044528179E+01 -0.19779603170E+02  0.59301921933E+02  0.49999959705E+02 0.  0.
        -12    1    1    2    0    0 -0.24937167690E+02  0.19044528179E+01  0.19779603170E+02  0.31886078067E+02  0.00000000000E+00 0.  1.
         11    1    3    3    0    0  0.79733692013E+01  0.16896483079E+02 -0.14717753215E+01  0.18741181385E+02  0.51100000000E-03 0. -1.
        -11    1    3    3    0    0  0.11737013472E+02 -0.62415044438E+01  0.44742984506E+01  0.14026161622E+02  0.51100000000E-03 0.  1.
         12    1    3    3    0    0  0.52267850157E+01 -0.12559431453E+02 -0.22782126299E+02  0.26534578925E+02  0.00000000000E+00 0. -1.
</event>
<event>
 7    1  0.6830263E-012  0.5930196E+02  0.7816164E-02  0.1266605E+00
        -11   -1    0    0    0    0  0.00000000000E+00  0.00000000000E+00  0.45593999997E+02  0.45594000000E+02  0.51100000000E-03 0.  1.
         11   -1    0    0    0    0 -0.00000000000E+00 -0.00000000000E+00 -0.45593999997E+02  0.45594000000E+02  0.51100000000E-03 0. -1.
    9900012    2    1    2    0    0  0.70337263224E+01 -0.21204302837E+02 -0.22751350316E+02  0.59301957505E+02  0.50000024579E+02 0.  0.
        -12    1    1    2    0    0 -0.70337263224E+01  0.21204302837E+02  0.22751350316E+02  0.31886042495E+02  0.00000000000E+00 0.  1.
         11    1    3    3    0    0  0.44987818561E+01 -0.19549665735E+02 -0.25518885740E+02  0.32459852098E+02  0.51100000000E-03 0.  1.
        -11    1    3    3    0    0 -0.49047773739E+01 -0.10772690393E+02 -0.48845192725E+01  0.12804929839E+02  0.51100000000E-03 0. -1.
        -12    1    3    3    0    0  0.74397218402E+01  0.91180532905E+01  0.76520546961E+01  0.14037175568E+02  0.00000000000E+00 0.  1.
</event>
<event>
 7    1  0.6830263E-012  0.5930195E+02  0.7816164E-02  0.1266605E+00
        -11   -1    0    0    0    0  0.00000000000E+00  0.00000000000E+00  0.45593999997E+02  0.45594000000E+02  0.51100000000E-03 0. -1.
         11   -1    0    0    0    0 -0.00000000000E+00 -0.00000000000E+00 -0.45593999997E+02  0.45594000000E+02  0.51100000000E-03 0.  1.
    9900012    2    1    2    0    0 -0.19166461582E+02 -0.91322559746E+00  0.25466307033E+02  0.59301952511E+02  0.50000015472E+02 0.  0.
        -12    1    1    2    0    0  0.19166461582E+02  0.91322559746E+00 -0.25466307033E+02  0.31886047489E+02  0.00000000000E+00 0.  1.
         11    1    3    3    0    0  0.96908208327E+00  0.15141740909E+02  0.22773544076E+01  0.15342678423E+02  0.51100000000E-03 0. -1.
        -11    1    3    3    0    0 -0.58293451885E+00 -0.16316528425E+02  0.45602441303E+01  0.16951835868E+02  0.51100000000E-03 0.  1.
         12    1    3    3    0    0 -0.19552609146E+02  0.26156191897E+00  0.18628708495E+02  0.27007438221E+02  0.00000000000E+00 0. -1.
</event>
<event>
 7    1  0.6830263E-012  0.5930195E+02  0.7816164E-02  0.1266605E+00
        -11   -1    0    0    0    0  0.00000000000E+00  0.00000000000E+00  0.45593999997E+02  0.45594000000E+02  0.51100000000E-03 0.  1.
         11   -1    0    0    0    0 -0.00000000000E+00 -0.00000000000E+00 -0.45593999997E+02  0.45594000000E+02  0.51100000000E-03 0. -1.
    9900012    2    1    2    0    0 -0.23591030680E+02  0.21035657940E+02  0.42053038366E+01  0.59301949541E+02  0.50000010055E+02 0.  0.
        -12    1    1    2    0    0  0.23591030680E+02 -0.21035657940E+02 -0.42053038366E+01  0.31886050459E+02  0.00000000000E+00 0.  1.
         11    1    3    3    0    0 -0.59533835962E+01  0.49036749609E+01  0.55413529915E+01  0.94971257548E+01  0.51100000000E-03 0. -1.
        -11    1    3    3    0    0 -0.16789115048E+02  0.26439332160E+02  0.11461359193E+02  0.33350793454E+02  0.51100000000E-03 0.  1.
         12    1    3    3    0    0 -0.84853203541E+00 -0.10307349181E+02 -0.12797408348E+02  0.16454030332E+02  0.00000000000E+00 0. -1.
</event>
<event>
 7    1  0.6830263E-012  0.5930193E+02  0.7816164E-02  0.1266605E+00
        -11   -1    0    0    0    0  0.00000000000E+00  0.00000000000E+00  0.45593999997E+02  0.45594000000E+02  0.51100000000E-03 0.  1.
         11   -1    0    0    0    0 -0.00000000000E+00 -0.00000000000E+00 -0.45593999997E+02  0.45594000000E+02  0.51100000000E-03 0. -1.
    9900012    2    1    2    0    0 -0.27662342028E+02  0.41024897619E+01  0.15319457542E+02  0.59301931442E+02  0.49999977047E+02 0.  0.
        -12    1    1    2    0    0  0.27662342028E+02 -0.41024897619E+01 -0.15319457542E+02  0.31886068558E+02  0.00000000000E+00 0.  1.
         11    1    3    3    0    0 -0.19449675152E+02 -0.32492499426E+01  0.47967524800E+01  0.20294243601E+02  0.51100000000E-03 0. -1.
        -11    1    3    3    0    0 -0.18821615066E+01 -0.11595695632E+02  0.14476403104E+02  0.18643200804E+02  0.51100000000E-03 0.  1.
         12    1    3    3    0    0 -0.63305053690E+01  0.18947435337E+02 -0.39536980425E+01  0.20364487037E+02  0.00000000000E+00 0. -1.
</event>
<event>
 7    1  0.6830263E-012  0.5930194E+02  0.7816164E-02  0.1266605E+00
        -11   -1    0    0    0    0  0.00000000000E+00  0.00000000000E+00  0.45593999997E+02  0.45594000000E+02  0.51100000000E-03 0. -1.
         11   -1    0    0    0    0 -0.00000000000E+00 -0.00000000000E+00 -0.45593999997E+02  0.45594000000E+02  0.51100000000E-03 0.  1.
    9900012    2    1    2    0    0  0.21917828225E+02 -0.22197732912E+02 -0.66022884797E+01  0.59301941076E+02  0.49999994617E+02 0.  0.
        -12    1    1    2    0    0 -0.21917828225E+02  0.22197732912E+02  0.66022884797E+01  0.31886058924E+02  0.00000000000E+00 0.  1.
         11    1    3    3    0    0  0.17646758036E+02  0.49849173157E+01  0.56689458146E+01  0.19193603537E+02  0.51100000000E-03 0. -1.
        -11    1    3    3    0    0  0.14054329955E+02 -0.21899521758E+02 -0.41746902709E+01  0.26354151150E+02  0.51100000000E-03 0.  1.
         12    1    3    3    0    0 -0.97832597666E+01 -0.52831284697E+01 -0.80965440233E+01  0.13754186389E+02  0.00000000000E+00 0. -1.
</event>
<event>
 7    1  0.6830263E-012  0.5930191E+02  0.7816164E-02  0.1266605E+00
        -11   -1    0    0    0    0  0.00000000000E+00  0.00000000000E+00  0.45593999997E+02  0.45594000000E+02  0.51100000000E-03 0.  1.
         11   -1    0    0    0    0 -0.00000000000E+00 -0.00000000000E+00 -0.45593999997E+02  0.45594000000E+02  0.51100000000E-03 0. -1.
    9900012    2    1    2    0    0 -0.15132493816E+02  0.17357406505E+02 -0.22055625551E+02  0.59301912938E+02  0.49999943301E+02 0.  0.
        -12    1    1    2    0    0  0.15132493816E+02 -0.17357406505E+02  0.22055625551E+02  0.31886087062E+02  0.00000000000E+00 0.  1.
         11    1    3    3    0    0 -0.86774272470E+01  0.16860995966E+02  0.31789925030E+01  0.19227504315E+02  0.51100000000E-03 0. -1.
        -11    1    3    3    0    0 -0.94031846024E+01 -0.73707015042E+01  0.15086424555E+01  0.12042554698E+02  0.51100000000E-03 0.  1.
        -12    1    3    3    0    0  0.29481180339E+01  0.78671120436E+01 -0.26743260509E+02  0.28031853926E+02  0.00000000000E+00 0.  1.
</event>
<event>
 7    1  0.6830263E-012  0.5930194E+02  0.7816164E-02  0.1266605E+00
        -11   -1    0    0    0    0  0.00000000000E+00  0.00000000000E+00  0.45593999997E+02  0.45594000000E+02  0.51100000000E-03 0. -1.
         11   -1    0    0    0    0 -0.00000000000E+00 -0.00000000000E+00 -0.45593999997E+02  0.45594000000E+02  0.51100000000E-03 0.  1.
    9900012    2    1    2    0    0 -0.10001324893E+02  0.30267564858E+02  0.75409284492E+00  0.59301942889E+02  0.49999997923E+02 0.  0.
        -12    1    1    2    0    0  0.10001324893E+02 -0.30267564858E+02 -0.75409284492E+00  0.31886057111E+02  0.00000000000E+00 0.  1.
         11    1    3    3    0    0  0.76014452852E+01  0.12725718736E+02  0.82777335472E+01  0.16977831449E+02  0.51100000000E-03 0. -1.
        -11    1    3    3    0    0  0.41199244770E+01 -0.40902902839E+01  0.64111830152E+01  0.86491340733E+01  0.51100000000E-03 0.  1.
         12    1    3    3    0    0 -0.21722694656E+02  0.21632136406E+02 -0.13934823717E+02  0.33674977366E+02  0.00000000000E+00 0. -1.
</event>
<event>
 7    1  0.6830263E-012  0.5930193E+02  0.7816164E-02  0.1266605E+00
        -11   -1    0    0    0    0  0.00000000000E+00  0.00000000000E+00  0.45593999997E+02  0.45594000000E+02  0.51100000000E-03 0. -1.
         11   -1    0    0    0    0 -0.00000000000E+00 -0.00000000000E+00 -0.45593999997E+02  0.45594000000E+02  0.51100000000E-03 0.  1.
    9900012    2    1    2    0    0  0.31759518265E+02  0.23132982764E+01  0.16441329376E+01  0.59301929022E+02  0.49999972633E+02 0.  0.
        -12    1    1    2    0    0 -0.31759518265E+02 -0.23132982764E+01 -0.16441329376E+01  0.31886070978E+02  0.00000000000E+00 0.  1.
         11    1    3    3    0    0 -0.37953566514E+01  0.23595042151E+00 -0.46196137229E+01  0.59834134006E+01  0.51100000000E-03 0.  1.
        -11    1    3    3    0    0  0.42690046735E+02  0.41389093562E+01  0.11289154230E+02  0.44351050319E+02  0.51100000000E-03 0. -1.
         12    1    3    3    0    0 -0.71351718191E+01 -0.20615615013E+01 -0.50254075693E+01  0.89674653024E+01  0.00000000000E+00 0. -1.
</event>
<event>
 7    1  0.6830263E-012  0.5930193E+02  0.7816164E-02  0.1266605E+00
        -11   -1    0    0    0    0  0.00000000000E+00  0.00000000000E+00  0.45593999997E+02  0.45594000000E+02  0.51100000000E-03 0. -1.
         11   -1    0    0    0    0 -0.00000000000E+00 -0.00000000000E+00 -0.45593999997E+02  0.45594000000E+02  0.51100000000E-03 0.  1.
    9900012    2    1    2    0    0  0.24705595470E+02 -0.63745883769E+01  0.19123790441E+02  0.59301934308E+02  0.49999982273E+02 0.  0.
        -12    1    1    2    0    0 -0.24705595470E+02  0.63745883769E+01 -0.19123790441E+02  0.31886065692E+02  0.00000000000E+00 0.  1.
         11    1    3    3    0    0  0.31670170665E+02 -0.16913377616E+01  0.14311868827E+02  0.34794969793E+02  0.51100000000E-03 0. -1.
        -11    1    3    3    0    0 -0.28449645898E+01 -0.13765277872E+02  0.27028925732E+01  0.14313711152E+02  0.51100000000E-03 0.  1.
        -12    1    3    3    0    0 -0.41196106048E+01  0.90820272566E+01  0.21090290409E+01  0.10193253363E+02  0.00000000000E+00 0.  1.
</event>
<event>
 7    1  0.6830263E-012  0.5930194E+02  0.7816164E-02  0.1266605E+00
        -11   -1    0    0    0    0  0.00000000000E+00  0.00000000000E+00  0.45593999997E+02  0.45594000000E+02  0.51100000000E-03 0.  1.
         11   -1    0    0    0    0 -0.00000000000E+00 -0.00000000000E+00 -0.45593999997E+02  0.45594000000E+02  0.51100000000E-03 0. -1.
    9900012    2    1    2    0    0  0.30850323984E+02 -0.18782988232E+01 -0.78390267188E+01  0.59301939781E+02  0.49999992254E+02 0.  0.
        -12    1    1    2    0    0 -0.30850323984E+02  0.18782988232E+01  0.78390267188E+01  0.31886060219E+02  0.00000000000E+00 0.  1.
         11    1    3    3    0    0  0.13833543172E+02 -0.76812290053E+01 -0.11088862606E+02  0.19321777089E+02  0.51100000000E-03 0. -1.
        -11    1    3    3    0    0 -0.88364831104E+01  0.14106109464E+01  0.94698531430E+01  0.13028867020E+02  0.51100000000E-03 0.  1.
         12    1    3    3    0    0  0.25853263923E+02  0.43923192357E+01 -0.62200172555E+01  0.26951295672E+02  0.00000000000E+00 0. -1.
</event>
<event>
 7    1  0.6830263E-012  0.5930199E+02  0.7816164E-02  0.1266605E+00
        -11   -1    0    0    0    0  0.00000000000E+00  0.00000000000E+00  0.45593999997E+02  0.45594000000E+02  0.51100000000E-03 0.  1.
         11   -1    0    0    0    0 -0.00000000000E+00 -0.00000000000E+00 -0.45593999997E+02  0.45594000000E+02  0.51100000000E-03 0. -1.
    9900012    2    1    2    0    0  0.68458024956E+01 -0.16041039386E+02 -0.26693397469E+02  0.59301993276E+02  0.50000089816E+02 0.  0.
        -12    1    1    2    0    0 -0.68458024956E+01  0.16041039386E+02  0.26693397469E+02  0.31886006724E+02  0.00000000000E+00 0.  1.
         11    1    3    3    0    0  0.68360854824E+01 -0.11565258314E+02 -0.71503857327E+01  0.15218911951E+02  0.51100000000E-03 0. -1.
        -11    1    3    3    0    0 -0.16381095678E+02 -0.81481127367E+01  0.23397008892E-01  0.18295698524E+02  0.51100000000E-03 0.  1.
         12    1    3    3    0    0  0.16390812691E+02  0.36723316647E+01 -0.19566408745E+02  0.25787382801E+02  0.00000000000E+00 0. -1.
</event>
<event>
 7    1  0.6830263E-012  0.5930196E+02  0.7816164E-02  0.1266605E+00
        -11   -1    0    0    0    0  0.00000000000E+00  0.00000000000E+00  0.45593999997E+02  0.45594000000E+02  0.51100000000E-03 0. -1.
         11   -1    0    0    0    0 -0.00000000000E+00 -0.00000000000E+00 -0.45593999997E+02  0.45594000000E+02  0.51100000000E-03 0.  1.
    9900012    2    1    2    0    0  0.15150656829E+02 -0.17874751441E+02  0.21625690323E+02  0.59301958800E+02  0.50000026942E+02 0.  0.
        -12    1    1    2    0    0 -0.15150656829E+02  0.17874751441E+02 -0.21625690323E+02  0.31886041200E+02  0.00000000000E+00 0.  1.
         11    1    3    3    0    0  0.58687711362E+01 -0.18887485372E+01 -0.54731050826E+01  0.82440721244E+01  0.51100000000E-03 0. -1.
        -11    1    3    3    0    0  0.78242401980E+01 -0.10504420270E+02 -0.81030616350E+01  0.15401986496E+02  0.51100000000E-03 0.  1.
         12    1    3    3    0    0  0.14576454950E+01 -0.54815826336E+01  0.35201857041E+02  0.35655900180E+02  0.00000000000E+00 0. -1.
</event>
<event>
 7    1  0.6830263E-012  0.5930192E+02  0.7816164E-02  0.1266605E+00
        -11   -1    0    0    0    0  0.00000000000E+00  0.00000000000E+00  0.45593999997E+02  0.45594000000E+02  0.51100000000E-03 0. -1.
         11   -1    0    0    0    0 -0.00000000000E+00 -0.00000000000E+00 -0.45593999997E+02  0.45594000000E+02  0.51100000000E-03 0.  1.
    9900012    2    1    2    0    0 -0.14522504307E+02  0.10480813893E+02  0.26381271558E+02  0.59301920275E+02  0.49999956681E+02 0.  0.
        -12    1    1    2    0    0  0.14522504307E+02 -0.10480813893E+02 -0.26381271558E+02  0.31886079725E+02  0.00000000000E+00 0.  1.
         11    1    3    3    0    0  0.49148430895E+01  0.23623446328E+01 -0.67338190559E+01  0.86649105072E+01  0.51100000000E-03 0. -1.
        -11    1    3    3    0    0  0.87983028012E+01  0.13071733734E+00  0.57353378786E+01  0.10503395644E+02  0.51100000000E-03 0.  1.
        -12    1    3    3    0    0 -0.28235650198E+02  0.79877519232E+01  0.27379752735E+02  0.40133614124E+02  0.00000000000E+00 0.  1.
</event>
<event>
 7    1  0.6830263E-012  0.5930194E+02  0.7816164E-02  0.1266605E+00
        -11   -1    0    0    0    0  0.00000000000E+00  0.00000000000E+00  0.45593999997E+02  0.45594000000E+02  0.51100000000E-03 0.  1.
         11   -1    0    0    0    0 -0.00000000000E+00 -0.00000000000E+00 -0.45593999997E+02  0.45594000000E+02  0.51100000000E-03 0. -1.
    9900012    2    1    2    0    0  0.21010115540E+02 -0.73778858866E+01  0.22822422874E+02  0.59301935003E+02  0.49999983541E+02 0.  0.
        -12    1    1    2    0    0 -0.21010115540E+02  0.73778858866E+01 -0.22822422874E+02  0.31886064997E+02  0.00000000000E+00 0.  1.
         11    1    3    3    0    0  0.54482954641E+01 -0.61214468625E+01 -0.68421283426E+01  0.10675708673E+02  0.51100000000E-03 0. -1.
        -11    1    3    3    0    0 -0.54805177374E+01 -0.12380123520E+02  0.52267154450E+01  0.14512824936E+02  0.51100000000E-03 0.  1.
         12    1    3    3    0    0  0.21042337814E+02  0.11123684496E+02  0.24437835771E+02  0.34113401393E+02  0.00000000000E+00 0. -1.
</event>
<event>
 7    1  0.6830263E-012  0.5930196E+02  0.7816164E-02  0.1266605E+00
        -11   -1    0    0    0    0  0.00000000000E+00  0.00000000000E+00  0.45593999997E+02  0.45594000000E+02  0.51100000000E-03 0.  1.
         11   -1    0    0    0    0 -0.00000000000E+00 -0.00000000000E+00 -0.45593999997E+02  0.45594000000E+02  0.51100000000E-03 0. -1.
    9900012    2    1    2    0    0  0.93001723172E+01 -0.25903243025E+02 -0.16101198884E+02  0.59301955876E+02  0.50000021609E+02 0.  0.
        -12    1    1    2    0    0 -0.93001723172E+01  0.25903243025E+02  0.16101198884E+02  0.31886044124E+02  0.00000000000E+00 0.  1.
         11    1    3    3    0    0  0.96148036843E+01 -0.32177015872E+02 -0.11211914674E+02  0.35404969019E+02  0.51100000000E-03 0.  1.
        -11    1    3    3    0    0 -0.42791880655E+01 -0.22325100481E+01 -0.11463798993E+02  0.12438417875E+02  0.51100000000E-03 0. -1.
        -12    1    3    3    0    0  0.39645566983E+01  0.85062828948E+01  0.65745147831E+01  0.11458568983E+02  0.00000000000E+00 0.  1.
</event>
<event>
 7    1  0.6830263E-012  0.5930189E+02  0.7816164E-02  0.1266605E+00
        -11   -1    0    0    0    0  0.00000000000E+00  0.00000000000E+00  0.45593999997E+02  0.45594000000E+02  0.51100000000E-03 0.  1.
         11   -1    0    0    0    0 -0.00000000000E+00 -0.00000000000E+00 -0.45593999997E+02  0.45594000000E+02  0.51100000000E-03 0. -1.
    9900012    2    1    2    0    0 -0.23288991158E+02 -0.21476374035E+02  0.36210690419E+01  0.59301891867E+02  0.49999904871E+02 0.  0.
        -12    1    1    2    0    0  0.23288991158E+02  0.21476374035E+02 -0.36210690419E+01  0.31886108133E+02  0.00000000000E+00 0.  1.
         11    1    3    3    0    0 -0.21582631165E+02 -0.11518414400E+02  0.34273357906E+00  0.24466330024E+02  0.51100000000E-03 0. -1.
        -11    1    3    3    0    0 -0.16917043778E+02 -0.76459072246E+01  0.53283674615E+01  0.19314185656E+02  0.51100000000E-03 0.  1.
        -12    1    3    3    0    0  0.15210683784E+02 -0.23120524101E+01 -0.20500319987E+01  0.15521376187E+02  0.00000000000E+00 0.  1.
</event>
<event>
 7    1  0.6830263E-012  0.5930195E+02  0.7816164E-02  0.1266605E+00
        -11   -1    0    0    0    0  0.00000000000E+00  0.00000000000E+00  0.45593999997E+02  0.45594000000E+02  0.51100000000E-03 0.  1.
         11   -1    0    0    0    0 -0.00000000000E+00 -0.00000000000E+00 -0.45593999997E+02  0.45594000000E+02  0.51100000000E-03 0. -1.
    9900012    2    1    2    0    0  0.10083790261E+02  0.58255206047E+01 -0.29683339032E+02  0.59301950818E+02  0.50000012383E+02 0.  0.
        -12    1    1    2    0    0 -0.10083790261E+02 -0.58255206047E+01  0.29683339032E+02  0.31886049182E+02  0.00000000000E+00 0.  1.
         11    1    3    3    0    0  0.32886573147E+01  0.19347354265E+01 -0.37740934639E+01  0.53667727583E+01  0.51100000000E-03 0. -1.
        -11    1    3    3    0    0  0.17586939791E+02  0.58698086039E+01 -0.35051943782E+02  0.39653421888E+02  0.51100000000E-03 0.  1.
         12    1    3    3    0    0 -0.10791806845E+02 -0.19790234257E+01  0.91426982138E+01  0.14281756171E+02  0.00000000000E+00 0. -1.
</event>
<event>
 7    1  0.6830263E-012  0.5930193E+02  0.7816164E-02  0.1266605E+00
        -11   -1    0    0    0    0  0.00000000000E+00  0.00000000000E+00  0.45593999997E+02  0.45594000000E+02  0.51100000000E-03 0. -1.
         11   -1    0    0    0    0 -0.00000000000E+00 -0.00000000000E+00 -0.45593999997E+02  0.45594000000E+02  0.51100000000E-03 0.  1.
    9900012    2    1    2    0    0  0.84656260855E+00 -0.30377754819E+02 -0.96538340848E+01  0.59301934570E+02  0.49999982751E+02 0.  0.
        -12    1    1    2    0    0 -0.84656260855E+00  0.30377754819E+02  0.96538340848E+01  0.31886065430E+02  0.00000000000E+00 0.  1.
         11    1    3    3    0    0 -0.55812265114E+00 -0.11868935652E+02 -0.32045120870E+01  0.12306584920E+02  0.51100000000E-03 0. -1.
        -11    1    3    3    0    0 -0.15528049493E+02 -0.24137141116E+02 -0.43590324208E+01  0.29029692838E+02  0.51100000000E-03 0.  1.
         12    1    3    3    0    0  0.16932734753E+02  0.56283219502E+01 -0.20902895770E+01  0.17965656813E+02  0.00000000000E+00 0. -1.
</event>
<event>
 7    1  0.6830263E-012  0.5930196E+02  0.7816164E-02  0.1266605E+00
        -11   -1    0    0    0    0  0.00000000000E+00  0.00000000000E+00  0.45593999997E+02  0.45594000000E+02  0.51100000000E-03 0.  1.
         11   -1    0    0    0    0 -0.00000000000E+00 -0.00000000000E+00 -0.45593999997E+02  0.45594000000E+02  0.51100000000E-03 0. -1.
    9900012    2    1    2    0    0  0.27253604830E+02 -0.15900788738E+02 -0.45962471164E+01  0.59301960009E+02  0.50000029147E+02 0.  0.
        -12    1    1    2    0    0 -0.27253604830E+02  0.15900788738E+02  0.45962471164E+01  0.31886039991E+02  0.00000000000E+00 0.  1.
         11    1    3    3    0    0  0.10040537554E+02  0.38106123610E+01  0.51813012498E+01  0.11923885434E+02  0.51100000000E-03 0. -1.
        -11    1    3    3    0    0  0.80607681786E+01 -0.11326428623E+02  0.14514723030E+02  0.20098287337E+02  0.51100000000E-03 0.  1.
        -12    1    3    3    0    0  0.91522990970E+01 -0.83849724763E+01 -0.24292271396E+02  0.27279787238E+02  0.00000000000E+00 0.  1.
</event>
<event>
 7    1  0.6830263E-012  0.5930194E+02  0.7816164E-02  0.1266605E+00
        -11   -1    0    0    0    0  0.00000000000E+00  0.00000000000E+00  0.45593999997E+02  0.45594000000E+02  0.51100000000E-03 0.  1.
         11   -1    0    0    0    0 -0.00000000000E+00 -0.00000000000E+00 -0.45593999997E+02  0.45594000000E+02  0.51100000000E-03 0. -1.
    9900012    2    1    2    0    0  0.20551701647E+02  0.41619595154E+01 -0.24021374731E+02  0.59301940482E+02  0.49999993534E+02 0.  0.
        -12    1    1    2    0    0 -0.20551701647E+02 -0.41619595154E+01  0.24021374731E+02  0.31886059518E+02  0.00000000000E+00 0.  1.
         11    1    3    3    0    0  0.31078947611E+01  0.12997021449E+02  0.38260604357E+01  0.13900371042E+02  0.51100000000E-03 0. -1.
        -11    1    3    3    0    0  0.21957355532E+02 -0.12666533996E+01 -0.75160704339E+01  0.23242658794E+02  0.51100000000E-03 0.  1.
         12    1    3    3    0    0 -0.45135486461E+01 -0.75684085340E+01 -0.20331364733E+02  0.22158910646E+02  0.00000000000E+00 0. -1.
</event>
<event>
 7    1  0.6830263E-012  0.5930193E+02  0.7816164E-02  0.1266605E+00
        -11   -1    0    0    0    0  0.00000000000E+00  0.00000000000E+00  0.45593999997E+02  0.45594000000E+02  0.51100000000E-03 0.  1.
         11   -1    0    0    0    0 -0.00000000000E+00 -0.00000000000E+00 -0.45593999997E+02  0.45594000000E+02  0.51100000000E-03 0. -1.
    9900012    2    1    2    0    0 -0.14637788861E+02 -0.21780840893E+02 -0.18112201349E+02  0.59301925760E+02  0.49999966684E+02 0.  0.
        -12    1    1    2    0    0  0.14637788861E+02  0.21780840893E+02  0.18112201349E+02  0.31886074240E+02  0.00000000000E+00 0.  1.
         11    1    3    3    0    0 -0.60869663426E+01  0.29446544417E+01 -0.12218148473E+02  0.13964429864E+02  0.51100000000E-03 0. -1.
        -11    1    3    3    0    0 -0.15498438553E+02 -0.50446500364E+01 -0.15381898255E+02  0.22410999213E+02  0.51100000000E-03 0.  1.
        -12    1    3    3    0    0  0.69476160344E+01 -0.19680845298E+02  0.94878453791E+01  0.22926496683E+02  0.00000000000E+00 0.  1.
</event>
<event>
 7    1  0.6830263E-012  0.5930195E+02  0.7816164E-02  0.1266605E+00
        -11   -1    0    0    0    0  0.00000000000E+00  0.00000000000E+00  0.45593999997E+02  0.45594000000E+02  0.51100000000E-03 0. -1.
         11   -1    0    0    0    0 -0.00000000000E+00 -0.00000000000E+00 -0.45593999997E+02  0.45594000000E+02  0.51100000000E-03 0.  1.
    9900012    2    1    2    0    0  0.19631835196E+02  0.25125761950E+02  0.87116149128E-01  0.59301945745E+02  0.50000003132E+02 0.  0.
        -12    1    1    2    0    0 -0.19631835196E+02 -0.25125761950E+02 -0.87116149128E-01  0.31886054255E+02  0.00000000000E+00 0.  1.
         11    1    3    3    0    0  0.22767915650E+01 -0.41984913385E+01  0.17345107472E+00  0.47792462676E+01  0.51100000000E-03 0.  1.
        -11    1    3    3    0    0 -0.61559633145E+01  0.15279220498E+02  0.15830708654E+02  0.22846483320E+02  0.51100000000E-03 0. -1.
        -12    1    3    3    0    0  0.23511006946E+02  0.14045032791E+02 -0.15917043580E+02  0.31676216157E+02  0.00000000000E+00 0.  1.
</event>
<event>
 7    1  0.6830263E-012  0.5930195E+02  0.7816164E-02  0.1266605E+00
        -11   -1    0    0    0    0  0.00000000000E+00  0.00000000000E+00  0.45593999997E+02  0.45594000000E+02  0.51100000000E-03 0.  1.
         11   -1    0    0    0    0 -0.00000000000E+00 -0.00000000000E+00 -0.45593999997E+02  0.45594000000E+02  0.51100000000E-03 0. -1.
    9900012    2    1    2    0    0  0.22432987678E+01 -0.28453673147E+02  0.14215355332E+02  0.59301949254E+02  0.50000009532E+02 0.  0.
        -12    1    1    2    0    0 -0.22432987678E+01  0.28453673147E+02 -0.14215355332E+02  0.31886050746E+02  0.00000000000E+00 0.  1.
         11    1    3    3    0    0  0.23787012774E+01 -0.14104806192E+02 -0.33350880545E+01  0.14687633917E+02  0.51100000000E-03 0. -1.
        -11    1    3    3    0    0  0.12875729356E+01  0.25382219705E+01 -0.11027773981E+02  0.11389127011E+02  0.51100000000E-03 0.  1.
        -12    1    3    3    0    0 -0.14229754452E+01 -0.16887088926E+02  0.28578217367E+02  0.33225188327E+02  0.00000000000E+00 0.  1.
</event>
<event>
 7    1  0.6830263E-012  0.5930195E+02  0.7816164E-02  0.1266605E+00
        -11   -1    0    0    0    0  0.00000000000E+00  0.00000000000E+00  0.45593999997E+02  0.45594000000E+02  0.51100000000E-03 0. -1.
         11   -1    0    0    0    0 -0.00000000000E+00 -0.00000000000E+00 -0.45593999997E+02  0.45594000000E+02  0.51100000000E-03 0.  1.
    9900012    2    1    2    0    0 -0.77617269555E+01  0.22913792900E+02  0.20770989759E+02  0.59301947784E+02  0.50000006850E+02 0.  0.
        -12    1    1    2    0    0  0.77617269555E+01 -0.22913792900E+02 -0.20770989759E+02  0.31886052216E+02  0.00000000000E+00 0.  1.
         11    1    3    3    0    0 -0.25556390579E+01  0.69839863549E+01  0.13956417933E+02  0.15814201155E+02  0.51100000000E-03 0. -1.
        -11    1    3    3    0    0 -0.15790246390E+02  0.13328237821E+02  0.18337512302E+02  0.27626765322E+02  0.51100000000E-03 0.  1.
        -12    1    3    3    0    0  0.10584158492E+02  0.26015687236E+01 -0.11522940476E+02  0.15860981307E+02  0.00000000000E+00 0.  1.
</event>
<event>
 7    1  0.6830263E-012  0.5930196E+02  0.7816164E-02  0.1266605E+00
        -11   -1    0    0    0    0  0.00000000000E+00  0.00000000000E+00  0.45593999997E+02  0.45594000000E+02  0.51100000000E-03 0.  1.
         11   -1    0    0    0    0 -0.00000000000E+00 -0.00000000000E+00 -0.45593999997E+02  0.45594000000E+02  0.51100000000E-03 0. -1.
    9900012    2    1    2    0    0  0.19566210416E+02 -0.23613244780E+02 -0.87348567299E+01  0.59301958521E+02  0.50000026433E+02 0.  0.
        -12    1    1    2    0    0 -0.19566210416E+02  0.23613244780E+02  0.87348567299E+01  0.31886041479E+02  0.00000000000E+00 0.  1.
         11    1    3    3    0    0 -0.19184589564E+01 -0.14289581419E+02  0.80747084245E+01  0.16524936863E+02  0.51100000000E-03 0. -1.
        -11    1    3    3    0    0 -0.24172523891E+01 -0.64282568416E+01  0.63617804901E+01  0.93615087672E+01  0.51100000000E-03 0.  1.
         12    1    3    3    0    0  0.23901921762E+02 -0.28954065190E+01 -0.23171345645E+02  0.33415512891E+02  0.00000000000E+00 0. -1.
</event>
<event>
 7    1  0.6830263E-012  0.5930181E+02  0.7816164E-02  0.1266605E+00
        -11   -1    0    0    0    0  0.00000000000E+00  0.00000000000E+00  0.45593999997E+02  0.45594000000E+02  0.51100000000E-03 0.  1.
         11   -1    0    0    0    0 -0.00000000000E+00 -0.00000000000E+00 -0.45593999997E+02  0.45594000000E+02  0.51100000000E-03 0. -1.
    9900012    2    1    2    0    0 -0.17513974777E+02  0.16666715405E+02 -0.20789669937E+02  0.59301810341E+02  0.49999756187E+02 0.  0.
        -12    1    1    2    0    0  0.17513974777E+02 -0.16666715405E+02  0.20789669937E+02  0.31886189659E+02  0.00000000000E+00 0.  1.
         11    1    3    3    0    0 -0.10607706216E+02 -0.40818883043E+01 -0.12056683824E+02  0.16569516238E+02  0.51100000000E-03 0. -1.
        -11    1    3    3    0    0 -0.14556625193E+02  0.44653747099E+01 -0.17095350711E+02  0.22892923022E+02  0.51100000000E-03 0.  1.
        -12    1    3    3    0    0  0.76503566314E+01  0.16283228999E+02  0.83623645971E+01  0.19839371081E+02  0.00000000000E+00 0.  1.
</event>
<event>
 7    1  0.6830263E-012  0.5930191E+02  0.7816164E-02  0.1266605E+00
        -11   -1    0    0    0    0  0.00000000000E+00  0.00000000000E+00  0.45593999997E+02  0.45594000000E+02  0.51100000000E-03 0. -1.
         11   -1    0    0    0    0 -0.00000000000E+00 -0.00000000000E+00 -0.45593999997E+02  0.45594000000E+02  0.51100000000E-03 0.  1.
    9900012    2    1    2    0    0 -0.19571997731E+02  0.22795094435E+02  0.10679094656E+02  0.59301913879E+02  0.49999945015E+02 0.  0.
        -12    1    1    2    0    0  0.19571997731E+02 -0.22795094435E+02 -0.10679094656E+02  0.31886086121E+02  0.00000000000E+00 0.  1.
         11    1    3    3    0    0 -0.16142163948E+02  0.14028320900E+02  0.15502340055E+02  0.26413742477E+02  0.51100000000E-03 0. -1.
        -11    1    3    3    0    0 -0.84836393046E+01 -0.99642791382E+01 -0.27934646318E+01  0.13381421431E+02  0.51100000000E-03 0.  1.
         12    1    3    3    0    0  0.50538055216E+01  0.18731052672E+02 -0.20297807667E+01  0.19506749971E+02  0.00000000000E+00 0. -1.
</event>
<event>
 7    1  0.6830263E-012  0.5930196E+02  0.7816164E-02  0.1266605E+00
        -11   -1    0    0    0    0  0.00000000000E+00  0.00000000000E+00  0.45593999997E+02  0.45594000000E+02  0.51100000000E-03 0.  1.
         11   -1    0    0    0    0 -0.00000000000E+00 -0.00000000000E+00 -0.45593999997E+02  0.45594000000E+02  0.51100000000E-03 0. -1.
    9900012    2    1    2    0    0 -0.16294298715E+02  0.11603148929E+02 -0.24831076899E+02  0.59301958921E+02  0.50000027162E+02 0.  0.
        -12    1    1    2    0    0  0.16294298715E+02 -0.11603148929E+02  0.24831076899E+02  0.31886041079E+02  0.00000000000E+00 0.  1.
         11    1    3    3    0    0 -0.26253434628E+02 -0.92508868617E+01 -0.20730401029E+02  0.34706933955E+02  0.51100000000E-03 0.  1.
        -11    1    3    3    0    0  0.64412281382E+01  0.83414857978E+01 -0.47956626179E+01  0.11578781691E+02  0.51100000000E-03 0. -1.
        -12    1    3    3    0    0  0.35179077741E+01  0.12512549993E+02  0.69498674744E+00  0.13016243275E+02  0.00000000000E+00 0.  1.
</event>
<event>
 7    1  0.6830263E-012  0.5930194E+02  0.7816164E-02  0.1266605E+00
        -11   -1    0    0    0    0  0.00000000000E+00  0.00000000000E+00  0.45593999997E+02  0.45594000000E+02  0.51100000000E-03 0.  1.
         11   -1    0    0    0    0 -0.00000000000E+00 -0.00000000000E+00 -0.45593999997E+02  0.45594000000E+02  0.51100000000E-03 0. -1.
    9900012    2    1    2    0    0 -0.11497593190E+02  0.26020420674E+02 -0.14403616925E+02  0.59301935305E+02  0.49999984091E+02 0.  0.
        -12    1    1    2    0    0  0.11497593190E+02 -0.26020420674E+02  0.14403616925E+02  0.31886064695E+02  0.00000000000E+00 0.  1.
         11    1    3    3    0    0  0.46800071216E+01 -0.54542439981E+01  0.39242043783E+01  0.81884445722E+01  0.51100000000E-03 0. -1.
        -11    1    3    3    0    0 -0.11608604872E+02  0.74410318948E+01  0.73684847704E+01  0.15634040770E+02  0.51100000000E-03 0.  1.
         12    1    3    3    0    0 -0.45689954402E+01  0.24033632778E+02 -0.25696306073E+02  0.35479449963E+02  0.00000000000E+00 0. -1.
</event>
<event>
 7    1  0.6830263E-012  0.5930194E+02  0.7816164E-02  0.1266605E+00
        -11   -1    0    0    0    0  0.00000000000E+00  0.00000000000E+00  0.45593999997E+02  0.45594000000E+02  0.51100000000E-03 0.  1.
         11   -1    0    0    0    0 -0.00000000000E+00 -0.00000000000E+00 -0.45593999997E+02  0.45594000000E+02  0.51100000000E-03 0. -1.
    9900012    2    1    2    0    0 -0.16685499066E+01  0.16044028074E+01 -0.31801928894E+02  0.59301939589E+02  0.49999991905E+02 0.  0.
        -12    1    1    2    0    0  0.16685499066E+01 -0.16044028074E+01  0.31801928894E+02  0.31886060411E+02  0.00000000000E+00 0.  1.
         11    1    3    3    0    0 -0.58789212891E+01 -0.80406820994E+01 -0.13418763964E+02  0.16711598090E+02  0.51100000000E-03 0. -1.
        -11    1    3    3    0    0 -0.18193185901E+01  0.27508735685E+01 -0.28645790461E+02  0.28835022748E+02  0.51100000000E-03 0.  1.
        -12    1    3    3    0    0  0.60296899726E+01  0.68942113384E+01  0.10262625531E+02  0.13755318750E+02  0.00000000000E+00 0.  1.
</event>
<event>
 7    1  0.6830263E-012  0.5930195E+02  0.7816164E-02  0.1266605E+00
        -11   -1    0    0    0    0  0.00000000000E+00  0.00000000000E+00  0.45593999997E+02  0.45594000000E+02  0.51100000000E-03 0. -1.
         11   -1    0    0    0    0 -0.00000000000E+00 -0.00000000000E+00 -0.45593999997E+02  0.45594000000E+02  0.51100000000E-03 0.  1.
    9900012    2    1    2    0    0  0.31832200896E+02 -0.12875855480E+01  0.13317389590E+01  0.59301946324E+02  0.50000004187E+02 0.  0.
        -12    1    1    2    0    0 -0.31832200896E+02  0.12875855480E+01 -0.13317389590E+01  0.31886053676E+02  0.00000000000E+00 0.  1.
         11    1    3    3    0    0 -0.82153193391E+01 -0.88880786710E+01  0.21555194477E+01  0.12293725174E+02  0.51100000000E-03 0. -1.
        -11    1    3    3    0    0  0.53471219210E+01  0.53050401540E+01 -0.85390594821E+01  0.11386426172E+02  0.51100000000E-03 0.  1.
         12    1    3    3    0    0  0.34700398314E+02  0.22954529689E+01  0.77152789933E+01  0.35621794977E+02  0.00000000000E+00 0. -1.
</event>
<event>
 7    1  0.6830263E-012  0.5930196E+02  0.7816164E-02  0.1266605E+00
        -11   -1    0    0    0    0  0.00000000000E+00  0.00000000000E+00  0.45593999997E+02  0.45594000000E+02  0.51100000000E-03 0.  1.
         11   -1    0    0    0    0 -0.00000000000E+00 -0.00000000000E+00 -0.45593999997E+02  0.45594000000E+02  0.51100000000E-03 0. -1.
    9900012    2    1    2    0    0  0.73726680083E+01 -0.19997001087E+02 -0.23716731379E+02  0.59301958645E+02  0.50000026658E+02 0.  0.
        -12    1    1    2    0    0 -0.73726680083E+01  0.19997001087E+02  0.23716731379E+02  0.31886041355E+02  0.00000000000E+00 0.  1.
         11    1    3    3    0    0 -0.12492947268E+01  0.23013789162E+01  0.31909287797E+01  0.41278455601E+01  0.51100000000E-03 0. -1.
        -11    1    3    3    0    0  0.74229999912E+01 -0.26951660658E+01  0.10372740137E+02  0.13036816606E+02  0.51100000000E-03 0.  1.
         12    1    3    3    0    0  0.11989627439E+01 -0.19603213937E+02 -0.37280400296E+02  0.42137296479E+02  0.00000000000E+00 0. -1.
</event>
<event>
 7    1  0.6830263E-012  0.5930192E+02  0.7816164E-02  0.1266605E+00
        -11   -1    0    0    0    0  0.00000000000E+00  0.00000000000E+00  0.45593999997E+02  0.45594000000E+02  0.51100000000E-03 0. -1.
         11   -1    0    0    0    0 -0.00000000000E+00 -0.00000000000E+00 -0.45593999997E+02  0.45594000000E+02  0.51100000000E-03 0.  1.
    9900012    2    1    2    0    0  0.77727756396E+01  0.24398552541E+02  0.19000434957E+02  0.59301922540E+02  0.49999960811E+02 0.  0.
        -12    1    1    2    0    0 -0.77727756396E+01 -0.24398552541E+02 -0.19000434957E+02  0.31886077460E+02  0.00000000000E+00 0.  1.
         11    1    3    3    0    0 -0.67330022484E+01 -0.72933557886E+01 -0.42994085687E+01  0.10817174873E+02  0.51100000000E-03 0. -1.
        -11    1    3    3    0    0  0.13436009175E+02  0.29498626075E+01  0.73610622967E+01  0.15601707290E+02  0.51100000000E-03 0.  1.
         12    1    3    3    0    0  0.10697687129E+01  0.28742045722E+02  0.15938781229E+02  0.32883040377E+02  0.00000000000E+00 0. -1.
</event>
<event>
 7    1  0.6830263E-012  0.5930194E+02  0.7816164E-02  0.1266605E+00
        -11   -1    0    0    0    0  0.00000000000E+00  0.00000000000E+00  0.45593999997E+02  0.45594000000E+02  0.51100000000E-03 0. -1.
         11   -1    0    0    0    0 -0.00000000000E+00 -0.00000000000E+00 -0.45593999997E+02  0.45594000000E+02  0.51100000000E-03 0.  1.
    9900012    2    1    2    0    0 -0.16071656308E+01 -0.24230138361E+02  0.20664907590E+02  0.59301937338E+02  0.49999987800E+02 0.  0.
        -12    1    1    2    0    0  0.16071656308E+01  0.24230138361E+02 -0.20664907590E+02  0.31886062662E+02  0.00000000000E+00 0.  1.
         11    1    3    3    0    0 -0.19620589883E+01 -0.28044258221E+01 -0.47314309333E+01  0.58395991817E+01  0.51100000000E-03 0. -1.
        -11    1    3    3    0    0  0.12684071031E+02 -0.16743388075E+01 -0.61971879145E+01  0.14215984196E+02  0.51100000000E-03 0.  1.
         12    1    3    3    0    0 -0.12329177673E+02 -0.19751373731E+02  0.31593526438E+02  0.39246353960E+02  0.00000000000E+00 0. -1.
</event>
<event>
 7    1  0.6830263E-012  0.5930189E+02  0.7816164E-02  0.1266605E+00
        -11   -1    0    0    0    0  0.00000000000E+00  0.00000000000E+00  0.45593999997E+02  0.45594000000E+02  0.51100000000E-03 0.  1.
         11   -1    0    0    0    0 -0.00000000000E+00 -0.00000000000E+00 -0.45593999997E+02  0.45594000000E+02  0.51100000000E-03 0. -1.
    9900012    2    1    2    0    0 -0.10331746029E+02  0.26914706438E+02 -0.13622695044E+02  0.59301886738E+02  0.49999895518E+02 0.  0.
        -12    1    1    2    0    0  0.10331746029E+02 -0.26914706438E+02  0.13622695044E+02  0.31886113262E+02  0.00000000000E+00 0.  1.
         11    1    3    3    0    0 -0.10790381624E+02  0.99320742942E+01 -0.13506053797E+02  0.19937199523E+02  0.51100000000E-03 0. -1.
        -11    1    3    3    0    0 -0.42240794898E+01  0.27315454453E+02 -0.25657054219E+01  0.27758957907E+02  0.51100000000E-03 0.  1.
        -12    1    3    3    0    0  0.46827150848E+01 -0.10332822309E+02  0.24490641753E+01  0.11605729308E+02  0.00000000000E+00 0.  1.
</event>
<event>
 7    1  0.6830263E-012  0.5930195E+02  0.7816164E-02  0.1266605E+00
        -11   -1    0    0    0    0  0.00000000000E+00  0.00000000000E+00  0.45593999997E+02  0.45594000000E+02  0.51100000000E-03 0. -1.
         11   -1    0    0    0    0 -0.00000000000E+00 -0.00000000000E+00 -0.45593999997E+02  0.45594000000E+02  0.51100000000E-03 0.  1.
    9900012    2    1    2    0    0 -0.26521643873E+02  0.11765999777E+02  0.13224377348E+02  0.59301945043E+02  0.50000001851E+02 0.  0.
        -12    1    1    2    0    0  0.26521643873E+02 -0.11765999777E+02 -0.13224377348E+02  0.31886054957E+02  0.00000000000E+00 0.  1.
         11    1    3    3    0    0 -0.29752747584E+02  0.36694466474E+01 -0.51382687014E+01  0.30415335490E+02  0.51100000000E-03 0. -1.
        -11    1    3    3    0    0 -0.37991436878E+01  0.39259564115E+00  0.18052865775E+02  0.18452468319E+02  0.51100000000E-03 0.  1.
        -12    1    3    3    0    0  0.70302473985E+01  0.77039574881E+01  0.30978027439E+00  0.10434141234E+02  0.00000000000E+00 0.  1.
</event>
<event>
 7    1  0.6830263E-012  0.5930187E+02  0.7816164E-02  0.1266605E+00
        -11   -1    0    0    0    0  0.00000000000E+00  0.00000000000E+00  0.45593999997E+02  0.45594000000E+02  0.51100000000E-03 0.  1.
         11   -1    0    0    0    0 -0.00000000000E+00 -0.00000000000E+00 -0.45593999997E+02  0.45594000000E+02  0.51100000000E-03 0. -1.
    9900012    2    1    2    0    0 -0.27221907425E+02  0.16470886398E+02 -0.20983683602E+01  0.59301866770E+02  0.49999859100E+02 0.  0.
        -12    1    1    2    0    0  0.27221907425E+02 -0.16470886398E+02  0.20983683602E+01  0.31886133230E+02  0.00000000000E+00 0.  1.
         11    1    3    3    0    0 -0.35097922641E+02  0.45482646679E+01 -0.77463523522E+01  0.36229226603E+02  0.51100000000E-03 0. -1.
        -11    1    3    3    0    0 -0.15585737343E+01  0.11482926666E+02 -0.83287288483E+00  0.11618108039E+02  0.51100000000E-03 0.  1.
        -12    1    3    3    0    0  0.94345889505E+01  0.43969506461E+00  0.64808568768E+01  0.11454532128E+02  0.00000000000E+00 0.  1.
</event>
<event>
 7    1  0.6830263E-012  0.5930198E+02  0.7816164E-02  0.1266605E+00
        -11   -1    0    0    0    0  0.00000000000E+00  0.00000000000E+00  0.45593999997E+02  0.45594000000E+02  0.51100000000E-03 0.  1.
         11   -1    0    0    0    0 -0.00000000000E+00 -0.00000000000E+00 -0.45593999997E+02  0.45594000000E+02  0.51100000000E-03 0. -1.
    9900012    2    1    2    0    0 -0.21167440587E+02  0.11624160166E+02 -0.20821547532E+02  0.59301976695E+02  0.50000059578E+02 0.  0.
        -12    1    1    2    0    0  0.21167440587E+02 -0.11624160166E+02  0.20821547532E+02  0.31886023305E+02  0.00000000000E+00 0.  1.
         11    1    3    3    0    0 -0.10603406545E+02  0.68744754667E+01  0.45376165020E+01  0.13426861401E+02  0.51100000000E-03 0.  1.
        -11    1    3    3    0    0 -0.28841434661E+01  0.47008778102E+01 -0.33925064629E+02  0.34370431276E+02  0.51100000000E-03 0. -1.
         12    1    3    3    0    0 -0.76798905758E+01  0.48806888927E-01  0.85659005949E+01  0.11504684019E+02  0.00000000000E+00 0. -1.
</event>
<event>
 7    1  0.6830263E-012  0.5930189E+02  0.7816164E-02  0.1266605E+00
        -11   -1    0    0    0    0  0.00000000000E+00  0.00000000000E+00  0.45593999997E+02  0.45594000000E+02  0.51100000000E-03 0.  1.
         11   -1    0    0    0    0 -0.00000000000E+00 -0.00000000000E+00 -0.45593999997E+02  0.45594000000E+02  0.51100000000E-03 0. -1.
    9900012    2    1    2    0    0 -0.15337661637E+02  0.14695671434E+02  0.23780607517E+02  0.59301891469E+02  0.49999904145E+02 0.  0.
        -12    1    1    2    0    0  0.15337661637E+02 -0.14695671434E+02 -0.23780607517E+02  0.31886108531E+02  0.00000000000E+00 0.  1.
         11    1    3    3    0    0 -0.13241504635E+02 -0.33573306550E+01 -0.36294517978E+01  0.14134427287E+02  0.51100000000E-03 0. -1.
        -11    1    3    3    0    0 -0.12638362583E+02  0.56436146693E+01  0.25178880595E+02  0.28732466368E+02  0.51100000000E-03 0.  1.
        -12    1    3    3    0    0  0.10542205581E+02  0.12409387419E+02  0.22311787198E+01  0.16434997813E+02  0.00000000000E+00 0.  1.
</event>
<event>
 7    1  0.6830263E-012  0.5930208E+02  0.7816164E-02  0.1266604E+00
        -11   -1    0    0    0    0  0.00000000000E+00  0.00000000000E+00  0.45593999997E+02  0.45594000000E+02  0.51100000000E-03 0.  1.
         11   -1    0    0    0    0 -0.00000000000E+00 -0.00000000000E+00 -0.45593999997E+02  0.45594000000E+02  0.51100000000E-03 0. -1.
    9900012    2    1    2    0    0 -0.10324611520E+02 -0.19411332678E+02 -0.23093608323E+02  0.59302075444E+02  0.50000239671E+02 0.  0.
        -12    1    1    2    0    0  0.10324611520E+02  0.19411332678E+02  0.23093608323E+02  0.31885924556E+02  0.00000000000E+00 0.  1.
         11    1    3    3    0    0 -0.16103531957E+01 -0.18163734229E+02 -0.12087905240E+02  0.21877658282E+02  0.51100000000E-03 0. -1.
        -11    1    3    3    0    0 -0.15381619639E+02 -0.14186748536E+02 -0.41406179877E+01  0.21330794039E+02  0.51100000000E-03 0.  1.
         12    1    3    3    0    0  0.66673613148E+01  0.12939150087E+02 -0.68650850958E+01  0.16093623123E+02  0.00000000000E+00 0. -1.
</event>
<event>
 7    1  0.6830263E-012  0.5930195E+02  0.7816164E-02  0.1266605E+00
        -11   -1    0    0    0    0  0.00000000000E+00  0.00000000000E+00  0.45593999997E+02  0.45594000000E+02  0.51100000000E-03 0. -1.
         11   -1    0    0    0    0 -0.00000000000E+00 -0.00000000000E+00 -0.45593999997E+02  0.45594000000E+02  0.51100000000E-03 0.  1.
    9900012    2    1    2    0    0  0.12162616367E+02  0.69121037782E+01  0.28653333327E+02  0.59301954051E+02  0.50000018280E+02 0.  0.
        -12    1    1    2    0    0 -0.12162616367E+02 -0.69121037782E+01 -0.28653333327E+02  0.31886045949E+02  0.00000000000E+00 0.  1.
         11    1    3    3    0    0  0.31590660111E+01 -0.77300847216E+01 -0.38221119047E+01  0.91838144330E+01  0.51100000000E-03 0. -1.
        -11    1    3    3    0    0 -0.42002947710E+01 -0.28875543896E+01 -0.47096623576E+01  0.69398390687E+01  0.51100000000E-03 0.  1.
         12    1    3    3    0    0  0.13203845127E+02  0.17529742889E+02  0.37185107589E+02  0.43178300549E+02  0.00000000000E+00 0. -1.
</event>
<event>
 7    1  0.6830263E-012  0.5930194E+02  0.7816164E-02  0.1266605E+00
        -11   -1    0    0    0    0  0.00000000000E+00  0.00000000000E+00  0.45593999997E+02  0.45594000000E+02  0.51100000000E-03 0. -1.
         11   -1    0    0    0    0 -0.00000000000E+00 -0.00000000000E+00 -0.45593999997E+02  0.45594000000E+02  0.51100000000E-03 0.  1.
    9900012    2    1    2    0    0  0.42263842859E+01  0.59026691332E+01  0.31048627027E+02  0.59301936158E+02  0.49999985648E+02 0.  0.
        -12    1    1    2    0    0 -0.42263842859E+01 -0.59026691332E+01 -0.31048627027E+02  0.31886063842E+02  0.00000000000E+00 0.  1.
         11    1    3    3    0    0 -0.11808632552E+02 -0.16849383808E+01  0.16866295822E+02  0.20658043352E+02  0.51100000000E-03 0. -1.
        -11    1    3    3    0    0  0.16446778238E+01 -0.11674076063E+02  0.32335211726E+01  0.12224756706E+02  0.51100000000E-03 0.  1.
         12    1    3    3    0    0  0.14390339014E+02  0.19261683577E+02  0.10948810033E+02  0.26419136101E+02  0.00000000000E+00 0. -1.
</event>
<event>
 7    1  0.6830263E-012  0.5930191E+02  0.7816164E-02  0.1266605E+00
        -11   -1    0    0    0    0  0.00000000000E+00  0.00000000000E+00  0.45593999997E+02  0.45594000000E+02  0.51100000000E-03 0.  1.
         11   -1    0    0    0    0 -0.00000000000E+00 -0.00000000000E+00 -0.45593999997E+02  0.45594000000E+02  0.51100000000E-03 0. -1.
    9900012    2    1    2    0    0 -0.21462886371E+01 -0.57448376079E+01 -0.31290784774E+02  0.59301907015E+02  0.49999932498E+02 0.  0.
        -12    1    1    2    0    0  0.21462886371E+01  0.57448376079E+01  0.31290784774E+02  0.31886092985E+02  0.00000000000E+00 0.  1.
         11    1    3    3    0    0  0.23246185731E+00  0.10522522992E+02 -0.24263787233E+02  0.26448230561E+02  0.51100000000E-03 0. -1.
        -11    1    3    3    0    0  0.18242812685E+01  0.85493289462E+00  0.88812363993E+01  0.91068805110E+01  0.51100000000E-03 0.  1.
        -12    1    3    3    0    0 -0.42030317629E+01 -0.17122293494E+02 -0.15908233940E+02  0.23746795944E+02  0.00000000000E+00 0.  1.
</event>
<event>
 7    1  0.6830263E-012  0.5930194E+02  0.7816164E-02  0.1266605E+00
        -11   -1    0    0    0    0  0.00000000000E+00  0.00000000000E+00  0.45593999997E+02  0.45594000000E+02  0.51100000000E-03 0.  1.
         11   -1    0    0    0    0 -0.00000000000E+00 -0.00000000000E+00 -0.45593999997E+02  0.45594000000E+02  0.51100000000E-03 0. -1.
    9900012    2    1    2    0    0 -0.25321858529E+00 -0.16420901151E+02 -0.27331491536E+02  0.59301944367E+02  0.50000000619E+02 0.  0.
        -12    1    1    2    0    0  0.25321858529E+00  0.16420901151E+02  0.27331491536E+02  0.31886055633E+02  0.00000000000E+00 0.  1.
         11    1    3    3    0    0  0.97196394939E+01 -0.10437879047E+02 -0.26945922825E+01  0.14514873018E+02  0.51100000000E-03 0. -1.
        -11    1    3    3    0    0  0.12751938324E+00 -0.10761119347E+02 -0.30375821973E+02  0.32225898150E+02  0.51100000000E-03 0.  1.
        -12    1    3    3    0    0 -0.10100377462E+02  0.47780972433E+01  0.57389227199E+01  0.12561173199E+02  0.00000000000E+00 0.  1.
</event>
<event>
 7    1  0.6830263E-012  0.5930200E+02  0.7816164E-02  0.1266605E+00
        -11   -1    0    0    0    0  0.00000000000E+00  0.00000000000E+00  0.45593999997E+02  0.45594000000E+02  0.51100000000E-03 0.  1.
         11   -1    0    0    0    0 -0.00000000000E+00 -0.00000000000E+00 -0.45593999997E+02  0.45594000000E+02  0.51100000000E-03 0. -1.
    9900012    2    1    2    0    0 -0.59031955340E+01  0.17855718479E+02 -0.25749619517E+02  0.59301995152E+02  0.50000093238E+02 0.  0.
        -12    1    1    2    0    0  0.59031955340E+01 -0.17855718479E+02  0.25749619517E+02  0.31886004848E+02  0.00000000000E+00 0.  1.
         11    1    3    3    0    0 -0.10397217130E+02  0.80332522235E+01 -0.16090718204E+02  0.20773696780E+02  0.51100000000E-03 0. -1.
        -11    1    3    3    0    0 -0.13531030749E+02  0.11813124963E+02 -0.96572516518E+01  0.20393656471E+02  0.51100000000E-03 0.  1.
        -12    1    3    3    0    0  0.18025052345E+02 -0.19906587072E+01 -0.16496611154E-02  0.18134641900E+02  0.00000000000E+00 0.  1.
</event>
<event>
 7    1  0.6830263E-012  0.5930194E+02  0.7816164E-02  0.1266605E+00
        -11   -1    0    0    0    0  0.00000000000E+00  0.00000000000E+00  0.45593999997E+02  0.45594000000E+02  0.51100000000E-03 0. -1.
         11   -1    0    0    0    0 -0.00000000000E+00 -0.00000000000E+00 -0.45593999997E+02  0.45594000000E+02  0.51100000000E-03 0.  1.
    9900012    2    1    2    0    0 -0.30378785176E+02 -0.49242048589E+01 -0.83427934657E+01  0.59301943721E+02  0.49999999440E+02 0.  0.
        -12    1    1    2    0    0  0.30378785176E+02  0.49242048589E+01  0.83427934657E+01  0.31886056279E+02  0.00000000000E+00 0.  1.
         11    1    3    3    0    0 -0.77733394890E+01  0.12256797711E+01 -0.98757942326E+01  0.12627684257E+02  0.51100000000E-03 0.  1.
        -11    1    3    3    0    0 -0.42552266808E+01  0.13111450316E+01  0.19456833273E+02  0.19959820056E+02  0.51100000000E-03 0. -1.
         12    1    3    3    0    0 -0.18350219006E+02 -0.74610296616E+01 -0.17923832506E+02  0.26714439408E+02  0.00000000000E+00 0. -1.
</event>
<event>
 7    1  0.6830263E-012  0.5930194E+02  0.7816164E-02  0.1266605E+00
        -11   -1    0    0    0    0  0.00000000000E+00  0.00000000000E+00  0.45593999997E+02  0.45594000000E+02  0.51100000000E-03 0.  1.
         11   -1    0    0    0    0 -0.00000000000E+00 -0.00000000000E+00 -0.45593999997E+02  0.45594000000E+02  0.51100000000E-03 0. -1.
    9900012    2    1    2    0    0 -0.20279750671E+02  0.19021715457E+02 -0.15608548193E+02  0.59301941559E+02  0.49999995497E+02 0.  0.
        -12    1    1    2    0    0  0.20279750671E+02 -0.19021715457E+02  0.15608548193E+02  0.31886058441E+02  0.00000000000E+00 0.  1.
         11    1    3    3    0    0 -0.51659638602E+01  0.26123933148E+01 -0.16703634985E+02  0.17678325809E+02  0.51100000000E-03 0. -1.
        -11    1    3    3    0    0  0.96518890339E+01  0.13434357205E+02 -0.11312985362E+01  0.16580734365E+02  0.51100000000E-03 0.  1.
        -12    1    3    3    0    0 -0.24765675845E+02  0.29749649374E+01  0.22263853280E+01  0.25042881385E+02  0.00000000000E+00 0.  1.
</event>
<event>
 7    1  0.6830263E-012  0.5930178E+02  0.7816164E-02  0.1266605E+00
        -11   -1    0    0    0    0  0.00000000000E+00  0.00000000000E+00  0.45593999997E+02  0.45594000000E+02  0.51100000000E-03 0. -1.
         11   -1    0    0    0    0 -0.00000000000E+00 -0.00000000000E+00 -0.45593999997E+02  0.45594000000E+02  0.51100000000E-03 0.  1.
    9900012    2    1    2    0    0 -0.28478928633E+02  0.27653927497E+00  0.14338934469E+02  0.59301782103E+02  0.49999704688E+02 0.  0.
        -12    1    1    2    0    0  0.28478928633E+02 -0.27653927497E+00 -0.14338934469E+02  0.31886217897E+02  0.00000000000E+00 0.  1.
         11    1    3    3    0    0 -0.16202997737E+02 -0.62311101342E+01  0.20744097821E+02  0.27049611159E+02  0.51100000000E-03 0. -1.
        -11    1    3    3    0    0  0.20464562480E+01 -0.97280011704E+01 -0.25323882882E+01  0.10258410240E+02  0.51100000000E-03 0.  1.
        -12    1    3    3    0    0 -0.14322387144E+02  0.16235650580E+02 -0.38727750636E+01  0.21993760705E+02  0.00000000000E+00 0.  1.
</event>
<event>
 7    1  0.6830263E-012  0.5930194E+02  0.7816164E-02  0.1266605E+00
        -11   -1    0    0    0    0  0.00000000000E+00  0.00000000000E+00  0.45593999997E+02  0.45594000000E+02  0.51100000000E-03 0. -1.
         11   -1    0    0    0    0 -0.00000000000E+00 -0.00000000000E+00 -0.45593999997E+02  0.45594000000E+02  0.51100000000E-03 0.  1.
    9900012    2    1    2    0    0  0.24779921572E+01 -0.31105233751E+02 -0.65608440901E+01  0.59301942121E+02  0.49999996523E+02 0.  0.
        -12    1    1    2    0    0 -0.24779921572E+01  0.31105233751E+02  0.65608440901E+01  0.31886057879E+02  0.00000000000E+00 0.  1.
         11    1    3    3    0    0  0.48838530853E+01 -0.63142490801E+01  0.43773115075E+01  0.91039891640E+01  0.51100000000E-03 0. -1.
        -11    1    3    3    0    0  0.95011834681E+01  0.91962342407E+00  0.10852928892E+02  0.14453520690E+02  0.51100000000E-03 0.  1.
        -12    1    3    3    0    0 -0.11907044396E+02 -0.25710608095E+02 -0.21791084490E+02  0.35744432267E+02  0.00000000000E+00 0.  1.
</event>
<event>
 7    1  0.6830263E-012  0.5930193E+02  0.7816164E-02  0.1266605E+00
        -11   -1    0    0    0    0  0.00000000000E+00  0.00000000000E+00  0.45593999997E+02  0.45594000000E+02  0.51100000000E-03 0. -1.
         11   -1    0    0    0    0 -0.00000000000E+00 -0.00000000000E+00 -0.45593999997E+02  0.45594000000E+02  0.51100000000E-03 0.  1.
    9900012    2    1    2    0    0  0.29682693715E+02 -0.37861891341E+01  0.11014711611E+02  0.59301930844E+02  0.49999975957E+02 0.  0.
        -12    1    1    2    0    0 -0.29682693715E+02  0.37861891341E+01 -0.11014711611E+02  0.31886069156E+02  0.00000000000E+00 0.  1.
         11    1    3    3    0    0  0.72817641630E+01  0.11627220908E+02  0.11897836130E+02  0.18159704299E+02  0.51100000000E-03 0. -1.
        -11    1    3    3    0    0 -0.74999164810E+01 -0.28460669995E+01  0.28064251658E+01  0.84985214632E+01  0.51100000000E-03 0.  1.
        -12    1    3    3    0    0  0.29900846033E+02 -0.12567343043E+02 -0.36895496854E+01  0.32643705083E+02  0.00000000000E+00 0.  1.
</event>
<event>
 7    1  0.6830263E-012  0.5930195E+02  0.7816164E-02  0.1266605E+00
        -11   -1    0    0    0    0  0.00000000000E+00  0.00000000000E+00  0.45593999997E+02  0.45594000000E+02  0.51100000000E-03 0.  1.
         11   -1    0    0    0    0 -0.00000000000E+00 -0.00000000000E+00 -0.45593999997E+02  0.45594000000E+02  0.51100000000E-03 0. -1.
    9900012    2    1    2    0    0  0.19453719900E+02  0.10679880339E+02 -0.22895703945E+02  0.59301947859E+02  0.50000006987E+02 0.  0.
        -12    1    1    2    0    0 -0.19453719900E+02 -0.10679880339E+02  0.22895703945E+02  0.31886052141E+02  0.00000000000E+00 0.  1.
         11    1    3    3    0    0  0.14773898297E+02  0.39735952530E+01 -0.22060989451E+01  0.15457179656E+02  0.51100000000E-03 0. -1.
        -11    1    3    3    0    0  0.91642178030E+01  0.24973516495E+01  0.92629460023E+01  0.13267321587E+02  0.51100000000E-03 0.  1.
        -12    1    3    3    0    0 -0.44843961992E+01  0.42089334361E+01 -0.29952551002E+02  0.30577446615E+02  0.00000000000E+00 0.  1.
</event>
<event>
 7    1  0.6830263E-012  0.5930194E+02  0.7816164E-02  0.1266605E+00
        -11   -1    0    0    0    0  0.00000000000E+00  0.00000000000E+00  0.45593999997E+02  0.45594000000E+02  0.51100000000E-03 0. -1.
         11   -1    0    0    0    0 -0.00000000000E+00 -0.00000000000E+00 -0.45593999997E+02  0.45594000000E+02  0.51100000000E-03 0.  1.
    9900012    2    1    2    0    0  0.24858946858E+02 -0.10220859218E+02  0.17154817176E+02  0.59301937929E+02  0.49999988877E+02 0.  0.
        -12    1    1    2    0    0 -0.24858946858E+02  0.10220859218E+02 -0.17154817176E+02  0.31886062071E+02  0.00000000000E+00 0.  1.
         11    1    3    3    0    0  0.14266681417E+02  0.58187798164E+01  0.18603484480E+02  0.24155455539E+02  0.51100000000E-03 0. -1.
        -11    1    3    3    0    0  0.60191730892E+01  0.61275546110E+01  0.69043764018E+01  0.11020335020E+02  0.51100000000E-03 0.  1.
        -12    1    3    3    0    0  0.45730923521E+01 -0.22167193645E+02 -0.83530437059E+01  0.24126147370E+02  0.00000000000E+00 0.  1.
</event>
<event>
 7    1  0.6830263E-012  0.5930194E+02  0.7816164E-02  0.1266605E+00
        -11   -1    0    0    0    0  0.00000000000E+00  0.00000000000E+00  0.45593999997E+02  0.45594000000E+02  0.51100000000E-03 0. -1.
         11   -1    0    0    0    0 -0.00000000000E+00 -0.00000000000E+00 -0.45593999997E+02  0.45594000000E+02  0.51100000000E-03 0.  1.
    9900012    2    1    2    0    0  0.68726709262E+01 -0.29349702781E+02 -0.10396254852E+02  0.59301940759E+02  0.49999994038E+02 0.  0.
        -12    1    1    2    0    0 -0.68726709262E+01  0.29349702781E+02  0.10396254852E+02  0.31886059241E+02  0.00000000000E+00 0.  1.
         11    1    3    3    0    0  0.60925804353E+01 -0.22216107014E+02  0.11176581493E+02  0.25604509785E+02  0.51100000000E-03 0. -1.
        -11    1    3    3    0    0 -0.12176521770E+01 -0.16378892446E+02 -0.13399589932E+02  0.21196693261E+02  0.51100000000E-03 0.  1.
         12    1    3    3    0    0  0.19977426679E+01  0.92452966785E+01 -0.81732464124E+01  0.12500737713E+02  0.00000000000E+00 0. -1.
</event>
<event>
 7    1  0.6830263E-012  0.5930192E+02  0.7816164E-02  0.1266605E+00
        -11   -1    0    0    0    0  0.00000000000E+00  0.00000000000E+00  0.45593999997E+02  0.45594000000E+02  0.51100000000E-03 0.  1.
         11   -1    0    0    0    0 -0.00000000000E+00 -0.00000000000E+00 -0.45593999997E+02  0.45594000000E+02  0.51100000000E-03 0. -1.
    9900012    2    1    2    0    0 -0.23490109454E+02 -0.11886506700E+02 -0.17990206441E+02  0.59301924489E+02  0.49999964366E+02 0.  0.
        -12    1    1    2    0    0  0.23490109454E+02  0.11886506700E+02  0.17990206441E+02  0.31886075511E+02  0.00000000000E+00 0.  1.
         11    1    3    3    0    0  0.15784263871E+01  0.86551988280E+00 -0.12537068643E+01  0.21937036468E+01  0.51100000000E-03 0. -1.
        -11    1    3    3    0    0 -0.92874926810E+01  0.15506922869E+02  0.42042169298E+01  0.18557952942E+02  0.51100000000E-03 0.  1.
         12    1    3    3    0    0 -0.15781043160E+02 -0.28258949452E+02 -0.20940716506E+02  0.38550267900E+02  0.00000000000E+00 0. -1.
</event>
<event>
 7    1  0.6830263E-012  0.5930193E+02  0.7816164E-02  0.1266605E+00
        -11   -1    0    0    0    0  0.00000000000E+00  0.00000000000E+00  0.45593999997E+02  0.45594000000E+02  0.51100000000E-03 0. -1.
         11   -1    0    0    0    0 -0.00000000000E+00 -0.00000000000E+00 -0.45593999997E+02  0.45594000000E+02  0.51100000000E-03 0.  1.
    9900012    2    1    2    0    0 -0.19862751069E+02 -0.51237626208E+01  0.24411876589E+02  0.59301928715E+02  0.49999972073E+02 0.  0.
        -12    1    1    2    0    0  0.19862751069E+02  0.51237626208E+01 -0.24411876589E+02  0.31886071285E+02  0.00000000000E+00 0.  1.
         11    1    3    3    0    0 -0.10166424357E+02 -0.77962023350E+01  0.96907825350E+01  0.16063879402E+02  0.51100000000E-03 0. -1.
        -11    1    3    3    0    0 -0.46198880796E+01 -0.10426523136E+02 -0.97614103214E+01  0.15011358443E+02  0.51100000000E-03 0.  1.
         12    1    3    3    0    0 -0.50764386327E+01  0.13098962851E+02  0.24482504375E+02  0.28226690869E+02  0.00000000000E+00 0. -1.
</event>
<event>
 7    1  0.6830263E-012  0.5930180E+02  0.7816164E-02  0.1266605E+00
        -11   -1    0    0    0    0  0.00000000000E+00  0.00000000000E+00  0.45593999997E+02  0.45594000000E+02  0.51100000000E-03 0. -1.
         11   -1    0    0    0    0 -0.00000000000E+00 -0.00000000000E+00 -0.45593999997E+02  0.45594000000E+02  0.51100000000E-03 0.  1.
    9900012    2    1    2    0    0 -0.19251245064E+02  0.16427939267E+02  0.19396953830E+02  0.59301804822E+02  0.49999746121E+02 0.  0.
        -12    1    1    2    0    0  0.19251245064E+02 -0.16427939267E+02 -0.19396953830E+02  0.31886195178E+02  0.00000000000E+00 0.  1.
         11    1    3    3    0    0 -0.12310268388E+02  0.73760177055E+01  0.47134950783E+01  0.15105144193E+02  0.51100000000E-03 0. -1.
        -11    1    3    3    0    0 -0.32776193749E+01  0.25036774613E+02  0.79950562610E+01  0.26485916949E+02  0.51100000000E-03 0.  1.
         12    1    3    3    0    0 -0.36633573019E+01 -0.15984853052E+02  0.66884024907E+01  0.17710743680E+02  0.00000000000E+00 0. -1.
</event>
<event>
 7    1  0.6830263E-012  0.5930213E+02  0.7816164E-02  0.1266604E+00
        -11   -1    0    0    0    0  0.00000000000E+00  0.00000000000E+00  0.45593999997E+02  0.45594000000E+02  0.51100000000E-03 0. -1.
         11   -1    0    0    0    0 -0.00000000000E+00 -0.00000000000E+00 -0.45593999997E+02  0.45594000000E+02  0.51100000000E-03 0.  1.
    9900012    2    1    2    0    0 -0.78116045861E+01 -0.20788804964E+02  0.22880413003E+02  0.59302127309E+02  0.50000334260E+02 0.  0.
        -12    1    1    2    0    0  0.78116045861E+01  0.20788804964E+02 -0.22880413003E+02  0.31885872691E+02  0.00000000000E+00 0.  1.
         11    1    3    3    0    0 -0.10734094935E+02 -0.45286645015E+01  0.20365025507E+02  0.23461966251E+02  0.51100000000E-03 0. -1.
        -11    1    3    3    0    0 -0.22122352845E+01 -0.16576277532E+02  0.14919774109E+02  0.22411305663E+02  0.51100000000E-03 0.  1.
        -12    1    3    3    0    0  0.51347256332E+01  0.31613706948E+00 -0.12404386613E+02  0.13428855395E+02  0.00000000000E+00 0.  1.
</event>
<event>
 7    1  0.6830263E-012  0.5930194E+02  0.7816164E-02  0.1266605E+00
        -11   -1    0    0    0    0  0.00000000000E+00  0.00000000000E+00  0.45593999997E+02  0.45594000000E+02  0.51100000000E-03 0.  1.
         11   -1    0    0    0    0 -0.00000000000E+00 -0.00000000000E+00 -0.45593999997E+02  0.45594000000E+02  0.51100000000E-03 0. -1.
    9900012    2    1    2    0    0 -0.14287130706E+01  0.26642211756E+02  0.17460597649E+02  0.59301935041E+02  0.49999983611E+02 0.  0.
        -12    1    1    2    0    0  0.14287130706E+01 -0.26642211756E+02 -0.17460597649E+02  0.31886064959E+02  0.00000000000E+00 0.  1.
         11    1    3    3    0    0 -0.13749226797E+02  0.25600159202E+00 -0.88589283196E+01  0.16358098470E+02  0.51100000000E-03 0. -1.
        -11    1    3    3    0    0  0.10931988914E+02  0.45054007109E+01  0.71303618033E+01  0.13807573172E+02  0.51100000000E-03 0.  1.
        -12    1    3    3    0    0  0.13885248123E+01  0.21880809453E+02  0.19189164165E+02  0.29136263399E+02  0.00000000000E+00 0.  1.
</event>
<event>
 7    1  0.6830263E-012  0.5930194E+02  0.7816164E-02  0.1266605E+00
        -11   -1    0    0    0    0  0.00000000000E+00  0.00000000000E+00  0.45593999997E+02  0.45594000000E+02  0.51100000000E-03 0.  1.
         11   -1    0    0    0    0 -0.00000000000E+00 -0.00000000000E+00 -0.45593999997E+02  0.45594000000E+02  0.51100000000E-03 0. -1.
    9900012    2    1    2    0    0 -0.28837763623E+02 -0.13586420270E+02  0.71650174978E+00  0.59301940330E+02  0.49999993256E+02 0.  0.
        -12    1    1    2    0    0  0.28837763623E+02  0.13586420270E+02 -0.71650174978E+00  0.31886059670E+02  0.00000000000E+00 0.  1.
         11    1    3    3    0    0 -0.68116625294E+01  0.66800919948E+01  0.57010414038E+01  0.11114146338E+02  0.51100000000E-03 0. -1.
        -11    1    3    3    0    0 -0.13613187716E+02 -0.16352375253E+02  0.15081612385E+02  0.26080147403E+02  0.51100000000E-03 0.  1.
         12    1    3    3    0    0 -0.84129133778E+01 -0.39141370116E+01 -0.20066152039E+02  0.22107646589E+02  0.00000000000E+00 0. -1.
</event>
<event>
 7    1  0.6830263E-012  0.5930194E+02  0.7816164E-02  0.1266605E+00
        -11   -1    0    0    0    0  0.00000000000E+00  0.00000000000E+00  0.45593999997E+02  0.45594000000E+02  0.51100000000E-03 0.  1.
         11   -1    0    0    0    0 -0.00000000000E+00 -0.00000000000E+00 -0.45593999997E+02  0.45594000000E+02  0.51100000000E-03 0. -1.
    9900012    2    1    2    0    0 -0.15618724228E+02  0.26941763341E+02 -0.68496564399E+01  0.59301937970E+02  0.49999988953E+02 0.  0.
        -12    1    1    2    0    0  0.15618724228E+02 -0.26941763341E+02  0.68496564399E+01  0.31886062030E+02  0.00000000000E+00 0.  1.
         11    1    3    3    0    0 -0.22467001416E+02  0.14183561381E+02 -0.12457326655E+02  0.29344923815E+02  0.51100000000E-03 0. -1.
        -11    1    3    3    0    0  0.80429669127E+01  0.12242050737E+01 -0.84527459237E+01  0.11731875755E+02  0.51100000000E-03 0.  1.
        -12    1    3    3    0    0 -0.11946897253E+01  0.11533996886E+02  0.14060416139E+02  0.18225138400E+02  0.00000000000E+00 0.  1.
</event>
<event>
 7    1  0.6830263E-012  0.5930195E+02  0.7816164E-02  0.1266605E+00
        -11   -1    0    0    0    0  0.00000000000E+00  0.00000000000E+00  0.45593999997E+02  0.45594000000E+02  0.51100000000E-03 0. -1.
         11   -1    0    0    0    0 -0.00000000000E+00 -0.00000000000E+00 -0.45593999997E+02  0.45594000000E+02  0.51100000000E-03 0.  1.
    9900012    2    1    2    0    0 -0.64979881984E+01 -0.21905448483E+02  0.22240677293E+02  0.59301948969E+02  0.50000009012E+02 0.  0.
        -12    1    1    2    0    0  0.64979881984E+01  0.21905448483E+02 -0.22240677293E+02  0.31886051031E+02  0.00000000000E+00 0.  1.
         11    1    3    3    0    0 -0.46455657180E+01  0.16007085665E+01  0.27563614751E+01  0.56339220440E+01  0.51100000000E-03 0. -1.
        -11    1    3    3    0    0 -0.22755601821E+02 -0.87280993692E+01  0.10501500022E+02  0.26538248544E+02  0.51100000000E-03 0.  1.
        -12    1    3    3    0    0  0.20903179341E+02 -0.14778057681E+02  0.89828157967E+01  0.27129778381E+02  0.00000000000E+00 0.  1.
</event>
<event>
 7    1  0.6830263E-012  0.5930196E+02  0.7816164E-02  0.1266605E+00
        -11   -1    0    0    0    0  0.00000000000E+00  0.00000000000E+00  0.45593999997E+02  0.45594000000E+02  0.51100000000E-03 0. -1.
         11   -1    0    0    0    0 -0.00000000000E+00 -0.00000000000E+00 -0.45593999997E+02  0.45594000000E+02  0.51100000000E-03 0.  1.
    9900012    2    1    2    0    0 -0.58850924280E+01 -0.21570310619E+02  0.22733391099E+02  0.59301957851E+02  0.50000025210E+02 0.  0.
        -12    1    1    2    0    0  0.58850924280E+01  0.21570310619E+02 -0.22733391099E+02  0.31886042149E+02  0.00000000000E+00 0.  1.
         11    1    3    3    0    0  0.74174997789E+01 -0.11310826150E+02  0.26848450813E+02  0.30063156895E+02  0.51100000000E-03 0. -1.
        -11    1    3    3    0    0 -0.87900136683E+01  0.55332526762E+01  0.37307758339E+01  0.11036299835E+02  0.51100000000E-03 0.  1.
        -12    1    3    3    0    0 -0.45125785387E+01 -0.15792737145E+02 -0.78458355484E+01  0.18202501121E+02  0.00000000000E+00 0.  1.
</event>
<event>
 7    1  0.6830263E-012  0.5930197E+02  0.7816164E-02  0.1266605E+00
        -11   -1    0    0    0    0  0.00000000000E+00  0.00000000000E+00  0.45593999997E+02  0.45594000000E+02  0.51100000000E-03 0. -1.
         11   -1    0    0    0    0 -0.00000000000E+00 -0.00000000000E+00 -0.45593999997E+02  0.45594000000E+02  0.51100000000E-03 0.  1.
    9900012    2    1    2    0    0  0.20284780689E+02 -0.24599762029E+02 -0.31339855362E+00  0.59301971114E+02  0.50000049399E+02 0.  0.
        -12    1    1    2    0    0 -0.20284780689E+02  0.24599762029E+02  0.31339855362E+00  0.31886028886E+02  0.00000000000E+00 0.  1.
         11    1    3    3    0    0  0.11022627575E+02 -0.23357806894E+01  0.16316837603E+02  0.19829104360E+02  0.51100000000E-03 0. -1.
        -11    1    3    3    0    0  0.10563790349E+02 -0.18503272193E+02  0.10675376820E+01  0.21333175698E+02  0.51100000000E-03 0.  1.
        -12    1    3    3    0    0 -0.13016372354E+01 -0.37607091462E+01 -0.17697773838E+02  0.18139691056E+02  0.00000000000E+00 0.  1.
</event>
<event>
 7    1  0.6830263E-012  0.5930186E+02  0.7816164E-02  0.1266605E+00
        -11   -1    0    0    0    0  0.00000000000E+00  0.00000000000E+00  0.45593999997E+02  0.45594000000E+02  0.51100000000E-03 0.  1.
         11   -1    0    0    0    0 -0.00000000000E+00 -0.00000000000E+00 -0.45593999997E+02  0.45594000000E+02  0.51100000000E-03 0. -1.
    9900012    2    1    2    0    0 -0.10227572262E+02 -0.22133896640E+02 -0.20547833072E+02  0.59301857888E+02  0.49999842901E+02 0.  0.
        -12    1    1    2    0    0  0.10227572262E+02  0.22133896640E+02  0.20547833072E+02  0.31886142112E+02  0.00000000000E+00 0.  1.
         11    1    3    3    0    0  0.10175184457E+02 -0.10264991247E+02 -0.77551488028E+01  0.16402644825E+02  0.51100000000E-03 0. -1.
        -11    1    3    3    0    0 -0.88961910944E+00  0.93513079316E+01  0.32105698723E+01  0.99270409165E+01  0.51100000000E-03 0.  1.
         12    1    3    3    0    0 -0.19513137610E+02 -0.21220213325E+02 -0.16003254142E+02  0.32972172147E+02  0.00000000000E+00 0. -1.
</event>
<event>
 7    1  0.6830263E-012  0.5930196E+02  0.7816164E-02  0.1266605E+00
        -11   -1    0    0    0    0  0.00000000000E+00  0.00000000000E+00  0.45593999997E+02  0.45594000000E+02  0.51100000000E-03 0. -1.
         11   -1    0    0    0    0 -0.00000000000E+00 -0.00000000000E+00 -0.45593999997E+02  0.45594000000E+02  0.51100000000E-03 0.  1.
    9900012    2    1    2    0    0  0.77435707374E+01 -0.29080083604E+02  0.10540667139E+02  0.59301955812E+02  0.50000021492E+02 0.  0.
        -12    1    1    2    0    0 -0.77435707374E+01  0.29080083604E+02 -0.10540667139E+02  0.31886044188E+02  0.00000000000E+00 0.  1.
         11    1    3    3    0    0 -0.34824673995E+01 -0.30591095620E+02  0.64572654993E+01  0.31458528071E+02  0.51100000000E-03 0. -1.
        -11    1    3    3    0    0  0.11368922607E+02 -0.10389289998E+02  0.47895679534E+00  0.15408411592E+02  0.51100000000E-03 0.  1.
         12    1    3    3    0    0 -0.14288446990E+00  0.11900302014E+02  0.36044448448E+01  0.12435016149E+02  0.00000000000E+00 0. -1.
</event>
<event>
 7    1  0.6830263E-012  0.5930195E+02  0.7816164E-02  0.1266605E+00
        -11   -1    0    0    0    0  0.00000000000E+00  0.00000000000E+00  0.45593999997E+02  0.45594000000E+02  0.51100000000E-03 0.  1.
         11   -1    0    0    0    0 -0.00000000000E+00 -0.00000000000E+00 -0.45593999997E+02  0.45594000000E+02  0.51100000000E-03 0. -1.
    9900012    2    1    2    0    0  0.92931166115E+01 -0.11471073283E+02 -0.28262565867E+02  0.59301950260E+02  0.50000011366E+02 0.  0.
        -12    1    1    2    0    0 -0.92931166115E+01  0.11471073283E+02  0.28262565867E+02  0.31886049740E+02  0.00000000000E+00 0.  1.
         11    1    3    3    0    0 -0.74221481187E+01 -0.43838229174E+00 -0.56439603668E+01  0.93345996493E+01  0.51100000000E-03 0. -1.
        -11    1    3    3    0    0 -0.52320284199E+01  0.33161912228E+01  0.77001112641E+01  0.98824571516E+01  0.51100000000E-03 0.  1.
         12    1    3    3    0    0  0.21947293150E+02 -0.14348882214E+02 -0.30318716764E+02  0.40084893459E+02  0.00000000000E+00 0. -1.
</event>
<event>
 7    1  0.6830263E-012  0.5930194E+02  0.7816164E-02  0.1266605E+00
        -11   -1    0    0    0    0  0.00000000000E+00  0.00000000000E+00  0.45593999997E+02  0.45594000000E+02  0.51100000000E-03 0.  1.
         11   -1    0    0    0    0 -0.00000000000E+00 -0.00000000000E+00 -0.45593999997E+02  0.45594000000E+02  0.51100000000E-03 0. -1.
    9900012    2    1    2    0    0  0.28000437953E+02  0.49940285474E+01 -0.14413752792E+02  0.59301935391E+02  0.49999984249E+02 0.  0.
        -12    1    1    2    0    0 -0.28000437953E+02 -0.49940285474E+01  0.14413752792E+02  0.31886064609E+02  0.00000000000E+00 0.  1.
         11    1    3    3    0    0 -0.81013999420E+01  0.40105685756E+01 -0.81725365973E+01  0.12186373374E+02  0.51100000000E-03 0. -1.
        -11    1    3    3    0    0  0.45141196281E+01 -0.60840580665E+01 -0.12046244673E+02  0.14230426893E+02  0.51100000000E-03 0.  1.
        -12    1    3    3    0    0  0.31587718267E+02  0.70675180383E+01  0.58050284782E+01  0.32885135124E+02  0.00000000000E+00 0.  1.
</event>
<event>
 7    1  0.6830263E-012  0.5930191E+02  0.7816164E-02  0.1266605E+00
        -11   -1    0    0    0    0  0.00000000000E+00  0.00000000000E+00  0.45593999997E+02  0.45594000000E+02  0.51100000000E-03 0. -1.
         11   -1    0    0    0    0 -0.00000000000E+00 -0.00000000000E+00 -0.45593999997E+02  0.45594000000E+02  0.51100000000E-03 0.  1.
    9900012    2    1    2    0    0  0.15415044884E+02 -0.26518705006E+02  0.87096223173E+01  0.59301908285E+02  0.49999934814E+02 0.  0.
        -12    1    1    2    0    0 -0.15415044884E+02  0.26518705006E+02 -0.87096223173E+01  0.31886091715E+02  0.00000000000E+00 0.  1.
         11    1    3    3    0    0 -0.10021855690E+01 -0.45711146009E+01  0.98932796572E+01  0.10944242653E+02  0.51100000000E-03 0. -1.
        -11    1    3    3    0    0  0.11822469378E+02  0.70779243660E+01 -0.10724336936E+02  0.17460790318E+02  0.51100000000E-03 0.  1.
         12    1    3    3    0    0  0.45947610741E+01 -0.29025514771E+02  0.95406795961E+01  0.30896875315E+02  0.00000000000E+00 0. -1.
</event>
<event>
 7    1  0.6830263E-012  0.5930193E+02  0.7816164E-02  0.1266605E+00
        -11   -1    0    0    0    0  0.00000000000E+00  0.00000000000E+00  0.45593999997E+02  0.45594000000E+02  0.51100000000E-03 0. -1.
         11   -1    0    0    0    0 -0.00000000000E+00 -0.00000000000E+00 -0.45593999997E+02  0.45594000000E+02  0.51100000000E-03 0.  1.
    9900012    2    1    2    0    0  0.22846995109E+02 -0.31635947502E+01  0.22016542083E+02  0.59301927138E+02  0.49999969197E+02 0.  0.
        -12    1    1    2    0    0 -0.22846995109E+02  0.31635947502E+01 -0.22016542083E+02  0.31886072862E+02  0.00000000000E+00 0.  1.
         11    1    3    3    0    0  0.82822630362E+01 -0.14181581139E+02  0.58706097201E+01  0.17440676115E+02  0.51100000000E-03 0. -1.
        -11    1    3    3    0    0  0.59830193393E+01  0.23382696807E+01  0.25618081241E+02  0.26411174003E+02  0.51100000000E-03 0.  1.
        -12    1    3    3    0    0  0.85817127335E+01  0.86797167077E+01 -0.94721488775E+01  0.15450077020E+02  0.00000000000E+00 0.  1.
</event>
<event>
 7    1  0.6830263E-012  0.5930196E+02  0.7816164E-02  0.1266605E+00
        -11   -1    0    0    0    0  0.00000000000E+00  0.00000000000E+00  0.45593999997E+02  0.45594000000E+02  0.51100000000E-03 0.  1.
         11   -1    0    0    0    0 -0.00000000000E+00 -0.00000000000E+00 -0.45593999997E+02  0.45594000000E+02  0.51100000000E-03 0. -1.
    9900012    2    1    2    0    0  0.33048103010E+01 -0.46260791071E+01 -0.31375101761E+02  0.59301962468E+02  0.50000033630E+02 0.  0.
        -12    1    1    2    0    0 -0.33048103010E+01  0.46260791071E+01  0.31375101761E+02  0.31886037532E+02  0.00000000000E+00 0.  1.
         11    1    3    3    0    0 -0.48416366734E+01 -0.68555299823E+01 -0.34135027030E+02  0.35151668632E+02  0.51100000000E-03 0. -1.
        -11    1    3    3    0    0 -0.38635887665E+00 -0.37015659383E+01 -0.82257061236E+01  0.90284608362E+01  0.51100000000E-03 0.  1.
        -12    1    3    3    0    0  0.85328058511E+01  0.59310168135E+01  0.10985631393E+02  0.15121832999E+02  0.00000000000E+00 0.  1.
</event>
<event>
 7    1  0.6830263E-012  0.5930198E+02  0.7816164E-02  0.1266605E+00
        -11   -1    0    0    0    0  0.00000000000E+00  0.00000000000E+00  0.45593999997E+02  0.45594000000E+02  0.51100000000E-03 0.  1.
         11   -1    0    0    0    0 -0.00000000000E+00 -0.00000000000E+00 -0.45593999997E+02  0.45594000000E+02  0.51100000000E-03 0. -1.
    9900012    2    1    2    0    0 -0.36404150902E+01 -0.19494405722E+02 -0.24968660676E+02  0.59301976534E+02  0.50000059284E+02 0.  0.
        -12    1    1    2    0    0  0.36404150902E+01  0.19494405722E+02  0.24968660676E+02  0.31886023466E+02  0.00000000000E+00 0.  1.
         11    1    3    3    0    0 -0.37800036244E+01 -0.64219732914E+00 -0.21282670404E+02  0.21625283920E+02  0.51100000000E-03 0.  1.
        -11    1    3    3    0    0 -0.35322620760E+01  0.62703190739E+01 -0.92148955164E+01  0.11692222898E+02  0.51100000000E-03 0. -1.
        -12    1    3    3    0    0  0.36718506102E+01 -0.25122527467E+02  0.55289052448E+01  0.25984469717E+02  0.00000000000E+00 0.  1.
</event>
<event>
 7    1  0.6830263E-012  0.5930194E+02  0.7816164E-02  0.1266605E+00
        -11   -1    0    0    0    0  0.00000000000E+00  0.00000000000E+00  0.45593999997E+02  0.45594000000E+02  0.51100000000E-03 0. -1.
         11   -1    0    0    0    0 -0.00000000000E+00 -0.00000000000E+00 -0.45593999997E+02  0.45594000000E+02  0.51100000000E-03 0.  1.
    9900012    2    1    2    0    0 -0.27892661942E+02  0.11420989928E+02  0.10405812350E+02  0.59301944555E+02  0.50000000962E+02 0.  0.
        -12    1    1    2    0    0  0.27892661942E+02 -0.11420989928E+02 -0.10405812350E+02  0.31886055445E+02  0.00000000000E+00 0.  1.
         11    1    3    3    0    0 -0.25102067051E+02 -0.75562526167E+01  0.22424620010E+01  0.26310442032E+02  0.51100000000E-03 0. -1.
        -11    1    3    3    0    0  0.70234850045E+01 -0.17982133605E+00 -0.41836097727E+01  0.81770574361E+01  0.51100000000E-03 0.  1.
         12    1    3    3    0    0 -0.98140798957E+01  0.19157063881E+02  0.12346960121E+02  0.24814445087E+02  0.00000000000E+00 0. -1.
</event>
<event>
 7    1  0.6830263E-012  0.5930193E+02  0.7816164E-02  0.1266605E+00
        -11   -1    0    0    0    0  0.00000000000E+00  0.00000000000E+00  0.45593999997E+02  0.45594000000E+02  0.51100000000E-03 0.  1.
         11   -1    0    0    0    0 -0.00000000000E+00 -0.00000000000E+00 -0.45593999997E+02  0.45594000000E+02  0.51100000000E-03 0. -1.
    9900012    2    1    2    0    0  0.74231148078E+01  0.11950915051E+02 -0.28614581572E+02  0.59301932783E+02  0.49999979493E+02 0.  0.
        -12    1    1    2    0    0 -0.74231148078E+01 -0.11950915051E+02  0.28614581572E+02  0.31886067217E+02  0.00000000000E+00 0.  1.
         11    1    3    3    0    0  0.18677132655E+02  0.92707526251E+01 -0.13983924184E+02  0.25106418986E+02  0.51100000000E-03 0. -1.
        -11    1    3    3    0    0 -0.32649239971E+00 -0.16908057720E+00  0.84722784976E+01  0.84802528695E+01  0.51100000000E-03 0.  1.
         12    1    3    3    0    0 -0.10927525447E+02  0.28492430026E+01 -0.23102935885E+02  0.25715260928E+02  0.00000000000E+00 0. -1.
</event>
<event>
 7    1  0.6830263E-012  0.5930195E+02  0.7816164E-02  0.1266605E+00
        -11   -1    0    0    0    0  0.00000000000E+00  0.00000000000E+00  0.45593999997E+02  0.45594000000E+02  0.51100000000E-03 0.  1.
         11   -1    0    0    0    0 -0.00000000000E+00 -0.00000000000E+00 -0.45593999997E+02  0.45594000000E+02  0.51100000000E-03 0. -1.
    9900012    2    1    2    0    0 -0.13452411976E+02  0.54913333579E+01 -0.28383063721E+02  0.59301946055E+02  0.50000003697E+02 0.  0.
        -12    1    1    2    0    0  0.13452411976E+02 -0.54913333579E+01  0.28383063721E+02  0.31886053945E+02  0.00000000000E+00 0.  1.
         11    1    3    3    0    0 -0.84922318479E+01 -0.87882675137E+01 -0.91651732320E+01  0.15275864895E+02  0.51100000000E-03 0. -1.
        -11    1    3    3    0    0 -0.17559691276E+02 -0.26819326725E+01 -0.12963675242E+02  0.21990734335E+02  0.51100000000E-03 0.  1.
         12    1    3    3    0    0  0.12599511148E+02  0.16961533544E+02 -0.62542152470E+01  0.22035346825E+02  0.00000000000E+00 0. -1.
</event>
<event>
 7    1  0.6830263E-012  0.5930194E+02  0.7816164E-02  0.1266605E+00
        -11   -1    0    0    0    0  0.00000000000E+00  0.00000000000E+00  0.45593999997E+02  0.45594000000E+02  0.51100000000E-03 0.  1.
         11   -1    0    0    0    0 -0.00000000000E+00 -0.00000000000E+00 -0.45593999997E+02  0.45594000000E+02  0.51100000000E-03 0. -1.
    9900012    2    1    2    0    0  0.25813668356E+02 -0.50190606306E+01 -0.18032874783E+02  0.59301936954E+02  0.49999987100E+02 0.  0.
        -12    1    1    2    0    0 -0.25813668356E+02  0.50190606306E+01  0.18032874783E+02  0.31886063046E+02  0.00000000000E+00 0.  1.
         11    1    3    3    0    0  0.36506895513E+02 -0.44130075377E+01 -0.12589257950E+02  0.38867949155E+02  0.51100000000E-03 0. -1.
        -11    1    3    3    0    0 -0.33944704557E+01  0.59779147491E+01  0.29764261189E+01  0.74911285615E+01  0.51100000000E-03 0.  1.
        -12    1    3    3    0    0 -0.72987567013E+01 -0.65839678420E+01 -0.84200429518E+01  0.12942859237E+02  0.00000000000E+00 0.  1.
</event>
<event>
 7    1  0.6830263E-012  0.5930199E+02  0.7816164E-02  0.1266605E+00
        -11   -1    0    0    0    0  0.00000000000E+00  0.00000000000E+00  0.45593999997E+02  0.45594000000E+02  0.51100000000E-03 0.  1.
         11   -1    0    0    0    0 -0.00000000000E+00 -0.00000000000E+00 -0.45593999997E+02  0.45594000000E+02  0.51100000000E-03 0. -1.
    9900012    2    1    2    0    0  0.20007954867E+02 -0.22629681786E+02 -0.10212579938E+02  0.59301991396E+02  0.50000086388E+02 0.  0.
        -12    1    1    2    0    0 -0.20007954867E+02  0.22629681786E+02  0.10212579938E+02  0.31886008604E+02  0.00000000000E+00 0.  1.
         11    1    3    3    0    0 -0.10332033185E+00  0.70610661410E+01  0.21772691983E+01  0.73898465181E+01  0.51100000000E-03 0. -1.
        -11    1    3    3    0    0  0.25128366499E+01  0.78506011875E+01 -0.54294945754E+01  0.98704457164E+01  0.51100000000E-03 0.  1.
         12    1    3    3    0    0  0.17598438549E+02 -0.37541349115E+02 -0.69603545605E+01  0.42041699161E+02  0.00000000000E+00 0. -1.
</event>
<event>
 7    1  0.6830263E-012  0.5930208E+02  0.7816164E-02  0.1266604E+00
        -11   -1    0    0    0    0  0.00000000000E+00  0.00000000000E+00  0.45593999997E+02  0.45594000000E+02  0.51100000000E-03 0.  1.
         11   -1    0    0    0    0 -0.00000000000E+00 -0.00000000000E+00 -0.45593999997E+02  0.45594000000E+02  0.51100000000E-03 0. -1.
    9900012    2    1    2    0    0 -0.14472813574E+02  0.28281209015E+02 -0.27245108707E+01  0.59302077157E+02  0.50000242795E+02 0.  0.
        -12    1    1    2    0    0  0.14472813574E+02 -0.28281209015E+02  0.27245108707E+01  0.31885922843E+02  0.00000000000E+00 0.  1.
         11    1    3    3    0    0 -0.22647253550E+01 -0.50436576493E+01 -0.13853579462E+02  0.14916069442E+02  0.51100000000E-03 0. -1.
        -11    1    3    3    0    0  0.50293177715E+01  0.89262052467E+01  0.10260455241E+02  0.14499935150E+02  0.51100000000E-03 0.  1.
        -12    1    3    3    0    0 -0.17237405990E+02  0.24398661417E+02  0.86861335049E+00  0.29886072565E+02  0.00000000000E+00 0.  1.
</event>
<event>
 7    1  0.6830263E-012  0.5930194E+02  0.7816164E-02  0.1266605E+00
        -11   -1    0    0    0    0  0.00000000000E+00  0.00000000000E+00  0.45593999997E+02  0.45594000000E+02  0.51100000000E-03 0.  1.
         11   -1    0    0    0    0 -0.00000000000E+00 -0.00000000000E+00 -0.45593999997E+02  0.45594000000E+02  0.51100000000E-03 0. -1.
    9900012    2    1    2    0    0  0.26267798709E+01  0.27428147813E+02 -0.16047362024E+02  0.59301935758E+02  0.49999984917E+02 0.  0.
        -12    1    1    2    0    0 -0.26267798709E+01 -0.27428147813E+02  0.16047362024E+02  0.31886064242E+02  0.00000000000E+00 0.  1.
         11    1    3    3    0    0  0.11309230206E+00  0.22242362186E+02 -0.38229495176E+01  0.22568792807E+02  0.51100000000E-03 0. -1.
        -11    1    3    3    0    0  0.16133498833E+02  0.11268539888E+02 -0.60368164293E+01  0.20584288394E+02  0.51100000000E-03 0.  1.
        -12    1    3    3    0    0 -0.13619811264E+02 -0.60827542613E+01 -0.61875960771E+01  0.16148854557E+02  0.00000000000E+00 0.  1.
</event>
<event>
 7    1  0.6830263E-012  0.5930197E+02  0.7816164E-02  0.1266605E+00
        -11   -1    0    0    0    0  0.00000000000E+00  0.00000000000E+00  0.45593999997E+02  0.45594000000E+02  0.51100000000E-03 0.  1.
         11   -1    0    0    0    0 -0.00000000000E+00 -0.00000000000E+00 -0.45593999997E+02  0.45594000000E+02  0.51100000000E-03 0. -1.
    9900012    2    1    2    0    0  0.20299617645E+02 -0.19995678730E+02 -0.14311445047E+02  0.59301966949E+02  0.50000041802E+02 0.  0.
        -12    1    1    2    0    0 -0.20299617645E+02  0.19995678730E+02  0.14311445047E+02  0.31886033051E+02  0.00000000000E+00 0.  1.
         11    1    3    3    0    0  0.20010959919E+02 -0.18321580664E+01 -0.45826337393E+01  0.20610576225E+02  0.51100000000E-03 0. -1.
        -11    1    3    3    0    0  0.16482024818E+00 -0.31967130058E+01  0.11936800246E+02  0.12358533089E+02  0.51100000000E-03 0.  1.
        -12    1    3    3    0    0  0.12383747711E+00 -0.14966807658E+02 -0.21665611554E+02  0.26332857634E+02  0.00000000000E+00 0.  1.
</event>
<event>
 7    1  0.6830263E-012  0.5930195E+02  0.7816164E-02  0.1266605E+00
        -11   -1    0    0    0    0  0.00000000000E+00  0.00000000000E+00  0.45593999997E+02  0.45594000000E+02  0.51100000000E-03 0.  1.
         11   -1    0    0    0    0 -0.00000000000E+00 -0.00000000000E+00 -0.45593999997E+02  0.45594000000E+02  0.51100000000E-03 0. -1.
    9900012    2    1    2    0    0  0.15862570083E+02 -0.19147319012E+02 -0.19961939139E+02  0.59301953379E+02  0.50000017054E+02 0.  0.
        -12    1    1    2    0    0 -0.15862570083E+02  0.19147319012E+02  0.19961939139E+02  0.31886046621E+02  0.00000000000E+00 0.  1.
         11    1    3    3    0    0  0.44207200126E+01 -0.16561077740E+02  0.13042502563E+01  0.17190495348E+02  0.51100000000E-03 0. -1.
        -11    1    3    3    0    0  0.14943676872E+02 -0.16134741041E+02 -0.10059406365E+02  0.24183362124E+02  0.51100000000E-03 0.  1.
         12    1    3    3    0    0 -0.35018268018E+01  0.13548499769E+02 -0.11206783030E+02  0.17928095906E+02  0.00000000000E+00 0. -1.
</event>
<event>
 7    1  0.6830263E-012  0.5930197E+02  0.7816164E-02  0.1266605E+00
        -11   -1    0    0    0    0  0.00000000000E+00  0.00000000000E+00  0.45593999997E+02  0.45594000000E+02  0.51100000000E-03 0. -1.
         11   -1    0    0    0    0 -0.00000000000E+00 -0.00000000000E+00 -0.45593999997E+02  0.45594000000E+02  0.51100000000E-03 0.  1.
    9900012    2    1    2    0    0  0.18167478140E+02  0.24698650174E+02  0.87543211363E+01  0.59301972951E+02  0.50000052749E+02 0.  0.
        -12    1    1    2    0    0 -0.18167478140E+02 -0.24698650174E+02 -0.87543211363E+01  0.31886027049E+02  0.00000000000E+00 0.  1.
         11    1    3    3    0    0  0.13875853563E+02  0.97237756759E+01  0.78190230117E+01  0.18660874755E+02  0.51100000000E-03 0. -1.
        -11    1    3    3    0    0 -0.10796170634E+02  0.16556099793E+02 -0.97952536201E+01  0.22059209742E+02  0.51100000000E-03 0.  1.
         12    1    3    3    0    0  0.15087795211E+02 -0.15812252945E+01  0.10730551745E+02  0.18581888454E+02  0.00000000000E+00 0. -1.
</event>
<event>
 7    1  0.6830263E-012  0.5930194E+02  0.7816164E-02  0.1266605E+00
        -11   -1    0    0    0    0  0.00000000000E+00  0.00000000000E+00  0.45593999997E+02  0.45594000000E+02  0.51100000000E-03 0.  1.
         11   -1    0    0    0    0 -0.00000000000E+00 -0.00000000000E+00 -0.45593999997E+02  0.45594000000E+02  0.51100000000E-03 0. -1.
    9900012    2    1    2    0    0  0.14104976127E+02  0.69866048805E+01 -0.27730092562E+02  0.59301936700E+02  0.49999986636E+02 0.  0.
        -12    1    1    2    0    0 -0.14104976127E+02 -0.69866048805E+01  0.27730092562E+02  0.31886063300E+02  0.00000000000E+00 0.  1.
         11    1    3    3    0    0  0.27111500867E+01 -0.21355429412E+01 -0.15623588565E+02  0.16000231197E+02  0.51100000000E-03 0. -1.
        -11    1    3    3    0    0 -0.20143421796E+01 -0.77873676423E+01 -0.19011905060E+02  0.20643478474E+02  0.51100000000E-03 0.  1.
        -12    1    3    3    0    0  0.13408168219E+02  0.16909515464E+02  0.69054010638E+01  0.22658227029E+02  0.00000000000E+00 0.  1.
</event>
<event>
 7    1  0.6830263E-012  0.5930197E+02  0.7816164E-02  0.1266605E+00
        -11   -1    0    0    0    0  0.00000000000E+00  0.00000000000E+00  0.45593999997E+02  0.45594000000E+02  0.51100000000E-03 0.  1.
         11   -1    0    0    0    0 -0.00000000000E+00 -0.00000000000E+00 -0.45593999997E+02  0.45594000000E+02  0.51100000000E-03 0. -1.
    9900012    2    1    2    0    0 -0.31488589164E+02  0.32566207404E+00 -0.50081769453E+01  0.59301966386E+02  0.50000040776E+02 0.  0.
        -12    1    1    2    0    0  0.31488589164E+02 -0.32566207404E+00  0.50081769453E+01  0.31886033614E+02  0.00000000000E+00 0.  1.
         11    1    3    3    0    0 -0.35436464821E+01  0.11391966091E+02 -0.21340858942E+01  0.12119762567E+02  0.51100000000E-03 0. -1.
        -11    1    3    3    0    0 -0.12297012703E+02 -0.36281353229E+01  0.16691999194E+02  0.21047629907E+02  0.51100000000E-03 0.  1.
        -12    1    3    3    0    0 -0.15647929978E+02 -0.74381686941E+01 -0.19566090245E+02  0.26134573913E+02  0.00000000000E+00 0.  1.
</event>
<event>
 7    1  0.6830263E-012  0.5930194E+02  0.7816164E-02  0.1266605E+00
        -11   -1    0    0    0    0  0.00000000000E+00  0.00000000000E+00  0.45593999997E+02  0.45594000000E+02  0.51100000000E-03 0. -1.
         11   -1    0    0    0    0 -0.00000000000E+00 -0.00000000000E+00 -0.45593999997E+02  0.45594000000E+02  0.51100000000E-03 0.  1.
    9900012    2    1    2    0    0 -0.77618805588E+01 -0.23425086269E+01  0.30838070261E+02  0.59301941700E+02  0.49999995754E+02 0.  0.
        -12    1    1    2    0    0  0.77618805588E+01  0.23425086269E+01 -0.30838070261E+02  0.31886058300E+02  0.00000000000E+00 0.  1.
         11    1    3    3    0    0 -0.11472422949E+02 -0.15236373661E+02 -0.11919116377E+01  0.19109793936E+02  0.51100000000E-03 0. -1.
        -11    1    3    3    0    0 -0.61790600069E+01  0.75273786981E+01  0.50721944802E+01  0.10980408450E+02  0.51100000000E-03 0.  1.
         12    1    3    3    0    0  0.98896023974E+01  0.53664863362E+01  0.26957787419E+02  0.29211739313E+02  0.00000000000E+00 0. -1.
</event>
<event>
 7    1  0.6830263E-012  0.5930204E+02  0.7816164E-02  0.1266604E+00
        -11   -1    0    0    0    0  0.00000000000E+00  0.00000000000E+00  0.45593999997E+02  0.45594000000E+02  0.51100000000E-03 0.  1.
         11   -1    0    0    0    0 -0.00000000000E+00 -0.00000000000E+00 -0.45593999997E+02  0.45594000000E+02  0.51100000000E-03 0. -1.
    9900012    2    1    2    0    0  0.19584896700E+02  0.13272189296E+02 -0.21377454158E+02  0.59302035474E+02  0.50000166776E+02 0.  0.
        -12    1    1    2    0    0 -0.19584896700E+02 -0.13272189296E+02  0.21377454158E+02  0.31885964526E+02  0.00000000000E+00 0.  1.
         11    1    3    3    0    0  0.13835742056E+02 -0.10184007815E+02  0.22103058349E+01  0.17321293992E+02  0.51100000000E-03 0. -1.
        -11    1    3    3    0    0  0.37158697650E+01 -0.43226013486E+01 -0.86927712130E+01  0.10395039305E+02  0.51100000000E-03 0.  1.
         12    1    3    3    0    0  0.20332848787E+01  0.27778798459E+02 -0.14894988780E+02  0.31585702177E+02  0.00000000000E+00 0. -1.
</event>
<event>
 7    1  0.6830263E-012  0.5930195E+02  0.7816164E-02  0.1266605E+00
        -11   -1    0    0    0    0  0.00000000000E+00  0.00000000000E+00  0.45593999997E+02  0.45594000000E+02  0.51100000000E-03 0.  1.
         11   -1    0    0    0    0 -0.00000000000E+00 -0.00000000000E+00 -0.45593999997E+02  0.45594000000E+02  0.51100000000E-03 0. -1.
    9900012    2    1    2    0    0  0.14606257590E+02  0.99752199567E+00 -0.28326352462E+02  0.59301952037E+02  0.50000014606E+02 0.  0.
        -12    1    1    2    0    0 -0.14606257590E+02 -0.99752199567E+00  0.28326352462E+02  0.31886047963E+02  0.00000000000E+00 0.  1.
         11    1    3    3    0    0 -0.91035312059E+00  0.68012696977E+01 -0.11971091274E+02  0.13798298405E+02  0.51100000000E-03 0. -1.
        -11    1    3    3    0    0 -0.36598333017E+01  0.14178369981E+02 -0.73283027703E+01  0.16374509973E+02  0.51100000000E-03 0.  1.
         12    1    3    3    0    0  0.19176444012E+02 -0.19982117683E+02 -0.90269584179E+01  0.29129143659E+02  0.00000000000E+00 0. -1.
</event>
<event>
 7    1  0.6830263E-012  0.5930193E+02  0.7816164E-02  0.1266605E+00
        -11   -1    0    0    0    0  0.00000000000E+00  0.00000000000E+00  0.45593999997E+02  0.45594000000E+02  0.51100000000E-03 0.  1.
         11   -1    0    0    0    0 -0.00000000000E+00 -0.00000000000E+00 -0.45593999997E+02  0.45594000000E+02  0.51100000000E-03 0. -1.
    9900012    2    1    2    0    0  0.14415798306E+02 -0.75867292711E+01 -0.27410724092E+02  0.59301929419E+02  0.49999973357E+02 0.  0.
        -12    1    1    2    0    0 -0.14415798306E+02  0.75867292711E+01  0.27410724092E+02  0.31886070581E+02  0.00000000000E+00 0.  1.
         11    1    3    3    0    0  0.77952194222E+00  0.76005629222E+01 -0.22400098385E+02  0.23667290067E+02  0.51100000000E-03 0. -1.
        -11    1    3    3    0    0 -0.72556983163E+01 -0.11805062392E+02 -0.41027237879E+01  0.14451193683E+02  0.51100000000E-03 0.  1.
         12    1    3    3    0    0  0.20891974680E+02 -0.33822298014E+01 -0.90790191944E+00  0.21183445668E+02  0.00000000000E+00 0. -1.
</event>
<event>
 7    1  0.6830263E-012  0.5930193E+02  0.7816164E-02  0.1266605E+00
        -11   -1    0    0    0    0  0.00000000000E+00  0.00000000000E+00  0.45593999997E+02  0.45594000000E+02  0.51100000000E-03 0.  1.
         11   -1    0    0    0    0 -0.00000000000E+00 -0.00000000000E+00 -0.45593999997E+02  0.45594000000E+02  0.51100000000E-03 0. -1.
    9900012    2    1    2    0    0  0.24624239306E+02 -0.20167372196E+02 -0.19092396769E+01  0.59301933155E+02  0.49999980172E+02 0.  0.
        -12    1    1    2    0    0 -0.24624239306E+02  0.20167372196E+02  0.19092396769E+01  0.31886066845E+02  0.00000000000E+00 0.  1.
         11    1    3    3    0    0  0.37135946219E+01 -0.11031719115E+02 -0.46323511886E+01  0.12527900441E+02  0.51100000000E-03 0. -1.
        -11    1    3    3    0    0 -0.15675182673E+01 -0.19781161832E+02  0.79199726981E+01  0.21365332779E+02  0.51100000000E-03 0.  1.
        -12    1    3    3    0    0  0.22478162951E+02  0.10645508752E+02 -0.51968611864E+01  0.25408699936E+02  0.00000000000E+00 0.  1.
</event>
<event>
 7    1  0.6830263E-012  0.5930185E+02  0.7816164E-02  0.1266605E+00
        -11   -1    0    0    0    0  0.00000000000E+00  0.00000000000E+00  0.45593999997E+02  0.45594000000E+02  0.51100000000E-03 0.  1.
         11   -1    0    0    0    0 -0.00000000000E+00 -0.00000000000E+00 -0.45593999997E+02  0.45594000000E+02  0.51100000000E-03 0. -1.
    9900012    2    1    2    0    0  0.31761366952E+02  0.10267155449E+01 -0.26245235481E+01  0.59301847843E+02  0.49999824583E+02 0.  0.
        -12    1    1    2    0    0 -0.31761366952E+02 -0.10267155449E+01  0.26245235481E+01  0.31886152157E+02  0.00000000000E+00 0.  1.
         11    1    3    3    0    0  0.27142646687E+01 -0.11010375007E+01 -0.70915915432E+01  0.76726909977E+01  0.51100000000E-03 0. -1.
        -11    1    3    3    0    0  0.37764631283E+02  0.96318847061E+01 -0.79152106395E+00  0.38981624963E+02  0.51100000000E-03 0.  1.
         12    1    3    3    0    0 -0.87175289991E+01 -0.75041316604E+01  0.52585890591E+01  0.12647531882E+02  0.00000000000E+00 0. -1.
</event>
<event>
 7    1  0.6830263E-012  0.5930195E+02  0.7816164E-02  0.1266605E+00
        -11   -1    0    0    0    0  0.00000000000E+00  0.00000000000E+00  0.45593999997E+02  0.45594000000E+02  0.51100000000E-03 0. -1.
         11   -1    0    0    0    0 -0.00000000000E+00 -0.00000000000E+00 -0.45593999997E+02  0.45594000000E+02  0.51100000000E-03 0.  1.
    9900012    2    1    2    0    0  0.21713403892E+02  0.19922088373E+02  0.12180255987E+02  0.59301950548E+02  0.50000011892E+02 0.  0.
        -12    1    1    2    0    0 -0.21713403892E+02 -0.19922088373E+02 -0.12180255987E+02  0.31886049452E+02  0.00000000000E+00 0.  1.
         11    1    3    3    0    0  0.42433740994E+01 -0.11249498829E+02  0.13379192861E+00  0.12023948943E+02  0.51100000000E-03 0. -1.
        -11    1    3    3    0    0  0.71613020713E+00 -0.18084739104E+01 -0.58642896531E+01  0.61784556124E+01  0.51100000000E-03 0.  1.
         12    1    3    3    0    0  0.16753899586E+02  0.32980061112E+02  0.17910753712E+02  0.41099545993E+02  0.00000000000E+00 0. -1.
</event>
<event>
 7    1  0.6830263E-012  0.5930195E+02  0.7816164E-02  0.1266605E+00
        -11   -1    0    0    0    0  0.00000000000E+00  0.00000000000E+00  0.45593999997E+02  0.45594000000E+02  0.51100000000E-03 0.  1.
         11   -1    0    0    0    0 -0.00000000000E+00 -0.00000000000E+00 -0.45593999997E+02  0.45594000000E+02  0.51100000000E-03 0. -1.
    9900012    2    1    2    0    0  0.26468016501E+02  0.16128952253E+02 -0.74847425020E+01  0.59301947115E+02  0.50000005630E+02 0.  0.
        -12    1    1    2    0    0 -0.26468016501E+02 -0.16128952253E+02  0.74847425020E+01  0.31886052885E+02  0.00000000000E+00 0.  1.
         11    1    3    3    0    0  0.10943895570E+01  0.19236318001E+02 -0.18527424080E+01  0.19356298030E+02  0.51100000000E-03 0. -1.
        -11    1    3    3    0    0 -0.24533258978E+01  0.86350151717E+01 -0.36085683484E+01  0.96749191606E+01  0.51100000000E-03 0.  1.
        -12    1    3    3    0    0  0.27826952842E+02 -0.11742380919E+02 -0.20234317456E+01  0.30270729924E+02  0.00000000000E+00 0.  1.
</event>
<event>
 7    1  0.6830263E-012  0.5930195E+02  0.7816164E-02  0.1266605E+00
        -11   -1    0    0    0    0  0.00000000000E+00  0.00000000000E+00  0.45593999997E+02  0.45594000000E+02  0.51100000000E-03 0.  1.
         11   -1    0    0    0    0 -0.00000000000E+00 -0.00000000000E+00 -0.45593999997E+02  0.45594000000E+02  0.51100000000E-03 0. -1.
    9900012    2    1    2    0    0 -0.12904950056E+02 -0.99187759812E+01 -0.27418979760E+02  0.59301948128E+02  0.50000007477E+02 0.  0.
        -12    1    1    2    0    0  0.12904950056E+02  0.99187759812E+01  0.27418979760E+02  0.31886051872E+02  0.00000000000E+00 0.  1.
         11    1    3    3    0    0 -0.66399415119E+01  0.11400917505E+02 -0.29821235696E+02  0.32609444061E+02  0.51100000000E-03 0. -1.
        -11    1    3    3    0    0 -0.18112975667E+01  0.19295592352E+01 -0.89113202559E+00  0.27925103877E+01  0.51100000000E-03 0.  1.
         12    1    3    3    0    0 -0.44537109775E+01 -0.23249252722E+02  0.32933879616E+01  0.23899993679E+02  0.00000000000E+00 0. -1.
</event>
<event>
 7    1  0.6830263E-012  0.5930193E+02  0.7816164E-02  0.1266605E+00
        -11   -1    0    0    0    0  0.00000000000E+00  0.00000000000E+00  0.45593999997E+02  0.45594000000E+02  0.51100000000E-03 0. -1.
         11   -1    0    0    0    0 -0.00000000000E+00 -0.00000000000E+00 -0.45593999997E+02  0.45594000000E+02  0.51100000000E-03 0.  1.
    9900012    2    1    2    0    0  0.19588658849E+02 -0.14142658465E+01  0.25119832424E+02  0.59301926482E+02  0.49999968001E+02 0.  0.
        -12    1    1    2    0    0 -0.19588658849E+02  0.14142658465E+01 -0.25119832424E+02  0.31886073518E+02  0.00000000000E+00 0.  1.
         11    1    3    3    0    0  0.11613189124E+02 -0.84427544217E+01  0.15540954007E+02  0.21158154824E+02  0.51100000000E-03 0. -1.
        -11    1    3    3    0    0 -0.49938339611E+01  0.16537020658E+02  0.13101603397E+02  0.21680946513E+02  0.51100000000E-03 0.  1.
         12    1    3    3    0    0  0.12969303686E+02 -0.95085320830E+01 -0.35227249795E+01  0.16462825145E+02  0.00000000000E+00 0. -1.
</event>
<event>
 7    1  0.6830263E-012  0.5930185E+02  0.7816164E-02  0.1266605E+00
        -11   -1    0    0    0    0  0.00000000000E+00  0.00000000000E+00  0.45593999997E+02  0.45594000000E+02  0.51100000000E-03 0. -1.
         11   -1    0    0    0    0 -0.00000000000E+00 -0.00000000000E+00 -0.45593999997E+02  0.45594000000E+02  0.51100000000E-03 0.  1.
    9900012    2    1    2    0    0 -0.87530162728E+01 -0.25942590193E+02  0.16342986895E+02  0.59301850963E+02  0.49999830271E+02 0.  0.
        -12    1    1    2    0    0  0.87530162728E+01  0.25942590193E+02 -0.16342986895E+02  0.31886149037E+02  0.00000000000E+00 0.  1.
         11    1    3    3    0    0  0.10176198378E+02 -0.23520004862E+01  0.49488094628E+01  0.11557579118E+02  0.51100000000E-03 0.  1.
        -11    1    3    3    0    0 -0.20996980999E+01 -0.16831688532E+02 -0.10005467486E+02  0.19693243786E+02  0.51100000000E-03 0. -1.
         12    1    3    3    0    0 -0.16829516551E+02 -0.67589011746E+01  0.21399644919E+02  0.28051028058E+02  0.00000000000E+00 0. -1.
</event>
<event>
 7    1  0.6830263E-012  0.5930199E+02  0.7816164E-02  0.1266605E+00
        -11   -1    0    0    0    0  0.00000000000E+00  0.00000000000E+00  0.45593999997E+02  0.45594000000E+02  0.51100000000E-03 0.  1.
         11   -1    0    0    0    0 -0.00000000000E+00 -0.00000000000E+00 -0.45593999997E+02  0.45594000000E+02  0.51100000000E-03 0. -1.
    9900012    2    1    2    0    0  0.69143338783E+00  0.29625502008E+02 -0.11771540146E+02  0.59301990422E+02  0.50000084613E+02 0.  0.
        -12    1    1    2    0    0 -0.69143338783E+00 -0.29625502008E+02  0.11771540146E+02  0.31886009578E+02  0.00000000000E+00 0.  1.
         11    1    3    3    0    0  0.27746091621E+01  0.12471286052E+02 -0.12874137372E+01  0.12840905972E+02  0.51100000000E-03 0. -1.
        -11    1    3    3    0    0  0.71762442838E+01  0.28745160378E+02 -0.28153141246E+01  0.29760858876E+02  0.51100000000E-03 0.  1.
         12    1    3    3    0    0 -0.92594200580E+01 -0.11590944421E+02 -0.76688122846E+01  0.16700225575E+02  0.00000000000E+00 0. -1.
</event>
<event>
 7    1  0.6830263E-012  0.5930194E+02  0.7816164E-02  0.1266605E+00
        -11   -1    0    0    0    0  0.00000000000E+00  0.00000000000E+00  0.45593999997E+02  0.45594000000E+02  0.51100000000E-03 0.  1.
         11   -1    0    0    0    0 -0.00000000000E+00 -0.00000000000E+00 -0.45593999997E+02  0.45594000000E+02  0.51100000000E-03 0. -1.
    9900012    2    1    2    0    0  0.27478369470E+02 -0.37123305827E+01 -0.15744164856E+02  0.59301938561E+02  0.49999990030E+02 0.  0.
        -12    1    1    2    0    0 -0.27478369470E+02  0.37123305827E+01  0.15744164856E+02  0.31886061439E+02  0.00000000000E+00 0.  1.
         11    1    3    3    0    0 -0.48260944501E+01  0.13236157467E+01 -0.96712210917E+01  0.10889245334E+02  0.51100000000E-03 0. -1.
        -11    1    3    3    0    0  0.50522687332E+01  0.10021871566E+02  0.84577904729E+01  0.14053382119E+02  0.51100000000E-03 0.  1.
         12    1    3    3    0    0  0.27252195187E+02 -0.15057817896E+02 -0.14530734238E+02  0.34359311107E+02  0.00000000000E+00 0. -1.
</event>
<event>
 7    1  0.6830263E-012  0.5930194E+02  0.7816164E-02  0.1266605E+00
        -11   -1    0    0    0    0  0.00000000000E+00  0.00000000000E+00  0.45593999997E+02  0.45594000000E+02  0.51100000000E-03 0.  1.
         11   -1    0    0    0    0 -0.00000000000E+00 -0.00000000000E+00 -0.45593999997E+02  0.45594000000E+02  0.51100000000E-03 0. -1.
    9900012    2    1    2    0    0 -0.19051346545E+02  0.11275178134E+01 -0.25543993952E+02  0.59301941470E+02  0.49999995335E+02 0.  0.
        -12    1    1    2    0    0  0.19051346545E+02 -0.11275178134E+01  0.25543993952E+02  0.31886058530E+02  0.00000000000E+00 0.  1.
         11    1    3    3    0    0 -0.28292868902E+02  0.11169043262E+02 -0.19807983495E+02  0.36298624884E+02  0.51100000000E-03 0. -1.
        -11    1    3    3    0    0 -0.29173689970E+01 -0.96631454577E+01 -0.21416067853E+01  0.10318619185E+02  0.51100000000E-03 0.  1.
        -12    1    3    3    0    0  0.12158891355E+02 -0.37837999056E+00 -0.35944036714E+01  0.12684697400E+02  0.00000000000E+00 0.  1.
</event>
<event>
 7    1  0.6830263E-012  0.5930193E+02  0.7816164E-02  0.1266605E+00
        -11   -1    0    0    0    0  0.00000000000E+00  0.00000000000E+00  0.45593999997E+02  0.45594000000E+02  0.51100000000E-03 0.  1.
         11   -1    0    0    0    0 -0.00000000000E+00 -0.00000000000E+00 -0.45593999997E+02  0.45594000000E+02  0.51100000000E-03 0. -1.
    9900012    2    1    2    0    0  0.39982981954E+01  0.17740290031E+02 -0.26191929016E+02  0.59301930558E+02  0.49999975435E+02 0.  0.
        -12    1    1    2    0    0 -0.39982981954E+01 -0.17740290031E+02  0.26191929016E+02  0.31886069442E+02  0.00000000000E+00 0.  1.
         11    1    3    3    0    0 -0.71276568054E+01  0.94911482710E+01 -0.44664240133E+01  0.12682047578E+02  0.51100000000E-03 0. -1.
        -11    1    3    3    0    0 -0.10725036916E+02  0.10804494668E+02 -0.19158645408E+02  0.24470742040E+02  0.51100000000E-03 0.  1.
         12    1    3    3    0    0  0.21850991916E+02 -0.25553529079E+01 -0.25668595946E+01  0.22149140940E+02  0.00000000000E+00 0. -1.
</event>
<event>
 7    1  0.6830263E-012  0.5930194E+02  0.7816164E-02  0.1266605E+00
        -11   -1    0    0    0    0  0.00000000000E+00  0.00000000000E+00  0.45593999997E+02  0.45594000000E+02  0.51100000000E-03 0.  1.
         11   -1    0    0    0    0 -0.00000000000E+00 -0.00000000000E+00 -0.45593999997E+02  0.45594000000E+02  0.51100000000E-03 0. -1.
    9900012    2    1    2    0    0 -0.30409710455E+01 -0.25778600206E+01 -0.31635866077E+02  0.59301938945E+02  0.49999990730E+02 0.  0.
        -12    1    1    2    0    0  0.30409710455E+01  0.25778600206E+01  0.31635866077E+02  0.31886061055E+02  0.00000000000E+00 0.  1.
         11    1    3    3    0    0 -0.31972119347E+01  0.14099491844E+02 -0.18793711054E+02  0.23711208528E+02  0.51100000000E-03 0. -1.
        -11    1    3    3    0    0 -0.99946808700E+01  0.23778728574E+01  0.36693339681E+00  0.10280202595E+02  0.51100000000E-03 0.  1.
         12    1    3    3    0    0  0.10150921759E+02 -0.19055224722E+02 -0.13209088419E+02  0.25310527822E+02  0.00000000000E+00 0. -1.
</event>
<event>
 7    1  0.6830263E-012  0.5930192E+02  0.7816164E-02  0.1266605E+00
        -11   -1    0    0    0    0  0.00000000000E+00  0.00000000000E+00  0.45593999997E+02  0.45594000000E+02  0.51100000000E-03 0.  1.
         11   -1    0    0    0    0 -0.00000000000E+00 -0.00000000000E+00 -0.45593999997E+02  0.45594000000E+02  0.51100000000E-03 0. -1.
    9900012    2    1    2    0    0 -0.14874074712E+02 -0.22773815004E+02 -0.16638425210E+02  0.59301922445E+02  0.49999960638E+02 0.  0.
        -12    1    1    2    0    0  0.14874074712E+02  0.22773815004E+02  0.16638425210E+02  0.31886077555E+02  0.00000000000E+00 0.  1.
         11    1    3    3    0    0 -0.71836281268E+01 -0.42781111462E+01 -0.97213954744E+01  0.12822335133E+02  0.51100000000E-03 0. -1.
        -11    1    3    3    0    0 -0.15448673452E+02 -0.18478485194E+02  0.11355503012E+02  0.26628243942E+02  0.51100000000E-03 0.  1.
        -12    1    3    3    0    0  0.77582268667E+01 -0.17218663989E-01 -0.18272532747E+02  0.19851343370E+02  0.00000000000E+00 0.  1.
</event>
<event>
 7    1  0.6830263E-012  0.5930194E+02  0.7816164E-02  0.1266605E+00
        -11   -1    0    0    0    0  0.00000000000E+00  0.00000000000E+00  0.45593999997E+02  0.45594000000E+02  0.51100000000E-03 0. -1.
         11   -1    0    0    0    0 -0.00000000000E+00 -0.00000000000E+00 -0.45593999997E+02  0.45594000000E+02  0.51100000000E-03 0.  1.
    9900012    2    1    2    0    0 -0.20856645424E+02 -0.22276355913E+02 -0.92458175559E+01  0.59301939826E+02  0.49999992338E+02 0.  0.
        -12    1    1    2    0    0  0.20856645424E+02  0.22276355913E+02  0.92458175559E+01  0.31886060174E+02  0.00000000000E+00 0.  1.
         11    1    3    3    0    0 -0.19864189641E+02 -0.30331733865E+01 -0.46151928544E+01  0.20617618103E+02  0.51100000000E-03 0. -1.
        -11    1    3    3    0    0  0.18728966098E+01 -0.19255823926E+02 -0.17142345823E+02  0.25848685021E+02  0.51100000000E-03 0.  1.
         12    1    3    3    0    0 -0.28653523929E+01  0.12641398930E-01  0.12511721121E+02  0.12835636702E+02  0.00000000000E+00 0. -1.
</event>
<event>
 7    1  0.6830263E-012  0.5930196E+02  0.7816164E-02  0.1266605E+00
        -11   -1    0    0    0    0  0.00000000000E+00  0.00000000000E+00  0.45593999997E+02  0.45594000000E+02  0.51100000000E-03 0. -1.
         11   -1    0    0    0    0 -0.00000000000E+00 -0.00000000000E+00 -0.45593999997E+02  0.45594000000E+02  0.51100000000E-03 0.  1.
    9900012    2    1    2    0    0  0.13260169759E+00 -0.14505042773E+02  0.28395521823E+02  0.59301960600E+02  0.50000030223E+02 0.  0.
        -12    1    1    2    0    0 -0.13260169759E+00  0.14505042773E+02 -0.28395521823E+02  0.31886039400E+02  0.00000000000E+00 0.  1.
         11    1    3    3    0    0  0.35595087235E+01 -0.13438317303E+01  0.97069316515E+01  0.10425953598E+02  0.51100000000E-03 0. -1.
        -11    1    3    3    0    0  0.16515493016E+02 -0.68853135547E+01 -0.36699038604E+01  0.18265739703E+02  0.51100000000E-03 0.  1.
        -12    1    3    3    0    0 -0.19942400042E+02 -0.62758974877E+01  0.22358494032E+02  0.30610267298E+02  0.00000000000E+00 0.  1.
</event>
<event>
 7    1  0.6830263E-012  0.5930194E+02  0.7816164E-02  0.1266605E+00
        -11   -1    0    0    0    0  0.00000000000E+00  0.00000000000E+00  0.45593999997E+02  0.45594000000E+02  0.51100000000E-03 0. -1.
         11   -1    0    0    0    0 -0.00000000000E+00 -0.00000000000E+00 -0.45593999997E+02  0.45594000000E+02  0.51100000000E-03 0.  1.
    9900012    2    1    2    0    0 -0.29526900437E+02 -0.75016185576E+01 -0.94132336630E+01  0.59301935671E+02  0.49999984760E+02 0.  0.
        -12    1    1    2    0    0  0.29526900437E+02  0.75016185576E+01  0.94132336630E+01  0.31886064329E+02  0.00000000000E+00 0.  1.
         11    1    3    3    0    0 -0.69535393858E+01 -0.41171789866E+01  0.80824999173E+01  0.11429334100E+02  0.51100000000E-03 0. -1.
        -11    1    3    3    0    0  0.10092415656E+02  0.11399629721E+01  0.74957551414E+00  0.10184214896E+02  0.51100000000E-03 0.  1.
         12    1    3    3    0    0 -0.32665776706E+02 -0.45244025431E+01 -0.18245309094E+02  0.37688386675E+02  0.00000000000E+00 0. -1.
</event>
<event>
 7    1  0.6830263E-012  0.5930197E+02  0.7816164E-02  0.1266605E+00
        -11   -1    0    0    0    0  0.00000000000E+00  0.00000000000E+00  0.45593999997E+02  0.45594000000E+02  0.51100000000E-03 0. -1.
         11   -1    0    0    0    0 -0.00000000000E+00 -0.00000000000E+00 -0.45593999997E+02  0.45594000000E+02  0.51100000000E-03 0.  1.
    9900012    2    1    2    0    0 -0.63161982932E+01  0.69572266638E+00  0.31246446453E+02  0.59301971604E+02  0.50000050293E+02 0.  0.
        -12    1    1    2    0    0  0.63161982932E+01 -0.69572266638E+00 -0.31246446453E+02  0.31886028396E+02  0.00000000000E+00 0.  1.
         11    1    3    3    0    0  0.58439776228E+01 -0.96912666484E+01 -0.27673287055E+01  0.11650357597E+02  0.51100000000E-03 0.  1.
        -11    1    3    3    0    0 -0.10359530239E+02 -0.63914045159E+01  0.33072207841E+01  0.12613787220E+02  0.51100000000E-03 0. -1.
        -12    1    3    3    0    0 -0.18006456769E+01  0.16778393831E+02  0.30706554375E+02  0.35037826787E+02  0.00000000000E+00 0.  1.
</event>
<event>
 7    1  0.6830263E-012  0.5930195E+02  0.7816164E-02  0.1266605E+00
        -11   -1    0    0    0    0  0.00000000000E+00  0.00000000000E+00  0.45593999997E+02  0.45594000000E+02  0.51100000000E-03 0.  1.
         11   -1    0    0    0    0 -0.00000000000E+00 -0.00000000000E+00 -0.45593999997E+02  0.45594000000E+02  0.51100000000E-03 0. -1.
    9900012    2    1    2    0    0 -0.27767096303E+02  0.10629330539E+02 -0.11520677905E+02  0.59301947812E+02  0.50000006901E+02 0.  0.
        -12    1    1    2    0    0  0.27767096303E+02 -0.10629330539E+02  0.11520677905E+02  0.31886052188E+02  0.00000000000E+00 0.  1.
         11    1    3    3    0    0 -0.24284527450E+02 -0.20427251868E+01  0.11427961870E+02  0.26916710654E+02  0.51100000000E-03 0. -1.
        -11    1    3    3    0    0 -0.87182255071E+01  0.86934835336E+00 -0.44519295671E+01  0.98276599292E+01  0.51100000000E-03 0.  1.
        -12    1    3    3    0    0  0.52356566546E+01  0.11802707372E+02 -0.18496710207E+02  0.22557577228E+02  0.00000000000E+00 0.  1.
</event>
<event>
 7    1  0.6830263E-012  0.5930178E+02  0.7816164E-02  0.1266605E+00
        -11   -1    0    0    0    0  0.00000000000E+00  0.00000000000E+00  0.45593999997E+02  0.45594000000E+02  0.51100000000E-03 0. -1.
         11   -1    0    0    0    0 -0.00000000000E+00 -0.00000000000E+00 -0.45593999997E+02  0.45594000000E+02  0.51100000000E-03 0.  1.
    9900012    2    1    2    0    0 -0.31024729679E+02  0.25813443398E-01 -0.73618106792E+01  0.59301783942E+02  0.49999708041E+02 0.  0.
        -12    1    1    2    0    0  0.31024729679E+02 -0.25813443398E-01  0.73618106792E+01  0.31886216058E+02  0.00000000000E+00 0.  1.
         11    1    3    3    0    0 -0.98529015225E+01  0.19765777728E+02  0.54927879333E+01  0.22758215157E+02  0.51100000000E-03 0. -1.
        -11    1    3    3    0    0 -0.30327967183E+01  0.64455378122E+00  0.35437822586E+01  0.47086833052E+01  0.51100000000E-03 0.  1.
        -12    1    3    3    0    0 -0.18139031439E+02 -0.20384518066E+02 -0.16398380871E+02  0.31834885480E+02  0.00000000000E+00 0.  1.
</event>
<event>
 7    1  0.6830263E-012  0.5930197E+02  0.7816164E-02  0.1266605E+00
        -11   -1    0    0    0    0  0.00000000000E+00  0.00000000000E+00  0.45593999997E+02  0.45594000000E+02  0.51100000000E-03 0. -1.
         11   -1    0    0    0    0 -0.00000000000E+00 -0.00000000000E+00 -0.45593999997E+02  0.45594000000E+02  0.51100000000E-03 0.  1.
    9900012    2    1    2    0    0 -0.21595383167E+01  0.31891596774E+01  0.31652563773E+02  0.59301966402E+02  0.50000040806E+02 0.  0.
        -12    1    1    2    0    0  0.21595383167E+01 -0.31891596774E+01 -0.31652563773E+02  0.31886033598E+02  0.00000000000E+00 0.  1.
         11    1    3    3    0    0  0.37515076347E+01  0.23984618855E+01 -0.20176201730E+01  0.48884783290E+01  0.51100000000E-03 0. -1.
        -11    1    3    3    0    0  0.43875086252E+01 -0.96549593853E+01 -0.59533799787E+01  0.12161875106E+02  0.51100000000E-03 0.  1.
         12    1    3    3    0    0 -0.10298554577E+02  0.10445657177E+02  0.39623563925E+02  0.42251612967E+02  0.00000000000E+00 0. -1.
</event>
<event>
 7    1  0.6830263E-012  0.5930215E+02  0.7816164E-02  0.1266604E+00
        -11   -1    0    0    0    0  0.00000000000E+00  0.00000000000E+00  0.45593999997E+02  0.45594000000E+02  0.51100000000E-03 0. -1.
         11   -1    0    0    0    0 -0.00000000000E+00 -0.00000000000E+00 -0.45593999997E+02  0.45594000000E+02  0.51100000000E-03 0.  1.
    9900012    2    1    2    0    0 -0.23489578630E+02  0.16141529266E+02  0.14296786312E+02  0.59302150942E+02  0.50000377361E+02 0.  0.
        -12    1    1    2    0    0  0.23489578630E+02 -0.16141529266E+02 -0.14296786312E+02  0.31885849058E+02  0.00000000000E+00 0.  1.
         11    1    3    3    0    0 -0.22767532029E+02  0.74927073765E+01  0.14784243117E+02  0.28161587727E+02  0.51100000000E-03 0. -1.
        -11    1    3    3    0    0 -0.65936585752E+01  0.46294516573E+01  0.13343209425E+02  0.15586833997E+02  0.51100000000E-03 0.  1.
        -12    1    3    3    0    0  0.58716119733E+01  0.40193702321E+01 -0.13830666230E+02  0.15553729218E+02  0.00000000000E+00 0.  1.
</event>
<event>
 7    1  0.6830263E-012  0.5930194E+02  0.7816164E-02  0.1266605E+00
        -11   -1    0    0    0    0  0.00000000000E+00  0.00000000000E+00  0.45593999997E+02  0.45594000000E+02  0.51100000000E-03 0.  1.
         11   -1    0    0    0    0 -0.00000000000E+00 -0.00000000000E+00 -0.45593999997E+02  0.45594000000E+02  0.51100000000E-03 0. -1.
    9900012    2    1    2    0    0 -0.17103889857E+02  0.24093565846E+02 -0.11986571300E+02  0.59301939489E+02  0.49999991722E+02 0.  0.
        -12    1    1    2    0    0  0.17103889857E+02 -0.24093565846E+02  0.11986571300E+02  0.31886060511E+02  0.00000000000E+00 0.  1.
         11    1    3    3    0    0  0.99981635258E+01  0.71333993575E+00  0.59006147341E+01  0.11631396402E+02  0.51100000000E-03 0.  1.
        -11    1    3    3    0    0 -0.18107911205E+02  0.19491067791E+02 -0.24240901929E+02  0.35991936575E+02  0.51100000000E-03 0. -1.
         12    1    3    3    0    0 -0.89941421776E+01  0.38891581190E+01  0.63537158948E+01  0.11678606512E+02  0.00000000000E+00 0. -1.
</event>
<event>
 7    1  0.6830263E-012  0.5930196E+02  0.7816164E-02  0.1266605E+00
        -11   -1    0    0    0    0  0.00000000000E+00  0.00000000000E+00  0.45593999997E+02  0.45594000000E+02  0.51100000000E-03 0.  1.
         11   -1    0    0    0    0 -0.00000000000E+00 -0.00000000000E+00 -0.45593999997E+02  0.45594000000E+02  0.51100000000E-03 0. -1.
    9900012    2    1    2    0    0  0.44405662704E+00 -0.30871430396E+02  0.79672355283E+01  0.59301964766E+02  0.50000037822E+02 0.  0.
        -12    1    1    2    0    0 -0.44405662704E+00  0.30871430396E+02 -0.79672355283E+01  0.31886035234E+02  0.00000000000E+00 0.  1.
         11    1    3    3    0    0 -0.91363867586E-01 -0.35525117947E+01 -0.12880799578E+02  0.13362024002E+02  0.51100000000E-03 0. -1.
        -11    1    3    3    0    0  0.71737077039E+01 -0.28441984611E+02  0.64325672303E+01  0.30029760110E+02  0.51100000000E-03 0.  1.
         12    1    3    3    0    0 -0.66382872093E+01  0.11230660102E+01  0.14415467876E+02  0.15910180653E+02  0.00000000000E+00 0. -1.
</event>
<event>
 7    1  0.6830263E-012  0.5930204E+02  0.7816164E-02  0.1266604E+00
        -11   -1    0    0    0    0  0.00000000000E+00  0.00000000000E+00  0.45593999997E+02  0.45594000000E+02  0.51100000000E-03 0. -1.
         11   -1    0    0    0    0 -0.00000000000E+00 -0.00000000000E+00 -0.45593999997E+02  0.45594000000E+02  0.51100000000E-03 0.  1.
    9900012    2    1    2    0    0  0.28355754803E+02 -0.83783359347E+01 -0.11936052026E+02  0.59302036294E+02  0.50000168271E+02 0.  0.
        -12    1    1    2    0    0 -0.28355754803E+02  0.83783359347E+01  0.11936052026E+02  0.31885963706E+02  0.00000000000E+00 0.  1.
         11    1    3    3    0    0  0.10509248205E+01 -0.18376730359E+02 -0.93721562910E+01  0.20655410319E+02  0.51100000000E-03 0. -1.
        -11    1    3    3    0    0  0.43126564830E+01  0.49104488469E+01 -0.11689065250E+02  0.13392003603E+02  0.51100000000E-03 0.  1.
        -12    1    3    3    0    0  0.22992173500E+02  0.50879455773E+01  0.91251695151E+01  0.25254622371E+02  0.00000000000E+00 0.  1.
</event>
<event>
 7    1  0.6830263E-012  0.5930192E+02  0.7816164E-02  0.1266605E+00
        -11   -1    0    0    0    0  0.00000000000E+00  0.00000000000E+00  0.45593999997E+02  0.45594000000E+02  0.51100000000E-03 0. -1.
         11   -1    0    0    0    0 -0.00000000000E+00 -0.00000000000E+00 -0.45593999997E+02  0.45594000000E+02  0.51100000000E-03 0.  1.
    9900012    2    1    2    0    0 -0.25391413365E+02 -0.12472476649E+02  0.14711759243E+02  0.59301915159E+02  0.49999947351E+02 0.  0.
        -12    1    1    2    0    0  0.25391413365E+02  0.12472476649E+02 -0.14711759243E+02  0.31886084841E+02  0.00000000000E+00 0.  1.
         11    1    3    3    0    0 -0.98311657594E+01 -0.18911254521E+02  0.28148692588E+01  0.21499089677E+02  0.51100000000E-03 0. -1.
        -11    1    3    3    0    0 -0.64469883277E+01 -0.70150886288E+01  0.18063545847E+02  0.20422213783E+02  0.51100000000E-03 0.  1.
        -12    1    3    3    0    0 -0.91132592784E+01  0.13453866501E+02 -0.61666558631E+01  0.17380611699E+02  0.00000000000E+00 0.  1.
</event>
<event>
 7    1  0.6830263E-012  0.5930195E+02  0.7816164E-02  0.1266605E+00
        -11   -1    0    0    0    0  0.00000000000E+00  0.00000000000E+00  0.45593999997E+02  0.45594000000E+02  0.51100000000E-03 0. -1.
         11   -1    0    0    0    0 -0.00000000000E+00 -0.00000000000E+00 -0.45593999997E+02  0.45594000000E+02  0.51100000000E-03 0.  1.
    9900012    2    1    2    0    0 -0.71274781811E+01 -0.27416352809E+02  0.14637725301E+02  0.59301947429E+02  0.50000006203E+02 0.  0.
        -12    1    1    2    0    0  0.71274781811E+01  0.27416352809E+02 -0.14637725301E+02  0.31886052571E+02  0.00000000000E+00 0.  1.
         11    1    3    3    0    0 -0.10320523837E+02 -0.13639207984E+02  0.77085650157E+01  0.18760681799E+02  0.51100000000E-03 0. -1.
        -11    1    3    3    0    0 -0.12032702760E+01 -0.84392565629E+01 -0.15161416617E+02  0.17393604134E+02  0.51100000000E-03 0.  1.
         12    1    3    3    0    0  0.43963159321E+01 -0.53378882623E+01  0.22090576902E+02  0.23147661496E+02  0.00000000000E+00 0. -1.
</event>
<event>
 7    1  0.6830263E-012  0.5930190E+02  0.7816164E-02  0.1266605E+00
        -11   -1    0    0    0    0  0.00000000000E+00  0.00000000000E+00  0.45593999997E+02  0.45594000000E+02  0.51100000000E-03 0. -1.
         11   -1    0    0    0    0 -0.00000000000E+00 -0.00000000000E+00 -0.45593999997E+02  0.45594000000E+02  0.51100000000E-03 0.  1.
    9900012    2    1    2    0    0 -0.58034000286E+01 -0.15868210004E+02  0.27041518641E+02  0.59301901602E+02  0.49999922625E+02 0.  0.
        -12    1    1    2    0    0  0.58034000286E+01  0.15868210004E+02 -0.27041518641E+02  0.31886098398E+02  0.00000000000E+00 0.  1.
         11    1    3    3    0    0  0.25225787441E+01  0.65544928097E+01  0.15977987868E+02  0.17453391535E+02  0.51100000000E-03 0. -1.
        -11    1    3    3    0    0 -0.47029007826E+01  0.31491338854E+01 -0.79630736237E+01  0.97695886196E+01  0.51100000000E-03 0.  1.
        -12    1    3    3    0    0 -0.36230779901E+01 -0.25571836699E+02  0.19026604397E+02  0.32078921447E+02  0.00000000000E+00 0.  1.
</event>
<event>
 7    1  0.6830263E-012  0.5930192E+02  0.7816164E-02  0.1266605E+00
        -11   -1    0    0    0    0  0.00000000000E+00  0.00000000000E+00  0.45593999997E+02  0.45594000000E+02  0.51100000000E-03 0.  1.
         11   -1    0    0    0    0 -0.00000000000E+00 -0.00000000000E+00 -0.45593999997E+02  0.45594000000E+02  0.51100000000E-03 0. -1.
    9900012    2    1    2    0    0  0.67341353320E+01 -0.13775091957E+02 -0.27957469475E+02  0.59301924097E+02  0.49999963651E+02 0.  0.
        -12    1    1    2    0    0 -0.67341353320E+01  0.13775091957E+02  0.27957469475E+02  0.31886075903E+02  0.00000000000E+00 0.  1.
         11    1    3    3    0    0  0.13558955518E+02  0.30490706882E+01 -0.12891760644E+02  0.18956254893E+02  0.51100000000E-03 0. -1.
        -11    1    3    3    0    0  0.10774079902E+02  0.11127389754E+01 -0.99365968377E+01  0.14698807527E+02  0.51100000000E-03 0.  1.
         12    1    3    3    0    0 -0.17598900088E+02 -0.17936901620E+02 -0.51291119935E+01  0.25646861677E+02  0.00000000000E+00 0. -1.
</event>
<event>
 7    1  0.6830263E-012  0.5930196E+02  0.7816164E-02  0.1266605E+00
        -11   -1    0    0    0    0  0.00000000000E+00  0.00000000000E+00  0.45593999997E+02  0.45594000000E+02  0.51100000000E-03 0.  1.
         11   -1    0    0    0    0 -0.00000000000E+00 -0.00000000000E+00 -0.45593999997E+02  0.45594000000E+02  0.51100000000E-03 0. -1.
    9900012    2    1    2    0    0 -0.12228377085E+02 -0.17782220634E+02 -0.23472947711E+02  0.59301955230E+02  0.50000020431E+02 0.  0.
        -12    1    1    2    0    0  0.12228377085E+02  0.17782220634E+02  0.23472947711E+02  0.31886044770E+02  0.00000000000E+00 0.  1.
         11    1    3    3    0    0 -0.94399242315E+01 -0.16062405737E+01 -0.34292843632E+02  0.35604652827E+02  0.51100000000E-03 0. -1.
        -11    1    3    3    0    0 -0.54865224097E+01 -0.19976584178E+01  0.31695549639E+00  0.58474805134E+01  0.51100000000E-03 0.  1.
        -12    1    3    3    0    0  0.26980695565E+01 -0.14178321643E+02  0.10502940425E+02  0.17849821890E+02  0.00000000000E+00 0.  1.
</event>
<event>
 7    1  0.6830263E-012  0.5930194E+02  0.7816164E-02  0.1266605E+00
        -11   -1    0    0    0    0  0.00000000000E+00  0.00000000000E+00  0.45593999997E+02  0.45594000000E+02  0.51100000000E-03 0. -1.
         11   -1    0    0    0    0 -0.00000000000E+00 -0.00000000000E+00 -0.45593999997E+02  0.45594000000E+02  0.51100000000E-03 0.  1.
    9900012    2    1    2    0    0 -0.20113112492E+02 -0.16737354252E+02  0.18222089598E+02  0.59301939240E+02  0.49999991269E+02 0.  0.
        -12    1    1    2    0    0  0.20113112492E+02  0.16737354252E+02 -0.18222089598E+02  0.31886060760E+02  0.00000000000E+00 0.  1.
         11    1    3    3    0    0 -0.34634994665E+01 -0.21084570559E+02  0.23108072272E+02  0.31472812849E+02  0.51100000000E-03 0. -1.
        -11    1    3    3    0    0 -0.15325849095E+02  0.11887665408E+01  0.59360059383E+01  0.16478197205E+02  0.51100000000E-03 0.  1.
        -12    1    3    3    0    0 -0.13237639309E+01  0.31584497661E+01 -0.10821988613E+02  0.11350929187E+02  0.00000000000E+00 0.  1.
</event>
<event>
 7    1  0.6830263E-012  0.5930194E+02  0.7816164E-02  0.1266605E+00
        -11   -1    0    0    0    0  0.00000000000E+00  0.00000000000E+00  0.45593999997E+02  0.45594000000E+02  0.51100000000E-03 0. -1.
         11   -1    0    0    0    0 -0.00000000000E+00 -0.00000000000E+00 -0.45593999997E+02  0.45594000000E+02  0.51100000000E-03 0.  1.
    9900012    2    1    2    0    0 -0.16711384674E+02  0.21707502975E+02 -0.16316708192E+02  0.59301936754E+02  0.49999986734E+02 0.  0.
        -12    1    1    2    0    0  0.16711384674E+02 -0.21707502975E+02  0.16316708192E+02  0.31886063246E+02  0.00000000000E+00 0.  1.
         11    1    3    3    0    0  0.11479714523E+02  0.14807851278E+02  0.80274921152E+01  0.20383741926E+02  0.51100000000E-03 0. -1.
        -11    1    3    3    0    0 -0.17661885245E+02  0.52312418933E+01 -0.97397364990E+01  0.20836759573E+02  0.51100000000E-03 0.  1.
        -12    1    3    3    0    0 -0.10529213953E+02  0.16684098037E+01 -0.14604463808E+02  0.18081435254E+02  0.00000000000E+00 0.  1.
</event>
<event>
 7    1  0.6830263E-012  0.5930198E+02  0.7816164E-02  0.1266605E+00
        -11   -1    0    0    0    0  0.00000000000E+00  0.00000000000E+00  0.45593999997E+02  0.45594000000E+02  0.51100000000E-03 0.  1.
         11   -1    0    0    0    0 -0.00000000000E+00 -0.00000000000E+00 -0.45593999997E+02  0.45594000000E+02  0.51100000000E-03 0. -1.
    9900012    2    1    2    0    0  0.15921622690E+02 -0.25863812904E+02  0.97099500531E+01  0.59301983989E+02  0.50000072880E+02 0.  0.
        -12    1    1    2    0    0 -0.15921622690E+02  0.25863812904E+02 -0.97099500531E+01  0.31886016011E+02  0.00000000000E+00 0.  1.
         11    1    3    3    0    0  0.13627789630E+02 -0.57615998594E+01  0.14194943465E+02  0.20503880203E+02  0.51100000000E-03 0. -1.
        -11    1    3    3    0    0  0.13931110046E+02 -0.16961946526E+02 -0.11574370392E+02  0.24814300460E+02  0.51100000000E-03 0.  1.
         12    1    3    3    0    0 -0.11637276987E+02 -0.31402665192E+01  0.70893769809E+01  0.13983803326E+02  0.00000000000E+00 0. -1.
</event>
<event>
 7    1  0.6830263E-012  0.5930194E+02  0.7816164E-02  0.1266605E+00
        -11   -1    0    0    0    0  0.00000000000E+00  0.00000000000E+00  0.45593999997E+02  0.45594000000E+02  0.51100000000E-03 0.  1.
         11   -1    0    0    0    0 -0.00000000000E+00 -0.00000000000E+00 -0.45593999997E+02  0.45594000000E+02  0.51100000000E-03 0. -1.
    9900012    2    1    2    0    0  0.31256484071E+02  0.57882143892E+01 -0.24998978900E+01  0.59301941734E+02  0.49999995816E+02 0.  0.
        -12    1    1    2    0    0 -0.31256484071E+02 -0.57882143892E+01  0.24998978900E+01  0.31886058266E+02  0.00000000000E+00 0.  1.
         11    1    3    3    0    0  0.70369602916E+01 -0.29882603641E+01  0.59133742305E+01  0.96652214253E+01  0.51100000000E-03 0. -1.
        -11    1    3    3    0    0  0.25066646000E+02 -0.94833573528E+00  0.11396765439E+02  0.27552174961E+02  0.51100000000E-03 0.  1.
         12    1    3    3    0    0 -0.84712222011E+00  0.97248104886E+01 -0.19810037560E+02  0.22084545348E+02  0.00000000000E+00 0. -1.
</event>
<event>
 7    1  0.6830263E-012  0.5930193E+02  0.7816164E-02  0.1266605E+00
        -11   -1    0    0    0    0  0.00000000000E+00  0.00000000000E+00  0.45593999997E+02  0.45594000000E+02  0.51100000000E-03 0.  1.
         11   -1    0    0    0    0 -0.00000000000E+00 -0.00000000000E+00 -0.45593999997E+02  0.45594000000E+02  0.51100000000E-03 0. -1.
    9900012    2    1    2    0    0 -0.48712548634E+01  0.19256766213E+02 -0.24943320426E+02  0.59301930898E+02  0.49999976054E+02 0.  0.
        -12    1    1    2    0    0  0.48712548634E+01 -0.19256766213E+02  0.24943320426E+02  0.31886069102E+02  0.00000000000E+00 0.  1.
         11    1    3    3    0    0  0.40897234200E+00 -0.31980657910E+01 -0.15101271600E+01  0.35602482330E+01  0.51100000000E-03 0. -1.
        -11    1    3    3    0    0 -0.46204845271E+01  0.76811732183E+01  0.13359583121E+02  0.16088124835E+02  0.51100000000E-03 0.  1.
         12    1    3    3    0    0 -0.65974267834E+00  0.14773658786E+02 -0.36792776387E+02  0.39653557830E+02  0.00000000000E+00 0. -1.
</event>
<event>
 7    1  0.6830263E-012  0.5930196E+02  0.7816164E-02  0.1266605E+00
        -11   -1    0    0    0    0  0.00000000000E+00  0.00000000000E+00  0.45593999997E+02  0.45594000000E+02  0.51100000000E-03 0. -1.
         11   -1    0    0    0    0 -0.00000000000E+00 -0.00000000000E+00 -0.45593999997E+02  0.45594000000E+02  0.51100000000E-03 0.  1.
    9900012    2    1    2    0    0 -0.20674284948E+00  0.17794653324E+02  0.26458031480E+02  0.59301955100E+02  0.50000020194E+02 0.  0.
        -12    1    1    2    0    0  0.20674284948E+00 -0.17794653324E+02 -0.26458031480E+02  0.31886044900E+02  0.00000000000E+00 0.  1.
         11    1    3    3    0    0 -0.36758287555E+01 -0.96253993949E+01  0.10539433007E+02  0.14739052850E+02  0.51100000000E-03 0. -1.
        -11    1    3    3    0    0 -0.11609851085E+02  0.35660686627E+01  0.99913914341E+01  0.15726836648E+02  0.51100000000E-03 0.  1.
        -12    1    3    3    0    0  0.15078936991E+02  0.23853984056E+02  0.59272070395E+01  0.28836065602E+02  0.00000000000E+00 0.  1.
</event>
<event>
 7    1  0.6830263E-012  0.5930206E+02  0.7816164E-02  0.1266604E+00
        -11   -1    0    0    0    0  0.00000000000E+00  0.00000000000E+00  0.45593999997E+02  0.45594000000E+02  0.51100000000E-03 0.  1.
         11   -1    0    0    0    0 -0.00000000000E+00 -0.00000000000E+00 -0.45593999997E+02  0.45594000000E+02  0.51100000000E-03 0. -1.
    9900012    2    1    2    0    0  0.55381932271E+01 -0.16947603343E+02 -0.26435213171E+02  0.59302057350E+02  0.50000206671E+02 0.  0.
        -12    1    1    2    0    0 -0.55381932271E+01  0.16947603343E+02  0.26435213171E+02  0.31885942650E+02  0.00000000000E+00 0.  1.
         11    1    3    3    0    0  0.62606380759E+01  0.14004880555E+01 -0.19691603453E+02  0.20710292194E+02  0.51100000000E-03 0. -1.
        -11    1    3    3    0    0 -0.33005488917E+01  0.92990397321E+01  0.55009758586E+00  0.98827309253E+01  0.51100000000E-03 0.  1.
        -12    1    3    3    0    0  0.25781040428E+01 -0.27647131131E+02 -0.72937073035E+01  0.28709034231E+02  0.00000000000E+00 0.  1.
</event>
<event>
 7    1  0.6830263E-012  0.5930191E+02  0.7816164E-02  0.1266605E+00
        -11   -1    0    0    0    0  0.00000000000E+00  0.00000000000E+00  0.45593999997E+02  0.45594000000E+02  0.51100000000E-03 0.  1.
         11   -1    0    0    0    0 -0.00000000000E+00 -0.00000000000E+00 -0.45593999997E+02  0.45594000000E+02  0.51100000000E-03 0. -1.
    9900012    2    1    2    0    0  0.11078948904E+01  0.31710890184E+02 -0.31487711037E+01  0.59301909823E+02  0.49999937618E+02 0.  0.
        -12    1    1    2    0    0 -0.11078948904E+01 -0.31710890184E+02  0.31487711037E+01  0.31886090177E+02  0.00000000000E+00 0.  1.
         11    1    3    3    0    0  0.35129048543E+01  0.19177033796E+02 -0.12846840036E+02  0.23348242437E+02  0.51100000000E-03 0. -1.
        -11    1    3    3    0    0  0.65342739129E+01  0.10484422697E+02 -0.88941176779E+01  0.15222522274E+02  0.51100000000E-03 0.  1.
        -12    1    3    3    0    0 -0.89392838769E+01  0.20494336912E+01  0.18592186610E+02  0.20731145111E+02  0.00000000000E+00 0.  1.
</event>
<event>
 7    1  0.6830263E-012  0.5930193E+02  0.7816164E-02  0.1266605E+00
        -11   -1    0    0    0    0  0.00000000000E+00  0.00000000000E+00  0.45593999997E+02  0.45594000000E+02  0.51100000000E-03 0.  1.
         11   -1    0    0    0    0 -0.00000000000E+00 -0.00000000000E+00 -0.45593999997E+02  0.45594000000E+02  0.51100000000E-03 0. -1.
    9900012    2    1    2    0    0 -0.27695329835E+02  0.12514447603E+02 -0.96477235080E+01  0.59301933100E+02  0.49999980070E+02 0.  0.
        -12    1    1    2    0    0  0.27695329835E+02 -0.12514447603E+02  0.96477235080E+01  0.31886066900E+02  0.00000000000E+00 0.  1.
         11    1    3    3    0    0 -0.21855181469E+02 -0.28548444161E+01 -0.22289387534E+02  0.31346704621E+02  0.51100000000E-03 0. -1.
        -11    1    3    3    0    0 -0.83573476835E+00 -0.18653064516E+00 -0.43191543342E+01  0.44032193573E+01  0.51100000000E-03 0.  1.
        -12    1    3    3    0    0 -0.50044135976E+01  0.15555822664E+02  0.16960818360E+02  0.23552009121E+02  0.00000000000E+00 0.  1.
</event>
<event>
 7    1  0.6830263E-012  0.5930193E+02  0.7816164E-02  0.1266605E+00
        -11   -1    0    0    0    0  0.00000000000E+00  0.00000000000E+00  0.45593999997E+02  0.45594000000E+02  0.51100000000E-03 0.  1.
         11   -1    0    0    0    0 -0.00000000000E+00 -0.00000000000E+00 -0.45593999997E+02  0.45594000000E+02  0.51100000000E-03 0. -1.
    9900012    2    1    2    0    0  0.22444641173E+02  0.22614864478E+02  0.12359423810E+01  0.59301928334E+02  0.49999971378E+02 0.  0.
        -12    1    1    2    0    0 -0.22444641173E+02 -0.22614864478E+02 -0.12359423810E+01  0.31886071666E+02  0.00000000000E+00 0.  1.
         11    1    3    3    0    0  0.13446527613E+02 -0.84204826279E+01 -0.26096163979E+01  0.16078673158E+02  0.51100000000E-03 0. -1.
        -11    1    3    3    0    0 -0.10162643902E+02  0.72242673635E+01  0.51696588744E+00  0.12479448065E+02  0.51100000000E-03 0.  1.
        -12    1    3    3    0    0  0.19160757462E+02  0.23811079742E+02  0.33285928914E+01  0.30743807110E+02  0.00000000000E+00 0.  1.
</event>
<event>
 7    1  0.6830263E-012  0.5930189E+02  0.7816164E-02  0.1266605E+00
        -11   -1    0    0    0    0  0.00000000000E+00  0.00000000000E+00  0.45593999997E+02  0.45594000000E+02  0.51100000000E-03 0.  1.
         11   -1    0    0    0    0 -0.00000000000E+00 -0.00000000000E+00 -0.45593999997E+02  0.45594000000E+02  0.51100000000E-03 0. -1.
    9900012    2    1    2    0    0 -0.22610836614E+02 -0.21469811671E+02 -0.66724077714E+01  0.59301893762E+02  0.49999908327E+02 0.  0.
        -12    1    1    2    0    0  0.22610836614E+02  0.21469811671E+02  0.66724077714E+01  0.31886106238E+02  0.00000000000E+00 0.  1.
         11    1    3    3    0    0 -0.66741711742E+01 -0.19225362099E+02 -0.48685497299E+01  0.20925149592E+02  0.51100000000E-03 0. -1.
        -11    1    3    3    0    0  0.37109575305E+01 -0.12390758563E+02  0.68433535264E+01  0.14633304183E+02  0.51100000000E-03 0.  1.
        -12    1    3    3    0    0 -0.19647622970E+02  0.10146308991E+02 -0.86472115679E+01  0.23743439987E+02  0.00000000000E+00 0.  1.
</event>
<event>
 7    1  0.6830263E-012  0.5930193E+02  0.7816164E-02  0.1266605E+00
        -11   -1    0    0    0    0  0.00000000000E+00  0.00000000000E+00  0.45593999997E+02  0.45594000000E+02  0.51100000000E-03 0.  1.
         11   -1    0    0    0    0 -0.00000000000E+00 -0.00000000000E+00 -0.45593999997E+02  0.45594000000E+02  0.51100000000E-03 0. -1.
    9900012    2    1    2    0    0  0.93726441030E+00  0.28239553296E+01 -0.31746939673E+02  0.59301931461E+02  0.49999977080E+02 0.  0.
        -12    1    1    2    0    0 -0.93726441030E+00 -0.28239553296E+01  0.31746939673E+02  0.31886068539E+02  0.00000000000E+00 0.  1.
         11    1    3    3    0    0  0.99090419841E+01 -0.10258691076E+02 -0.27874575047E+02  0.31311687753E+02  0.51100000000E-03 0. -1.
        -11    1    3    3    0    0  0.34638677372E+01 -0.44967117104E+01 -0.30445590149E+01  0.64411284542E+01  0.51100000000E-03 0.  1.
        -12    1    3    3    0    0 -0.12435645311E+02  0.17579358116E+02 -0.82780561140E+00  0.21549115253E+02  0.00000000000E+00 0.  1.
</event>
<event>
 7    1  0.6830263E-012  0.5930196E+02  0.7816164E-02  0.1266605E+00
        -11   -1    0    0    0    0  0.00000000000E+00  0.00000000000E+00  0.45593999997E+02  0.45594000000E+02  0.51100000000E-03 0.  1.
         11   -1    0    0    0    0 -0.00000000000E+00 -0.00000000000E+00 -0.45593999997E+02  0.45594000000E+02  0.51100000000E-03 0. -1.
    9900012    2    1    2    0    0  0.99312235587E+01  0.15201305336E+02  0.26210888934E+02  0.59301959418E+02  0.50000028068E+02 0.  0.
        -12    1    1    2    0    0 -0.99312235587E+01 -0.15201305336E+02 -0.26210888934E+02  0.31886040582E+02  0.00000000000E+00 0.  1.
         11    1    3    3    0    0  0.24547023569E+02  0.14892310230E+02  0.90450027772E+01  0.30102314622E+02  0.51100000000E-03 0. -1.
        -11    1    3    3    0    0  0.22224550321E+01  0.50099837344E+01  0.13961380915E+01  0.56558328494E+01  0.51100000000E-03 0.  1.
        -12    1    3    3    0    0 -0.16838255042E+02 -0.47009886288E+01  0.15769748065E+02  0.23543811947E+02  0.00000000000E+00 0.  1.
</event>
<event>
 7    1  0.6830263E-012  0.5930195E+02  0.7816164E-02  0.1266605E+00
        -11   -1    0    0    0    0  0.00000000000E+00  0.00000000000E+00  0.45593999997E+02  0.45594000000E+02  0.51100000000E-03 0.  1.
         11   -1    0    0    0    0 -0.00000000000E+00 -0.00000000000E+00 -0.45593999997E+02  0.45594000000E+02  0.51100000000E-03 0. -1.
    9900012    2    1    2    0    0 -0.11916337059E+02 -0.57372883497E+01 -0.29013865981E+02  0.59301953119E+02  0.50000016580E+02 0.  0.
        -12    1    1    2    0    0  0.11916337059E+02  0.57372883497E+01  0.29013865981E+02  0.31886046881E+02  0.00000000000E+00 0.  1.
         11    1    3    3    0    0 -0.80234068575E+01 -0.91031328420E+01 -0.36025100903E+01  0.12657810409E+02  0.51100000000E-03 0. -1.
        -11    1    3    3    0    0  0.73048169485E+01  0.50085753467E+01  0.76474668936E+01  0.11701706192E+02  0.51100000000E-03 0.  1.
         12    1    3    3    0    0 -0.11197747150E+02 -0.16427308544E+01 -0.33058822785E+02  0.34942436518E+02  0.00000000000E+00 0. -1.
</event>
<event>
 7    1  0.6830263E-012  0.5930195E+02  0.7816164E-02  0.1266605E+00
        -11   -1    0    0    0    0  0.00000000000E+00  0.00000000000E+00  0.45593999997E+02  0.45594000000E+02  0.51100000000E-03 0.  1.
         11   -1    0    0    0    0 -0.00000000000E+00 -0.00000000000E+00 -0.45593999997E+02  0.45594000000E+02  0.51100000000E-03 0. -1.
    9900012    2    1    2    0    0 -0.58118618352E+01 -0.16596498566E+02 -0.26598849527E+02  0.59301948210E+02  0.50000007627E+02 0.  0.
        -12    1    1    2    0    0  0.58118618352E+01  0.16596498566E+02  0.26598849527E+02  0.31886051790E+02  0.00000000000E+00 0.  1.
         11    1    3    3    0    0  0.14435401694E+02  0.11216321094E+02 -0.94167788869E+01  0.20563618500E+02  0.51100000000E-03 0.  1.
        -11    1    3    3    0    0 -0.74482732842E+01 -0.13434775002E+02 -0.61109276588E+01  0.16532192577E+02  0.51100000000E-03 0. -1.
        -12    1    3    3    0    0 -0.12798990245E+02 -0.14378044657E+02 -0.11071142981E+02  0.22206137133E+02  0.00000000000E+00 0.  1.
</event>
<event>
 7    1  0.6830263E-012  0.5930222E+02  0.7816164E-02  0.1266604E+00
        -11   -1    0    0    0    0  0.00000000000E+00  0.00000000000E+00  0.45593999997E+02  0.45594000000E+02  0.51100000000E-03 0.  1.
         11   -1    0    0    0    0 -0.00000000000E+00 -0.00000000000E+00 -0.45593999997E+02  0.45594000000E+02  0.51100000000E-03 0. -1.
    9900012    2    1    2    0    0  0.98461665647E+01  0.14341694266E+00 -0.30327134654E+02  0.59302224790E+02  0.50000512040E+02 0.  0.
        -12    1    1    2    0    0 -0.98461665647E+01 -0.14341694266E+00  0.30327134654E+02  0.31885775210E+02  0.00000000000E+00 0.  1.
         11    1    3    3    0    0 -0.10299224652E+02 -0.60238035380E+01 -0.12569748920E+02  0.17330863385E+02  0.51100000000E-03 0. -1.
        -11    1    3    3    0    0 -0.71290298099E+01 -0.44591797876E+01 -0.16787625807E+01  0.85747066697E+01  0.51100000000E-03 0.  1.
         12    1    3    3    0    0  0.27274421026E+02  0.10626400268E+02 -0.16078623153E+02  0.33396654735E+02  0.00000000000E+00 0. -1.
</event>
<event>
 7    1  0.6830263E-012  0.5930197E+02  0.7816164E-02  0.1266605E+00
        -11   -1    0    0    0    0  0.00000000000E+00  0.00000000000E+00  0.45593999997E+02  0.45594000000E+02  0.51100000000E-03 0.  1.
         11   -1    0    0    0    0 -0.00000000000E+00 -0.00000000000E+00 -0.45593999997E+02  0.45594000000E+02  0.51100000000E-03 0. -1.
    9900012    2    1    2    0    0  0.17029465438E+02  0.15941553797E+02 -0.21738982261E+02  0.59301965748E+02  0.50000039612E+02 0.  0.
        -12    1    1    2    0    0 -0.17029465438E+02 -0.15941553797E+02  0.21738982261E+02  0.31886034252E+02  0.00000000000E+00 0.  1.
         11    1    3    3    0    0  0.50434072715E+01  0.81880889252E+01 -0.29148029890E+02  0.30693458650E+02  0.51100000000E-03 0. -1.
        -11    1    3    3    0    0 -0.11317311920E+01  0.73785959737E+00 -0.74565928248E+01  0.75779963772E+01  0.51100000000E-03 0.  1.
        -12    1    3    3    0    0  0.13117789359E+02  0.70156052750E+01  0.14865640455E+02  0.21030510721E+02  0.00000000000E+00 0.  1.
</event>
<event>
 7    1  0.6830263E-012  0.5930192E+02  0.7816164E-02  0.1266605E+00
        -11   -1    0    0    0    0  0.00000000000E+00  0.00000000000E+00  0.45593999997E+02  0.45594000000E+02  0.51100000000E-03 0. -1.
         11   -1    0    0    0    0 -0.00000000000E+00 -0.00000000000E+00 -0.45593999997E+02  0.45594000000E+02  0.51100000000E-03 0.  1.
    9900012    2    1    2    0    0 -0.62589283144E+01  0.12464686400E+02  0.28673669710E+02  0.59301922704E+02  0.49999961111E+02 0.  0.
        -12    1    1    2    0    0  0.62589283144E+01 -0.12464686400E+02 -0.28673669710E+02  0.31886077296E+02  0.00000000000E+00 0.  1.
         11    1    3    3    0    0 -0.15411607735E+01  0.19237107670E+02  0.30279437881E+01  0.19534838926E+02  0.51100000000E-03 0. -1.
        -11    1    3    3    0    0  0.48670337272E+01  0.75879731128E+01  0.20007000921E+00  0.90169496800E+01  0.51100000000E-03 0.  1.
         12    1    3    3    0    0 -0.95848012681E+01 -0.14360394383E+02  0.25445655913E+02  0.30750134098E+02  0.00000000000E+00 0. -1.
</event>
<event>
 7    1  0.6830263E-012  0.5930196E+02  0.7816164E-02  0.1266605E+00
        -11   -1    0    0    0    0  0.00000000000E+00  0.00000000000E+00  0.45593999997E+02  0.45594000000E+02  0.51100000000E-03 0.  1.
         11   -1    0    0    0    0 -0.00000000000E+00 -0.00000000000E+00 -0.45593999997E+02  0.45594000000E+02  0.51100000000E-03 0. -1.
    9900012    2    1    2    0    0 -0.20272863971E+02  0.41561882850E+01 -0.24258130624E+02  0.59301955780E+02  0.50000021434E+02 0.  0.
        -12    1    1    2    0    0  0.20272863971E+02 -0.41561882850E+01  0.24258130624E+02  0.31886044220E+02  0.00000000000E+00 0.  1.
         11    1    3    3    0    0 -0.26049637196E+02  0.12340360908E+02 -0.29061304419E+02  0.40931986517E+02  0.51100000000E-03 0. -1.
        -11    1    3    3    0    0  0.57625485189E+00  0.19548466297E+01  0.65338614055E+01  0.68443290487E+01  0.51100000000E-03 0.  1.
        -12    1    3    3    0    0  0.52005183737E+01 -0.10139019253E+02 -0.17306876100E+01  0.11525640215E+02  0.00000000000E+00 0.  1.
</event>
<event>
 7    1  0.6830263E-012  0.5930196E+02  0.7816164E-02  0.1266605E+00
        -11   -1    0    0    0    0  0.00000000000E+00  0.00000000000E+00  0.45593999997E+02  0.45594000000E+02  0.51100000000E-03 0.  1.
         11   -1    0    0    0    0 -0.00000000000E+00 -0.00000000000E+00 -0.45593999997E+02  0.45594000000E+02  0.51100000000E-03 0. -1.
    9900012    2    1    2    0    0 -0.24421084807E+02 -0.17298001774E+02 -0.11004978109E+02  0.59301956161E+02  0.50000022129E+02 0.  0.
        -12    1    1    2    0    0  0.24421084807E+02  0.17298001774E+02  0.11004978109E+02  0.31886043839E+02  0.00000000000E+00 0.  1.
         11    1    3    3    0    0 -0.13133119690E+02 -0.10170890295E+02 -0.72916462369E+01  0.18140946703E+02  0.51100000000E-03 0. -1.
        -11    1    3    3    0    0 -0.24387733290E+02  0.23897672777E+00 -0.77658813323E+01  0.25595459715E+02  0.51100000000E-03 0.  1.
         12    1    3    3    0    0  0.13099768173E+02 -0.73660882068E+01  0.40525494607E+01  0.15565549743E+02  0.00000000000E+00 0. -1.
</event>
<event>
 7    1  0.6830263E-012  0.5930199E+02  0.7816164E-02  0.1266605E+00
        -11   -1    0    0    0    0  0.00000000000E+00  0.00000000000E+00  0.45593999997E+02  0.45594000000E+02  0.51100000000E-03 0. -1.
         11   -1    0    0    0    0 -0.00000000000E+00 -0.00000000000E+00 -0.45593999997E+02  0.45594000000E+02  0.51100000000E-03 0.  1.
    9900012    2    1    2    0    0 -0.26120247287E+02 -0.17262471747E+02  0.60380179121E+01  0.59301985676E+02  0.50000075957E+02 0.  0.
        -12    1    1    2    0    0  0.26120247287E+02  0.17262471747E+02 -0.60380179121E+01  0.31886014324E+02  0.00000000000E+00 0.  1.
         11    1    3    3    0    0 -0.15286547004E+02 -0.27011510109E+02  0.11975712457E+02  0.33267369700E+02  0.51100000000E-03 0. -1.
        -11    1    3    3    0    0 -0.77391278046E+01  0.50758586477E+01  0.72164865395E+01  0.11736103204E+02  0.51100000000E-03 0.  1.
        -12    1    3    3    0    0 -0.30945724786E+01  0.46731797144E+01 -0.13154181085E+02  0.14298512772E+02  0.00000000000E+00 0.  1.
</event>
<event>
 7    1  0.6830263E-012  0.5930196E+02  0.7816164E-02  0.1266605E+00
        -11   -1    0    0    0    0  0.00000000000E+00  0.00000000000E+00  0.45593999997E+02  0.45594000000E+02  0.51100000000E-03 0.  1.
         11   -1    0    0    0    0 -0.00000000000E+00 -0.00000000000E+00 -0.45593999997E+02  0.45594000000E+02  0.51100000000E-03 0. -1.
    9900012    2    1    2    0    0 -0.19233636569E+02 -0.23604467843E+02  0.94665637752E+01  0.59301960617E+02  0.50000030255E+02 0.  0.
        -12    1    1    2    0    0  0.19233636569E+02  0.23604467843E+02 -0.94665637752E+01  0.31886039383E+02  0.00000000000E+00 0.  1.
         11    1    3    3    0    0  0.16713467302E+01  0.74444836852E+01 -0.80867184953E+01  0.11117947361E+02  0.51100000000E-03 0. -1.
        -11    1    3    3    0    0  0.26195656908E+01 -0.93472405680E+01 -0.29841192080E+01  0.10155687980E+02  0.51100000000E-03 0.  1.
        -12    1    3    3    0    0 -0.23524548990E+02 -0.21701710961E+02  0.20537401479E+02  0.38028325276E+02  0.00000000000E+00 0.  1.
</event>
<event>
 7    1  0.6830263E-012  0.5930196E+02  0.7816164E-02  0.1266605E+00
        -11   -1    0    0    0    0  0.00000000000E+00  0.00000000000E+00  0.45593999997E+02  0.45594000000E+02  0.51100000000E-03 0.  1.
         11   -1    0    0    0    0 -0.00000000000E+00 -0.00000000000E+00 -0.45593999997E+02  0.45594000000E+02  0.51100000000E-03 0. -1.
    9900012    2    1    2    0    0  0.10266205608E+02  0.29367310509E+02 -0.69918352978E+01  0.59301958149E+02  0.50000025753E+02 0.  0.
        -12    1    1    2    0    0 -0.10266205608E+02 -0.29367310509E+02  0.69918352978E+01  0.31886041851E+02  0.00000000000E+00 0.  1.
         11    1    3    3    0    0  0.35768519049E+01  0.18600088573E+02 -0.20523930741E+02  0.27928281326E+02  0.51100000000E-03 0. -1.
        -11    1    3    3    0    0  0.11088667459E+02  0.87084789043E+01 -0.27650774013E+01  0.14368082828E+02  0.51100000000E-03 0.  1.
        -12    1    3    3    0    0 -0.43993137559E+01  0.20587430312E+01  0.16297172845E+02  0.17005593995E+02  0.00000000000E+00 0.  1.
</event>
<event>
 7    1  0.6830263E-012  0.5930197E+02  0.7816164E-02  0.1266605E+00
        -11   -1    0    0    0    0  0.00000000000E+00  0.00000000000E+00  0.45593999997E+02  0.45594000000E+02  0.51100000000E-03 0. -1.
         11   -1    0    0    0    0 -0.00000000000E+00 -0.00000000000E+00 -0.45593999997E+02  0.45594000000E+02  0.51100000000E-03 0.  1.
    9900012    2    1    2    0    0  0.14494289659E+02 -0.39670993642E+01  0.28122884383E+02  0.59301969577E+02  0.50000046597E+02 0.  0.
        -12    1    1    2    0    0 -0.14494289659E+02  0.39670993642E+01 -0.28122884383E+02  0.31886030423E+02  0.00000000000E+00 0.  1.
         11    1    3    3    0    0 -0.99290037613E+01 -0.41124550988E+01  0.18814826836E+02  0.21667835881E+02  0.51100000000E-03 0. -1.
        -11    1    3    3    0    0  0.16361089323E+01 -0.10840999766E+02  0.10082105220E+01  0.11010023482E+02  0.51100000000E-03 0.  1.
         12    1    3    3    0    0  0.22787184488E+02  0.10986355500E+02  0.82998470253E+01  0.26624110215E+02  0.00000000000E+00 0. -1.
</event>
<event>
 7    1  0.6830263E-012  0.5930204E+02  0.7816164E-02  0.1266604E+00
        -11   -1    0    0    0    0  0.00000000000E+00  0.00000000000E+00  0.45593999997E+02  0.45594000000E+02  0.51100000000E-03 0.  1.
         11   -1    0    0    0    0 -0.00000000000E+00 -0.00000000000E+00 -0.45593999997E+02  0.45594000000E+02  0.51100000000E-03 0. -1.
    9900012    2    1    2    0    0 -0.28911974169E+02  0.46731515130E+01 -0.12608486631E+02  0.59302038660E+02  0.50000172587E+02 0.  0.
        -12    1    1    2    0    0  0.28911974169E+02 -0.46731515130E+01  0.12608486631E+02  0.31885961340E+02  0.00000000000E+00 0.  1.
         11    1    3    3    0    0 -0.17602962759E+02  0.26689152571E+01 -0.11772879641E+02  0.21344509876E+02  0.51100000000E-03 0. -1.
        -11    1    3    3    0    0 -0.24304238692E+02  0.12994627572E+01 -0.37357524280E+01  0.24623981569E+02  0.51100000000E-03 0.  1.
         12    1    3    3    0    0  0.12995227282E+02  0.70477349857E+00  0.29001454373E+01  0.13333547215E+02  0.00000000000E+00 0. -1.
</event>
<event>
 7    1  0.6830263E-012  0.5930194E+02  0.7816164E-02  0.1266605E+00
        -11   -1    0    0    0    0  0.00000000000E+00  0.00000000000E+00  0.45593999997E+02  0.45594000000E+02  0.51100000000E-03 0. -1.
         11   -1    0    0    0    0 -0.00000000000E+00 -0.00000000000E+00 -0.45593999997E+02  0.45594000000E+02  0.51100000000E-03 0.  1.
    9900012    2    1    2    0    0  0.25175390309E+02  0.19556402934E+02 -0.68366150729E+00  0.59301944019E+02  0.49999999985E+02 0.  0.
        -12    1    1    2    0    0 -0.25175390309E+02 -0.19556402934E+02  0.68366150729E+00  0.31886055981E+02  0.00000000000E+00 0.  1.
         11    1    3    3    0    0  0.10801181114E+02 -0.63686305527E+01  0.40637862221E+01  0.13181021481E+02  0.51100000000E-03 0. -1.
        -11    1    3    3    0    0 -0.11503246968E+02  0.77353422148E+01  0.12792863597E+01  0.13921091330E+02  0.51100000000E-03 0.  1.
         12    1    3    3    0    0  0.25877456163E+02  0.18189691272E+02 -0.60267340891E+01  0.32199831208E+02  0.00000000000E+00 0. -1.
</event>
<event>
 7    1  0.6830263E-012  0.5930199E+02  0.7816164E-02  0.1266605E+00
        -11   -1    0    0    0    0  0.00000000000E+00  0.00000000000E+00  0.45593999997E+02  0.45594000000E+02  0.51100000000E-03 0.  1.
         11   -1    0    0    0    0 -0.00000000000E+00 -0.00000000000E+00 -0.45593999997E+02  0.45594000000E+02  0.51100000000E-03 0. -1.
    9900012    2    1    2    0    0 -0.23560575242E+02 -0.21139257252E+02  0.38404195882E+01  0.59301988561E+02  0.50000081217E+02 0.  0.
        -12    1    1    2    0    0  0.23560575242E+02  0.21139257252E+02 -0.38404195882E+01  0.31886011439E+02  0.00000000000E+00 0.  1.
         11    1    3    3    0    0 -0.22707329182E+02 -0.14307177206E+02  0.92290166915E+01  0.28381206238E+02  0.51100000000E-03 0. -1.
        -11    1    3    3    0    0 -0.11397097662E+01  0.98892685463E+01  0.50948858550E+01  0.11182773934E+02  0.51100000000E-03 0.  1.
        -12    1    3    3    0    0  0.28646370622E+00 -0.16721348592E+02 -0.10483482958E+02  0.19738008388E+02  0.00000000000E+00 0.  1.
</event>
<event>
 7    1  0.6830263E-012  0.5930194E+02  0.7816164E-02  0.1266605E+00
        -11   -1    0    0    0    0  0.00000000000E+00  0.00000000000E+00  0.45593999997E+02  0.45594000000E+02  0.51100000000E-03 0.  1.
         11   -1    0    0    0    0 -0.00000000000E+00 -0.00000000000E+00 -0.45593999997E+02  0.45594000000E+02  0.51100000000E-03 0. -1.
    9900012    2    1    2    0    0  0.29226037530E+02  0.77242693709E+01  0.10143715791E+02  0.59301943846E+02  0.49999999668E+02 0.  0.
        -12    1    1    2    0    0 -0.29226037530E+02 -0.77242693709E+01 -0.10143715791E+02  0.31886056154E+02  0.00000000000E+00 0.  1.
         11    1    3    3    0    0  0.28539480166E+01  0.16553219231E+02 -0.89179790111E+00  0.16821099546E+02  0.51100000000E-03 0. -1.
        -11    1    3    3    0    0 -0.70642248705E+00 -0.41031158717E+01  0.14212751063E+02  0.14810026524E+02  0.51100000000E-03 0.  1.
         12    1    3    3    0    0  0.27078512001E+02 -0.47258339884E+01 -0.31772373715E+01  0.27670817775E+02  0.00000000000E+00 0. -1.
</event>
<event>
 7    1  0.6830263E-012  0.5930196E+02  0.7816164E-02  0.1266605E+00
        -11   -1    0    0    0    0  0.00000000000E+00  0.00000000000E+00  0.45593999997E+02  0.45594000000E+02  0.51100000000E-03 0.  1.
         11   -1    0    0    0    0 -0.00000000000E+00 -0.00000000000E+00 -0.45593999997E+02  0.45594000000E+02  0.51100000000E-03 0. -1.
    9900012    2    1    2    0    0 -0.17308744795E+01 -0.30919970485E+02 -0.75946897487E+01  0.59301955817E+02  0.50000021500E+02 0.  0.
        -12    1    1    2    0    0  0.17308744795E+01  0.30919970485E+02  0.75946897487E+01  0.31886044183E+02  0.00000000000E+00 0.  1.
         11    1    3    3    0    0 -0.17000708379E+02 -0.81384967086E+01 -0.13668435552E+01  0.18897816689E+02  0.51100000000E-03 0. -1.
        -11    1    3    3    0    0  0.92965126151E+00 -0.65810349317E+01  0.10929203040E+02  0.12791471831E+02  0.51100000000E-03 0.  1.
        -12    1    3    3    0    0  0.14340182637E+02 -0.16200438845E+02 -0.17157049234E+02  0.27612667297E+02  0.00000000000E+00 0.  1.
</event>
<event>
 7    1  0.6830263E-012  0.5930193E+02  0.7816164E-02  0.1266605E+00
        -11   -1    0    0    0    0  0.00000000000E+00  0.00000000000E+00  0.45593999997E+02  0.45594000000E+02  0.51100000000E-03 0.  1.
         11   -1    0    0    0    0 -0.00000000000E+00 -0.00000000000E+00 -0.45593999997E+02  0.45594000000E+02  0.51100000000E-03 0. -1.
    9900012    2    1    2    0    0 -0.25804681987E+02  0.15644441916E+02  0.10300070674E+02  0.59301927316E+02  0.49999969522E+02 0.  0.
        -12    1    1    2    0    0  0.25804681987E+02 -0.15644441916E+02 -0.10300070674E+02  0.31886072684E+02  0.00000000000E+00 0.  1.
         11    1    3    3    0    0  0.30343025495E+00  0.88704632255E+01 -0.10968081995E+02  0.14109429849E+02  0.51100000000E-03 0. -1.
        -11    1    3    3    0    0 -0.20637892967E+01 -0.30535562501E+01  0.18735020422E+02  0.19094093917E+02  0.51100000000E-03 0.  1.
         12    1    3    3    0    0 -0.24044322945E+02  0.98275349408E+01  0.25331322477E+01  0.26098403550E+02  0.00000000000E+00 0. -1.
</event>
<event>
 7    1  0.6830263E-012  0.5930195E+02  0.7816164E-02  0.1266605E+00
        -11   -1    0    0    0    0  0.00000000000E+00  0.00000000000E+00  0.45593999997E+02  0.45594000000E+02  0.51100000000E-03 0. -1.
         11   -1    0    0    0    0 -0.00000000000E+00 -0.00000000000E+00 -0.45593999997E+02  0.45594000000E+02  0.51100000000E-03 0.  1.
    9900012    2    1    2    0    0  0.29036111939E+02  0.91856270702E+01  0.94471394105E+01  0.59301953142E+02  0.50000016622E+02 0.  0.
        -12    1    1    2    0    0 -0.29036111939E+02 -0.91856270702E+01 -0.94471394105E+01  0.31886046858E+02  0.00000000000E+00 0.  1.
         11    1    3    3    0    0  0.18794661690E+02  0.42040761974E+01  0.19065121440E+02  0.27099675653E+02  0.51100000000E-03 0. -1.
        -11    1    3    3    0    0  0.10434211350E+01 -0.11661561825E+02 -0.40349205500E+01  0.12383914404E+02  0.51100000000E-03 0.  1.
         12    1    3    3    0    0  0.91980291137E+01  0.16643112698E+02 -0.55830614800E+01  0.19818363084E+02  0.00000000000E+00 0. -1.
</event>
<event>
 7    1  0.6830263E-012  0.5930196E+02  0.7816164E-02  0.1266605E+00
        -11   -1    0    0    0    0  0.00000000000E+00  0.00000000000E+00  0.45593999997E+02  0.45594000000E+02  0.51100000000E-03 0.  1.
         11   -1    0    0    0    0 -0.00000000000E+00 -0.00000000000E+00 -0.45593999997E+02  0.45594000000E+02  0.51100000000E-03 0. -1.
    9900012    2    1    2    0    0 -0.69609431036E+01 -0.15669506959E+01 -0.31077472775E+02  0.59301962656E+02  0.50000033974E+02 0.  0.
        -12    1    1    2    0    0  0.69609431036E+01  0.15669506959E+01  0.31077472775E+02  0.31886037344E+02  0.00000000000E+00 0.  1.
         11    1    3    3    0    0 -0.13723056160E+02 -0.77937228241E+01 -0.30640672650E+01  0.16076470206E+02  0.51100000000E-03 0. -1.
        -11    1    3    3    0    0  0.69349607051E+01 -0.10249241793E+02 -0.21513466375E+01  0.12560610253E+02  0.51100000000E-03 0.  1.
         12    1    3    3    0    0 -0.17284764901E+00  0.16476013921E+02 -0.25862058873E+02  0.30664882197E+02  0.00000000000E+00 0. -1.
</event>
<event>
 7    1  0.6830263E-012  0.5930190E+02  0.7816164E-02  0.1266605E+00
        -11   -1    0    0    0    0  0.00000000000E+00  0.00000000000E+00  0.45593999997E+02  0.45594000000E+02  0.51100000000E-03 0.  1.
         11   -1    0    0    0    0 -0.00000000000E+00 -0.00000000000E+00 -0.45593999997E+02  0.45594000000E+02  0.51100000000E-03 0. -1.
    9900012    2    1    2    0    0  0.14597405254E+02 -0.17310594696E+02 -0.22449558091E+02  0.59301896642E+02  0.49999913580E+02 0.  0.
        -12    1    1    2    0    0 -0.14597405254E+02  0.17310594696E+02  0.22449558091E+02  0.31886103358E+02  0.00000000000E+00 0.  1.
         11    1    3    3    0    0  0.88099365401E+01 -0.17928477755E+01 -0.18875765966E+02  0.20907506453E+02  0.51100000000E-03 0. -1.
        -11    1    3    3    0    0 -0.23641817903E+01 -0.24966119470E+02  0.10156603297E+01  0.25098367340E+02  0.51100000000E-03 0.  1.
         12    1    3    3    0    0  0.81516505047E+01  0.94483725499E+01 -0.45894524541E+01  0.13296022850E+02  0.00000000000E+00 0. -1.
</event>
<event>
 7    1  0.6830263E-012  0.5930195E+02  0.7816164E-02  0.1266605E+00
        -11   -1    0    0    0    0  0.00000000000E+00  0.00000000000E+00  0.45593999997E+02  0.45594000000E+02  0.51100000000E-03 0. -1.
         11   -1    0    0    0    0 -0.00000000000E+00 -0.00000000000E+00 -0.45593999997E+02  0.45594000000E+02  0.51100000000E-03 0.  1.
    9900012    2    1    2    0    0 -0.18421663888E+02 -0.20537818623E+02 -0.15986263411E+02  0.59301948001E+02  0.50000007247E+02 0.  0.
        -12    1    1    2    0    0  0.18421663888E+02  0.20537818623E+02  0.15986263411E+02  0.31886051999E+02  0.00000000000E+00 0.  1.
         11    1    3    3    0    0 -0.14046405356E+01 -0.30811637085E+01  0.37200576923E+01  0.50304487204E+01  0.51100000000E-03 0. -1.
        -11    1    3    3    0    0 -0.65619055268E-01 -0.24624607914E+02  0.32610827912E+01  0.24839691665E+02  0.51100000000E-03 0.  1.
        -12    1    3    3    0    0 -0.16951404297E+02  0.71679529996E+01 -0.22967403895E+02  0.29431807616E+02  0.00000000000E+00 0.  1.
</event>
<event>
 7    1  0.6830263E-012  0.5930191E+02  0.7816164E-02  0.1266605E+00
        -11   -1    0    0    0    0  0.00000000000E+00  0.00000000000E+00  0.45593999997E+02  0.45594000000E+02  0.51100000000E-03 0.  1.
         11   -1    0    0    0    0 -0.00000000000E+00 -0.00000000000E+00 -0.45593999997E+02  0.45594000000E+02  0.51100000000E-03 0. -1.
    9900012    2    1    2    0    0  0.16401836122E+02 -0.25553565629E+02 -0.97323029701E+01  0.59301911095E+02  0.49999939939E+02 0.  0.
        -12    1    1    2    0    0 -0.16401836122E+02  0.25553565629E+02  0.97323029701E+01  0.31886088905E+02  0.00000000000E+00 0.  1.
         11    1    3    3    0    0  0.18595341822E+02  0.80346343794E+01 -0.10430421742E+02  0.22784551457E+02  0.51100000000E-03 0. -1.
        -11    1    3    3    0    0  0.34667892546E+01 -0.12822457660E+02 -0.50974516508E+01  0.14227370163E+02  0.51100000000E-03 0.  1.
        -12    1    3    3    0    0 -0.56602949545E+01 -0.20765742349E+02  0.57955704230E+01  0.22289989475E+02  0.00000000000E+00 0.  1.
</event>
<event>
 7    1  0.6830263E-012  0.5930200E+02  0.7816164E-02  0.1266605E+00
        -11   -1    0    0    0    0  0.00000000000E+00  0.00000000000E+00  0.45593999997E+02  0.45594000000E+02  0.51100000000E-03 0.  1.
         11   -1    0    0    0    0 -0.00000000000E+00 -0.00000000000E+00 -0.45593999997E+02  0.45594000000E+02  0.51100000000E-03 0. -1.
    9900012    2    1    2    0    0 -0.20208094958E+02  0.23661761135E+02 -0.69621238345E+01  0.59301996643E+02  0.50000095957E+02 0.  0.
        -12    1    1    2    0    0  0.20208094958E+02 -0.23661761135E+02  0.69621238345E+01  0.31886003357E+02  0.00000000000E+00 0.  1.
         11    1    3    3    0    0 -0.13093826682E+02 -0.55231679288E+01 -0.10768328820E+02  0.17830047307E+02  0.51100000000E-03 0. -1.
        -11    1    3    3    0    0 -0.15021275092E+01 -0.82952525588E+00 -0.84107389855E+01  0.85839984708E+01  0.51100000000E-03 0.  1.
        -12    1    3    3    0    0 -0.56121407666E+01  0.30014454319E+02  0.12216943971E+02  0.32887950864E+02  0.00000000000E+00 0.  1.
</event>
<event>
 7    1  0.6830263E-012  0.5930195E+02  0.7816164E-02  0.1266605E+00
        -11   -1    0    0    0    0  0.00000000000E+00  0.00000000000E+00  0.45593999997E+02  0.45594000000E+02  0.51100000000E-03 0.  1.
         11   -1    0    0    0    0 -0.00000000000E+00 -0.00000000000E+00 -0.45593999997E+02  0.45594000000E+02  0.51100000000E-03 0. -1.
    9900012    2    1    2    0    0  0.21728314069E+02 -0.53890971386E+01 -0.22705901357E+02  0.59301953574E+02  0.50000017410E+02 0.  0.
        -12    1    1    2    0    0 -0.21728314069E+02  0.53890971386E+01  0.22705901357E+02  0.31886046426E+02  0.00000000000E+00 0.  1.
         11    1    3    3    0    0  0.23691728712E+02 -0.10704400454E+02  0.10269560330E+01  0.26018009866E+02  0.51100000000E-03 0. -1.
        -11    1    3    3    0    0  0.24979914891E+01 -0.31280274127E+01  0.29311431157E+01  0.49614632116E+01  0.51100000000E-03 0.  1.
        -12    1    3    3    0    0 -0.44614061322E+01  0.84433307283E+01 -0.26664000506E+02  0.28322480496E+02  0.00000000000E+00 0.  1.
</event>
<event>
 7    1  0.6830263E-012  0.5930195E+02  0.7816164E-02  0.1266605E+00
        -11   -1    0    0    0    0  0.00000000000E+00  0.00000000000E+00  0.45593999997E+02  0.45594000000E+02  0.51100000000E-03 0. -1.
         11   -1    0    0    0    0 -0.00000000000E+00 -0.00000000000E+00 -0.45593999997E+02  0.45594000000E+02  0.51100000000E-03 0.  1.
    9900012    2    1    2    0    0  0.28669190840E+02 -0.12885721332E+02  0.53624247393E+01  0.59301954200E+02  0.50000018552E+02 0.  0.
        -12    1    1    2    0    0 -0.28669190840E+02  0.12885721332E+02 -0.53624247393E+01  0.31886045800E+02  0.00000000000E+00 0.  1.
         11    1    3    3    0    0 -0.10957032969E+02 -0.14795577445E+00  0.43367673178E+01  0.11784991024E+02  0.51100000000E-03 0. -1.
        -11    1    3    3    0    0  0.29536457790E+01 -0.70856117744E+01 -0.60110976955E+01  0.97500365831E+01  0.51100000000E-03 0.  1.
         12    1    3    3    0    0  0.36672578030E+02 -0.56521537829E+01  0.70367551170E+01  0.37766926594E+02  0.00000000000E+00 0. -1.
</event>
<event>
 7    1  0.6830263E-012  0.5930195E+02  0.7816164E-02  0.1266605E+00
        -11   -1    0    0    0    0  0.00000000000E+00  0.00000000000E+00  0.45593999997E+02  0.45594000000E+02  0.51100000000E-03 0.  1.
         11   -1    0    0    0    0 -0.00000000000E+00 -0.00000000000E+00 -0.45593999997E+02  0.45594000000E+02  0.51100000000E-03 0. -1.
    9900012    2    1    2    0    0 -0.23999837511E+02 -0.11033357448E+02 -0.17860378974E+02  0.59301947967E+02  0.50000007185E+02 0.  0.
        -12    1    1    2    0    0  0.23999837511E+02  0.11033357448E+02  0.17860378974E+02  0.31886052033E+02  0.00000000000E+00 0.  1.
         11    1    3    3    0    0 -0.45164420210E+01 -0.85893401635E+01 -0.16279403138E+02  0.18952413561E+02  0.51100000000E-03 0. -1.
        -11    1    3    3    0    0 -0.14718702433E+02 -0.10630584412E+02 -0.15255663408E+02  0.23714653540E+02  0.51100000000E-03 0.  1.
        -12    1    3    3    0    0 -0.47646930568E+01  0.81865671271E+01  0.13674687572E+02  0.16634880867E+02  0.00000000000E+00 0.  1.
</event>
<event>
 7    1  0.6830263E-012  0.5930194E+02  0.7816164E-02  0.1266605E+00
        -11   -1    0    0    0    0  0.00000000000E+00  0.00000000000E+00  0.45593999997E+02  0.45594000000E+02  0.51100000000E-03 0. -1.
         11   -1    0    0    0    0 -0.00000000000E+00 -0.00000000000E+00 -0.45593999997E+02  0.45594000000E+02  0.51100000000E-03 0.  1.
    9900012    2    1    2    0    0 -0.21201767683E+02  0.13016126573E+02  0.19944583177E+02  0.59301938751E+02  0.49999990377E+02 0.  0.
        -12    1    1    2    0    0  0.21201767683E+02 -0.13016126573E+02 -0.19944583177E+02  0.31886061249E+02  0.00000000000E+00 0.  1.
         11    1    3    3    0    0  0.13112744882E+02  0.52686357061E+01  0.11358091206E+02  0.18130329193E+02  0.51100000000E-03 0. -1.
        -11    1    3    3    0    0 -0.87732992066E+01  0.61897008168E+01 -0.53908465169E+01  0.12014341497E+02  0.51100000000E-03 0.  1.
        -12    1    3    3    0    0 -0.25541213358E+02  0.15577900506E+01  0.13977338488E+02  0.29157268062E+02  0.00000000000E+00 0.  1.
</event>
<event>
 7    1  0.6830263E-012  0.5930195E+02  0.7816164E-02  0.1266605E+00
        -11   -1    0    0    0    0  0.00000000000E+00  0.00000000000E+00  0.45593999997E+02  0.45594000000E+02  0.51100000000E-03 0. -1.
         11   -1    0    0    0    0 -0.00000000000E+00 -0.00000000000E+00 -0.45593999997E+02  0.45594000000E+02  0.51100000000E-03 0.  1.
    9900012    2    1    2    0    0 -0.36825235227E+01  0.35043770648E+01  0.31478223291E+02  0.59301950077E+02  0.50000011033E+02 0.  0.
        -12    1    1    2    0    0  0.36825235227E+01 -0.35043770648E+01 -0.31478223291E+02  0.31886049923E+02  0.00000000000E+00 0.  1.
         11    1    3    3    0    0  0.58830101048E+00 -0.86115305121E+01 -0.57955727613E+00  0.86510370903E+01  0.51100000000E-03 0.  1.
        -11    1    3    3    0    0 -0.10619741750E+02  0.23710518194E+02  0.21921700136E+02  0.33993065836E+02  0.51100000000E-03 0. -1.
         12    1    3    3    0    0  0.63489172164E+01 -0.11594610617E+02  0.10136080431E+02  0.16657847150E+02  0.00000000000E+00 0. -1.
</event>
<event>
 7    1  0.6830263E-012  0.5930181E+02  0.7816164E-02  0.1266605E+00
        -11   -1    0    0    0    0  0.00000000000E+00  0.00000000000E+00  0.45593999997E+02  0.45594000000E+02  0.51100000000E-03 0.  1.
         11   -1    0    0    0    0 -0.00000000000E+00 -0.00000000000E+00 -0.45593999997E+02  0.45594000000E+02  0.51100000000E-03 0. -1.
    9900012    2    1    2    0    0  0.12468744380E+02  0.17231621880E+02 -0.23755644692E+02  0.59301811238E+02  0.49999757822E+02 0.  0.
        -12    1    1    2    0    0 -0.12468744380E+02 -0.17231621880E+02  0.23755644692E+02  0.31886188762E+02  0.00000000000E+00 0.  1.
         11    1    3    3    0    0 -0.69122363405E+01 -0.53376460110E+01 -0.41813653195E+01  0.96826283809E+01  0.51100000000E-03 0. -1.
        -11    1    3    3    0    0 -0.43572790480E+01 -0.64223564678E+01 -0.58337122262E+01  0.97090031363E+01  0.51100000000E-03 0.  1.
         12    1    3    3    0    0  0.23738259769E+02  0.28991624359E+02 -0.13740567146E+02  0.39910179721E+02  0.00000000000E+00 0. -1.
</event>
<event>
 7    1  0.6830263E-012  0.5930199E+02  0.7816164E-02  0.1266605E+00
        -11   -1    0    0    0    0  0.00000000000E+00  0.00000000000E+00  0.45593999997E+02  0.45594000000E+02  0.51100000000E-03 0. -1.
         11   -1    0    0    0    0 -0.00000000000E+00 -0.00000000000E+00 -0.45593999997E+02  0.45594000000E+02  0.51100000000E-03 0.  1.
    9900012    2    1    2    0    0  0.24108476936E+02 -0.13208581844E+02  0.16156496652E+02  0.59301989297E+02  0.50000082559E+02 0.  0.
        -12    1    1    2    0    0 -0.24108476936E+02  0.13208581844E+02 -0.16156496652E+02  0.31886010703E+02  0.00000000000E+00 0.  1.
         11    1    3    3    0    0 -0.19915949692E+01 -0.21226056598E+02 -0.59290796829E+01  0.22128396132E+02  0.51100000000E-03 0. -1.
        -11    1    3    3    0    0  0.19723983158E+01  0.21459252566E+01 -0.11810240723E+01  0.31448638196E+01  0.51100000000E-03 0.  1.
        -12    1    3    3    0    0  0.24127673589E+02  0.58715494970E+01  0.23266600407E+02  0.34028729345E+02  0.00000000000E+00 0.  1.
</event>
<event>
 7    1  0.6830263E-012  0.5930193E+02  0.7816164E-02  0.1266605E+00
        -11   -1    0    0    0    0  0.00000000000E+00  0.00000000000E+00  0.45593999997E+02  0.45594000000E+02  0.51100000000E-03 0. -1.
         11   -1    0    0    0    0 -0.00000000000E+00 -0.00000000000E+00 -0.45593999997E+02  0.45594000000E+02  0.51100000000E-03 0.  1.
    9900012    2    1    2    0    0 -0.11694988092E+02  0.13669278395E+02  0.26326780760E+02  0.59301932455E+02  0.49999978894E+02 0.  0.
        -12    1    1    2    0    0  0.11694988092E+02 -0.13669278395E+02 -0.26326780760E+02  0.31886067545E+02  0.00000000000E+00 0.  1.
         11    1    3    3    0    0 -0.24475650910E+01  0.93268812399E+01  0.67696198991E+01  0.11781724932E+02  0.51100000000E-03 0. -1.
        -11    1    3    3    0    0 -0.15604446116E+02  0.20523658479E+02  0.13553377503E+02  0.29127535734E+02  0.51100000000E-03 0.  1.
         12    1    3    3    0    0  0.63570231156E+01 -0.16181261323E+02  0.60037833577E+01  0.18392671788E+02  0.00000000000E+00 0. -1.
</event>
<event>
 7    1  0.6830263E-012  0.5930195E+02  0.7816164E-02  0.1266605E+00
        -11   -1    0    0    0    0  0.00000000000E+00  0.00000000000E+00  0.45593999997E+02  0.45594000000E+02  0.51100000000E-03 0. -1.
         11   -1    0    0    0    0 -0.00000000000E+00 -0.00000000000E+00 -0.45593999997E+02  0.45594000000E+02  0.51100000000E-03 0.  1.
    9900012    2    1    2    0    0  0.62842847561E+01  0.30703820876E+02 -0.58739540156E+01  0.59301949961E+02  0.50000010822E+02 0.  0.
        -12    1    1    2    0    0 -0.62842847561E+01 -0.30703820876E+02  0.58739540156E+01  0.31886050039E+02  0.00000000000E+00 0.  1.
         11    1    3    3    0    0 -0.52268774518E+01  0.61578300574E+01 -0.16103104155E+02  0.18015245838E+02  0.51100000000E-03 0.  1.
        -11    1    3    3    0    0  0.90368182873E+01 -0.45902449881E+01  0.58969982303E+01  0.11726424101E+02  0.51100000000E-03 0. -1.
         12    1    3    3    0    0  0.24743439206E+01  0.29136235807E+02  0.43321519093E+01  0.29560280022E+02  0.00000000000E+00 0. -1.
</event>
<event>
 7    1  0.6830263E-012  0.5930193E+02  0.7816164E-02  0.1266605E+00
        -11   -1    0    0    0    0  0.00000000000E+00  0.00000000000E+00  0.45593999997E+02  0.45594000000E+02  0.51100000000E-03 0. -1.
         11   -1    0    0    0    0 -0.00000000000E+00 -0.00000000000E+00 -0.45593999997E+02  0.45594000000E+02  0.51100000000E-03 0.  1.
    9900012    2    1    2    0    0 -0.31473107419E+02  0.17743665746E+01  0.47975796530E+01  0.59301927212E+02  0.49999969331E+02 0.  0.
        -12    1    1    2    0    0  0.31473107419E+02 -0.17743665746E+01 -0.47975796530E+01  0.31886072788E+02  0.00000000000E+00 0.  1.
         11    1    3    3    0    0  0.30398293242E+01 -0.74297622019E+01  0.67967112297E+01  0.10518422529E+02  0.51100000000E-03 0. -1.
        -11    1    3    3    0    0  0.51015748485E+01 -0.36159906579E+01  0.28364309562E+01  0.68663523943E+01  0.51100000000E-03 0.  1.
         12    1    3    3    0    0 -0.39614511592E+02  0.12820119434E+02 -0.48355625329E+01  0.41917152288E+02  0.00000000000E+00 0. -1.
</event>
<event>
 7    1  0.6830263E-012  0.5930192E+02  0.7816164E-02  0.1266605E+00
        -11   -1    0    0    0    0  0.00000000000E+00  0.00000000000E+00  0.45593999997E+02  0.45594000000E+02  0.51100000000E-03 0.  1.
         11   -1    0    0    0    0 -0.00000000000E+00 -0.00000000000E+00 -0.45593999997E+02  0.45594000000E+02  0.51100000000E-03 0. -1.
    9900012    2    1    2    0    0 -0.31038099079E+02 -0.64022085726E-01 -0.73044136956E+01  0.59301919139E+02  0.49999954608E+02 0.  0.
        -12    1    1    2    0    0  0.31038099079E+02  0.64022085726E-01  0.73044136956E+01  0.31886080861E+02  0.00000000000E+00 0.  1.
         11    1    3    3    0    0 -0.38190620244E+01 -0.94252692614E+01  0.74820657747E+01  0.12625460147E+02  0.51100000000E-03 0. -1.
        -11    1    3    3    0    0 -0.12793118392E+02  0.19943472696E+02 -0.36520681888E+00  0.23696821678E+02  0.51100000000E-03 0.  1.
         12    1    3    3    0    0 -0.14425918663E+02 -0.10582225520E+02 -0.14421272651E+02  0.22979637314E+02  0.00000000000E+00 0. -1.
</event>
<event>
 7    1  0.6830263E-012  0.5930193E+02  0.7816164E-02  0.1266605E+00
        -11   -1    0    0    0    0  0.00000000000E+00  0.00000000000E+00  0.45593999997E+02  0.45594000000E+02  0.51100000000E-03 0.  1.
         11   -1    0    0    0    0 -0.00000000000E+00 -0.00000000000E+00 -0.45593999997E+02  0.45594000000E+02  0.51100000000E-03 0. -1.
    9900012    2    1    2    0    0  0.14899524918E+02  0.23529130121E+02 -0.15527570411E+02  0.59301933296E+02  0.49999980427E+02 0.  0.
        -12    1    1    2    0    0 -0.14899524918E+02 -0.23529130121E+02  0.15527570411E+02  0.31886066704E+02  0.00000000000E+00 0.  1.
         11    1    3    3    0    0  0.40978235265E+01  0.19266337972E+02 -0.20827353223E+01  0.19807112945E+02  0.51100000000E-03 0. -1.
        -11    1    3    3    0    0  0.23575506183E+02  0.26474076163E+01 -0.11857061615E+02  0.26521748986E+02  0.51100000000E-03 0.  1.
        -12    1    3    3    0    0 -0.12773804792E+02  0.16153845319E+01 -0.15877734731E+01  0.12973071365E+02  0.00000000000E+00 0.  1.
</event>
<event>
 7    1  0.6830263E-012  0.5930192E+02  0.7816164E-02  0.1266605E+00
        -11   -1    0    0    0    0  0.00000000000E+00  0.00000000000E+00  0.45593999997E+02  0.45594000000E+02  0.51100000000E-03 0. -1.
         11   -1    0    0    0    0 -0.00000000000E+00 -0.00000000000E+00 -0.45593999997E+02  0.45594000000E+02  0.51100000000E-03 0.  1.
    9900012    2    1    2    0    0 -0.44293858982E+01  0.12663030273E+02  0.28926641068E+02  0.59301915909E+02  0.49999948719E+02 0.  0.
        -12    1    1    2    0    0  0.44293858982E+01 -0.12663030273E+02 -0.28926641068E+02  0.31886084091E+02  0.00000000000E+00 0.  1.
         11    1    3    3    0    0 -0.86834987982E+01  0.11208215715E+02  0.80005941433E+00  0.14200962862E+02  0.51100000000E-03 0. -1.
        -11    1    3    3    0    0  0.33922936804E+01 -0.15481940632E+02  0.53989467743E+01  0.16743559021E+02  0.51100000000E-03 0.  1.
        -12    1    3    3    0    0  0.86181921959E+00  0.16936755191E+02  0.22727634880E+02  0.28357394027E+02  0.00000000000E+00 0.  1.
</event>
<event>
 7    1  0.6830263E-012  0.5930196E+02  0.7816164E-02  0.1266605E+00
        -11   -1    0    0    0    0  0.00000000000E+00  0.00000000000E+00  0.45593999997E+02  0.45594000000E+02  0.51100000000E-03 0.  1.
         11   -1    0    0    0    0 -0.00000000000E+00 -0.00000000000E+00 -0.45593999997E+02  0.45594000000E+02  0.51100000000E-03 0. -1.
    9900012    2    1    2    0    0  0.20840153987E+02 -0.88897190423E+01 -0.22436135828E+02  0.59301963656E+02  0.50000035797E+02 0.  0.
        -12    1    1    2    0    0 -0.20840153987E+02  0.88897190423E+01  0.22436135828E+02  0.31886036344E+02  0.00000000000E+00 0.  1.
         11    1    3    3    0    0  0.12221920393E+02 -0.83566020483E+01 -0.80711279859E+01  0.16862717548E+02  0.51100000000E-03 0. -1.
        -11    1    3    3    0    0  0.21762480031E+01 -0.16981704973E+02  0.33238246960E+01  0.17440245699E+02  0.51100000000E-03 0.  1.
         12    1    3    3    0    0  0.64419855907E+01  0.16448587979E+02 -0.17688832538E+02  0.24999000408E+02  0.00000000000E+00 0. -1.
</event>
<event>
 7    1  0.6830263E-012  0.5930195E+02  0.7816164E-02  0.1266605E+00
        -11   -1    0    0    0    0  0.00000000000E+00  0.00000000000E+00  0.45593999997E+02  0.45594000000E+02  0.51100000000E-03 0. -1.
         11   -1    0    0    0    0 -0.00000000000E+00 -0.00000000000E+00 -0.45593999997E+02  0.45594000000E+02  0.51100000000E-03 0.  1.
    9900012    2    1    2    0    0 -0.26979671025E+02  0.14028171139E+02  0.95931235710E+01  0.59301948912E+02  0.50000008909E+02 0.  0.
        -12    1    1    2    0    0  0.26979671025E+02 -0.14028171139E+02 -0.95931235710E+01  0.31886051088E+02  0.00000000000E+00 0.  1.
         11    1    3    3    0    0  0.58838237234E+01  0.73067645371E+00  0.33265174091E+00  0.59383438036E+01  0.51100000000E-03 0. -1.
        -11    1    3    3    0    0 -0.38201729010E+01 -0.11358657332E+02 -0.45806409053E+01  0.12829461748E+02  0.51100000000E-03 0.  1.
         12    1    3    3    0    0 -0.29043321847E+02  0.24656152018E+02  0.13841112735E+02  0.40534143361E+02  0.00000000000E+00 0. -1.
</event>
<event>
 7    1  0.6830263E-012  0.5930198E+02  0.7816164E-02  0.1266605E+00
        -11   -1    0    0    0    0  0.00000000000E+00  0.00000000000E+00  0.45593999997E+02  0.45594000000E+02  0.51100000000E-03 0.  1.
         11   -1    0    0    0    0 -0.00000000000E+00 -0.00000000000E+00 -0.45593999997E+02  0.45594000000E+02  0.51100000000E-03 0. -1.
    9900012    2    1    2    0    0  0.10764224319E+02 -0.28890483686E+02  0.81356999394E+01  0.59301981335E+02  0.50000068039E+02 0.  0.
        -12    1    1    2    0    0 -0.10764224319E+02  0.28890483686E+02 -0.81356999394E+01  0.31886018665E+02  0.00000000000E+00 0.  1.
         11    1    3    3    0    0  0.22705436046E+02 -0.12746308569E+02 -0.67623895992E+01  0.26902325578E+02  0.51100000000E-03 0. -1.
        -11    1    3    3    0    0 -0.60986387268E+01 -0.10842415935E+02 -0.30376310469E+01  0.12805412148E+02  0.51100000000E-03 0.  1.
        -12    1    3    3    0    0 -0.58425730002E+01 -0.53017591819E+01  0.17935720585E+02  0.19594243609E+02  0.00000000000E+00 0.  1.
</event>
<event>
 7    1  0.6830263E-012  0.5930190E+02  0.7816164E-02  0.1266605E+00
        -11   -1    0    0    0    0  0.00000000000E+00  0.00000000000E+00  0.45593999997E+02  0.45594000000E+02  0.51100000000E-03 0.  1.
         11   -1    0    0    0    0 -0.00000000000E+00 -0.00000000000E+00 -0.45593999997E+02  0.45594000000E+02  0.51100000000E-03 0. -1.
    9900012    2    1    2    0    0 -0.77667301177E+01  0.49378271376E+01 -0.30528983584E+02  0.59301904719E+02  0.49999928310E+02 0.  0.
        -12    1    1    2    0    0  0.77667301177E+01 -0.49378271376E+01  0.30528983584E+02  0.31886095281E+02  0.00000000000E+00 0.  1.
         11    1    3    3    0    0 -0.52646671888E+01 -0.21837932393E+01  0.30376167737E+01  0.64585439107E+01  0.51100000000E-03 0. -1.
        -11    1    3    3    0    0  0.12938296512E+01  0.11621864207E+02  0.57901791165E+01  0.13048674158E+02  0.51100000000E-03 0.  1.
         12    1    3    3    0    0 -0.37958925801E+01 -0.45002438300E+01 -0.39356779475E+02  0.39794686651E+02  0.00000000000E+00 0. -1.
</event>
<event>
 7    1  0.6830263E-012  0.5930181E+02  0.7816164E-02  0.1266605E+00
        -11   -1    0    0    0    0  0.00000000000E+00  0.00000000000E+00  0.45593999997E+02  0.45594000000E+02  0.51100000000E-03 0.  1.
         11   -1    0    0    0    0 -0.00000000000E+00 -0.00000000000E+00 -0.45593999997E+02  0.45594000000E+02  0.51100000000E-03 0. -1.
    9900012    2    1    2    0    0 -0.10597405294E+02  0.29029587874E+02 -0.78553924422E+01  0.59301809235E+02  0.49999754170E+02 0.  0.
        -12    1    1    2    0    0  0.10597405294E+02 -0.29029587874E+02  0.78553924422E+01  0.31886190765E+02  0.00000000000E+00 0.  1.
         11    1    3    3    0    0 -0.47088937895E+01  0.31303149905E+02  0.63411446762E+01  0.32284222010E+02  0.51100000000E-03 0. -1.
        -11    1    3    3    0    0 -0.85941317708E+01  0.70237708203E+01 -0.17314578269E+01  0.11233450222E+02  0.51100000000E-03 0.  1.
         12    1    3    3    0    0  0.27056202660E+01 -0.92973328518E+01 -0.12465079291E+02  0.15784137003E+02  0.00000000000E+00 0. -1.
</event>
<event>
 7    1  0.6830263E-012  0.5930193E+02  0.7816164E-02  0.1266605E+00
        -11   -1    0    0    0    0  0.00000000000E+00  0.00000000000E+00  0.45593999997E+02  0.45594000000E+02  0.51100000000E-03 0.  1.
         11   -1    0    0    0    0 -0.00000000000E+00 -0.00000000000E+00 -0.45593999997E+02  0.45594000000E+02  0.51100000000E-03 0. -1.
    9900012    2    1    2    0    0 -0.10245022540E+02 -0.10749571801E+02 -0.28217155316E+02  0.59301927258E+02  0.49999969416E+02 0.  0.
        -12    1    1    2    0    0  0.10245022540E+02  0.10749571801E+02  0.28217155316E+02  0.31886072742E+02  0.00000000000E+00 0.  1.
         11    1    3    3    0    0 -0.66167284221E+01  0.12893127384E+02 -0.16896948999E+02  0.22260294574E+02  0.51100000000E-03 0. -1.
        -11    1    3    3    0    0 -0.13523621388E+02 -0.59629091544E+01 -0.27048164137E+01  0.15025333711E+02  0.51100000000E-03 0.  1.
         12    1    3    3    0    0  0.98953272696E+01 -0.17679790031E+02 -0.86153899033E+01  0.22016298974E+02  0.00000000000E+00 0. -1.
</event>
<event>
 7    1  0.6830263E-012  0.5930192E+02  0.7816164E-02  0.1266605E+00
        -11   -1    0    0    0    0  0.00000000000E+00  0.00000000000E+00  0.45593999997E+02  0.45594000000E+02  0.51100000000E-03 0.  1.
         11   -1    0    0    0    0 -0.00000000000E+00 -0.00000000000E+00 -0.45593999997E+02  0.45594000000E+02  0.51100000000E-03 0. -1.
    9900012    2    1    2    0    0  0.20974915845E+02 -0.20267226923E+02 -0.12884660800E+02  0.59301920502E+02  0.49999957095E+02 0.  0.
        -12    1    1    2    0    0 -0.20974915845E+02  0.20267226923E+02  0.12884660800E+02  0.31886079498E+02  0.00000000000E+00 0.  1.
         11    1    3    3    0    0  0.14409858484E+01 -0.43122314684E+01 -0.80160242236E+00  0.46167463821E+01  0.51100000000E-03 0. -1.
        -11    1    3    3    0    0  0.38938432713E+01 -0.27546231619E+02  0.56087887727E+01  0.28379841501E+02  0.51100000000E-03 0.  1.
         12    1    3    3    0    0  0.15640086725E+02  0.11591236165E+02 -0.17691847150E+02  0.26305332619E+02  0.00000000000E+00 0. -1.
</event>
<event>
 7    1  0.6830263E-012  0.5930197E+02  0.7816164E-02  0.1266605E+00
        -11   -1    0    0    0    0  0.00000000000E+00  0.00000000000E+00  0.45593999997E+02  0.45594000000E+02  0.51100000000E-03 0.  1.
         11   -1    0    0    0    0 -0.00000000000E+00 -0.00000000000E+00 -0.45593999997E+02  0.45594000000E+02  0.51100000000E-03 0. -1.
    9900012    2    1    2    0    0  0.17566430784E+02 -0.19282515101E+01 -0.26540933413E+02  0.59301971856E+02  0.50000050752E+02 0.  0.
        -12    1    1    2    0    0 -0.17566430784E+02  0.19282515101E+01  0.26540933413E+02  0.31886028144E+02  0.00000000000E+00 0.  1.
         11    1    3    3    0    0  0.15005887631E+02 -0.10103075628E+02 -0.11097335921E+02  0.21222621552E+02  0.51100000000E-03 0. -1.
        -11    1    3    3    0    0 -0.14885401397E+02  0.66901847020E+01 -0.29855917633E+01  0.16590584816E+02  0.51100000000E-03 0.  1.
         12    1    3    3    0    0  0.17445944551E+02  0.14846394163E+01 -0.12458005728E+02  0.21488765488E+02  0.00000000000E+00 0. -1.
</event>
<event>
 7    1  0.6830263E-012  0.5930217E+02  0.7816164E-02  0.1266604E+00
        -11   -1    0    0    0    0  0.00000000000E+00  0.00000000000E+00  0.45593999997E+02  0.45594000000E+02  0.51100000000E-03 0.  1.
         11   -1    0    0    0    0 -0.00000000000E+00 -0.00000000000E+00 -0.45593999997E+02  0.45594000000E+02  0.51100000000E-03 0. -1.
    9900012    2    1    2    0    0 -0.30656829884E+02  0.10619535136E+01 -0.87027233551E+01  0.59302166819E+02  0.50000406317E+02 0.  0.
        -12    1    1    2    0    0  0.30656829884E+02 -0.10619535136E+01  0.87027233551E+01  0.31885833181E+02  0.00000000000E+00 0.  1.
         11    1    3    3    0    0 -0.14955689428E+02 -0.13260019621E+02 -0.51603613275E+01  0.20642918784E+02  0.51100000000E-03 0. -1.
        -11    1    3    3    0    0  0.75656298644E+01  0.10175671056E+02 -0.74475972444E+01  0.14705432386E+02  0.51100000000E-03 0.  1.
        -12    1    3    3    0    0 -0.23266770321E+02  0.41463020786E+01  0.39052352168E+01  0.23953815650E+02  0.00000000000E+00 0.  1.
</event>
<event>
 7    1  0.6830263E-012  0.5930193E+02  0.7816164E-02  0.1266605E+00
        -11   -1    0    0    0    0  0.00000000000E+00  0.00000000000E+00  0.45593999997E+02  0.45594000000E+02  0.51100000000E-03 0. -1.
         11   -1    0    0    0    0 -0.00000000000E+00 -0.00000000000E+00 -0.45593999997E+02  0.45594000000E+02  0.51100000000E-03 0.  1.
    9900012    2    1    2    0    0  0.21471788028E+02  0.23083856838E+02  0.47769591629E+01  0.59301929899E+02  0.49999974232E+02 0.  0.
        -12    1    1    2    0    0 -0.21471788028E+02 -0.23083856838E+02 -0.47769591629E+01  0.31886070101E+02  0.00000000000E+00 0.  1.
         11    1    3    3    0    0  0.51021422356E+01 -0.42104903610E+01 -0.13868086318E+02  0.15365022059E+02  0.51100000000E-03 0.  1.
        -11    1    3    3    0    0  0.15240734448E+02  0.40000038111E+01  0.35362468901E+01  0.16148840804E+02  0.51100000000E-03 0. -1.
        -12    1    3    3    0    0  0.11289113447E+01  0.23294343388E+02  0.15108798591E+02  0.27788067036E+02  0.00000000000E+00 0.  1.
</event>
<event>
 7    1  0.6830263E-012  0.5930197E+02  0.7816164E-02  0.1266605E+00
        -11   -1    0    0    0    0  0.00000000000E+00  0.00000000000E+00  0.45593999997E+02  0.45594000000E+02  0.51100000000E-03 0. -1.
         11   -1    0    0    0    0 -0.00000000000E+00 -0.00000000000E+00 -0.45593999997E+02  0.45594000000E+02  0.51100000000E-03 0.  1.
    9900012    2    1    2    0    0  0.26180752598E+02 -0.12795783475E+01  0.18156251733E+02  0.59301974780E+02  0.50000056085E+02 0.  0.
        -12    1    1    2    0    0 -0.26180752598E+02  0.12795783475E+01 -0.18156251733E+02  0.31886025220E+02  0.00000000000E+00 0.  1.
         11    1    3    3    0    0  0.19266591304E+02  0.16160386318E+02  0.24690908368E+01  0.25267687592E+02  0.51100000000E-03 0. -1.
        -11    1    3    3    0    0  0.12193093796E+02 -0.24386889071E+01  0.11490678554E+01  0.12487557692E+02  0.51100000000E-03 0.  1.
         12    1    3    3    0    0 -0.52789325027E+01 -0.15001275758E+02  0.14538093041E+02  0.21546729497E+02  0.00000000000E+00 0. -1.
</event>
<event>
 7    1  0.6830263E-012  0.5930194E+02  0.7816164E-02  0.1266605E+00
        -11   -1    0    0    0    0  0.00000000000E+00  0.00000000000E+00  0.45593999997E+02  0.45594000000E+02  0.51100000000E-03 0.  1.
         11   -1    0    0    0    0 -0.00000000000E+00 -0.00000000000E+00 -0.45593999997E+02  0.45594000000E+02  0.51100000000E-03 0. -1.
    9900012    2    1    2    0    0  0.22691518686E+02 -0.20570226860E+02 -0.88702560934E+01  0.59301941973E+02  0.49999996253E+02 0.  0.
        -12    1    1    2    0    0 -0.22691518686E+02  0.20570226860E+02  0.88702560934E+01  0.31886058027E+02  0.00000000000E+00 0.  1.
         11    1    3    3    0    0  0.17306703115E+02 -0.22429452857E+01 -0.15868994735E+02  0.23587661403E+02  0.51100000000E-03 0. -1.
        -11    1    3    3    0    0 -0.10258419208E+02 -0.41929446106E+01 -0.41881492837E+01  0.11847216713E+02  0.51100000000E-03 0.  1.
         12    1    3    3    0    0  0.15643234779E+02 -0.14134336963E+02  0.11186887926E+02  0.23867063858E+02  0.00000000000E+00 0. -1.
</event>
<event>
 7    1  0.6830263E-012  0.5930197E+02  0.7816164E-02  0.1266605E+00
        -11   -1    0    0    0    0  0.00000000000E+00  0.00000000000E+00  0.45593999997E+02  0.45594000000E+02  0.51100000000E-03 0.  1.
         11   -1    0    0    0    0 -0.00000000000E+00 -0.00000000000E+00 -0.45593999997E+02  0.45594000000E+02  0.51100000000E-03 0. -1.
    9900012    2    1    2    0    0 -0.19893412294E+01  0.27838188871E+02 -0.15420647250E+02  0.59301974852E+02  0.50000056216E+02 0.  0.
        -12    1    1    2    0    0  0.19893412294E+01 -0.27838188871E+02  0.15420647250E+02  0.31886025148E+02  0.00000000000E+00 0.  1.
         11    1    3    3    0    0 -0.13957624065E+01  0.15248952843E+01 -0.95218293676E+00  0.22759857051E+01  0.51100000000E-03 0. -1.
        -11    1    3    3    0    0 -0.82890262406E+00  0.10575377538E+02  0.18028613621E+02  0.20917853594E+02  0.51100000000E-03 0.  1.
         12    1    3    3    0    0  0.23532380114E+00  0.15737916049E+02 -0.32497077934E+02  0.36108135553E+02  0.00000000000E+00 0. -1.
</event>
<event>
 7    1  0.6830263E-012  0.5930204E+02  0.7816164E-02  0.1266604E+00
        -11   -1    0    0    0    0  0.00000000000E+00  0.00000000000E+00  0.45593999997E+02  0.45594000000E+02  0.51100000000E-03 0.  1.
         11   -1    0    0    0    0 -0.00000000000E+00 -0.00000000000E+00 -0.45593999997E+02  0.45594000000E+02  0.51100000000E-03 0. -1.
    9900012    2    1    2    0    0  0.83080705443E+01  0.25277652041E+02 -0.17570726688E+02  0.59302044389E+02  0.50000183035E+02 0.  0.
        -12    1    1    2    0    0 -0.83080705443E+01 -0.25277652041E+02  0.17570726688E+02  0.31885955611E+02  0.00000000000E+00 0.  1.
         11    1    3    3    0    0  0.19166989353E+01  0.43994855321E+01 -0.62599970196E+01  0.78877608167E+01  0.51100000000E-03 0. -1.
        -11    1    3    3    0    0  0.55625368733E+00 -0.12351237856E+02 -0.12598649763E+02  0.17651868763E+02  0.51100000000E-03 0.  1.
        -12    1    3    3    0    0  0.58351179217E+01  0.33229404364E+02  0.12879200941E+01  0.33762414809E+02  0.00000000000E+00 0.  1.
</event>
<event>
 7    1  0.6830263E-012  0.5930194E+02  0.7816164E-02  0.1266605E+00
        -11   -1    0    0    0    0  0.00000000000E+00  0.00000000000E+00  0.45593999997E+02  0.45594000000E+02  0.51100000000E-03 0.  1.
         11   -1    0    0    0    0 -0.00000000000E+00 -0.00000000000E+00 -0.45593999997E+02  0.45594000000E+02  0.51100000000E-03 0. -1.
    9900012    2    1    2    0    0  0.10206137097E+02 -0.11462319458E+02 -0.27949432251E+02  0.59301940900E+02  0.49999994295E+02 0.  0.
        -12    1    1    2    0    0 -0.10206137097E+02  0.11462319458E+02  0.27949432251E+02  0.31886059100E+02  0.00000000000E+00 0.  1.
         11    1    3    3    0    0  0.92686118614E+01 -0.19239866270E+02 -0.12932642259E+01  0.21395143200E+02  0.51100000000E-03 0. -1.
        -11    1    3    3    0    0  0.86570372347E+00 -0.61220550890E+01  0.16263079240E+01  0.63932682702E+01  0.51100000000E-03 0.  1.
        -12    1    3    3    0    0  0.71821512263E-01  0.13899601901E+02 -0.28282475949E+02  0.31513529430E+02  0.00000000000E+00 0.  1.
</event>
<event>
 7    1  0.6830263E-012  0.5930194E+02  0.7816164E-02  0.1266605E+00
        -11   -1    0    0    0    0  0.00000000000E+00  0.00000000000E+00  0.45593999997E+02  0.45594000000E+02  0.51100000000E-03 0.  1.
         11   -1    0    0    0    0 -0.00000000000E+00 -0.00000000000E+00 -0.45593999997E+02  0.45594000000E+02  0.51100000000E-03 0. -1.
    9900012    2    1    2    0    0 -0.33677077124E+01  0.31247940897E+02  0.53801079239E+01  0.59301939929E+02  0.49999992525E+02 0.  0.
        -12    1    1    2    0    0  0.33677077124E+01 -0.31247940897E+02 -0.53801079239E+01  0.31886060071E+02  0.00000000000E+00 0.  1.
         11    1    3    3    0    0  0.94250025519E+01  0.21492149899E+02  0.92770170772E+01  0.25235019843E+02  0.51100000000E-03 0. -1.
        -11    1    3    3    0    0 -0.12868878802E+01  0.11622474150E+02 -0.14279918733E+02  0.18456816222E+02  0.51100000000E-03 0.  1.
        -12    1    3    3    0    0 -0.11505822384E+02 -0.18666831510E+01  0.10383009579E+02  0.15610103864E+02  0.00000000000E+00 0.  1.
</event>
<event>
 7    1  0.6830263E-012  0.5930193E+02  0.7816164E-02  0.1266605E+00
        -11   -1    0    0    0    0  0.00000000000E+00  0.00000000000E+00  0.45593999997E+02  0.45594000000E+02  0.51100000000E-03 0. -1.
         11   -1    0    0    0    0 -0.00000000000E+00 -0.00000000000E+00 -0.45593999997E+02  0.45594000000E+02  0.51100000000E-03 0.  1.
    9900012    2    1    2    0    0  0.11882039610E+02 -0.25060735354E+02  0.15732075993E+02  0.59301928796E+02  0.49999972221E+02 0.  0.
        -12    1    1    2    0    0 -0.11882039610E+02  0.25060735354E+02 -0.15732075993E+02  0.31886071204E+02  0.00000000000E+00 0.  1.
         11    1    3    3    0    0 -0.33697308602E+01  0.68939126603E+01  0.59977321101E+01  0.97392971288E+01  0.51100000000E-03 0. -1.
        -11    1    3    3    0    0 -0.10368926239E+02 -0.59375858471E+01  0.40014811916E+01  0.12600849536E+02  0.51100000000E-03 0.  1.
         12    1    3    3    0    0  0.25620696709E+02 -0.26017062167E+02  0.57328626910E+01  0.36961782131E+02  0.00000000000E+00 0. -1.
</event>
<event>
 7    1  0.6830263E-012  0.5930190E+02  0.7816164E-02  0.1266605E+00
        -11   -1    0    0    0    0  0.00000000000E+00  0.00000000000E+00  0.45593999997E+02  0.45594000000E+02  0.51100000000E-03 0. -1.
         11   -1    0    0    0    0 -0.00000000000E+00 -0.00000000000E+00 -0.45593999997E+02  0.45594000000E+02  0.51100000000E-03 0.  1.
    9900012    2    1    2    0    0  0.30196556932E+02  0.96518984203E+01  0.34252543932E+01  0.59301897050E+02  0.49999914324E+02 0.  0.
        -12    1    1    2    0    0 -0.30196556932E+02 -0.96518984203E+01 -0.34252543932E+01  0.31886102950E+02  0.00000000000E+00 0.  1.
         11    1    3    3    0    0  0.26459437452E+01  0.10580865926E+01  0.61151020209E+01  0.67464834194E+01  0.51100000000E-03 0. -1.
        -11    1    3    3    0    0  0.31287336913E+02 -0.34343990717E+01  0.11565530904E+02  0.33532880184E+02  0.51100000000E-03 0.  1.
        -12    1    3    3    0    0 -0.37367237265E+01  0.12028210899E+02 -0.14255378532E+02  0.19022533447E+02  0.00000000000E+00 0.  1.
</event>
<event>
 7    1  0.6830263E-012  0.5930196E+02  0.7816164E-02  0.1266605E+00
        -11   -1    0    0    0    0  0.00000000000E+00  0.00000000000E+00  0.45593999997E+02  0.45594000000E+02  0.51100000000E-03 0.  1.
         11   -1    0    0    0    0 -0.00000000000E+00 -0.00000000000E+00 -0.45593999997E+02  0.45594000000E+02  0.51100000000E-03 0. -1.
    9900012    2    1    2    0    0 -0.19679650469E+01 -0.29121634177E+02 -0.12836558530E+02  0.59301957624E+02  0.50000024796E+02 0.  0.
        -12    1    1    2    0    0  0.19679650469E+01  0.29121634177E+02  0.12836558530E+02  0.31886042376E+02  0.00000000000E+00 0.  1.
         11    1    3    3    0    0  0.64658922695E+01 -0.74126222422E+01  0.20146889650E+01  0.10040602733E+02  0.51100000000E-03 0. -1.
        -11    1    3    3    0    0  0.13972053499E+02 -0.12318046936E+02  0.33237189678E+01  0.18920879137E+02  0.51100000000E-03 0.  1.
         12    1    3    3    0    0 -0.22405910815E+02 -0.93909649987E+01 -0.18174966463E+02  0.30340475754E+02  0.00000000000E+00 0. -1.
</event>
<event>
 7    1  0.6830263E-012  0.5930211E+02  0.7816164E-02  0.1266604E+00
        -11   -1    0    0    0    0  0.00000000000E+00  0.00000000000E+00  0.45593999997E+02  0.45594000000E+02  0.51100000000E-03 0. -1.
         11   -1    0    0    0    0 -0.00000000000E+00 -0.00000000000E+00 -0.45593999997E+02  0.45594000000E+02  0.51100000000E-03 0.  1.
    9900012    2    1    2    0    0  0.19958842718E+02 -0.21313538384E+02 -0.12809670031E+02  0.59302110214E+02  0.50000303084E+02 0.  0.
        -12    1    1    2    0    0 -0.19958842718E+02  0.21313538384E+02  0.12809670031E+02  0.31885889786E+02  0.00000000000E+00 0.  1.
         11    1    3    3    0    0  0.28900765363E+01 -0.16931145619E+02 -0.12939595619E+02  0.21504635998E+02  0.51100000000E-03 0. -1.
        -11    1    3    3    0    0 -0.79622056046E+01 -0.51734628658E+01 -0.69562610484E+01  0.11770769055E+02  0.51100000000E-03 0.  1.
         12    1    3    3    0    0  0.25030971787E+02  0.79107010040E+00  0.70861866368E+01  0.26026705161E+02  0.00000000000E+00 0. -1.
</event>
<event>
 7    1  0.6830263E-012  0.5930195E+02  0.7816164E-02  0.1266605E+00
        -11   -1    0    0    0    0  0.00000000000E+00  0.00000000000E+00  0.45593999997E+02  0.45594000000E+02  0.51100000000E-03 0.  1.
         11   -1    0    0    0    0 -0.00000000000E+00 -0.00000000000E+00 -0.45593999997E+02  0.45594000000E+02  0.51100000000E-03 0. -1.
    9900012    2    1    2    0    0 -0.21140395450E+02  0.40133317749E+01 -0.23530771090E+02  0.59301947566E+02  0.50000006453E+02 0.  0.
        -12    1    1    2    0    0  0.21140395450E+02 -0.40133317749E+01  0.23530771090E+02  0.31886052434E+02  0.00000000000E+00 0.  1.
         11    1    3    3    0    0  0.17530437393E+01  0.10256774613E+02 -0.20724590654E+02  0.23190154071E+02  0.51100000000E-03 0. -1.
        -11    1    3    3    0    0 -0.10548615891E+02  0.98744195320E+01 -0.58389330146E+01  0.15584306123E+02  0.51100000000E-03 0.  1.
        -12    1    3    3    0    0 -0.12344823298E+02 -0.16117862370E+02  0.30327525782E+01  0.20527487373E+02  0.00000000000E+00 0.  1.
</event>
<event>
 7    1  0.6830263E-012  0.5930194E+02  0.7816164E-02  0.1266605E+00
        -11   -1    0    0    0    0  0.00000000000E+00  0.00000000000E+00  0.45593999997E+02  0.45594000000E+02  0.51100000000E-03 0. -1.
         11   -1    0    0    0    0 -0.00000000000E+00 -0.00000000000E+00 -0.45593999997E+02  0.45594000000E+02  0.51100000000E-03 0.  1.
    9900012    2    1    2    0    0  0.22124083426E+02 -0.19857625198E+02  0.11529110744E+02  0.59301941283E+02  0.49999994995E+02 0.  0.
        -12    1    1    2    0    0 -0.22124083426E+02  0.19857625198E+02 -0.11529110744E+02  0.31886058717E+02  0.00000000000E+00 0.  1.
         11    1    3    3    0    0  0.31993651596E+02 -0.21462436532E+02  0.16037319871E+02  0.41730391243E+02  0.51100000000E-03 0. -1.
        -11    1    3    3    0    0 -0.27737863688E+01  0.34374535062E+01  0.42650394632E+01  0.61400764906E+01  0.51100000000E-03 0.  1.
        -12    1    3    3    0    0 -0.70957818016E+01 -0.18326421722E+01 -0.87732485898E+01  0.11431473550E+02  0.00000000000E+00 0.  1.
</event>
<event>
 7    1  0.6830263E-012  0.5930195E+02  0.7816164E-02  0.1266605E+00
        -11   -1    0    0    0    0  0.00000000000E+00  0.00000000000E+00  0.45593999997E+02  0.45594000000E+02  0.51100000000E-03 0.  1.
         11   -1    0    0    0    0 -0.00000000000E+00 -0.00000000000E+00 -0.45593999997E+02  0.45594000000E+02  0.51100000000E-03 0. -1.
    9900012    2    1    2    0    0  0.13493840161E+02  0.22110064841E+02 -0.18595193737E+02  0.59301954154E+02  0.50000018468E+02 0.  0.
        -12    1    1    2    0    0 -0.13493840161E+02 -0.22110064841E+02  0.18595193737E+02  0.31886045846E+02  0.00000000000E+00 0.  1.
         11    1    3    3    0    0  0.12247904934E+02  0.19187135330E+01 -0.12204341633E+02  0.17396510910E+02  0.51100000000E-03 0. -1.
        -11    1    3    3    0    0  0.17655114182E+02  0.98095315240E+01  0.28565610725E+01  0.20398281960E+02  0.51100000000E-03 0.  1.
         12    1    3    3    0    0 -0.16409178955E+02  0.10381819784E+02 -0.92474131769E+01  0.21507161284E+02  0.00000000000E+00 0. -1.
</event>
<event>
 7    1  0.6830263E-012  0.5930193E+02  0.7816164E-02  0.1266605E+00
        -11   -1    0    0    0    0  0.00000000000E+00  0.00000000000E+00  0.45593999997E+02  0.45594000000E+02  0.51100000000E-03 0. -1.
         11   -1    0    0    0    0 -0.00000000000E+00 -0.00000000000E+00 -0.45593999997E+02  0.45594000000E+02  0.51100000000E-03 0.  1.
    9900012    2    1    2    0    0 -0.28263742432E+02 -0.42067830656E+01  0.14148676787E+02  0.59301933845E+02  0.49999981430E+02 0.  0.
        -12    1    1    2    0    0  0.28263742432E+02  0.42067830656E+01 -0.14148676787E+02  0.31886066155E+02  0.00000000000E+00 0.  1.
         11    1    3    3    0    0 -0.18822617853E+02  0.52236426252E+01  0.19786949060E+02  0.27804689145E+02  0.51100000000E-03 0. -1.
        -11    1    3    3    0    0 -0.13508740014E+02 -0.31986173541E+00  0.71417653717E+01  0.15283755467E+02  0.51100000000E-03 0.  1.
        -12    1    3    3    0    0  0.40676154348E+01 -0.91105639555E+01 -0.12780037645E+02  0.16213489233E+02  0.00000000000E+00 0.  1.
</event>
<event>
 7    1  0.6830263E-012  0.5930194E+02  0.7816164E-02  0.1266605E+00
        -11   -1    0    0    0    0  0.00000000000E+00  0.00000000000E+00  0.45593999997E+02  0.45594000000E+02  0.51100000000E-03 0. -1.
         11   -1    0    0    0    0 -0.00000000000E+00 -0.00000000000E+00 -0.45593999997E+02  0.45594000000E+02  0.51100000000E-03 0.  1.
    9900012    2    1    2    0    0 -0.28669005547E+02  0.10224142250E+02  0.95013563144E+01  0.59301941360E+02  0.49999995134E+02 0.  0.
        -12    1    1    2    0    0  0.28669005547E+02 -0.10224142250E+02 -0.95013563144E+01  0.31886058640E+02  0.00000000000E+00 0.  1.
         11    1    3    3    0    0  0.61612293765E+01 -0.16852064782E+01  0.12397416680E+02  0.13946204103E+02  0.51100000000E-03 0. -1.
        -11    1    3    3    0    0 -0.64707175352E+01 -0.34082154908E+01 -0.99621991104E+01  0.12358459841E+02  0.51100000000E-03 0.  1.
        -12    1    3    3    0    0 -0.28359517388E+02  0.15317564218E+02  0.70661387452E+01  0.32997277416E+02  0.00000000000E+00 0.  1.
</event>
<event>
 7    1  0.6830263E-012  0.5930198E+02  0.7816164E-02  0.1266605E+00
        -11   -1    0    0    0    0  0.00000000000E+00  0.00000000000E+00  0.45593999997E+02  0.45594000000E+02  0.51100000000E-03 0.  1.
         11   -1    0    0    0    0 -0.00000000000E+00 -0.00000000000E+00 -0.45593999997E+02  0.45594000000E+02  0.51100000000E-03 0. -1.
    9900012    2    1    2    0    0 -0.44190666330E+01  0.11983303007E+02 -0.29216276217E+02  0.59301976465E+02  0.50000059158E+02 0.  0.
        -12    1    1    2    0    0  0.44190666330E+01 -0.11983303007E+02  0.29216276217E+02  0.31886023535E+02  0.00000000000E+00 0.  1.
         11    1    3    3    0    0  0.93506141501E+01 -0.46276824173E+01 -0.29858212943E+00  0.10437364662E+02  0.51100000000E-03 0. -1.
        -11    1    3    3    0    0 -0.26481524549E+01 -0.75481972522E+01 -0.18760874164E+02  0.20395058049E+02  0.51100000000E-03 0.  1.
        -12    1    3    3    0    0 -0.11121528328E+02  0.24159182677E+02 -0.10156819924E+02  0.28469553754E+02  0.00000000000E+00 0.  1.
</event>
<event>
 7    1  0.6830263E-012  0.5930190E+02  0.7816164E-02  0.1266605E+00
        -11   -1    0    0    0    0  0.00000000000E+00  0.00000000000E+00  0.45593999997E+02  0.45594000000E+02  0.51100000000E-03 0. -1.
         11   -1    0    0    0    0 -0.00000000000E+00 -0.00000000000E+00 -0.45593999997E+02  0.45594000000E+02  0.51100000000E-03 0.  1.
    9900012    2    1    2    0    0 -0.37418669465E+01  0.11817772805E+02  0.29377914999E+02  0.59301902528E+02  0.49999924315E+02 0.  0.
        -12    1    1    2    0    0  0.37418669465E+01 -0.11817772805E+02 -0.29377914999E+02  0.31886097472E+02  0.00000000000E+00 0.  1.
         11    1    3    3    0    0  0.13696943103E+02  0.14526228281E+02  0.41313342052E+00  0.19969682970E+02  0.51100000000E-03 0.  1.
        -11    1    3    3    0    0 -0.71691718067E+00  0.59987119590E+01  0.18709759452E+01  0.63244815329E+01  0.51100000000E-03 0. -1.
         12    1    3    3    0    0 -0.16721892869E+02 -0.87071674350E+01  0.27093805633E+02  0.33007738025E+02  0.00000000000E+00 0. -1.
</event>
<event>
 7    1  0.6830263E-012  0.5930195E+02  0.7816164E-02  0.1266605E+00
        -11   -1    0    0    0    0  0.00000000000E+00  0.00000000000E+00  0.45593999997E+02  0.45594000000E+02  0.51100000000E-03 0. -1.
         11   -1    0    0    0    0 -0.00000000000E+00 -0.00000000000E+00 -0.45593999997E+02  0.45594000000E+02  0.51100000000E-03 0.  1.
    9900012    2    1    2    0    0 -0.29339662598E+02 -0.10214127702E+02  0.71816268533E+01  0.59301953360E+02  0.50000017020E+02 0.  0.
        -12    1    1    2    0    0  0.29339662598E+02  0.10214127702E+02 -0.71816268533E+01  0.31886046640E+02  0.00000000000E+00 0.  1.
         11    1    3    3    0    0 -0.99636106849E-01  0.10903688261E+01  0.34583885465E+01  0.36275726223E+01  0.51100000000E-03 0. -1.
        -11    1    3    3    0    0  0.62309435426E+01 -0.96652068619E+01  0.14555535553E+02  0.18550053817E+02  0.51100000000E-03 0.  1.
         12    1    3    3    0    0 -0.35470970034E+02 -0.16392896659E+01 -0.10832297246E+02  0.37124326921E+02  0.00000000000E+00 0. -1.
</event>
<event>
 7    1  0.6830263E-012  0.5930194E+02  0.7816164E-02  0.1266605E+00
        -11   -1    0    0    0    0  0.00000000000E+00  0.00000000000E+00  0.45593999997E+02  0.45594000000E+02  0.51100000000E-03 0.  1.
         11   -1    0    0    0    0 -0.00000000000E+00 -0.00000000000E+00 -0.45593999997E+02  0.45594000000E+02  0.51100000000E-03 0. -1.
    9900012    2    1    2    0    0 -0.16334237565E+02 -0.88669940081E+01  0.25909267902E+02  0.59301936229E+02  0.49999985777E+02 0.  0.
        -12    1    1    2    0    0  0.16334237565E+02  0.88669940081E+01 -0.25909267902E+02  0.31886063771E+02  0.00000000000E+00 0.  1.
         11    1    3    3    0    0 -0.10585155231E+02  0.11420934145E+02  0.17361060747E+01  0.15668353856E+02  0.51100000000E-03 0. -1.
        -11    1    3    3    0    0 -0.14779710384E+02 -0.49248791764E+01  0.19963216187E+02  0.25322406574E+02  0.51100000000E-03 0.  1.
        -12    1    3    3    0    0  0.90306280501E+01 -0.15363048976E+02  0.42099456408E+01  0.18311175799E+02  0.00000000000E+00 0.  1.
</event>
<event>
 7    1  0.6830263E-012  0.5930192E+02  0.7816164E-02  0.1266605E+00
        -11   -1    0    0    0    0  0.00000000000E+00  0.00000000000E+00  0.45593999997E+02  0.45594000000E+02  0.51100000000E-03 0.  1.
         11   -1    0    0    0    0 -0.00000000000E+00 -0.00000000000E+00 -0.45593999997E+02  0.45594000000E+02  0.51100000000E-03 0. -1.
    9900012    2    1    2    0    0  0.18985966460E+02 -0.12912691896E+02 -0.22125041765E+02  0.59301921415E+02  0.49999958760E+02 0.  0.
        -12    1    1    2    0    0 -0.18985966460E+02  0.12912691896E+02  0.22125041765E+02  0.31886078585E+02  0.00000000000E+00 0.  1.
         11    1    3    3    0    0  0.77787389670E+01  0.17850623331E+02 -0.91521361614E+01  0.21515462575E+02  0.51100000000E-03 0.  1.
        -11    1    3    3    0    0 -0.27055690315E+01 -0.63384013415E+01 -0.15756567025E+00  0.68934942194E+01  0.51100000000E-03 0. -1.
        -12    1    3    3    0    0  0.13912796524E+02 -0.24424913885E+02 -0.12815339934E+02  0.30892964621E+02  0.00000000000E+00 0.  1.
</event>
<event>
 7    1  0.6830263E-012  0.5930166E+02  0.7816164E-02  0.1266606E+00
        -11   -1    0    0    0    0  0.00000000000E+00  0.00000000000E+00  0.45593999997E+02  0.45594000000E+02  0.51100000000E-03 0. -1.
         11   -1    0    0    0    0 -0.00000000000E+00 -0.00000000000E+00 -0.45593999997E+02  0.45594000000E+02  0.51100000000E-03 0.  1.
    9900012    2    1    2    0    0 -0.17289011866E+02 -0.82236491716E+01  0.25499021167E+02  0.59301664095E+02  0.49999489467E+02 0.  0.
        -12    1    1    2    0    0  0.17289011866E+02  0.82236491716E+01 -0.25499021167E+02  0.31886335905E+02  0.00000000000E+00 0.  1.
         11    1    3    3    0    0  0.58818287041E+01  0.64146152657E+00  0.43056015767E+00  0.59323489534E+01  0.51100000000E-03 0. -1.
        -11    1    3    3    0    0 -0.46088652372E+01 -0.83836546166E+01 -0.99059193995E+01  0.13771512005E+02  0.51100000000E-03 0.  1.
         12    1    3    3    0    0 -0.18561975333E+02 -0.48145608158E+00  0.34974380409E+02  0.39597803136E+02  0.00000000000E+00 0. -1.
</event>
<event>
 7    1  0.6830263E-012  0.5930194E+02  0.7816164E-02  0.1266605E+00
        -11   -1    0    0    0    0  0.00000000000E+00  0.00000000000E+00  0.45593999997E+02  0.45594000000E+02  0.51100000000E-03 0.  1.
         11   -1    0    0    0    0 -0.00000000000E+00 -0.00000000000E+00 -0.45593999997E+02  0.45594000000E+02  0.51100000000E-03 0. -1.
    9900012    2    1    2    0    0  0.22768152256E+02  0.14589461715E+00 -0.22322882361E+02  0.59301935343E+02  0.49999984161E+02 0.  0.
        -12    1    1    2    0    0 -0.22768152256E+02 -0.14589461715E+00  0.22322882361E+02  0.31886064657E+02  0.00000000000E+00 0.  1.
         11    1    3    3    0    0  0.13771325866E+02  0.19783786559E+02 -0.49109339029E+01  0.24600099568E+02  0.51100000000E-03 0. -1.
        -11    1    3    3    0    0  0.32791427011E+00  0.42380286635E+01 -0.45624361679E+01  0.62357227944E+01  0.51100000000E-03 0.  1.
        -12    1    3    3    0    0  0.86689121202E+01 -0.23875920605E+02 -0.12849512290E+02  0.28466112980E+02  0.00000000000E+00 0.  1.
</event>
<event>
 7    1  0.6830263E-012  0.5930195E+02  0.7816164E-02  0.1266605E+00
        -11   -1    0    0    0    0  0.00000000000E+00  0.00000000000E+00  0.45593999997E+02  0.45594000000E+02  0.51100000000E-03 0.  1.
         11   -1    0    0    0    0 -0.00000000000E+00 -0.00000000000E+00 -0.45593999997E+02  0.45594000000E+02  0.51100000000E-03 0. -1.
    9900012    2    1    2    0    0 -0.62899444554E+01 -0.31223819074E+02 -0.14931989607E+01  0.59301954119E+02  0.50000018403E+02 0.  0.
        -12    1    1    2    0    0  0.62899444554E+01  0.31223819074E+02  0.14931989607E+01  0.31886045881E+02  0.00000000000E+00 0.  1.
         11    1    3    3    0    0  0.25021523790E+01  0.23649146885E+01  0.12275836143E+01  0.36552085854E+01  0.51100000000E-03 0. -1.
        -11    1    3    3    0    0 -0.11362051551E+02 -0.14585523766E+01  0.14992158413E+02  0.18867654985E+02  0.51100000000E-03 0.  1.
         12    1    3    3    0    0  0.25699547167E+01 -0.32130181386E+02 -0.17712940988E+02  0.36779090548E+02  0.00000000000E+00 0. -1.
</event>
<event>
 7    1  0.6830263E-012  0.5930189E+02  0.7816164E-02  0.1266605E+00
        -11   -1    0    0    0    0  0.00000000000E+00  0.00000000000E+00  0.45593999997E+02  0.45594000000E+02  0.51100000000E-03 0.  1.
         11   -1    0    0    0    0 -0.00000000000E+00 -0.00000000000E+00 -0.45593999997E+02  0.45594000000E+02  0.51100000000E-03 0. -1.
    9900012    2    1    2    0    0 -0.27326144916E+02  0.15632811051E+01 -0.16357321166E+02  0.59301890179E+02  0.49999901793E+02 0.  0.
        -12    1    1    2    0    0  0.27326144916E+02 -0.15632811051E+01  0.16357321166E+02  0.31886109821E+02  0.00000000000E+00 0.  1.
         11    1    3    3    0    0 -0.15565198932E+02 -0.48843432196E+00 -0.17400483399E+02  0.23351462667E+02  0.51100000000E-03 0. -1.
        -11    1    3    3    0    0 -0.18148027985E+02  0.43577757800E+01 -0.11331888257E+02  0.21834670165E+02  0.51100000000E-03 0.  1.
        -12    1    3    3    0    0  0.63870820013E+01 -0.23060603530E+01  0.12375050490E+02  0.14115757347E+02  0.00000000000E+00 0.  1.
</event>
<event>
 7    1  0.6830263E-012  0.5930197E+02  0.7816164E-02  0.1266605E+00
        -11   -1    0    0    0    0  0.00000000000E+00  0.00000000000E+00  0.45593999997E+02  0.45594000000E+02  0.51100000000E-03 0.  1.
         11   -1    0    0    0    0 -0.00000000000E+00 -0.00000000000E+00 -0.45593999997E+02  0.45594000000E+02  0.51100000000E-03 0. -1.
    9900012    2    1    2    0    0  0.82585251737E+01  0.21009940585E+02 -0.22518844319E+02  0.59301965583E+02  0.50000039311E+02 0.  0.
        -12    1    1    2    0    0 -0.82585251737E+01 -0.21009940585E+02  0.22518844319E+02  0.31886034417E+02  0.00000000000E+00 0.  1.
         11    1    3    3    0    0  0.93062180713E+01 -0.24360796414E+01 -0.23094053875E+00  0.96225522915E+01  0.51100000000E-03 0. -1.
        -11    1    3    3    0    0 -0.24644057089E+01  0.16398912799E+02  0.80981358304E+01  0.18454740331E+02  0.51100000000E-03 0.  1.
         12    1    3    3    0    0  0.14167128113E+01  0.70471074270E+01 -0.30386039610E+02  0.31224672960E+02  0.00000000000E+00 0. -1.
</event>
<event>
 7    1  0.6830263E-012  0.5930195E+02  0.7816164E-02  0.1266605E+00
        -11   -1    0    0    0    0  0.00000000000E+00  0.00000000000E+00  0.45593999997E+02  0.45594000000E+02  0.51100000000E-03 0. -1.
         11   -1    0    0    0    0 -0.00000000000E+00 -0.00000000000E+00 -0.45593999997E+02  0.45594000000E+02  0.51100000000E-03 0.  1.
    9900012    2    1    2    0    0  0.25317775089E+02  0.67779760676E+01  0.18160101010E+02  0.59301953464E+02  0.50000017209E+02 0.  0.
        -12    1    1    2    0    0 -0.25317775089E+02 -0.67779760676E+01 -0.18160101010E+02  0.31886046536E+02  0.00000000000E+00 0.  1.
         11    1    3    3    0    0  0.12397081203E+02  0.13580837516E+02  0.15992722050E+02  0.24369939040E+02  0.51100000000E-03 0. -1.
        -11    1    3    3    0    0  0.94583209995E+01  0.92252886095E+01  0.10181848451E+02  0.16680402399E+02  0.51100000000E-03 0.  1.
        -12    1    3    3    0    0  0.34623728863E+01 -0.16028150058E+02 -0.80144694906E+01  0.18251612024E+02  0.00000000000E+00 0.  1.
</event>
<event>
 7    1  0.6830263E-012  0.5930196E+02  0.7816164E-02  0.1266605E+00
        -11   -1    0    0    0    0  0.00000000000E+00  0.00000000000E+00  0.45593999997E+02  0.45594000000E+02  0.51100000000E-03 0.  1.
         11   -1    0    0    0    0 -0.00000000000E+00 -0.00000000000E+00 -0.45593999997E+02  0.45594000000E+02  0.51100000000E-03 0. -1.
    9900012    2    1    2    0    0  0.11870622196E+02  0.12794625813E+02 -0.26685304411E+02  0.59301959284E+02  0.50000027825E+02 0.  0.
        -12    1    1    2    0    0 -0.11870622196E+02 -0.12794625813E+02  0.26685304411E+02  0.31886040716E+02  0.00000000000E+00 0.  1.
         11    1    3    3    0    0 -0.86033631394E+01  0.14805106865E+02 -0.14697493225E+02  0.22566022112E+02  0.51100000000E-03 0. -1.
        -11    1    3    3    0    0  0.68399252909E+01 -0.12950030172E+02 -0.12490514483E+02  0.19248397641E+02  0.51100000000E-03 0.  1.
         12    1    3    3    0    0  0.13634060044E+02  0.10939549120E+02  0.50270329809E+00  0.17487539531E+02  0.00000000000E+00 0. -1.
</event>
<event>
 7    1  0.6830263E-012  0.5930199E+02  0.7816164E-02  0.1266605E+00
        -11   -1    0    0    0    0  0.00000000000E+00  0.00000000000E+00  0.45593999997E+02  0.45594000000E+02  0.51100000000E-03 0.  1.
         11   -1    0    0    0    0 -0.00000000000E+00 -0.00000000000E+00 -0.45593999997E+02  0.45594000000E+02  0.51100000000E-03 0. -1.
    9900012    2    1    2    0    0 -0.18626942819E+02  0.10795054994E+02 -0.23520662935E+02  0.59301987456E+02  0.50000079202E+02 0.  0.
        -12    1    1    2    0    0  0.18626942819E+02 -0.10795054994E+02  0.23520662935E+02  0.31886012544E+02  0.00000000000E+00 0.  1.
         11    1    3    3    0    0 -0.58589827193E+01  0.19348786798E-01 -0.61758244346E+01  0.85128644174E+01  0.51100000000E-03 0. -1.
        -11    1    3    3    0    0 -0.11823091426E+02 -0.99188378187E+01  0.85377649278E+01  0.17636957356E+02  0.51100000000E-03 0.  1.
         12    1    3    3    0    0 -0.94486867347E+00  0.20694544026E+02 -0.25882603428E+02  0.33152165683E+02  0.00000000000E+00 0. -1.
</event>
<event>
 7    1  0.6830263E-012  0.5930190E+02  0.7816164E-02  0.1266605E+00
        -11   -1    0    0    0    0  0.00000000000E+00  0.00000000000E+00  0.45593999997E+02  0.45594000000E+02  0.51100000000E-03 0.  1.
         11   -1    0    0    0    0 -0.00000000000E+00 -0.00000000000E+00 -0.45593999997E+02  0.45594000000E+02  0.51100000000E-03 0. -1.
    9900012    2    1    2    0    0  0.13946649006E+02 -0.12157898251E+01 -0.28648498085E+02  0.59301896351E+02  0.49999913049E+02 0.  0.
        -12    1    1    2    0    0 -0.13946649006E+02  0.12157898251E+01  0.28648498085E+02  0.31886103649E+02  0.00000000000E+00 0.  1.
         11    1    3    3    0    0  0.55470208910E+01 -0.29210255210E+01  0.23964550232E+01  0.67115443677E+01  0.51100000000E-03 0. -1.
        -11    1    3    3    0    0  0.14963736674E+02 -0.15983997892E+02 -0.92663125374E+01  0.23775326542E+02  0.51100000000E-03 0.  1.
         12    1    3    3    0    0 -0.65641085591E+01  0.17689233588E+02 -0.21778640571E+02  0.28815025442E+02  0.00000000000E+00 0. -1.
</event>
<event>
 7    1  0.6830263E-012  0.5930196E+02  0.7816164E-02  0.1266605E+00
        -11   -1    0    0    0    0  0.00000000000E+00  0.00000000000E+00  0.45593999997E+02  0.45594000000E+02  0.51100000000E-03 0. -1.
         11   -1    0    0    0    0 -0.00000000000E+00 -0.00000000000E+00 -0.45593999997E+02  0.45594000000E+02  0.51100000000E-03 0.  1.
    9900012    2    1    2    0    0  0.15815811835E+01  0.23422936931E+02  0.21577394725E+02  0.59301963297E+02  0.50000035142E+02 0.  0.
        -12    1    1    2    0    0 -0.15815811835E+01 -0.23422936931E+02 -0.21577394725E+02  0.31886036703E+02  0.00000000000E+00 0.  1.
         11    1    3    3    0    0  0.62092351064E+01  0.14721777479E+02 -0.10679879848E+01  0.16013304823E+02  0.51100000000E-03 0. -1.
        -11    1    3    3    0    0  0.24910730557E+01  0.96948934651E+00 -0.92907567857E+01  0.96676531006E+01  0.51100000000E-03 0.  1.
         12    1    3    3    0    0 -0.71187269786E+01  0.77316701056E+01  0.31936139496E+02  0.33621005373E+02  0.00000000000E+00 0. -1.
</event>
<event>
 7    1  0.6830263E-012  0.5930193E+02  0.7816164E-02  0.1266605E+00
        -11   -1    0    0    0    0  0.00000000000E+00  0.00000000000E+00  0.45593999997E+02  0.45594000000E+02  0.51100000000E-03 0. -1.
         11   -1    0    0    0    0 -0.00000000000E+00 -0.00000000000E+00 -0.45593999997E+02  0.45594000000E+02  0.51100000000E-03 0.  1.
    9900012    2    1    2    0    0 -0.18237164990E+02 -0.12599158472E+02  0.22921355248E+02  0.59301929256E+02  0.49999973060E+02 0.  0.
        -12    1    1    2    0    0  0.18237164990E+02  0.12599158472E+02 -0.22921355248E+02  0.31886070744E+02  0.00000000000E+00 0.  1.
         11    1    3    3    0    0 -0.11369276652E+02  0.24962789460E+01  0.14378767632E+02  0.18499751864E+02  0.51100000000E-03 0. -1.
        -11    1    3    3    0    0  0.14167937945E+02 -0.16794771064E+01  0.67631829886E+01  0.15788975691E+02  0.51100000000E-03 0.  1.
         12    1    3    3    0    0 -0.21035826283E+02 -0.13415960312E+02  0.17794046275E+01  0.25013201701E+02  0.00000000000E+00 0. -1.
</event>
<event>
 7    1  0.6830263E-012  0.5930193E+02  0.7816164E-02  0.1266605E+00
        -11   -1    0    0    0    0  0.00000000000E+00  0.00000000000E+00  0.45593999997E+02  0.45594000000E+02  0.51100000000E-03 0.  1.
         11   -1    0    0    0    0 -0.00000000000E+00 -0.00000000000E+00 -0.45593999997E+02  0.45594000000E+02  0.51100000000E-03 0. -1.
    9900012    2    1    2    0    0  0.11662299955E+02 -0.16157269940E+02 -0.24892865568E+02  0.59301931438E+02  0.49999977040E+02 0.  0.
        -12    1    1    2    0    0 -0.11662299955E+02  0.16157269940E+02  0.24892865568E+02  0.31886068562E+02  0.00000000000E+00 0.  1.
         11    1    3    3    0    0  0.10795464181E+02  0.42461027841E+00 -0.32023419523E+02  0.33796771133E+02  0.51100000000E-03 0. -1.
        -11    1    3    3    0    0  0.54483439039E+01  0.12537507610E+01 -0.41147754277E+00  0.56058591041E+01  0.51100000000E-03 0.  1.
         12    1    3    3    0    0 -0.45815081303E+01 -0.17835630979E+02  0.75420314984E+01  0.19899301201E+02  0.00000000000E+00 0. -1.
</event>
<event>
 7    1  0.6830263E-012  0.5930194E+02  0.7816164E-02  0.1266605E+00
        -11   -1    0    0    0    0  0.00000000000E+00  0.00000000000E+00  0.45593999997E+02  0.45594000000E+02  0.51100000000E-03 0.  1.
         11   -1    0    0    0    0 -0.00000000000E+00 -0.00000000000E+00 -0.45593999997E+02  0.45594000000E+02  0.51100000000E-03 0. -1.
    9900012    2    1    2    0    0  0.41850148080E+01 -0.11214065746E+02 -0.29554204965E+02  0.59301942693E+02  0.49999997565E+02 0.  0.
        -12    1    1    2    0    0 -0.41850148080E+01  0.11214065746E+02  0.29554204965E+02  0.31886057307E+02  0.00000000000E+00 0.  1.
         11    1    3    3    0    0  0.74431529711E+01  0.73429935597E+01 -0.29972124337E+02  0.31743476780E+02  0.51100000000E-03 0. -1.
        -11    1    3    3    0    0 -0.60299056596E+01 -0.14587078968E+01  0.67016597989E+01  0.91323510288E+01  0.51100000000E-03 0.  1.
        -12    1    3    3    0    0  0.27717674966E+01 -0.17098351409E+02 -0.62837404267E+01  0.18426114884E+02  0.00000000000E+00 0.  1.
</event>
<event>
 7    1  0.6830263E-012  0.5930197E+02  0.7816164E-02  0.1266605E+00
        -11   -1    0    0    0    0  0.00000000000E+00  0.00000000000E+00  0.45593999997E+02  0.45594000000E+02  0.51100000000E-03 0.  1.
         11   -1    0    0    0    0 -0.00000000000E+00 -0.00000000000E+00 -0.45593999997E+02  0.45594000000E+02  0.51100000000E-03 0. -1.
    9900012    2    1    2    0    0  0.11192340091E+02 -0.22455029840E+02 -0.19677964348E+02  0.59301966651E+02  0.50000041260E+02 0.  0.
        -12    1    1    2    0    0 -0.11192340091E+02  0.22455029840E+02  0.19677964348E+02  0.31886033349E+02  0.00000000000E+00 0.  1.
         11    1    3    3    0    0 -0.65790971632E+01 -0.37137974177E+01 -0.18573360924E+02  0.20051098399E+02  0.51100000000E-03 0. -1.
        -11    1    3    3    0    0  0.25301860686E+02 -0.10329726285E+02 -0.39364321452E+01  0.27611282071E+02  0.51100000000E-03 0.  1.
        -12    1    3    3    0    0 -0.75304234323E+01 -0.84115061373E+01  0.28318287205E+01  0.11639586181E+02  0.00000000000E+00 0.  1.
</event>
<event>
 7    1  0.6830263E-012  0.5930190E+02  0.7816164E-02  0.1266605E+00
        -11   -1    0    0    0    0  0.00000000000E+00  0.00000000000E+00  0.45593999997E+02  0.45594000000E+02  0.51100000000E-03 0.  1.
         11   -1    0    0    0    0 -0.00000000000E+00 -0.00000000000E+00 -0.45593999997E+02  0.45594000000E+02  0.51100000000E-03 0. -1.
    9900012    2    1    2    0    0  0.19994864104E+02  0.67723707168E+00 -0.24828814253E+02  0.59301901809E+02  0.49999923004E+02 0.  0.
        -12    1    1    2    0    0 -0.19994864104E+02 -0.67723707168E+00  0.24828814253E+02  0.31886098191E+02  0.00000000000E+00 0.  1.
         11    1    3    3    0    0  0.19077381633E+02  0.20142605176E+02 -0.22810606674E+02  0.35916497746E+02  0.51100000000E-03 0. -1.
        -11    1    3    3    0    0  0.13974062080E+01  0.38333139043E+00  0.26221090785E+01  0.29958543599E+01  0.51100000000E-03 0.  1.
        -12    1    3    3    0    0 -0.47992373687E+00 -0.19848699495E+02 -0.46403166582E+01  0.20389549703E+02  0.00000000000E+00 0.  1.
</event>
<event>
 7    1  0.6830263E-012  0.5930194E+02  0.7816164E-02  0.1266605E+00
        -11   -1    0    0    0    0  0.00000000000E+00  0.00000000000E+00  0.45593999997E+02  0.45594000000E+02  0.51100000000E-03 0. -1.
         11   -1    0    0    0    0 -0.00000000000E+00 -0.00000000000E+00 -0.45593999997E+02  0.45594000000E+02  0.51100000000E-03 0.  1.
    9900012    2    1    2    0    0  0.23693457272E+02  0.12913426962E+02  0.16987763453E+02  0.59301943164E+02  0.49999998426E+02 0.  0.
        -12    1    1    2    0    0 -0.23693457272E+02 -0.12913426962E+02 -0.16987763453E+02  0.31886056836E+02  0.00000000000E+00 0.  1.
         11    1    3    3    0    0  0.12362851201E+02  0.10771764450E+01  0.24104399546E+02  0.27111297952E+02  0.51100000000E-03 0. -1.
        -11    1    3    3    0    0  0.16670220595E+02 -0.17831916557E+01 -0.38264945195E+01  0.17196455674E+02  0.51100000000E-03 0.  1.
        -12    1    3    3    0    0 -0.53396145239E+01  0.13619442172E+02 -0.32901415737E+01  0.14994189539E+02  0.00000000000E+00 0.  1.
</event>
<event>
 7    1  0.6830263E-012  0.5930201E+02  0.7816164E-02  0.1266605E+00
        -11   -1    0    0    0    0  0.00000000000E+00  0.00000000000E+00  0.45593999997E+02  0.45594000000E+02  0.51100000000E-03 0. -1.
         11   -1    0    0    0    0 -0.00000000000E+00 -0.00000000000E+00 -0.45593999997E+02  0.45594000000E+02  0.51100000000E-03 0.  1.
    9900012    2    1    2    0    0 -0.56907645783E+00  0.30003895577E+02  0.10777697472E+02  0.59302009964E+02  0.50000120251E+02 0.  0.
        -12    1    1    2    0    0  0.56907645783E+00 -0.30003895577E+02 -0.10777697472E+02  0.31885990036E+02  0.00000000000E+00 0.  1.
         11    1    3    3    0    0 -0.17047638543E+02  0.97240869528E+01  0.22408385364E+02  0.29787842854E+02  0.51100000000E-03 0.  1.
        -11    1    3    3    0    0  0.79322929799E+01  0.81065505873E+01 -0.13248941346E+01  0.11418965762E+02  0.51100000000E-03 0. -1.
        -12    1    3    3    0    0  0.85462691057E+01  0.12173258037E+02 -0.10305793758E+02  0.18095201348E+02  0.00000000000E+00 0.  1.
</event>
<event>
 7    1  0.6830263E-012  0.5930194E+02  0.7816164E-02  0.1266605E+00
        -11   -1    0    0    0    0  0.00000000000E+00  0.00000000000E+00  0.45593999997E+02  0.45594000000E+02  0.51100000000E-03 0.  1.
         11   -1    0    0    0    0 -0.00000000000E+00 -0.00000000000E+00 -0.45593999997E+02  0.45594000000E+02  0.51100000000E-03 0. -1.
    9900012    2    1    2    0    0  0.11922192973E+02 -0.12133932558E+02 -0.26969423957E+02  0.59301939830E+02  0.49999992344E+02 0.  0.
        -12    1    1    2    0    0 -0.11922192973E+02  0.12133932558E+02  0.26969423957E+02  0.31886060170E+02  0.00000000000E+00 0.  1.
         11    1    3    3    0    0  0.24460889665E+01  0.13229010946E+02 -0.15702955275E+02  0.20677835634E+02  0.51100000000E-03 0. -1.
        -11    1    3    3    0    0  0.63261313307E+01  0.36856641289E+01 -0.46248757515E+01  0.86598806956E+01  0.51100000000E-03 0.  1.
        -12    1    3    3    0    0  0.31499726761E+01 -0.29048607634E+02 -0.66415929298E+01  0.29964223500E+02  0.00000000000E+00 0.  1.
</event>
<event>
 7    1  0.6830263E-012  0.5930193E+02  0.7816164E-02  0.1266605E+00
        -11   -1    0    0    0    0  0.00000000000E+00  0.00000000000E+00  0.45593999997E+02  0.45594000000E+02  0.51100000000E-03 0. -1.
         11   -1    0    0    0    0 -0.00000000000E+00 -0.00000000000E+00 -0.45593999997E+02  0.45594000000E+02  0.51100000000E-03 0.  1.
    9900012    2    1    2    0    0 -0.26298351255E+02 -0.13546242212E+02  0.11900314336E+02  0.59301930345E+02  0.49999975045E+02 0.  0.
        -12    1    1    2    0    0  0.26298351255E+02  0.13546242212E+02 -0.11900314336E+02  0.31886069655E+02  0.00000000000E+00 0.  1.
         11    1    3    3    0    0 -0.20926535837E+02  0.13761991749E+02  0.53146693250E+01  0.25603867468E+02  0.51100000000E-03 0. -1.
        -11    1    3    3    0    0 -0.74880364179E+01 -0.35106010403E+01 -0.16380577559E+01  0.84307913349E+01  0.51100000000E-03 0.  1.
        -12    1    3    3    0    0  0.21162209999E+01 -0.23797632921E+02  0.82237027668E+01  0.25267271541E+02  0.00000000000E+00 0.  1.
</event>
<event>
 7    1  0.6830263E-012  0.5930193E+02  0.7816164E-02  0.1266605E+00
        -11   -1    0    0    0    0  0.00000000000E+00  0.00000000000E+00  0.45593999997E+02  0.45594000000E+02  0.51100000000E-03 0.  1.
         11   -1    0    0    0    0 -0.00000000000E+00 -0.00000000000E+00 -0.45593999997E+02  0.45594000000E+02  0.51100000000E-03 0. -1.
    9900012    2    1    2    0    0  0.21592860655E+02 -0.20806967561E+02 -0.10841571725E+02  0.59301933955E+02  0.49999981630E+02 0.  0.
        -12    1    1    2    0    0 -0.21592860655E+02  0.20806967561E+02  0.10841571725E+02  0.31886066045E+02  0.00000000000E+00 0.  1.
         11    1    3    3    0    0  0.11775891949E+02  0.67048682459E-01  0.29982230390E+01  0.12151768117E+02  0.51100000000E-03 0. -1.
        -11    1    3    3    0    0  0.33123568424E+01 -0.20572905234E+02  0.95129368246E+01  0.22906595227E+02  0.51100000000E-03 0.  1.
         12    1    3    3    0    0  0.65046118631E+01 -0.30111101013E+00 -0.23352731588E+02  0.24243570611E+02  0.00000000000E+00 0. -1.
</event>
<event>
 7    1  0.6830263E-012  0.5930197E+02  0.7816164E-02  0.1266605E+00
        -11   -1    0    0    0    0  0.00000000000E+00  0.00000000000E+00  0.45593999997E+02  0.45594000000E+02  0.51100000000E-03 0.  1.
         11   -1    0    0    0    0 -0.00000000000E+00 -0.00000000000E+00 -0.45593999997E+02  0.45594000000E+02  0.51100000000E-03 0. -1.
    9900012    2    1    2    0    0  0.12954536736E+02 -0.19965050753E+02 -0.21220177043E+02  0.59301965637E+02  0.50000039411E+02 0.  0.
        -12    1    1    2    0    0 -0.12954536736E+02  0.19965050753E+02  0.21220177043E+02  0.31886034363E+02  0.00000000000E+00 0.  1.
         11    1    3    3    0    0  0.16007102550E+02 -0.17389930924E+01  0.25414542437E+01  0.16300626336E+02  0.51100000000E-03 0. -1.
        -11    1    3    3    0    0  0.41767399439E+01  0.64217523477E+00  0.58109263052E+01  0.71850129002E+01  0.51100000000E-03 0.  1.
         12    1    3    3    0    0 -0.72293057573E+01 -0.18868232895E+02 -0.29572557592E+02  0.35816326401E+02  0.00000000000E+00 0. -1.
</event>
<event>
 7    1  0.6830263E-012  0.5930194E+02  0.7816164E-02  0.1266605E+00
        -11   -1    0    0    0    0  0.00000000000E+00  0.00000000000E+00  0.45593999997E+02  0.45594000000E+02  0.51100000000E-03 0.  1.
         11   -1    0    0    0    0 -0.00000000000E+00 -0.00000000000E+00 -0.45593999997E+02  0.45594000000E+02  0.51100000000E-03 0. -1.
    9900012    2    1    2    0    0 -0.23506932121E+02 -0.17100687960E+02 -0.13103880342E+02  0.59301936172E+02  0.49999985673E+02 0.  0.
        -12    1    1    2    0    0  0.23506932121E+02  0.17100687960E+02  0.13103880342E+02  0.31886063828E+02  0.00000000000E+00 0.  1.
         11    1    3    3    0    0 -0.26292480011E+02 -0.82772799768E+01 -0.24407982669E+02  0.36817896289E+02  0.51100000000E-03 0. -1.
        -11    1    3    3    0    0 -0.38227634430E+00 -0.27943224919E+01 -0.44796703172E+01  0.52935639982E+01  0.51100000000E-03 0.  1.
        -12    1    3    3    0    0  0.31678242347E+01 -0.60290854914E+01  0.15783772644E+02  0.17190475884E+02  0.00000000000E+00 0.  1.
</event>
<event>
 7    1  0.6830263E-012  0.5930197E+02  0.7816164E-02  0.1266605E+00
        -11   -1    0    0    0    0  0.00000000000E+00  0.00000000000E+00  0.45593999997E+02  0.45594000000E+02  0.51100000000E-03 0. -1.
         11   -1    0    0    0    0 -0.00000000000E+00 -0.00000000000E+00 -0.45593999997E+02  0.45594000000E+02  0.51100000000E-03 0.  1.
    9900012    2    1    2    0    0  0.42068334365E+01 -0.62495377357E+01  0.30983299780E+02  0.59301968031E+02  0.50000043776E+02 0.  0.
        -12    1    1    2    0    0 -0.42068334365E+01  0.62495377357E+01 -0.30983299780E+02  0.31886031969E+02  0.00000000000E+00 0.  1.
         11    1    3    3    0    0  0.15725511369E+02 -0.84924955758E+01  0.27139587354E+02  0.32495713424E+02  0.51100000000E-03 0. -1.
        -11    1    3    3    0    0 -0.52302178690E+01 -0.93354026889E+01  0.75770467610E+01  0.13111695550E+02  0.51100000000E-03 0.  1.
        -12    1    3    3    0    0 -0.62884600630E+01  0.11578360529E+02 -0.37333343354E+01  0.13694559057E+02  0.00000000000E+00 0.  1.
</event>
<event>
 7    1  0.6830263E-012  0.5930195E+02  0.7816164E-02  0.1266605E+00
        -11   -1    0    0    0    0  0.00000000000E+00  0.00000000000E+00  0.45593999997E+02  0.45594000000E+02  0.51100000000E-03 0.  1.
         11   -1    0    0    0    0 -0.00000000000E+00 -0.00000000000E+00 -0.45593999997E+02  0.45594000000E+02  0.51100000000E-03 0. -1.
    9900012    2    1    2    0    0 -0.98028428632E+01 -0.22003490984E+02  0.20891885126E+02  0.59301949637E+02  0.50000010229E+02 0.  0.
        -12    1    1    2    0    0  0.98028428632E+01  0.22003490984E+02 -0.20891885126E+02  0.31886050363E+02  0.00000000000E+00 0.  1.
         11    1    3    3    0    0  0.22768767828E+01  0.13437232723E+02  0.14120280691E+01  0.13701723054E+02  0.51100000000E-03 0. -1.
        -11    1    3    3    0    0  0.43279674078E+01 -0.47314053879E+01  0.30418261335E+01  0.70971970041E+01  0.51100000000E-03 0.  1.
        -12    1    3    3    0    0 -0.16407687054E+02 -0.30709318319E+02  0.16438030923E+02  0.38503029578E+02  0.00000000000E+00 0.  1.
</event>
<event>
 7    1  0.6830263E-012  0.5930194E+02  0.7816164E-02  0.1266605E+00
        -11   -1    0    0    0    0  0.00000000000E+00  0.00000000000E+00  0.45593999997E+02  0.45594000000E+02  0.51100000000E-03 0.  1.
         11   -1    0    0    0    0 -0.00000000000E+00 -0.00000000000E+00 -0.45593999997E+02  0.45594000000E+02  0.51100000000E-03 0. -1.
    9900012    2    1    2    0    0  0.32776889025E+01 -0.93960768498E+01 -0.30293422626E+02  0.59301937855E+02  0.49999988743E+02 0.  0.
        -12    1    1    2    0    0 -0.32776889025E+01  0.93960768498E+01  0.30293422626E+02  0.31886062145E+02  0.00000000000E+00 0.  1.
         11    1    3    3    0    0  0.14484196957E+02 -0.18320088254E+02 -0.21245508254E+02  0.31571968839E+02  0.51100000000E-03 0. -1.
        -11    1    3    3    0    0  0.66568012586E+01  0.28605497041E+01 -0.36250582746E+01  0.81016538658E+01  0.51100000000E-03 0.  1.
         12    1    3    3    0    0 -0.17863309313E+02  0.60634617005E+01 -0.54228560970E+01  0.19628315150E+02  0.00000000000E+00 0. -1.
</event>
<event>
 7    1  0.6830263E-012  0.5930192E+02  0.7816164E-02  0.1266605E+00
        -11   -1    0    0    0    0  0.00000000000E+00  0.00000000000E+00  0.45593999997E+02  0.45594000000E+02  0.51100000000E-03 0. -1.
         11   -1    0    0    0    0 -0.00000000000E+00 -0.00000000000E+00 -0.45593999997E+02  0.45594000000E+02  0.51100000000E-03 0.  1.
    9900012    2    1    2    0    0  0.11969115325E+02 -0.29397925573E+02  0.30371115773E+01  0.59301924726E+02  0.49999964798E+02 0.  0.
        -12    1    1    2    0    0 -0.11969115325E+02  0.29397925573E+02 -0.30371115773E+01  0.31886075274E+02  0.00000000000E+00 0.  1.
         11    1    3    3    0    0  0.93846074915E+01  0.12308389545E+00  0.79915093562E+01  0.12326809379E+02  0.51100000000E-03 0. -1.
        -11    1    3    3    0    0  0.44516331299E+01  0.58021520966E+01  0.65102776657E+01  0.97911042289E+01  0.51100000000E-03 0.  1.
         12    1    3    3    0    0 -0.18671252961E+01 -0.35323161565E+02 -0.11464675445E+02  0.37184011118E+02  0.00000000000E+00 0. -1.
</event>
<event>
 7    1  0.6830263E-012  0.5930193E+02  0.7816164E-02  0.1266605E+00
        -11   -1    0    0    0    0  0.00000000000E+00  0.00000000000E+00  0.45593999997E+02  0.45594000000E+02  0.51100000000E-03 0.  1.
         11   -1    0    0    0    0 -0.00000000000E+00 -0.00000000000E+00 -0.45593999997E+02  0.45594000000E+02  0.51100000000E-03 0. -1.
    9900012    2    1    2    0    0 -0.14692807004E+02  0.43163567708E+01 -0.27968049183E+02  0.59301932689E+02  0.49999979321E+02 0.  0.
        -12    1    1    2    0    0  0.14692807004E+02 -0.43163567708E+01  0.27968049183E+02  0.31886067311E+02  0.00000000000E+00 0.  1.
         11    1    3    3    0    0 -0.95631044035E+01  0.81663814757E+01 -0.25328306663E+02  0.28278364007E+02  0.51100000000E-03 0. -1.
        -11    1    3    3    0    0 -0.35733942294E+01  0.87178391265E+01 -0.12013859698E+02  0.15267700890E+02  0.51100000000E-03 0.  1.
        -12    1    3    3    0    0 -0.15563083715E+01 -0.12567863831E+02  0.93741171776E+01  0.15755867792E+02  0.00000000000E+00 0.  1.
</event>
<event>
 7    1  0.6830263E-012  0.5930189E+02  0.7816164E-02  0.1266605E+00
        -11   -1    0    0    0    0  0.00000000000E+00  0.00000000000E+00  0.45593999997E+02  0.45594000000E+02  0.51100000000E-03 0.  1.
         11   -1    0    0    0    0 -0.00000000000E+00 -0.00000000000E+00 -0.45593999997E+02  0.45594000000E+02  0.51100000000E-03 0. -1.
    9900012    2    1    2    0    0  0.18978007569E+02  0.22277239880E+02 -0.12660334121E+02  0.59301886283E+02  0.49999894687E+02 0.  0.
        -12    1    1    2    0    0 -0.18978007569E+02 -0.22277239880E+02  0.12660334121E+02  0.31886113717E+02  0.00000000000E+00 0.  1.
         11    1    3    3    0    0  0.18538036853E+02  0.10954786116E+02  0.12930793616E+02  0.25117156945E+02  0.51100000000E-03 0. -1.
        -11    1    3    3    0    0 -0.66351121318E+00  0.69251804204E+01  0.11593181948E+01  0.70528285051E+01  0.51100000000E-03 0.  1.
        -12    1    3    3    0    0  0.11034819285E+01  0.43972733436E+01 -0.26750445932E+02  0.27131900832E+02  0.00000000000E+00 0.  1.
</event>
<event>
 7    1  0.6830263E-012  0.5930196E+02  0.7816164E-02  0.1266605E+00
        -11   -1    0    0    0    0  0.00000000000E+00  0.00000000000E+00  0.45593999997E+02  0.45594000000E+02  0.51100000000E-03 0. -1.
         11   -1    0    0    0    0 -0.00000000000E+00 -0.00000000000E+00 -0.45593999997E+02  0.45594000000E+02  0.51100000000E-03 0.  1.
    9900012    2    1    2    0    0  0.34505503535E+01 -0.18786736651E+02  0.25531775910E+02  0.59301963042E+02  0.50000034678E+02 0.  0.
        -12    1    1    2    0    0 -0.34505503535E+01  0.18786736651E+02 -0.25531775910E+02  0.31886036958E+02  0.00000000000E+00 0.  1.
         11    1    3    3    0    0 -0.17941316408E+02  0.56390055072E+00  0.15467266070E+02  0.23694833576E+02  0.51100000000E-03 0. -1.
        -11    1    3    3    0    0 -0.17624690831E+01  0.19862384991E+01  0.51870670189E+00  0.27056417996E+01  0.51100000000E-03 0.  1.
        -12    1    3    3    0    0  0.23154335845E+02 -0.21336875701E+02  0.95458031384E+01  0.32901487666E+02  0.00000000000E+00 0.  1.
</event>
<event>
 7    1  0.6830263E-012  0.5930195E+02  0.7816164E-02  0.1266605E+00
        -11   -1    0    0    0    0  0.00000000000E+00  0.00000000000E+00  0.45593999997E+02  0.45594000000E+02  0.51100000000E-03 0.  1.
         11   -1    0    0    0    0 -0.00000000000E+00 -0.00000000000E+00 -0.45593999997E+02  0.45594000000E+02  0.51100000000E-03 0. -1.
    9900012    2    1    2    0    0  0.27956943469E+02 -0.91607599789E+01  0.12296738813E+02  0.59301952943E+02  0.50000016259E+02 0.  0.
        -12    1    1    2    0    0 -0.27956943469E+02  0.91607599789E+01 -0.12296738813E+02  0.31886047057E+02  0.00000000000E+00 0.  1.
         11    1    3    3    0    0  0.18738528490E+02 -0.41833661872E+01  0.11449595393E+02  0.22354557423E+02  0.51100000000E-03 0. -1.
        -11    1    3    3    0    0  0.18849478175E+01 -0.72860951458E+01  0.17256496202E+02  0.18826228304E+02  0.51100000000E-03 0.  1.
         12    1    3    3    0    0  0.73334671608E+01  0.23087013542E+01 -0.16409352782E+02  0.18121167216E+02  0.00000000000E+00 0. -1.
</event>
<event>
 7    1  0.6830263E-012  0.5930193E+02  0.7816164E-02  0.1266605E+00
        -11   -1    0    0    0    0  0.00000000000E+00  0.00000000000E+00  0.45593999997E+02  0.45594000000E+02  0.51100000000E-03 0.  1.
         11   -1    0    0    0    0 -0.00000000000E+00 -0.00000000000E+00 -0.45593999997E+02  0.45594000000E+02  0.51100000000E-03 0. -1.
    9900012    2    1    2    0    0  0.14105052346E+02  0.27638995167E+02 -0.73385937190E+01  0.59301929165E+02  0.49999972893E+02 0.  0.
        -12    1    1    2    0    0 -0.14105052346E+02 -0.27638995167E+02  0.73385937190E+01  0.31886070835E+02  0.00000000000E+00 0.  1.
         11    1    3    3    0    0  0.75038147918E+01 -0.21091557125E+01  0.17625017802E+01  0.79913820479E+01  0.51100000000E-03 0. -1.
        -11    1    3    3    0    0  0.18114069689E+02  0.62623704890E+00 -0.84272861445E+01  0.19988267698E+02  0.51100000000E-03 0.  1.
         12    1    3    3    0    0 -0.11512832135E+02  0.29121913831E+02 -0.67380935468E+00  0.31322279419E+02  0.00000000000E+00 0. -1.
</event>
<event>
 7    1  0.6830263E-012  0.5930193E+02  0.7816164E-02  0.1266605E+00
        -11   -1    0    0    0    0  0.00000000000E+00  0.00000000000E+00  0.45593999997E+02  0.45594000000E+02  0.51100000000E-03 0. -1.
         11   -1    0    0    0    0 -0.00000000000E+00 -0.00000000000E+00 -0.45593999997E+02  0.45594000000E+02  0.51100000000E-03 0.  1.
    9900012    2    1    2    0    0  0.99954910316E+01  0.43054925758E+01  0.29971229895E+02  0.59301925787E+02  0.49999966734E+02 0.  0.
        -12    1    1    2    0    0 -0.99954910316E+01 -0.43054925758E+01 -0.29971229895E+02  0.31886074213E+02  0.00000000000E+00 0.  1.
         11    1    3    3    0    0 -0.11147368210E+01 -0.65177496278E+01 -0.35889563611E+01  0.75235833493E+01  0.51100000000E-03 0. -1.
        -11    1    3    3    0    0 -0.70180376704E+01 -0.60394715166E+01 -0.94780832576E+00  0.93073309722E+01  0.51100000000E-03 0.  1.
         12    1    3    3    0    0  0.18128265523E+02  0.16862713720E+02  0.34507994582E+02  0.42471011466E+02  0.00000000000E+00 0. -1.
</event>
<event>
 7    1  0.6830263E-012  0.5930192E+02  0.7816164E-02  0.1266605E+00
        -11   -1    0    0    0    0  0.00000000000E+00  0.00000000000E+00  0.45593999997E+02  0.45594000000E+02  0.51100000000E-03 0.  1.
         11   -1    0    0    0    0 -0.00000000000E+00 -0.00000000000E+00 -0.45593999997E+02  0.45594000000E+02  0.51100000000E-03 0. -1.
    9900012    2    1    2    0    0 -0.17129858962E+02 -0.22867298872E+01 -0.26796655179E+02  0.59301922624E+02  0.49999960965E+02 0.  0.
        -12    1    1    2    0    0  0.17129858962E+02  0.22867298872E+01  0.26796655179E+02  0.31886077376E+02  0.00000000000E+00 0.  1.
         11    1    3    3    0    0 -0.63274441667E+01 -0.91102252872E+01  0.48404562386E+01  0.12102180437E+02  0.51100000000E-03 0. -1.
        -11    1    3    3    0    0 -0.75790499719E+01  0.13529874625E+01  0.55395929981E+01  0.94847068692E+01  0.51100000000E-03 0.  1.
         12    1    3    3    0    0 -0.32233648238E+01  0.54705079375E+01 -0.37176704415E+02  0.37715035318E+02  0.00000000000E+00 0. -1.
</event>
<event>
 7    1  0.6830263E-012  0.5930194E+02  0.7816164E-02  0.1266605E+00
        -11   -1    0    0    0    0  0.00000000000E+00  0.00000000000E+00  0.45593999997E+02  0.45594000000E+02  0.51100000000E-03 0. -1.
         11   -1    0    0    0    0 -0.00000000000E+00 -0.00000000000E+00 -0.45593999997E+02  0.45594000000E+02  0.51100000000E-03 0.  1.
    9900012    2    1    2    0    0  0.76917356647E+01 -0.19614697330E+02  0.23933694179E+02  0.59301939316E+02  0.49999991407E+02 0.  0.
        -12    1    1    2    0    0 -0.76917356647E+01  0.19614697330E+02 -0.23933694179E+02  0.31886060684E+02  0.00000000000E+00 0.  1.
         11    1    3    3    0    0  0.21804218073E+01 -0.27184031129E+02  0.20520942946E+02  0.34129677516E+02  0.51100000000E-03 0. -1.
        -11    1    3    3    0    0 -0.44129476497E+01 -0.29086535366E+01  0.83816744125E+01  0.99089272160E+01  0.51100000000E-03 0.  1.
        -12    1    3    3    0    0  0.99242615070E+01  0.10477987336E+02 -0.49689231795E+01  0.15263334584E+02  0.00000000000E+00 0.  1.
</event>
<event>
 7    1  0.6830263E-012  0.5930196E+02  0.7816164E-02  0.1266605E+00
        -11   -1    0    0    0    0  0.00000000000E+00  0.00000000000E+00  0.45593999997E+02  0.45594000000E+02  0.51100000000E-03 0.  1.
         11   -1    0    0    0    0 -0.00000000000E+00 -0.00000000000E+00 -0.45593999997E+02  0.45594000000E+02  0.51100000000E-03 0. -1.
    9900012    2    1    2    0    0  0.23709133288E+02 -0.51154523815E+01 -0.20698513502E+02  0.59301963628E+02  0.50000035746E+02 0.  0.
        -12    1    1    2    0    0 -0.23709133288E+02  0.51154523815E+01  0.20698513502E+02  0.31886036372E+02  0.00000000000E+00 0.  1.
         11    1    3    3    0    0  0.96228269105E+01  0.53543398516E+01 -0.13310412334E+02  0.17275266417E+02  0.51100000000E-03 0. -1.
        -11    1    3    3    0    0  0.21013747639E+02  0.48096341225E+01 -0.11940979878E+02  0.24643400150E+02  0.51100000000E-03 0.  1.
         12    1    3    3    0    0 -0.69274412616E+01 -0.15279426356E+02  0.45528787099E+01  0.17383297062E+02  0.00000000000E+00 0. -1.
</event>
<event>
 7    1  0.6830263E-012  0.5930193E+02  0.7816164E-02  0.1266605E+00
        -11   -1    0    0    0    0  0.00000000000E+00  0.00000000000E+00  0.45593999997E+02  0.45594000000E+02  0.51100000000E-03 0. -1.
         11   -1    0    0    0    0 -0.00000000000E+00 -0.00000000000E+00 -0.45593999997E+02  0.45594000000E+02  0.51100000000E-03 0.  1.
    9900012    2    1    2    0    0  0.37442016047E+01  0.19042458299E+02  0.25299948611E+02  0.59301926811E+02  0.49999968600E+02 0.  0.
        -12    1    1    2    0    0 -0.37442016047E+01 -0.19042458299E+02 -0.25299948611E+02  0.31886073189E+02  0.00000000000E+00 0.  1.
         11    1    3    3    0    0 -0.17996270141E+01 -0.13678795168E+00  0.16221822305E+02  0.16321914333E+02  0.51100000000E-03 0. -1.
        -11    1    3    3    0    0  0.83542146073E+01 -0.25677946856E+01  0.17443558067E+02  0.19510617355E+02  0.51100000000E-03 0.  1.
        -12    1    3    3    0    0 -0.28103859885E+01  0.21747040936E+02 -0.83654317613E+01  0.23469395123E+02  0.00000000000E+00 0.  1.
</event>
<event>
 7    1  0.6830263E-012  0.5930194E+02  0.7816164E-02  0.1266605E+00
        -11   -1    0    0    0    0  0.00000000000E+00  0.00000000000E+00  0.45593999997E+02  0.45594000000E+02  0.51100000000E-03 0.  1.
         11   -1    0    0    0    0 -0.00000000000E+00 -0.00000000000E+00 -0.45593999997E+02  0.45594000000E+02  0.51100000000E-03 0. -1.
    9900012    2    1    2    0    0  0.22590029047E+02 -0.11242806676E+02 -0.19493867848E+02  0.59301937246E+02  0.49999987632E+02 0.  0.
        -12    1    1    2    0    0 -0.22590029047E+02  0.11242806676E+02  0.19493867848E+02  0.31886062754E+02  0.00000000000E+00 0.  1.
         11    1    3    3    0    0  0.96746372988E+01 -0.38021589333E+01 -0.26524390121E+02  0.28488564214E+02  0.51100000000E-03 0. -1.
        -11    1    3    3    0    0  0.17462865600E+02 -0.11822609303E+01 -0.33970892753E+01  0.17829459657E+02  0.51100000000E-03 0.  1.
        -12    1    3    3    0    0 -0.45474738518E+01 -0.62583868122E+01  0.10427611548E+02  0.12983913375E+02  0.00000000000E+00 0.  1.
</event>
<event>
 7    1  0.6830263E-012  0.5930191E+02  0.7816164E-02  0.1266605E+00
        -11   -1    0    0    0    0  0.00000000000E+00  0.00000000000E+00  0.45593999997E+02  0.45594000000E+02  0.51100000000E-03 0.  1.
         11   -1    0    0    0    0 -0.00000000000E+00 -0.00000000000E+00 -0.45593999997E+02  0.45594000000E+02  0.51100000000E-03 0. -1.
    9900012    2    1    2    0    0 -0.14562854843E+02 -0.78574425127E+01 -0.27256312503E+02  0.59301910317E+02  0.49999938520E+02 0.  0.
        -12    1    1    2    0    0  0.14562854843E+02  0.78574425127E+01  0.27256312503E+02  0.31886089683E+02  0.00000000000E+00 0.  1.
         11    1    3    3    0    0 -0.80268904999E+01 -0.38777936824E+01 -0.20420389960E+02  0.22281395408E+02  0.51100000000E-03 0. -1.
        -11    1    3    3    0    0  0.13986675003E+02  0.37059514601E+01 -0.26895176912E+01  0.14717155280E+02  0.51100000000E-03 0.  1.
         12    1    3    3    0    0 -0.20522639346E+02 -0.76856002905E+01 -0.41464048514E+01  0.22303359629E+02  0.00000000000E+00 0. -1.
</event>
<event>
 7    1  0.6830263E-012  0.5930196E+02  0.7816164E-02  0.1266605E+00
        -11   -1    0    0    0    0  0.00000000000E+00  0.00000000000E+00  0.45593999997E+02  0.45594000000E+02  0.51100000000E-03 0. -1.
         11   -1    0    0    0    0 -0.00000000000E+00 -0.00000000000E+00 -0.45593999997E+02  0.45594000000E+02  0.51100000000E-03 0.  1.
    9900012    2    1    2    0    0 -0.38499723328E+01 -0.24663291826E+01  0.31556525674E+02  0.59301962629E+02  0.50000033925E+02 0.  0.
        -12    1    1    2    0    0  0.38499723328E+01  0.24663291826E+01 -0.31556525674E+02  0.31886037371E+02  0.00000000000E+00 0.  1.
         11    1    3    3    0    0 -0.17658102739E+00  0.39109056411E+01  0.11389690956E+02  0.12043729660E+02  0.51100000000E-03 0. -1.
        -11    1    3    3    0    0 -0.19585541737E+02  0.75024344694E+01  0.59423115424E+01  0.21798876917E+02  0.51100000000E-03 0.  1.
        -12    1    3    3    0    0  0.15912150432E+02 -0.13879669293E+02  0.14224523176E+02  0.25459356053E+02  0.00000000000E+00 0.  1.
</event>
<event>
 7    1  0.6830263E-012  0.5930204E+02  0.7816164E-02  0.1266604E+00
        -11   -1    0    0    0    0  0.00000000000E+00  0.00000000000E+00  0.45593999997E+02  0.45594000000E+02  0.51100000000E-03 0.  1.
         11   -1    0    0    0    0 -0.00000000000E+00 -0.00000000000E+00 -0.45593999997E+02  0.45594000000E+02  0.51100000000E-03 0. -1.
    9900012    2    1    2    0    0 -0.23822400085E+02 -0.19043429503E+02 -0.93035302880E+01  0.59302037119E+02  0.50000169775E+02 0.  0.
        -12    1    1    2    0    0  0.23822400085E+02  0.19043429503E+02  0.93035302880E+01  0.31885962881E+02  0.00000000000E+00 0.  1.
         11    1    3    3    0    0 -0.10543641429E+02  0.63865664205E+00 -0.67944681167E+01  0.12559500553E+02  0.51100000000E-03 0. -1.
        -11    1    3    3    0    0 -0.23448853936E+02  0.80453013158E+00  0.15469752300E+01  0.23513595052E+02  0.51100000000E-03 0.  1.
         12    1    3    3    0    0  0.10170095280E+02 -0.20486616276E+02 -0.40560374013E+01  0.23228941514E+02  0.00000000000E+00 0. -1.
</event>
<event>
 7    1  0.6830263E-012  0.5930191E+02  0.7816164E-02  0.1266605E+00
        -11   -1    0    0    0    0  0.00000000000E+00  0.00000000000E+00  0.45593999997E+02  0.45594000000E+02  0.51100000000E-03 0.  1.
         11   -1    0    0    0    0 -0.00000000000E+00 -0.00000000000E+00 -0.45593999997E+02  0.45594000000E+02  0.51100000000E-03 0. -1.
    9900012    2    1    2    0    0 -0.17465346746E+02 -0.15994161593E+02 -0.21351141973E+02  0.59301908901E+02  0.49999935938E+02 0.  0.
        -12    1    1    2    0    0  0.17465346746E+02  0.15994161593E+02  0.21351141973E+02  0.31886091099E+02  0.00000000000E+00 0.  1.
         11    1    3    3    0    0 -0.15124430265E+01 -0.12307116733E+02 -0.28139587327E+02  0.30750430589E+02  0.51100000000E-03 0. -1.
        -11    1    3    3    0    0  0.20888777028E+01 -0.43968712578E+01  0.91279307988E+01  0.10344805839E+02  0.51100000000E-03 0.  1.
         12    1    3    3    0    0 -0.18041781423E+02  0.70982639809E+00 -0.23394854439E+01  0.18206672474E+02  0.00000000000E+00 0. -1.
</event>
<event>
 7    1  0.6830263E-012  0.5930194E+02  0.7816164E-02  0.1266605E+00
        -11   -1    0    0    0    0  0.00000000000E+00  0.00000000000E+00  0.45593999997E+02  0.45594000000E+02  0.51100000000E-03 0. -1.
         11   -1    0    0    0    0 -0.00000000000E+00 -0.00000000000E+00 -0.45593999997E+02  0.45594000000E+02  0.51100000000E-03 0.  1.
    9900012    2    1    2    0    0  0.27761089228E+02  0.82466680520E+01  0.13342993798E+02  0.59301935763E+02  0.49999984926E+02 0.  0.
        -12    1    1    2    0    0 -0.27761089228E+02 -0.82466680520E+01 -0.13342993798E+02  0.31886064237E+02  0.00000000000E+00 0.  1.
         11    1    3    3    0    0 -0.41348166704E+01  0.13155733827E+02 -0.24692312848E+01  0.14009537637E+02  0.51100000000E-03 0. -1.
        -11    1    3    3    0    0  0.47308109211E+01 -0.13110509171E+02  0.68807290598E+01  0.15543823704E+02  0.51100000000E-03 0.  1.
         12    1    3    3    0    0  0.27165094977E+02  0.82014433961E+01  0.89314960229E+01  0.29748574421E+02  0.00000000000E+00 0. -1.
</event>
<event>
 7    1  0.6830263E-012  0.5930195E+02  0.7816164E-02  0.1266605E+00
        -11   -1    0    0    0    0  0.00000000000E+00  0.00000000000E+00  0.45593999997E+02  0.45594000000E+02  0.51100000000E-03 0.  1.
         11   -1    0    0    0    0 -0.00000000000E+00 -0.00000000000E+00 -0.45593999997E+02  0.45594000000E+02  0.51100000000E-03 0. -1.
    9900012    2    1    2    0    0  0.54786201722E+01 -0.27964742236E+02 -0.14306575007E+02  0.59301950138E+02  0.50000011144E+02 0.  0.
        -12    1    1    2    0    0 -0.54786201722E+01  0.27964742236E+02  0.14306575007E+02  0.31886049862E+02  0.00000000000E+00 0.  1.
         11    1    3    3    0    0  0.11511421793E+02 -0.20815356935E+02 -0.54019784095E+01  0.24392074267E+02  0.51100000000E-03 0. -1.
        -11    1    3    3    0    0  0.99138741371E+01 -0.29185751582E+01 -0.14217911582E+02  0.17577030221E+02  0.51100000000E-03 0.  1.
        -12    1    3    3    0    0 -0.15946675758E+02 -0.42308101428E+01  0.53133149846E+01  0.17332845650E+02  0.00000000000E+00 0.  1.
</event>
<event>
 7    1  0.6830263E-012  0.5930191E+02  0.7816164E-02  0.1266605E+00
        -11   -1    0    0    0    0  0.00000000000E+00  0.00000000000E+00  0.45593999997E+02  0.45594000000E+02  0.51100000000E-03 0.  1.
         11   -1    0    0    0    0 -0.00000000000E+00 -0.00000000000E+00 -0.45593999997E+02  0.45594000000E+02  0.51100000000E-03 0. -1.
    9900012    2    1    2    0    0 -0.28332082200E+02 -0.14346706478E+02  0.28615004002E+01  0.59301905020E+02  0.49999928859E+02 0.  0.
        -12    1    1    2    0    0  0.28332082200E+02  0.14346706478E+02 -0.28615004002E+01  0.31886094980E+02  0.00000000000E+00 0.  1.
         11    1    3    3    0    0  0.51281319812E+01 -0.45911245406E+01 -0.52251316642E+01  0.86416528126E+01  0.51100000000E-03 0. -1.
        -11    1    3    3    0    0  0.52557101956E+01  0.14338453249E+01  0.88042499482E+01  0.10353415837E+02  0.51100000000E-03 0.  1.
         12    1    3    3    0    0 -0.38715924376E+02 -0.11189427262E+02 -0.71761788383E+00  0.40306836371E+02  0.00000000000E+00 0. -1.
</event>
<event>
 7    1  0.6830263E-012  0.5930193E+02  0.7816164E-02  0.1266605E+00
        -11   -1    0    0    0    0  0.00000000000E+00  0.00000000000E+00  0.45593999997E+02  0.45594000000E+02  0.51100000000E-03 0. -1.
         11   -1    0    0    0    0 -0.00000000000E+00 -0.00000000000E+00 -0.45593999997E+02  0.45594000000E+02  0.51100000000E-03 0.  1.
    9900012    2    1    2    0    0 -0.19507276625E+02 -0.15142714830E+02  0.20171410281E+02  0.59301930213E+02  0.49999974805E+02 0.  0.
        -12    1    1    2    0    0  0.19507276625E+02  0.15142714830E+02 -0.20171410281E+02  0.31886069787E+02  0.00000000000E+00 0.  1.
         11    1    3    3    0    0 -0.12308916286E+02  0.69502912204E+01  0.44547814754E+01  0.14820966447E+02  0.51100000000E-03 0. -1.
        -11    1    3    3    0    0 -0.17348792158E-01 -0.20253878439E+01 -0.10499999508E+02  0.10693572220E+02  0.51100000000E-03 0.  1.
         12    1    3    3    0    0 -0.71810115470E+01 -0.20067618206E+02  0.26216628314E+02  0.33787391545E+02  0.00000000000E+00 0. -1.
</event>
<event>
 7    1  0.6830263E-012  0.5930182E+02  0.7816164E-02  0.1266605E+00
        -11   -1    0    0    0    0  0.00000000000E+00  0.00000000000E+00  0.45593999997E+02  0.45594000000E+02  0.51100000000E-03 0. -1.
         11   -1    0    0    0    0 -0.00000000000E+00 -0.00000000000E+00 -0.45593999997E+02  0.45594000000E+02  0.51100000000E-03 0.  1.
    9900012    2    1    2    0    0 -0.13091224404E+02  0.94695343623E+00  0.29059454019E+02  0.59301815765E+02  0.49999766079E+02 0.  0.
        -12    1    1    2    0    0  0.13091224404E+02 -0.94695343623E+00 -0.29059454019E+02  0.31886184235E+02  0.00000000000E+00 0.  1.
         11    1    3    3    0    0 -0.15994925566E+02 -0.35595339136E+01 -0.35123966731E+00  0.16389975446E+02  0.51100000000E-03 0. -1.
        -11    1    3    3    0    0  0.11264408546E+01  0.96534652068E+01 -0.29024626877E+01  0.10143103539E+02  0.51100000000E-03 0.  1.
         12    1    3    3    0    0  0.17772603079E+01 -0.51469778570E+01  0.32313156374E+02  0.32768736779E+02  0.00000000000E+00 0. -1.
</event>
<event>
 7    1  0.6830263E-012  0.5930195E+02  0.7816164E-02  0.1266605E+00
        -11   -1    0    0    0    0  0.00000000000E+00  0.00000000000E+00  0.45593999997E+02  0.45594000000E+02  0.51100000000E-03 0. -1.
         11   -1    0    0    0    0 -0.00000000000E+00 -0.00000000000E+00 -0.45593999997E+02  0.45594000000E+02  0.51100000000E-03 0.  1.
    9900012    2    1    2    0    0 -0.10941851240E+02  0.20219210196E+02  0.22094783195E+02  0.59301952676E+02  0.50000015772E+02 0.  0.
        -12    1    1    2    0    0  0.10941851240E+02 -0.20219210196E+02 -0.22094783195E+02  0.31886047324E+02  0.00000000000E+00 0.  1.
         11    1    3    3    0    0 -0.51802512671E+01  0.35114424336E+01  0.19001590552E+02  0.20005641077E+02  0.51100000000E-03 0. -1.
        -11    1    3    3    0    0 -0.10969771529E+02  0.11277281962E+02  0.17198978094E+02  0.23309178955E+02  0.51100000000E-03 0.  1.
        -12    1    3    3    0    0  0.52081715562E+01  0.54304858009E+01 -0.14105785450E+02  0.15987132644E+02  0.00000000000E+00 0.  1.
</event>
<event>
 7    1  0.6830263E-012  0.5930195E+02  0.7816164E-02  0.1266605E+00
        -11   -1    0    0    0    0  0.00000000000E+00  0.00000000000E+00  0.45593999997E+02  0.45594000000E+02  0.51100000000E-03 0.  1.
         11   -1    0    0    0    0 -0.00000000000E+00 -0.00000000000E+00 -0.45593999997E+02  0.45594000000E+02  0.51100000000E-03 0. -1.
    9900012    2    1    2    0    0 -0.43732236837E+01  0.70947125279E+01 -0.30777594125E+02  0.59301947699E+02  0.50000006695E+02 0.  0.
        -12    1    1    2    0    0  0.43732236837E+01 -0.70947125279E+01  0.30777594125E+02  0.31886052301E+02  0.00000000000E+00 0.  1.
         11    1    3    3    0    0 -0.82144920560E+01 -0.14105949849E+02 -0.17127398253E+02  0.23660166357E+02  0.51100000000E-03 0.  1.
        -11    1    3    3    0    0  0.24334588913E+01  0.90667565559E+01 -0.19839144563E+02  0.21948108207E+02  0.51100000000E-03 0. -1.
        -12    1    3    3    0    0  0.14078094811E+01  0.12133905820E+02  0.61889486918E+01  0.13693673134E+02  0.00000000000E+00 0.  1.
</event>
<event>
 7    1  0.6830263E-012  0.5930194E+02  0.7816164E-02  0.1266605E+00
        -11   -1    0    0    0    0  0.00000000000E+00  0.00000000000E+00  0.45593999997E+02  0.45594000000E+02  0.51100000000E-03 0.  1.
         11   -1    0    0    0    0 -0.00000000000E+00 -0.00000000000E+00 -0.45593999997E+02  0.45594000000E+02  0.51100000000E-03 0. -1.
    9900012    2    1    2    0    0 -0.21961404379E+02  0.74436064619E+01 -0.21886302892E+02  0.59301940135E+02  0.49999992900E+02 0.  0.
        -12    1    1    2    0    0  0.21961404379E+02 -0.74436064619E+01  0.21886302892E+02  0.31886059865E+02  0.00000000000E+00 0.  1.
         11    1    3    3    0    0 -0.61948901407E+01 -0.47795777896E+01 -0.25710985601E+02  0.26875189460E+02  0.51100000000E-03 0. -1.
        -11    1    3    3    0    0  0.87449090287E+00 -0.32712928670E+01 -0.65963864341E+01  0.74147424507E+01  0.51100000000E-03 0.  1.
        -12    1    3    3    0    0 -0.16641005141E+02  0.15494477119E+02  0.10421069143E+02  0.25012008223E+02  0.00000000000E+00 0.  1.
</event>
<event>
 7    1  0.6830263E-012  0.5930197E+02  0.7816164E-02  0.1266605E+00
        -11   -1    0    0    0    0  0.00000000000E+00  0.00000000000E+00  0.45593999997E+02  0.45594000000E+02  0.51100000000E-03 0.  1.
         11   -1    0    0    0    0 -0.00000000000E+00 -0.00000000000E+00 -0.45593999997E+02  0.45594000000E+02  0.51100000000E-03 0. -1.
    9900012    2    1    2    0    0  0.28530410176E+01 -0.27516917369E+02 -0.15855545148E+02  0.59301970199E+02  0.50000047730E+02 0.  0.
        -12    1    1    2    0    0 -0.28530410176E+01  0.27516917369E+02  0.15855545148E+02  0.31886029801E+02  0.00000000000E+00 0.  1.
         11    1    3    3    0    0  0.67091549501E+01 -0.17470477756E+02 -0.23531985463E+02  0.30066338208E+02  0.51100000000E-03 0. -1.
        -11    1    3    3    0    0  0.66792798935E+01 -0.14024253647E+02 -0.12829306865E+00  0.15534121463E+02  0.51100000000E-03 0.  1.
        -12    1    3    3    0    0 -0.10535393826E+02  0.39778140338E+01  0.78047333834E+01  0.13701510528E+02  0.00000000000E+00 0.  1.
</event>
<event>
 7    1  0.6830263E-012  0.5930193E+02  0.7816164E-02  0.1266605E+00
        -11   -1    0    0    0    0  0.00000000000E+00  0.00000000000E+00  0.45593999997E+02  0.45594000000E+02  0.51100000000E-03 0.  1.
         11   -1    0    0    0    0 -0.00000000000E+00 -0.00000000000E+00 -0.45593999997E+02  0.45594000000E+02  0.51100000000E-03 0. -1.
    9900012    2    1    2    0    0  0.17201662867E+02 -0.94496772091E+01 -0.25130213120E+02  0.59301933823E+02  0.49999981390E+02 0.  0.
        -12    1    1    2    0    0 -0.17201662867E+02  0.94496772091E+01  0.25130213120E+02  0.31886066177E+02  0.00000000000E+00 0.  1.
         11    1    3    3    0    0 -0.98363169065E+01 -0.82055708488E+01  0.21742232648E+01  0.12992758379E+02  0.51100000000E-03 0. -1.
        -11    1    3    3    0    0  0.16196742289E+02  0.51312387662E+01 -0.84306039361E+00  0.17011020638E+02  0.51100000000E-03 0.  1.
         12    1    3    3    0    0  0.10841237485E+02 -0.63753451265E+01 -0.26461375992E+02  0.29298154806E+02  0.00000000000E+00 0. -1.
</event>
<event>
 7    1  0.6830263E-012  0.5930193E+02  0.7816164E-02  0.1266605E+00
        -11   -1    0    0    0    0  0.00000000000E+00  0.00000000000E+00  0.45593999997E+02  0.45594000000E+02  0.51100000000E-03 0.  1.
         11   -1    0    0    0    0 -0.00000000000E+00 -0.00000000000E+00 -0.45593999997E+02  0.45594000000E+02  0.51100000000E-03 0. -1.
    9900012    2    1    2    0    0  0.42487808019E+01 -0.17705214903E+02 -0.26176221274E+02  0.59301931988E+02  0.49999978043E+02 0.  0.
        -12    1    1    2    0    0 -0.42487808019E+01  0.17705214903E+02  0.26176221274E+02  0.31886068012E+02  0.00000000000E+00 0.  1.
         11    1    3    3    0    0  0.68640939422E-01  0.78927704915E+01 -0.12092606058E+01  0.79851643116E+01  0.51100000000E-03 0. -1.
        -11    1    3    3    0    0 -0.12449007682E+02 -0.13710271143E+02  0.66638369158E+00  0.18530876789E+02  0.51100000000E-03 0.  1.
         12    1    3    3    0    0  0.16629147545E+02 -0.11887714251E+02 -0.25633344360E+02  0.32785890887E+02  0.00000000000E+00 0. -1.
</event>
<event>
 7    1  0.6830263E-012  0.5930194E+02  0.7816164E-02  0.1266605E+00
        -11   -1    0    0    0    0  0.00000000000E+00  0.00000000000E+00  0.45593999997E+02  0.45594000000E+02  0.51100000000E-03 0.  1.
         11   -1    0    0    0    0 -0.00000000000E+00 -0.00000000000E+00 -0.45593999997E+02  0.45594000000E+02  0.51100000000E-03 0. -1.
    9900012    2    1    2    0    0 -0.30280114259E+02  0.83125821562E+01  0.55440445796E+01  0.59301940790E+02  0.49999994096E+02 0.  0.
        -12    1    1    2    0    0  0.30280114259E+02 -0.83125821562E+01 -0.55440445796E+01  0.31886059210E+02  0.00000000000E+00 0.  1.
         11    1    3    3    0    0 -0.83891550915E+01 -0.19985236145E+01 -0.14830136347E+02  0.17155318829E+02  0.51100000000E-03 0. -1.
        -11    1    3    3    0    0 -0.21924829959E+00 -0.53665075696E+01 -0.34029951802E+01  0.63582898462E+01  0.51100000000E-03 0.  1.
        -12    1    3    3    0    0 -0.21671710867E+02  0.15677613340E+02  0.23777176107E+02  0.35788332115E+02  0.00000000000E+00 0.  1.
</event>
<event>
 7    1  0.6830263E-012  0.5930196E+02  0.7816164E-02  0.1266605E+00
        -11   -1    0    0    0    0  0.00000000000E+00  0.00000000000E+00  0.45593999997E+02  0.45594000000E+02  0.51100000000E-03 0.  1.
         11   -1    0    0    0    0 -0.00000000000E+00 -0.00000000000E+00 -0.45593999997E+02  0.45594000000E+02  0.51100000000E-03 0. -1.
    9900012    2    1    2    0    0  0.18682771498E+02 -0.19043310896E+02 -0.17464997894E+02  0.59301956154E+02  0.50000022115E+02 0.  0.
        -12    1    1    2    0    0 -0.18682771498E+02  0.19043310896E+02  0.17464997894E+02  0.31886043846E+02  0.00000000000E+00 0.  1.
         11    1    3    3    0    0  0.14332939953E+02 -0.10747307029E+02  0.10593405475E+02  0.20812448580E+02  0.51100000000E-03 0. -1.
        -11    1    3    3    0    0  0.84690278655E+01 -0.16823596842E+01  0.73003648251E+00  0.86653171103E+01  0.51100000000E-03 0.  1.
         12    1    3    3    0    0 -0.41191963204E+01 -0.66136441833E+01 -0.28788439852E+02  0.29824190464E+02  0.00000000000E+00 0. -1.
</event>
<event>
 7    1  0.6830263E-012  0.5930194E+02  0.7816164E-02  0.1266605E+00
        -11   -1    0    0    0    0  0.00000000000E+00  0.00000000000E+00  0.45593999997E+02  0.45594000000E+02  0.51100000000E-03 0. -1.
         11   -1    0    0    0    0 -0.00000000000E+00 -0.00000000000E+00 -0.45593999997E+02  0.45594000000E+02  0.51100000000E-03 0.  1.
    9900012    2    1    2    0    0 -0.13800196285E+02 -0.23880417844E+02  0.16000024501E+02  0.59301944146E+02  0.50000000215E+02 0.  0.
        -12    1    1    2    0    0  0.13800196285E+02  0.23880417844E+02 -0.16000024501E+02  0.31886055854E+02  0.00000000000E+00 0.  1.
         11    1    3    3    0    0  0.51574326758E+01 -0.20287572903E+02 -0.10850633915E+00  0.20933143577E+02  0.51100000000E-03 0.  1.
        -11    1    3    3    0    0 -0.68491793509E+01 -0.15875577395E+02  0.10517296283E+02  0.20237557579E+02  0.51100000000E-03 0. -1.
        -12    1    3    3    0    0 -0.12108449609E+02  0.12282732454E+02  0.55912345577E+01  0.18131242990E+02  0.00000000000E+00 0.  1.
</event>
<event>
 7    1  0.6830263E-012  0.5930193E+02  0.7816164E-02  0.1266605E+00
        -11   -1    0    0    0    0  0.00000000000E+00  0.00000000000E+00  0.45593999997E+02  0.45594000000E+02  0.51100000000E-03 0.  1.
         11   -1    0    0    0    0 -0.00000000000E+00 -0.00000000000E+00 -0.45593999997E+02  0.45594000000E+02  0.51100000000E-03 0. -1.
    9900012    2    1    2    0    0 -0.85394849551E+01 -0.19833630019E+02  0.23461148747E+02  0.59301934335E+02  0.49999982323E+02 0.  0.
        -12    1    1    2    0    0  0.85394849551E+01  0.19833630019E+02 -0.23461148747E+02  0.31886065665E+02  0.00000000000E+00 0.  1.
         11    1    3    3    0    0  0.10357366598E+02 -0.80435483346E+01  0.36550288500E+01  0.13613704448E+02  0.51100000000E-03 0. -1.
        -11    1    3    3    0    0 -0.50571919369E+01  0.12183875643E+02  0.90125352031E+01  0.15976476677E+02  0.51100000000E-03 0.  1.
        -12    1    3    3    0    0 -0.13839659616E+02 -0.23973957327E+02  0.10793584694E+02  0.29711753210E+02  0.00000000000E+00 0.  1.
</event>
<event>
 7    1  0.6830263E-012  0.5930195E+02  0.7816164E-02  0.1266605E+00
        -11   -1    0    0    0    0  0.00000000000E+00  0.00000000000E+00  0.45593999997E+02  0.45594000000E+02  0.51100000000E-03 0.  1.
         11   -1    0    0    0    0 -0.00000000000E+00 -0.00000000000E+00 -0.45593999997E+02  0.45594000000E+02  0.51100000000E-03 0. -1.
    9900012    2    1    2    0    0 -0.26871603280E+01  0.16726020322E+02 -0.27013695326E+02  0.59301947852E+02  0.50000006974E+02 0.  0.
        -12    1    1    2    0    0  0.26871603280E+01 -0.16726020322E+02  0.27013695326E+02  0.31886052148E+02  0.00000000000E+00 0.  1.
         11    1    3    3    0    0 -0.35607666262E+01  0.93010479722E+01 -0.57225021345E+01  0.11486321573E+02  0.51100000000E-03 0. -1.
        -11    1    3    3    0    0 -0.81229586116E+01  0.17884852056E+02  0.30087936500E+01  0.19872172231E+02  0.51100000000E-03 0.  1.
        -12    1    3    3    0    0  0.89965649097E+01 -0.10459879706E+02 -0.24299986841E+02  0.27943454048E+02  0.00000000000E+00 0.  1.
</event>
<event>
 7    1  0.6830263E-012  0.5930193E+02  0.7816164E-02  0.1266605E+00
        -11   -1    0    0    0    0  0.00000000000E+00  0.00000000000E+00  0.45593999997E+02  0.45594000000E+02  0.51100000000E-03 0. -1.
         11   -1    0    0    0    0 -0.00000000000E+00 -0.00000000000E+00 -0.45593999997E+02  0.45594000000E+02  0.51100000000E-03 0.  1.
    9900012    2    1    2    0    0  0.11021086994E+02 -0.16951687343E+02  0.24655572757E+02  0.59301932034E+02  0.49999978126E+02 0.  0.
        -12    1    1    2    0    0 -0.11021086994E+02  0.16951687343E+02 -0.24655572757E+02  0.31886067966E+02  0.00000000000E+00 0.  1.
         11    1    3    3    0    0  0.15204178703E+02 -0.77691703919E+00  0.18324301846E+00  0.15225118337E+02  0.51100000000E-03 0.  1.
        -11    1    3    3    0    0  0.11812762626E+02 -0.16400402354E+02  0.17043950740E+02  0.26438812668E+02  0.51100000000E-03 0. -1.
        -12    1    3    3    0    0 -0.15995854335E+02  0.22563204940E+00  0.74283789992E+01  0.17638001028E+02  0.00000000000E+00 0.  1.
</event>
<event>
 7    1  0.6830263E-012  0.5930199E+02  0.7816164E-02  0.1266605E+00
        -11   -1    0    0    0    0  0.00000000000E+00  0.00000000000E+00  0.45593999997E+02  0.45594000000E+02  0.51100000000E-03 0. -1.
         11   -1    0    0    0    0 -0.00000000000E+00 -0.00000000000E+00 -0.45593999997E+02  0.45594000000E+02  0.51100000000E-03 0.  1.
    9900012    2    1    2    0    0 -0.19646985104E+02 -0.21770259276E+02  0.12520748446E+02  0.59301994382E+02  0.50000091834E+02 0.  0.
        -12    1    1    2    0    0  0.19646985104E+02  0.21770259276E+02 -0.12520748446E+02  0.31886005618E+02  0.00000000000E+00 0.  1.
         11    1    3    3    0    0 -0.23811154326E+02 -0.17551649648E+02  0.17546570396E+02  0.34393511141E+02  0.51100000000E-03 0. -1.
        -11    1    3    3    0    0 -0.51528854901E+01 -0.64407880124E+01  0.60767747409E+01  0.10245153518E+02  0.51100000000E-03 0.  1.
        -12    1    3    3    0    0  0.93170547119E+01  0.22221783846E+01 -0.11102596691E+02  0.14663329723E+02  0.00000000000E+00 0.  1.
</event>
<event>
 7    1  0.6830263E-012  0.5930193E+02  0.7816164E-02  0.1266605E+00
        -11   -1    0    0    0    0  0.00000000000E+00  0.00000000000E+00  0.45593999997E+02  0.45594000000E+02  0.51100000000E-03 0.  1.
         11   -1    0    0    0    0 -0.00000000000E+00 -0.00000000000E+00 -0.45593999997E+02  0.45594000000E+02  0.51100000000E-03 0. -1.
    9900012    2    1    2    0    0 -0.17021105066E+02  0.11937281806E+02 -0.24176529532E+02  0.59301932591E+02  0.49999979143E+02 0.  0.
        -12    1    1    2    0    0  0.17021105066E+02 -0.11937281806E+02  0.24176529532E+02  0.31886067409E+02  0.00000000000E+00 0.  1.
         11    1    3    3    0    0  0.78845179605E+01  0.91892571424E+01  0.49915389946E+01  0.13096699282E+02  0.51100000000E-03 0. -1.
        -11    1    3    3    0    0  0.32488668759E+01 -0.94250378875E+00 -0.13203036798E+02  0.13629513209E+02  0.51100000000E-03 0.  1.
         12    1    3    3    0    0 -0.28154489902E+02  0.36905284522E+01 -0.15965031729E+02  0.32575720100E+02  0.00000000000E+00 0. -1.
</event>
<event>
 7    1  0.6830263E-012  0.5930192E+02  0.7816164E-02  0.1266605E+00
        -11   -1    0    0    0    0  0.00000000000E+00  0.00000000000E+00  0.45593999997E+02  0.45594000000E+02  0.51100000000E-03 0.  1.
         11   -1    0    0    0    0 -0.00000000000E+00 -0.00000000000E+00 -0.45593999997E+02  0.45594000000E+02  0.51100000000E-03 0. -1.
    9900012    2    1    2    0    0  0.18405468023E+02 -0.23483360259E+02 -0.11246901644E+02  0.59301917475E+02  0.49999951574E+02 0.  0.
        -12    1    1    2    0    0 -0.18405468023E+02  0.23483360259E+02  0.11246901644E+02  0.31886082525E+02  0.00000000000E+00 0.  1.
         11    1    3    3    0    0  0.19514566970E+02 -0.23229244776E+02  0.72101221197E+01  0.31183360918E+02  0.51100000000E-03 0. -1.
        -11    1    3    3    0    0  0.81521631177E+01 -0.13867606524E+01 -0.10064858271E+01  0.83302990694E+01  0.51100000000E-03 0.  1.
        -12    1    3    3    0    0 -0.92612620647E+01  0.11326451691E+01 -0.17450537936E+02  0.19788257487E+02  0.00000000000E+00 0.  1.
</event>
<event>
 7    1  0.6830263E-012  0.5930191E+02  0.7816164E-02  0.1266605E+00
        -11   -1    0    0    0    0  0.00000000000E+00  0.00000000000E+00  0.45593999997E+02  0.45594000000E+02  0.51100000000E-03 0. -1.
         11   -1    0    0    0    0 -0.00000000000E+00 -0.00000000000E+00 -0.45593999997E+02  0.45594000000E+02  0.51100000000E-03 0.  1.
    9900012    2    1    2    0    0  0.31785009057E+01 -0.24833159472E+02  0.19746751380E+02  0.59301907931E+02  0.49999934168E+02 0.  0.
        -12    1    1    2    0    0 -0.31785009057E+01  0.24833159472E+02 -0.19746751380E+02  0.31886092069E+02  0.00000000000E+00 0.  1.
         11    1    3    3    0    0 -0.61325494293E+00 -0.64440665250E+01  0.26729653908E+02  0.27502299419E+02  0.51100000000E-03 0. -1.
        -11    1    3    3    0    0  0.69613160245E+01  0.19472043105E+00 -0.10522259535E+02  0.12618073657E+02  0.51100000000E-03 0.  1.
         12    1    3    3    0    0 -0.31695601759E+01 -0.18583813378E+02  0.35393570057E+01  0.19181534855E+02  0.00000000000E+00 0. -1.
</event>
<event>
 7    1  0.6830263E-012  0.5930192E+02  0.7816164E-02  0.1266605E+00
        -11   -1    0    0    0    0  0.00000000000E+00  0.00000000000E+00  0.45593999997E+02  0.45594000000E+02  0.51100000000E-03 0.  1.
         11   -1    0    0    0    0 -0.00000000000E+00 -0.00000000000E+00 -0.45593999997E+02  0.45594000000E+02  0.51100000000E-03 0. -1.
    9900012    2    1    2    0    0  0.12976971652E+02 -0.15024183401E+02 -0.24951843683E+02  0.59301915523E+02  0.49999948014E+02 0.  0.
        -12    1    1    2    0    0 -0.12976971652E+02  0.15024183401E+02  0.24951843683E+02  0.31886084477E+02  0.00000000000E+00 0.  1.
         11    1    3    3    0    0  0.34130087029E+00 -0.11755915805E+01 -0.13910299961E+02  0.13964059120E+02  0.51100000000E-03 0. -1.
        -11    1    3    3    0    0 -0.34635064284E+01  0.85771811696E+01 -0.14824544022E+02  0.17473723682E+02  0.51100000000E-03 0.  1.
        -12    1    3    3    0    0  0.16099177210E+02 -0.22425772990E+02  0.37830002999E+01  0.27864132721E+02  0.00000000000E+00 0.  1.
</event>
<event>
 7    1  0.6830263E-012  0.5930170E+02  0.7816164E-02  0.1266606E+00
        -11   -1    0    0    0    0  0.00000000000E+00  0.00000000000E+00  0.45593999997E+02  0.45594000000E+02  0.51100000000E-03 0. -1.
         11   -1    0    0    0    0 -0.00000000000E+00 -0.00000000000E+00 -0.45593999997E+02  0.45594000000E+02  0.51100000000E-03 0.  1.
    9900012    2    1    2    0    0 -0.15950769445E+02  0.27426334765E+01  0.27473386322E+02  0.59301701370E+02  0.49999557449E+02 0.  0.
        -12    1    1    2    0    0  0.15950769445E+02 -0.27426334765E+01 -0.27473386322E+02  0.31886298630E+02  0.00000000000E+00 0.  1.
         11    1    3    3    0    0 -0.24339523373E+01 -0.71524891996E+01  0.19941510152E+02  0.21324775571E+02  0.51100000000E-03 0. -1.
        -11    1    3    3    0    0  0.49684393986E+01 -0.25148000719E+01  0.13771335020E+02  0.14854604604E+02  0.51100000000E-03 0.  1.
        -12    1    3    3    0    0 -0.18485256506E+02  0.12409922748E+02 -0.62394588499E+01  0.23122321195E+02  0.00000000000E+00 0.  1.
</event>
<event>
 7    1  0.6830263E-012  0.5930193E+02  0.7816164E-02  0.1266605E+00
        -11   -1    0    0    0    0  0.00000000000E+00  0.00000000000E+00  0.45593999997E+02  0.45594000000E+02  0.51100000000E-03 0.  1.
         11   -1    0    0    0    0 -0.00000000000E+00 -0.00000000000E+00 -0.45593999997E+02  0.45594000000E+02  0.51100000000E-03 0. -1.
    9900012    2    1    2    0    0 -0.19477337481E+01  0.22333702817E+01 -0.31748072533E+02  0.59301925938E+02  0.49999967008E+02 0.  0.
        -12    1    1    2    0    0  0.19477337481E+01 -0.22333702817E+01  0.31748072533E+02  0.31886074062E+02  0.00000000000E+00 0.  1.
         11    1    3    3    0    0 -0.19797143869E+02  0.10277118851E+02 -0.81632884343E+01  0.23752586292E+02  0.51100000000E-03 0. -1.
        -11    1    3    3    0    0  0.44311799897E+01 -0.89867619949E+01 -0.21570127121E+01  0.10249387853E+02  0.51100000000E-03 0.  1.
        -12    1    3    3    0    0  0.13418230131E+02  0.94301342554E+00 -0.21427771386E+02  0.25299951793E+02  0.00000000000E+00 0.  1.
</event>
<event>
 7    1  0.6830263E-012  0.5930191E+02  0.7816164E-02  0.1266605E+00
        -11   -1    0    0    0    0  0.00000000000E+00  0.00000000000E+00  0.45593999997E+02  0.45594000000E+02  0.51100000000E-03 0.  1.
         11   -1    0    0    0    0 -0.00000000000E+00 -0.00000000000E+00 -0.45593999997E+02  0.45594000000E+02  0.51100000000E-03 0. -1.
    9900012    2    1    2    0    0 -0.26908242194E+02 -0.15844993922E+01 -0.17034049817E+02  0.59301906017E+02  0.49999930678E+02 0.  0.
        -12    1    1    2    0    0  0.26908242194E+02  0.15844993922E+01  0.17034049817E+02  0.31886093983E+02  0.00000000000E+00 0.  1.
         11    1    3    3    0    0 -0.93462555905E+00  0.53727072219E+01 -0.52176253112E+00  0.54782975666E+01  0.51100000000E-03 0. -1.
        -11    1    3    3    0    0  0.72374470376E+01  0.93998278687E+01  0.26233577943E+01  0.12149872837E+02  0.51100000000E-03 0.  1.
         12    1    3    3    0    0 -0.33211063673E+02 -0.16357034483E+02 -0.19135645080E+02  0.41673735613E+02  0.00000000000E+00 0. -1.
</event>
<event>
 7    1  0.6830263E-012  0.5930194E+02  0.7816164E-02  0.1266605E+00
        -11   -1    0    0    0    0  0.00000000000E+00  0.00000000000E+00  0.45593999997E+02  0.45594000000E+02  0.51100000000E-03 0. -1.
         11   -1    0    0    0    0 -0.00000000000E+00 -0.00000000000E+00 -0.45593999997E+02  0.45594000000E+02  0.51100000000E-03 0.  1.
    9900012    2    1    2    0    0 -0.22601513691E+02  0.14200313511E+02  0.17442582883E+02  0.59301936860E+02  0.49999986928E+02 0.  0.
        -12    1    1    2    0    0  0.22601513691E+02 -0.14200313511E+02 -0.17442582883E+02  0.31886063140E+02  0.00000000000E+00 0.  1.
         11    1    3    3    0    0 -0.39106116623E+01 -0.29488811679E+01  0.24536469341E+01  0.54780623631E+01  0.51100000000E-03 0. -1.
        -11    1    3    3    0    0 -0.28348142136E+02 -0.37328870957E+01  0.66832584310E+01  0.29363541206E+02  0.51100000000E-03 0.  1.
         12    1    3    3    0    0  0.96572401068E+01  0.20882081774E+02  0.83056775174E+01  0.24460333291E+02  0.00000000000E+00 0. -1.
</event>
<event>
 7    1  0.6830263E-012  0.5930196E+02  0.7816164E-02  0.1266605E+00
        -11   -1    0    0    0    0  0.00000000000E+00  0.00000000000E+00  0.45593999997E+02  0.45594000000E+02  0.51100000000E-03 0.  1.
         11   -1    0    0    0    0 -0.00000000000E+00 -0.00000000000E+00 -0.45593999997E+02  0.45594000000E+02  0.51100000000E-03 0. -1.
    9900012    2    1    2    0    0  0.27485142925E+02 -0.15756331602E+02  0.36089550964E+01  0.59301958790E+02  0.50000026923E+02 0.  0.
        -12    1    1    2    0    0 -0.27485142925E+02  0.15756331602E+02 -0.36089550964E+01  0.31886041210E+02  0.00000000000E+00 0.  1.
         11    1    3    3    0    0  0.17500856444E+02 -0.13896993263E+02  0.40357640602E+01  0.22708892307E+02  0.51100000000E-03 0. -1.
        -11    1    3    3    0    0  0.13965247689E+02  0.11541464669E+02  0.84940949739E+01  0.20009577692E+02  0.51100000000E-03 0.  1.
        -12    1    3    3    0    0 -0.39809612078E+01 -0.13400803009E+02 -0.89209039377E+01  0.16583488791E+02  0.00000000000E+00 0.  1.
</event>
<event>
 7    1  0.6830263E-012  0.5930189E+02  0.7816164E-02  0.1266605E+00
        -11   -1    0    0    0    0  0.00000000000E+00  0.00000000000E+00  0.45593999997E+02  0.45594000000E+02  0.51100000000E-03 0. -1.
         11   -1    0    0    0    0 -0.00000000000E+00 -0.00000000000E+00 -0.45593999997E+02  0.45594000000E+02  0.51100000000E-03 0.  1.
    9900012    2    1    2    0    0 -0.22284564723E+02  0.12884682499E+02  0.18817741129E+02  0.59301886264E+02  0.49999894652E+02 0.  0.
        -12    1    1    2    0    0  0.22284564723E+02 -0.12884682499E+02 -0.18817741129E+02  0.31886113736E+02  0.00000000000E+00 0.  1.
         11    1    3    3    0    0  0.68666237183E+00 -0.34869112043E+00 -0.58845738057E+01  0.59347535624E+01  0.51100000000E-03 0. -1.
        -11    1    3    3    0    0 -0.22727697285E-01  0.53411347173E+01 -0.98141516312E+01  0.11173442134E+02  0.51100000000E-03 0.  1.
         12    1    3    3    0    0 -0.22948499398E+02  0.78922389021E+01  0.34516466566E+02  0.42193690567E+02  0.00000000000E+00 0. -1.
</event>
<event>
 7    1  0.6830263E-012  0.5930195E+02  0.7816164E-02  0.1266605E+00
        -11   -1    0    0    0    0  0.00000000000E+00  0.00000000000E+00  0.45593999997E+02  0.45594000000E+02  0.51100000000E-03 0.  1.
         11   -1    0    0    0    0 -0.00000000000E+00 -0.00000000000E+00 -0.45593999997E+02  0.45594000000E+02  0.51100000000E-03 0. -1.
    9900012    2    1    2    0    0 -0.29922624289E+02  0.25022464220E+01 -0.10728250129E+02  0.59301952388E+02  0.50000015247E+02 0.  0.
        -12    1    1    2    0    0  0.29922624289E+02 -0.25022464220E+01  0.10728250129E+02  0.31886047612E+02  0.00000000000E+00 0.  1.
         11    1    3    3    0    0 -0.53974671864E+00  0.67277212544E+01 -0.31389792583E+01  0.74435711082E+01  0.51100000000E-03 0. -1.
        -11    1    3    3    0    0 -0.10782480487E+01  0.88909573133E+01 -0.17050165515E+02  0.19259280494E+02  0.51100000000E-03 0.  1.
        -12    1    3    3    0    0 -0.28304629522E+02 -0.13116432146E+02  0.94608946434E+01  0.32599100786E+02  0.00000000000E+00 0.  1.
</event>
<event>
 7    1  0.6830263E-012  0.5930196E+02  0.7816164E-02  0.1266605E+00
        -11   -1    0    0    0    0  0.00000000000E+00  0.00000000000E+00  0.45593999997E+02  0.45594000000E+02  0.51100000000E-03 0. -1.
         11   -1    0    0    0    0 -0.00000000000E+00 -0.00000000000E+00 -0.45593999997E+02  0.45594000000E+02  0.51100000000E-03 0.  1.
    9900012    2    1    2    0    0 -0.27769828387E+02 -0.44366874202E+01  0.15029048115E+02  0.59301955229E+02  0.50000020428E+02 0.  0.
        -12    1    1    2    0    0  0.27769828387E+02  0.44366874202E+01 -0.15029048115E+02  0.31886044771E+02  0.00000000000E+00 0.  1.
         11    1    3    3    0    0 -0.15147650728E+02 -0.10984243507E+02  0.24173853277E+02  0.30569267419E+02  0.51100000000E-03 0. -1.
        -11    1    3    3    0    0  0.11707951125E+01  0.28154248205E+01  0.67213491573E+01  0.73806444753E+01  0.51100000000E-03 0.  1.
        -12    1    3    3    0    0 -0.13792972771E+02  0.37321312663E+01 -0.15866154319E+02  0.21352043334E+02  0.00000000000E+00 0.  1.
</event>
<event>
 7    1  0.6830263E-012  0.5930194E+02  0.7816164E-02  0.1266605E+00
        -11   -1    0    0    0    0  0.00000000000E+00  0.00000000000E+00  0.45593999997E+02  0.45594000000E+02  0.51100000000E-03 0.  1.
         11   -1    0    0    0    0 -0.00000000000E+00 -0.00000000000E+00 -0.45593999997E+02  0.45594000000E+02  0.51100000000E-03 0. -1.
    9900012    2    1    2    0    0 -0.10912738585E+02  0.29005545055E+02 -0.75040898008E+01  0.59301939235E+02  0.49999991259E+02 0.  0.
        -12    1    1    2    0    0  0.10912738585E+02 -0.29005545055E+02  0.75040898008E+01  0.31886060765E+02  0.00000000000E+00 0.  1.
         11    1    3    3    0    0  0.11961844748E+02  0.67158894254E+01  0.92072573831E+01  0.16521576478E+02  0.51100000000E-03 0. -1.
        -11    1    3    3    0    0 -0.89114709807E+01  0.21942699814E+02 -0.42489435098E+01  0.24061378002E+02  0.51100000000E-03 0.  1.
        -12    1    3    3    0    0 -0.13963112352E+02  0.34695581633E+00 -0.12462403674E+02  0.18718984755E+02  0.00000000000E+00 0.  1.
</event>
<event>
 7    1  0.6830263E-012  0.5930193E+02  0.7816164E-02  0.1266605E+00
        -11   -1    0    0    0    0  0.00000000000E+00  0.00000000000E+00  0.45593999997E+02  0.45594000000E+02  0.51100000000E-03 0. -1.
         11   -1    0    0    0    0 -0.00000000000E+00 -0.00000000000E+00 -0.45593999997E+02  0.45594000000E+02  0.51100000000E-03 0.  1.
    9900012    2    1    2    0    0 -0.22913772466E+02  0.44982952988E+01 -0.21712796196E+02  0.59301934895E+02  0.49999983345E+02 0.  0.
        -12    1    1    2    0    0  0.22913772466E+02 -0.44982952988E+01  0.21712796196E+02  0.31886065105E+02  0.00000000000E+00 0.  1.
         11    1    3    3    0    0 -0.93878663567E+01 -0.91238037110E+01  0.71804579711E+01  0.14931001501E+02  0.51100000000E-03 0. -1.
        -11    1    3    3    0    0  0.83465560210E+00 -0.62444449126E+01 -0.14823642940E+02  0.16106834962E+02  0.51100000000E-03 0.  1.
        -12    1    3    3    0    0 -0.14360561711E+02  0.19866543922E+02 -0.14069611228E+02  0.28264098432E+02  0.00000000000E+00 0.  1.
</event>
<event>
 7    1  0.6830263E-012  0.5930201E+02  0.7816164E-02  0.1266605E+00
        -11   -1    0    0    0    0  0.00000000000E+00  0.00000000000E+00  0.45593999997E+02  0.45594000000E+02  0.51100000000E-03 0.  1.
         11   -1    0    0    0    0 -0.00000000000E+00 -0.00000000000E+00 -0.45593999997E+02  0.45594000000E+02  0.51100000000E-03 0. -1.
    9900012    2    1    2    0    0 -0.22783631663E+02 -0.92800614805E+01 -0.20285542277E+02  0.59302005609E+02  0.50000112310E+02 0.  0.
        -12    1    1    2    0    0  0.22783631663E+02  0.92800614805E+01  0.20285542277E+02  0.31885994391E+02  0.00000000000E+00 0.  1.
         11    1    3    3    0    0  0.82435712383E+01 -0.16609035122E+01 -0.85264796901E+01  0.11975638747E+02  0.51100000000E-03 0. -1.
        -11    1    3    3    0    0 -0.59923529607E+01 -0.11187827358E+02  0.82005764193E+01  0.15110434437E+02  0.51100000000E-03 0.  1.
        -12    1    3    3    0    0 -0.25034849941E+02  0.35686693901E+01 -0.19959639006E+02  0.32215932425E+02  0.00000000000E+00 0.  1.
</event>
<event>
 7    1  0.6830263E-012  0.5930195E+02  0.7816164E-02  0.1266605E+00
        -11   -1    0    0    0    0  0.00000000000E+00  0.00000000000E+00  0.45593999997E+02  0.45594000000E+02  0.51100000000E-03 0.  1.
         11   -1    0    0    0    0 -0.00000000000E+00 -0.00000000000E+00 -0.45593999997E+02  0.45594000000E+02  0.51100000000E-03 0. -1.
    9900012    2    1    2    0    0  0.19755025536E+01  0.58269958048E+01 -0.31286794386E+02  0.59301952998E+02  0.50000016360E+02 0.  0.
        -12    1    1    2    0    0 -0.19755025536E+01 -0.58269958048E+01  0.31286794386E+02  0.31886047002E+02  0.00000000000E+00 0.  1.
         11    1    3    3    0    0 -0.13904322797E+02  0.12502647692E+02 -0.66856878003E+01  0.19858117065E+02  0.51100000000E-03 0. -1.
        -11    1    3    3    0    0  0.82663549919E+01 -0.21225023414E+01 -0.28502457017E+02  0.29752776296E+02  0.51100000000E-03 0.  1.
        -12    1    3    3    0    0  0.76134703590E+01 -0.45531495456E+01  0.39013504315E+01  0.96910596367E+01  0.00000000000E+00 0.  1.
</event>
<event>
 7    1  0.6830263E-012  0.5930191E+02  0.7816164E-02  0.1266605E+00
        -11   -1    0    0    0    0  0.00000000000E+00  0.00000000000E+00  0.45593999997E+02  0.45594000000E+02  0.51100000000E-03 0.  1.
         11   -1    0    0    0    0 -0.00000000000E+00 -0.00000000000E+00 -0.45593999997E+02  0.45594000000E+02  0.51100000000E-03 0. -1.
    9900012    2    1    2    0    0  0.19819408676E+02 -0.16168963392E+02 -0.19038871682E+02  0.59301906286E+02  0.49999931167E+02 0.  0.
        -12    1    1    2    0    0 -0.19819408676E+02  0.16168963392E+02  0.19038871682E+02  0.31886093714E+02  0.00000000000E+00 0.  1.
         11    1    3    3    0    0 -0.42211240626E+01  0.52346517435E+01 -0.11344178223E+02  0.13187488277E+02  0.51100000000E-03 0. -1.
        -11    1    3    3    0    0 -0.62610800998E+01 -0.12965983900E+01  0.44321209391E+01  0.77798449650E+01  0.51100000000E-03 0.  1.
         12    1    3    3    0    0  0.30301612839E+02 -0.20107016745E+02 -0.12126814398E+02  0.38334573044E+02  0.00000000000E+00 0. -1.
</event>
<event>
 7    1  0.6830263E-012  0.5930192E+02  0.7816164E-02  0.1266605E+00
        -11   -1    0    0    0    0  0.00000000000E+00  0.00000000000E+00  0.45593999997E+02  0.45594000000E+02  0.51100000000E-03 0. -1.
         11   -1    0    0    0    0 -0.00000000000E+00 -0.00000000000E+00 -0.45593999997E+02  0.45594000000E+02  0.51100000000E-03 0.  1.
    9900012    2    1    2    0    0 -0.17253859468E+02  0.26301647086E+02 -0.52201577050E+01  0.59301916006E+02  0.49999948896E+02 0.  0.
        -12    1    1    2    0    0  0.17253859468E+02 -0.26301647086E+02  0.52201577050E+01  0.31886083994E+02  0.00000000000E+00 0.  1.
         11    1    3    3    0    0 -0.17341805719E+02  0.21001950723E+01 -0.10963004013E+02  0.20623687890E+02  0.51100000000E-03 0. -1.
        -11    1    3    3    0    0 -0.33111819054E+01 -0.20401588379E+01 -0.79750899784E+01  0.88728932214E+01  0.51100000000E-03 0.  1.
         12    1    3    3    0    0  0.33991281555E+01  0.26241610851E+02  0.13717936286E+02  0.29805334896E+02  0.00000000000E+00 0. -1.
</event>
<event>
 7    1  0.6830263E-012  0.5930196E+02  0.7816164E-02  0.1266605E+00
        -11   -1    0    0    0    0  0.00000000000E+00  0.00000000000E+00  0.45593999997E+02  0.45594000000E+02  0.51100000000E-03 0.  1.
         11   -1    0    0    0    0 -0.00000000000E+00 -0.00000000000E+00 -0.45593999997E+02  0.45594000000E+02  0.51100000000E-03 0. -1.
    9900012    2    1    2    0    0 -0.10559573700E+02  0.15709989134E+02 -0.25659525591E+02  0.59301959028E+02  0.50000027357E+02 0.  0.
        -12    1    1    2    0    0  0.10559573700E+02 -0.15709989134E+02  0.25659525591E+02  0.31886040972E+02  0.00000000000E+00 0.  1.
         11    1    3    3    0    0  0.37088797333E+01  0.96766462642E+00 -0.57970760924E+01  0.69496946111E+01  0.51100000000E-03 0. -1.
        -11    1    3    3    0    0 -0.13008341993E+02  0.27258148826E+02 -0.24556220360E+02  0.38925975871E+02  0.51100000000E-03 0.  1.
        -12    1    3    3    0    0 -0.12601114404E+01 -0.12515824319E+02  0.46937708614E+01  0.13426288546E+02  0.00000000000E+00 0.  1.
</event>
<event>
 7    1  0.6830263E-012  0.5930197E+02  0.7816164E-02  0.1266605E+00
        -11   -1    0    0    0    0  0.00000000000E+00  0.00000000000E+00  0.45593999997E+02  0.45594000000E+02  0.51100000000E-03 0.  1.
         11   -1    0    0    0    0 -0.00000000000E+00 -0.00000000000E+00 -0.45593999997E+02  0.45594000000E+02  0.51100000000E-03 0. -1.
    9900012    2    1    2    0    0  0.25246355910E+02 -0.18573746538E+02 -0.58614277935E+01  0.59301970411E+02  0.50000048116E+02 0.  0.
        -12    1    1    2    0    0 -0.25246355910E+02  0.18573746538E+02  0.58614277935E+01  0.31886029589E+02  0.00000000000E+00 0.  1.
         11    1    3    3    0    0  0.22496897499E+02 -0.17394747260E+02 -0.16878737400E+02  0.33069312146E+02  0.51100000000E-03 0. -1.
        -11    1    3    3    0    0  0.11230618733E+02  0.32777537998E+01  0.89374380386E-01  0.11699506620E+02  0.51100000000E-03 0.  1.
        -12    1    3    3    0    0 -0.84811603225E+01 -0.44567530781E+01  0.10927935226E+02  0.14533151645E+02  0.00000000000E+00 0.  1.
</event>
<event>
 7    1  0.6830263E-012  0.5930195E+02  0.7816164E-02  0.1266605E+00
        -11   -1    0    0    0    0  0.00000000000E+00  0.00000000000E+00  0.45593999997E+02  0.45594000000E+02  0.51100000000E-03 0.  1.
         11   -1    0    0    0    0 -0.00000000000E+00 -0.00000000000E+00 -0.45593999997E+02  0.45594000000E+02  0.51100000000E-03 0. -1.
    9900012    2    1    2    0    0 -0.26537800472E+02 -0.17673311013E+02 -0.34593111090E+00  0.59301945926E+02  0.50000003462E+02 0.  0.
        -12    1    1    2    0    0  0.26537800472E+02  0.17673311013E+02  0.34593111090E+00  0.31886054074E+02  0.00000000000E+00 0.  1.
         11    1    3    3    0    0 -0.25296282309E+02 -0.10797478521E+02  0.13968299876E+02  0.30848028182E+02  0.51100000000E-03 0.  1.
        -11    1    3    3    0    0 -0.53967156808E+01 -0.14599889104E+02 -0.71499853233E+01  0.17129027771E+02  0.51100000000E-03 0. -1.
        -12    1    3    3    0    0  0.41551975171E+01  0.77240566124E+01 -0.71642456638E+01  0.11324889972E+02  0.00000000000E+00 0.  1.
</event>
<event>
 7    1  0.6830263E-012  0.5930192E+02  0.7816164E-02  0.1266605E+00
        -11   -1    0    0    0    0  0.00000000000E+00  0.00000000000E+00  0.45593999997E+02  0.45594000000E+02  0.51100000000E-03 0.  1.
         11   -1    0    0    0    0 -0.00000000000E+00 -0.00000000000E+00 -0.45593999997E+02  0.45594000000E+02  0.51100000000E-03 0. -1.
    9900012    2    1    2    0    0  0.52438365558E+01 -0.19292101016E+02 -0.24840277003E+02  0.59301916123E+02  0.49999949108E+02 0.  0.
        -12    1    1    2    0    0 -0.52438365558E+01  0.19292101016E+02  0.24840277003E+02  0.31886083877E+02  0.00000000000E+00 0.  1.
         11    1    3    3    0    0 -0.31439046411E+01  0.57549390852E+01 -0.27854979487E+01  0.71247778457E+01  0.51100000000E-03 0. -1.
        -11    1    3    3    0    0 -0.73166377298E+01  0.71491845487E+01 -0.23391620945E+00  0.10232240441E+02  0.51100000000E-03 0.  1.
         12    1    3    3    0    0  0.15704378927E+02 -0.32196224650E+02 -0.21820862845E+02  0.41944897836E+02  0.00000000000E+00 0. -1.
</event>
<event>
 7    1  0.6830263E-012  0.5930193E+02  0.7816164E-02  0.1266605E+00
        -11   -1    0    0    0    0  0.00000000000E+00  0.00000000000E+00  0.45593999997E+02  0.45594000000E+02  0.51100000000E-03 0.  1.
         11   -1    0    0    0    0 -0.00000000000E+00 -0.00000000000E+00 -0.45593999997E+02  0.45594000000E+02  0.51100000000E-03 0. -1.
    9900012    2    1    2    0    0  0.28013923868E+02  0.11967172931E+02 -0.94195668441E+01  0.59301930974E+02  0.49999976192E+02 0.  0.
        -12    1    1    2    0    0 -0.28013923868E+02 -0.11967172931E+02  0.94195668441E+01  0.31886069026E+02  0.00000000000E+00 0.  1.
         11    1    3    3    0    0 -0.94102107308E+00  0.63217788900E+01 -0.23221553449E+00  0.63956495612E+01  0.51100000000E-03 0. -1.
        -11    1    3    3    0    0  0.92851929972E+01  0.18558320432E+02  0.95345902404E+01  0.22837129364E+02  0.51100000000E-03 0.  1.
         12    1    3    3    0    0  0.19669751944E+02 -0.12912926392E+02 -0.18721941550E+02  0.30069152049E+02  0.00000000000E+00 0. -1.
</event>
<event>
 7    1  0.6830263E-012  0.5930194E+02  0.7816164E-02  0.1266605E+00
        -11   -1    0    0    0    0  0.00000000000E+00  0.00000000000E+00  0.45593999997E+02  0.45594000000E+02  0.51100000000E-03 0.  1.
         11   -1    0    0    0    0 -0.00000000000E+00 -0.00000000000E+00 -0.45593999997E+02  0.45594000000E+02  0.51100000000E-03 0. -1.
    9900012    2    1    2    0    0 -0.31170865582E+02 -0.54872579499E+01 -0.38713970331E+01  0.59301943863E+02  0.49999999700E+02 0.  0.
        -12    1    1    2    0    0  0.31170865582E+02  0.54872579499E+01  0.38713970331E+01  0.31886056137E+02  0.00000000000E+00 0.  1.
         11    1    3    3    0    0 -0.28528243202E+02  0.84150702610E+00 -0.23691104996E+02  0.37092280201E+02  0.51100000000E-03 0.  1.
        -11    1    3    3    0    0  0.25352836509E+01 -0.26071508800E+01  0.76601542130E+01  0.84795555149E+01  0.51100000000E-03 0. -1.
        -12    1    3    3    0    0 -0.51779060309E+01 -0.37216140960E+01  0.12159553750E+02  0.13730108148E+02  0.00000000000E+00 0.  1.
</event>
<event>
 7    1  0.6830263E-012  0.5930197E+02  0.7816164E-02  0.1266605E+00
        -11   -1    0    0    0    0  0.00000000000E+00  0.00000000000E+00  0.45593999997E+02  0.45594000000E+02  0.51100000000E-03 0.  1.
         11   -1    0    0    0    0 -0.00000000000E+00 -0.00000000000E+00 -0.45593999997E+02  0.45594000000E+02  0.51100000000E-03 0. -1.
    9900012    2    1    2    0    0  0.24728160438E+02 -0.59966028133E+01 -0.19216602960E+02  0.59301968681E+02  0.50000044962E+02 0.  0.
        -12    1    1    2    0    0 -0.24728160438E+02  0.59966028133E+01  0.19216602960E+02  0.31886031319E+02  0.00000000000E+00 0.  1.
         11    1    3    3    0    0 -0.31057270620E+00  0.51197084957E+00  0.15143145140E+01  0.16284097350E+01  0.51100000000E-03 0. -1.
        -11    1    3    3    0    0 -0.19058381777E+00  0.92870316908E+01  0.10845006490E+02  0.14279336324E+02  0.51100000000E-03 0.  1.
         12    1    3    3    0    0  0.25229316962E+02 -0.15795605354E+02 -0.31575923964E+02  0.43394222623E+02  0.00000000000E+00 0. -1.
</event>
<event>
 7    1  0.6830263E-012  0.5930196E+02  0.7816164E-02  0.1266605E+00
        -11   -1    0    0    0    0  0.00000000000E+00  0.00000000000E+00  0.45593999997E+02  0.45594000000E+02  0.51100000000E-03 0. -1.
         11   -1    0    0    0    0 -0.00000000000E+00 -0.00000000000E+00 -0.45593999997E+02  0.45594000000E+02  0.51100000000E-03 0.  1.
    9900012    2    1    2    0    0  0.10747747366E+02  0.13679603254E+02  0.26722163095E+02  0.59301958868E+02  0.50000027064E+02 0.  0.
        -12    1    1    2    0    0 -0.10747747366E+02 -0.13679603254E+02 -0.26722163095E+02  0.31886041132E+02  0.00000000000E+00 0.  1.
         11    1    3    3    0    0  0.61563193768E+01  0.25937970647E+02  0.16900931745E+02  0.31564538388E+02  0.51100000000E-03 0.  1.
        -11    1    3    3    0    0  0.87322870246E+01 -0.88763316524E+00  0.12566838876E+02  0.15328606229E+02  0.51100000000E-03 0. -1.
         12    1    3    3    0    0 -0.41408590351E+01 -0.11370734228E+02 -0.27456075263E+01  0.12408814251E+02  0.00000000000E+00 0. -1.
</event>
<event>
 7    1  0.6830263E-012  0.5930187E+02  0.7816164E-02  0.1266605E+00
        -11   -1    0    0    0    0  0.00000000000E+00  0.00000000000E+00  0.45593999997E+02  0.45594000000E+02  0.51100000000E-03 0. -1.
         11   -1    0    0    0    0 -0.00000000000E+00 -0.00000000000E+00 -0.45593999997E+02  0.45594000000E+02  0.51100000000E-03 0.  1.
    9900012    2    1    2    0    0  0.40337189392E+01 -0.16087621440E+02  0.27233114393E+02  0.59301874936E+02  0.49999873992E+02 0.  0.
        -12    1    1    2    0    0 -0.40337189392E+01  0.16087621440E+02 -0.27233114393E+02  0.31886125064E+02  0.00000000000E+00 0.  1.
         11    1    3    3    0    0 -0.15073623202E+01  0.83023565234E+01  0.21152595657E+02  0.22773527796E+02  0.51100000000E-03 0. -1.
        -11    1    3    3    0    0  0.37487129448E+01  0.10046147720E+01  0.10040467258E+02  0.10764436010E+02  0.51100000000E-03 0.  1.
        -12    1    3    3    0    0  0.17923683146E+01 -0.25394592736E+02 -0.39599485223E+01  0.25763911129E+02  0.00000000000E+00 0.  1.
</event>
<event>
 7    1  0.6830263E-012  0.5930195E+02  0.7816164E-02  0.1266605E+00
        -11   -1    0    0    0    0  0.00000000000E+00  0.00000000000E+00  0.45593999997E+02  0.45594000000E+02  0.51100000000E-03 0.  1.
         11   -1    0    0    0    0 -0.00000000000E+00 -0.00000000000E+00 -0.45593999997E+02  0.45594000000E+02  0.51100000000E-03 0. -1.
    9900012    2    1    2    0    0  0.14921168570E+01  0.24098631065E+02 -0.20826665916E+02  0.59301945915E+02  0.50000003442E+02 0.  0.
        -12    1    1    2    0    0 -0.14921168570E+01 -0.24098631065E+02  0.20826665916E+02  0.31886054085E+02  0.00000000000E+00 0.  1.
         11    1    3    3    0    0 -0.88224931190E+01  0.55972833027E+01  0.46559560270E+01  0.11438701499E+02  0.51100000000E-03 0. -1.
        -11    1    3    3    0    0 -0.46813552461E+01  0.23740487216E+01  0.69199876255E+01  0.86854719659E+01  0.51100000000E-03 0.  1.
         12    1    3    3    0    0  0.14995965222E+02  0.16127299041E+02 -0.32402609568E+02  0.39177772450E+02  0.00000000000E+00 0. -1.
</event>
<event>
 7    1  0.6830263E-012  0.5930194E+02  0.7816164E-02  0.1266605E+00
        -11   -1    0    0    0    0  0.00000000000E+00  0.00000000000E+00  0.45593999997E+02  0.45594000000E+02  0.51100000000E-03 0.  1.
         11   -1    0    0    0    0 -0.00000000000E+00 -0.00000000000E+00 -0.45593999997E+02  0.45594000000E+02  0.51100000000E-03 0. -1.
    9900012    2    1    2    0    0  0.35958798478E+01  0.29378418204E+01 -0.31546147108E+02  0.59301942486E+02  0.49999997189E+02 0.  0.
        -12    1    1    2    0    0 -0.35958798478E+01 -0.29378418204E+01  0.31546147108E+02  0.31886057514E+02  0.00000000000E+00 0.  1.
         11    1    3    3    0    0 -0.29050368254E+01 -0.96151047295E+01 -0.16622015802E+01  0.10180981891E+02  0.51100000000E-03 0. -1.
        -11    1    3    3    0    0 -0.94485981877E+01 -0.83725460343E+01 -0.85437973469E+01  0.15243753087E+02  0.51100000000E-03 0.  1.
        -12    1    3    3    0    0  0.15949514861E+02  0.20925492584E+02 -0.21340148180E+02  0.33877207508E+02  0.00000000000E+00 0.  1.
</event>
<event>
 7    1  0.6830263E-012  0.5930194E+02  0.7816164E-02  0.1266605E+00
        -11   -1    0    0    0    0  0.00000000000E+00  0.00000000000E+00  0.45593999997E+02  0.45594000000E+02  0.51100000000E-03 0.  1.
         11   -1    0    0    0    0 -0.00000000000E+00 -0.00000000000E+00 -0.45593999997E+02  0.45594000000E+02  0.51100000000E-03 0. -1.
    9900012    2    1    2    0    0 -0.26742013873E+02 -0.17313691284E+02 -0.13495590580E+01  0.59301944717E+02  0.50000001257E+02 0.  0.
        -12    1    1    2    0    0  0.26742013873E+02  0.17313691284E+02  0.13495590580E+01  0.31886055283E+02  0.00000000000E+00 0.  1.
         11    1    3    3    0    0 -0.21629441386E+02  0.91994727447E+01 -0.28092364533E+01  0.23671815375E+02  0.51100000000E-03 0. -1.
        -11    1    3    3    0    0 -0.43590917425E+01 -0.52248371096E+01 -0.94913018455E+01  0.11678416615E+02  0.51100000000E-03 0.  1.
        -12    1    3    3    0    0 -0.75348074453E+00 -0.21288326919E+02  0.10950979241E+02  0.23951712727E+02  0.00000000000E+00 0.  1.
</event>
<event>
 7    1  0.6830263E-012  0.5930194E+02  0.7816164E-02  0.1266605E+00
        -11   -1    0    0    0    0  0.00000000000E+00  0.00000000000E+00  0.45593999997E+02  0.45594000000E+02  0.51100000000E-03 0.  1.
         11   -1    0    0    0    0 -0.00000000000E+00 -0.00000000000E+00 -0.45593999997E+02  0.45594000000E+02  0.51100000000E-03 0. -1.
    9900012    2    1    2    0    0  0.30100257791E+02 -0.89388539302E+01 -0.55490717615E+01  0.59301939941E+02  0.49999992547E+02 0.  0.
        -12    1    1    2    0    0 -0.30100257791E+02  0.89388539302E+01  0.55490717615E+01  0.31886060059E+02  0.00000000000E+00 0.  1.
         11    1    3    3    0    0  0.21758415683E+00  0.23054026499E+01  0.15815497547E+02  0.15984122971E+02  0.51100000000E-03 0.  1.
        -11    1    3    3    0    0  0.72987087601E+01 -0.32138744682E+01  0.35640921911E+01  0.87351526643E+01  0.51100000000E-03 0. -1.
         12    1    3    3    0    0  0.22583964874E+02 -0.80303821119E+01 -0.24928661499E+02  0.34582664305E+02  0.00000000000E+00 0. -1.
</event>
<event>
 7    1  0.6830263E-012  0.5930197E+02  0.7816164E-02  0.1266605E+00
        -11   -1    0    0    0    0  0.00000000000E+00  0.00000000000E+00  0.45593999997E+02  0.45594000000E+02  0.51100000000E-03 0.  1.
         11   -1    0    0    0    0 -0.00000000000E+00 -0.00000000000E+00 -0.45593999997E+02  0.45594000000E+02  0.51100000000E-03 0. -1.
    9900012    2    1    2    0    0  0.19757443819E+01  0.30970572204E+02 -0.73238677783E+01  0.59301969395E+02  0.50000046264E+02 0.  0.
        -12    1    1    2    0    0 -0.19757443819E+01 -0.30970572204E+02  0.73238677783E+01  0.31886030605E+02  0.00000000000E+00 0.  1.
         11    1    3    3    0    0 -0.41728235198E+01  0.71656133763E+01 -0.18995724290E+02  0.20726698067E+02  0.51100000000E-03 0. -1.
        -11    1    3    3    0    0  0.32476168599E+01  0.23292307324E+02 -0.29116693430E+01  0.23697181570E+02  0.51100000000E-03 0.  1.
         12    1    3    3    0    0  0.29009510418E+01  0.51265150382E+00  0.14583525855E+02  0.14878089758E+02  0.00000000000E+00 0. -1.
</event>
<event>
 7    1  0.6830263E-012  0.5930180E+02  0.7816164E-02  0.1266605E+00
        -11   -1    0    0    0    0  0.00000000000E+00  0.00000000000E+00  0.45593999997E+02  0.45594000000E+02  0.51100000000E-03 0.  1.
         11   -1    0    0    0    0 -0.00000000000E+00 -0.00000000000E+00 -0.45593999997E+02  0.45594000000E+02  0.51100000000E-03 0. -1.
    9900012    2    1    2    0    0 -0.21919467188E+02 -0.14166320952E+02 -0.18318890649E+02  0.59301804778E+02  0.49999746041E+02 0.  0.
        -12    1    1    2    0    0  0.21919467188E+02  0.14166320952E+02  0.18318890649E+02  0.31886195222E+02  0.00000000000E+00 0.  1.
         11    1    3    3    0    0 -0.11924837630E+02 -0.32585544307E-02 -0.16407395093E+02  0.20283105706E+02  0.51100000000E-03 0. -1.
        -11    1    3    3    0    0 -0.10451631884E+02  0.91630431501E+01  0.48609432242E+01  0.14725037796E+02  0.51100000000E-03 0.  1.
         12    1    3    3    0    0  0.45700232495E+00 -0.23326105547E+02 -0.67724387809E+01  0.24293661275E+02  0.00000000000E+00 0. -1.
</event>
<event>
 7    1  0.6830263E-012  0.5930194E+02  0.7816164E-02  0.1266605E+00
        -11   -1    0    0    0    0  0.00000000000E+00  0.00000000000E+00  0.45593999997E+02  0.45594000000E+02  0.51100000000E-03 0. -1.
         11   -1    0    0    0    0 -0.00000000000E+00 -0.00000000000E+00 -0.45593999997E+02  0.45594000000E+02  0.51100000000E-03 0.  1.
    9900012    2    1    2    0    0  0.21670328289E+02  0.16393290747E+02  0.16684655889E+02  0.59301939538E+02  0.49999991812E+02 0.  0.
        -12    1    1    2    0    0 -0.21670328289E+02 -0.16393290747E+02 -0.16684655889E+02  0.31886060462E+02  0.00000000000E+00 0.  1.
         11    1    3    3    0    0 -0.86689511290E+01  0.11544226530E+02  0.85789857591E+01  0.16793417662E+02  0.51100000000E-03 0. -1.
        -11    1    3    3    0    0  0.38486773012E+01 -0.55953336719E+01 -0.74340613261E+01  0.10069028947E+02  0.51100000000E-03 0.  1.
         12    1    3    3    0    0  0.26490602117E+02  0.10444397889E+02  0.15539731456E+02  0.32439492929E+02  0.00000000000E+00 0. -1.
</event>
<event>
 7    1  0.6830263E-012  0.5930197E+02  0.7816164E-02  0.1266605E+00
        -11   -1    0    0    0    0  0.00000000000E+00  0.00000000000E+00  0.45593999997E+02  0.45594000000E+02  0.51100000000E-03 0. -1.
         11   -1    0    0    0    0 -0.00000000000E+00 -0.00000000000E+00 -0.45593999997E+02  0.45594000000E+02  0.51100000000E-03 0.  1.
    9900012    2    1    2    0    0 -0.19905061422E+02  0.21794259611E+02  0.12063078251E+02  0.59301967335E+02  0.50000042507E+02 0.  0.
        -12    1    1    2    0    0  0.19905061422E+02 -0.21794259611E+02 -0.12063078251E+02  0.31886032665E+02  0.00000000000E+00 0.  1.
         11    1    3    3    0    0  0.64931880214E+01  0.32479008903E+01  0.74771430664E+01  0.10421996909E+02  0.51100000000E-03 0. -1.
        -11    1    3    3    0    0 -0.22299047677E+02  0.51337863147E+01  0.18272944114E+02  0.29283165404E+02  0.51100000000E-03 0.  1.
         12    1    3    3    0    0 -0.40992017665E+01  0.13412572406E+02 -0.13687008929E+02  0.19596805022E+02  0.00000000000E+00 0. -1.
</event>
<event>
 7    1  0.6830263E-012  0.5930195E+02  0.7816164E-02  0.1266605E+00
        -11   -1    0    0    0    0  0.00000000000E+00  0.00000000000E+00  0.45593999997E+02  0.45594000000E+02  0.51100000000E-03 0. -1.
         11   -1    0    0    0    0 -0.00000000000E+00 -0.00000000000E+00 -0.45593999997E+02  0.45594000000E+02  0.51100000000E-03 0.  1.
    9900012    2    1    2    0    0 -0.27475545466E+02 -0.11268672602E+01  0.16141402606E+02  0.59301948087E+02  0.50000007403E+02 0.  0.
        -12    1    1    2    0    0  0.27475545466E+02  0.11268672602E+01 -0.16141402606E+02  0.31886051913E+02  0.00000000000E+00 0.  1.
         11    1    3    3    0    0 -0.66254650267E+01  0.73849271705E+01  0.19315839626E+02  0.21714870409E+02  0.51100000000E-03 0. -1.
        -11    1    3    3    0    0 -0.20179268872E+01  0.96773068825E+01 -0.54818466855E+01  0.11303669350E+02  0.51100000000E-03 0.  1.
        -12    1    3    3    0    0 -0.18832153552E+02 -0.18189101313E+02  0.23074096655E+01  0.26283408329E+02  0.00000000000E+00 0.  1.
</event>
<event>
 7    1  0.6830263E-012  0.5930196E+02  0.7816164E-02  0.1266605E+00
        -11   -1    0    0    0    0  0.00000000000E+00  0.00000000000E+00  0.45593999997E+02  0.45594000000E+02  0.51100000000E-03 0.  1.
         11   -1    0    0    0    0 -0.00000000000E+00 -0.00000000000E+00 -0.45593999997E+02  0.45594000000E+02  0.51100000000E-03 0. -1.
    9900012    2    1    2    0    0  0.13761920424E+02  0.16312735740E+02 -0.23690166384E+02  0.59301956275E+02  0.50000022336E+02 0.  0.
        -12    1    1    2    0    0 -0.13761920424E+02 -0.16312735740E+02  0.23690166384E+02  0.31886043725E+02  0.00000000000E+00 0.  1.
         11    1    3    3    0    0  0.95656907868E+01 -0.19301114095E+00  0.32549341047E+01  0.10106151088E+02  0.51100000000E-03 0. -1.
        -11    1    3    3    0    0  0.25382885196E+01 -0.12162717259E+02 -0.74490313596E+01  0.14486637574E+02  0.51100000000E-03 0.  1.
         12    1    3    3    0    0  0.16579411178E+01  0.28668464140E+02 -0.19496069129E+02  0.34709167613E+02  0.00000000000E+00 0. -1.
</event>
<event>
 7    1  0.6830263E-012  0.5930195E+02  0.7816164E-02  0.1266605E+00
        -11   -1    0    0    0    0  0.00000000000E+00  0.00000000000E+00  0.45593999997E+02  0.45594000000E+02  0.51100000000E-03 0. -1.
         11   -1    0    0    0    0 -0.00000000000E+00 -0.00000000000E+00 -0.45593999997E+02  0.45594000000E+02  0.51100000000E-03 0.  1.
    9900012    2    1    2    0    0 -0.76162807724E+01  0.25006542260E+02  0.18258838738E+02  0.59301951630E+02  0.50000013864E+02 0.  0.
        -12    1    1    2    0    0  0.76162807724E+01 -0.25006542260E+02 -0.18258838738E+02  0.31886048370E+02  0.00000000000E+00 0.  1.
         11    1    3    3    0    0 -0.24393077168E+01  0.16487139663E+02  0.26040322457E+01  0.16868816811E+02  0.51100000000E-03 0. -1.
        -11    1    3    3    0    0 -0.21547624613E+02  0.80762159555E+01  0.80715820316E+01  0.24385976039E+02  0.51100000000E-03 0.  1.
        -12    1    3    3    0    0  0.16370651557E+02  0.44318664184E+00  0.75832244607E+01  0.18047158780E+02  0.00000000000E+00 0.  1.
</event>
<event>
 7    1  0.6830263E-012  0.5930196E+02  0.7816164E-02  0.1266605E+00
        -11   -1    0    0    0    0  0.00000000000E+00  0.00000000000E+00  0.45593999997E+02  0.45594000000E+02  0.51100000000E-03 0.  1.
         11   -1    0    0    0    0 -0.00000000000E+00 -0.00000000000E+00 -0.45593999997E+02  0.45594000000E+02  0.51100000000E-03 0. -1.
    9900012    2    1    2    0    0  0.30550373652E+02 -0.65128660831E+01 -0.64013252779E+01  0.59301957282E+02  0.50000024173E+02 0.  0.
        -12    1    1    2    0    0 -0.30550373652E+02  0.65128660831E+01  0.64013252779E+01  0.31886042718E+02  0.00000000000E+00 0.  1.
         11    1    3    3    0    0 -0.77761498827E+01 -0.49976861100E+01 -0.46659000955E+01  0.10354515798E+02  0.51100000000E-03 0. -1.
        -11    1    3    3    0    0  0.20419755964E+02 -0.58101083376E+00 -0.16069619877E+02  0.25991088674E+02  0.51100000000E-03 0.  1.
        -12    1    3    3    0    0  0.17906767571E+02 -0.93416913937E+00  0.14334194694E+02  0.22956352810E+02  0.00000000000E+00 0.  1.
</event>
<event>
 7    1  0.6830263E-012  0.5930196E+02  0.7816164E-02  0.1266605E+00
        -11   -1    0    0    0    0  0.00000000000E+00  0.00000000000E+00  0.45593999997E+02  0.45594000000E+02  0.51100000000E-03 0.  1.
         11   -1    0    0    0    0 -0.00000000000E+00 -0.00000000000E+00 -0.45593999997E+02  0.45594000000E+02  0.51100000000E-03 0. -1.
    9900012    2    1    2    0    0 -0.13478245258E+01 -0.26590394680E+02  0.17545772277E+02  0.59301955325E+02  0.50000020604E+02 0.  0.
        -12    1    1    2    0    0  0.13478245258E+01  0.26590394680E+02 -0.17545772277E+02  0.31886044675E+02  0.00000000000E+00 0.  1.
         11    1    3    3    0    0  0.16737662613E+02 -0.25027478543E+01  0.73919021798E+01  0.18467628832E+02  0.51100000000E-03 0. -1.
        -11    1    3    3    0    0  0.89405389453E-01 -0.87355414465E+01 -0.72536862614E+01  0.11354895082E+02  0.51100000000E-03 0.  1.
        -12    1    3    3    0    0 -0.18174892528E+02 -0.15352105379E+02  0.17407556358E+02  0.29479431412E+02  0.00000000000E+00 0.  1.
</event>
<event>
 7    1  0.6830263E-012  0.5930196E+02  0.7816164E-02  0.1266605E+00
        -11   -1    0    0    0    0  0.00000000000E+00  0.00000000000E+00  0.45593999997E+02  0.45594000000E+02  0.51100000000E-03 0. -1.
         11   -1    0    0    0    0 -0.00000000000E+00 -0.00000000000E+00 -0.45593999997E+02  0.45594000000E+02  0.51100000000E-03 0.  1.
    9900012    2    1    2    0    0  0.29875689527E+02 -0.42049702881E+01  0.10318964496E+02  0.59301958727E+02  0.50000026808E+02 0.  0.
        -12    1    1    2    0    0 -0.29875689527E+02  0.42049702881E+01 -0.10318964496E+02  0.31886041273E+02  0.00000000000E+00 0.  1.
         11    1    3    3    0    0  0.64688828997E+01 -0.54879676736E+01  0.38768763519E+01  0.93270791604E+01  0.51100000000E-03 0. -1.
        -11    1    3    3    0    0  0.84210716969E+01 -0.20528297806E+02 -0.17907209594E+01  0.22260551232E+02  0.51100000000E-03 0.  1.
         12    1    3    3    0    0  0.14985734930E+02  0.21811295191E+02  0.82328091031E+01  0.27714328335E+02  0.00000000000E+00 0. -1.
</event>
<event>
 7    1  0.6830263E-012  0.5930196E+02  0.7816164E-02  0.1266605E+00
        -11   -1    0    0    0    0  0.00000000000E+00  0.00000000000E+00  0.45593999997E+02  0.45594000000E+02  0.51100000000E-03 0.  1.
         11   -1    0    0    0    0 -0.00000000000E+00 -0.00000000000E+00 -0.45593999997E+02  0.45594000000E+02  0.51100000000E-03 0. -1.
    9900012    2    1    2    0    0  0.22456478315E+02 -0.19255085261E+01 -0.22554791198E+02  0.59301959051E+02  0.50000027399E+02 0.  0.
        -12    1    1    2    0    0 -0.22456478315E+02  0.19255085261E+01  0.22554791198E+02  0.31886040949E+02  0.00000000000E+00 0.  1.
         11    1    3    3    0    0  0.83211509247E+01 -0.31002382542E+00 -0.14949571260E+02  0.17112198824E+02  0.51100000000E-03 0. -1.
        -11    1    3    3    0    0  0.18050524439E+01  0.17713506763E+02  0.66268322894E+00  0.17817566767E+02  0.51100000000E-03 0.  1.
         12    1    3    3    0    0  0.12330274946E+02 -0.19328991464E+02 -0.82679031672E+01  0.24372193460E+02  0.00000000000E+00 0. -1.
</event>
<event>
 7    1  0.6830263E-012  0.5930192E+02  0.7816164E-02  0.1266605E+00
        -11   -1    0    0    0    0  0.00000000000E+00  0.00000000000E+00  0.45593999997E+02  0.45594000000E+02  0.51100000000E-03 0.  1.
         11   -1    0    0    0    0 -0.00000000000E+00 -0.00000000000E+00 -0.45593999997E+02  0.45594000000E+02  0.51100000000E-03 0. -1.
    9900012    2    1    2    0    0 -0.97133133061E+01  0.27057458122E+02  0.13793761907E+02  0.59301915842E+02  0.49999948596E+02 0.  0.
        -12    1    1    2    0    0  0.97133133061E+01 -0.27057458122E+02 -0.13793761907E+02  0.31886084158E+02  0.00000000000E+00 0.  1.
         11    1    3    3    0    0  0.65052201727E+01  0.14608739376E+02 -0.70878579664E+01  0.17492023510E+02  0.51100000000E-03 0. -1.
        -11    1    3    3    0    0 -0.17948815273E+02  0.16512594495E+02  0.44458194320E+01  0.24790947085E+02  0.51100000000E-03 0.  1.
         12    1    3    3    0    0  0.17302817946E+01 -0.40638757491E+01  0.16435800441E+02  0.17018945248E+02  0.00000000000E+00 0. -1.
</event>
<event>
 7    1  0.6830263E-012  0.5930199E+02  0.7816164E-02  0.1266605E+00
        -11   -1    0    0    0    0  0.00000000000E+00  0.00000000000E+00  0.45593999997E+02  0.45594000000E+02  0.51100000000E-03 0. -1.
         11   -1    0    0    0    0 -0.00000000000E+00 -0.00000000000E+00 -0.45593999997E+02  0.45594000000E+02  0.51100000000E-03 0.  1.
    9900012    2    1    2    0    0  0.29218416361E+02  0.59403632555E+01  0.11301054362E+02  0.59301990530E+02  0.50000084808E+02 0.  0.
        -12    1    1    2    0    0 -0.29218416361E+02 -0.59403632555E+01 -0.11301054362E+02  0.31886009470E+02  0.00000000000E+00 0.  1.
         11    1    3    3    0    0  0.14873412941E+02 -0.44660885091E+01  0.10894856237E+02  0.18970035629E+02  0.51100000000E-03 0. -1.
        -11    1    3    3    0    0 -0.67257065995E+01 -0.17541425036E+01  0.11622847870E+02  0.13542626705E+02  0.51100000000E-03 0.  1.
        -12    1    3    3    0    0  0.21070710019E+02  0.12160594268E+02 -0.11216649745E+02  0.26789328196E+02  0.00000000000E+00 0.  1.
</event>
<event>
 7    1  0.6830263E-012  0.5930194E+02  0.7816164E-02  0.1266605E+00
        -11   -1    0    0    0    0  0.00000000000E+00  0.00000000000E+00  0.45593999997E+02  0.45594000000E+02  0.51100000000E-03 0.  1.
         11   -1    0    0    0    0 -0.00000000000E+00 -0.00000000000E+00 -0.45593999997E+02  0.45594000000E+02  0.51100000000E-03 0. -1.
    9900012    2    1    2    0    0 -0.31413196014E+02 -0.48000253034E+01 -0.26251861916E+01  0.59301941459E+02  0.49999995316E+02 0.  0.
        -12    1    1    2    0    0  0.31413196014E+02  0.48000253034E+01  0.26251861916E+01  0.31886058541E+02  0.00000000000E+00 0.  1.
         11    1    3    3    0    0 -0.32861163125E+02 -0.10555115338E+02 -0.11103919533E+02  0.36256910113E+02  0.51100000000E-03 0. -1.
        -11    1    3    3    0    0 -0.89255231978E+01  0.62354593028E+00  0.44827128638E+00  0.89584999463E+01  0.51100000000E-03 0.  1.
        -12    1    3    3    0    0  0.10373490308E+02  0.51315441043E+01  0.80304620546E+01  0.14086531400E+02  0.00000000000E+00 0.  1.
</event>
<event>
 7    1  0.6830263E-012  0.5930195E+02  0.7816164E-02  0.1266605E+00
        -11   -1    0    0    0    0  0.00000000000E+00  0.00000000000E+00  0.45593999997E+02  0.45594000000E+02  0.51100000000E-03 0.  1.
         11   -1    0    0    0    0 -0.00000000000E+00 -0.00000000000E+00 -0.45593999997E+02  0.45594000000E+02  0.51100000000E-03 0. -1.
    9900012    2    1    2    0    0 -0.26584495171E+02 -0.37426436953E+01  0.17203995877E+02  0.59301949140E+02  0.50000009323E+02 0.  0.
        -12    1    1    2    0    0  0.26584495171E+02  0.37426436953E+01 -0.17203995877E+02  0.31886050860E+02  0.00000000000E+00 0.  1.
         11    1    3    3    0    0 -0.10382698844E+02  0.52516750529E+01 -0.56047616426E+01  0.12914870478E+02  0.51100000000E-03 0. -1.
        -11    1    3    3    0    0 -0.27120247883E+02 -0.64620303950E+01  0.10634059153E+02  0.29838714724E+02  0.51100000000E-03 0.  1.
        -12    1    3    3    0    0  0.10918451556E+02 -0.25322883533E+01  0.12174698367E+02  0.16548363937E+02  0.00000000000E+00 0.  1.
</event>
<event>
 7    1  0.6830263E-012  0.5930194E+02  0.7816164E-02  0.1266605E+00
        -11   -1    0    0    0    0  0.00000000000E+00  0.00000000000E+00  0.45593999997E+02  0.45594000000E+02  0.51100000000E-03 0. -1.
         11   -1    0    0    0    0 -0.00000000000E+00 -0.00000000000E+00 -0.45593999997E+02  0.45594000000E+02  0.51100000000E-03 0.  1.
    9900012    2    1    2    0    0  0.66983941566E+01 -0.27168150517E+02 -0.15288690415E+02  0.59301938133E+02  0.49999989249E+02 0.  0.
        -12    1    1    2    0    0 -0.66983941566E+01  0.27168150517E+02  0.15288690415E+02  0.31886061867E+02  0.00000000000E+00 0.  1.
         11    1    3    3    0    0 -0.82811233145E+01 -0.90142296382E+01  0.63431214218E+01  0.13786534334E+02  0.51100000000E-03 0. -1.
        -11    1    3    3    0    0 -0.10118184234E+01 -0.13357726591E+02 -0.25111803245E+02  0.28461470424E+02  0.51100000000E-03 0.  1.
         12    1    3    3    0    0  0.15991335895E+02 -0.47961942872E+01  0.34799914083E+01  0.17053933374E+02  0.00000000000E+00 0. -1.
</event>
<event>
 7    1  0.6830263E-012  0.5930200E+02  0.7816164E-02  0.1266605E+00
        -11   -1    0    0    0    0  0.00000000000E+00  0.00000000000E+00  0.45593999997E+02  0.45594000000E+02  0.51100000000E-03 0.  1.
         11   -1    0    0    0    0 -0.00000000000E+00 -0.00000000000E+00 -0.45593999997E+02  0.45594000000E+02  0.51100000000E-03 0. -1.
    9900012    2    1    2    0    0 -0.25983314494E+02 -0.13491009894E+02 -0.12632388267E+02  0.59301996591E+02  0.50000095864E+02 0.  0.
        -12    1    1    2    0    0  0.25983314494E+02  0.13491009894E+02  0.12632388267E+02  0.31886003409E+02  0.00000000000E+00 0.  1.
         11    1    3    3    0    0 -0.85686110482E+01 -0.11948180612E+02 -0.14652301317E+02  0.20757409505E+02  0.51100000000E-03 0. -1.
        -11    1    3    3    0    0 -0.15060905579E+02  0.50259506999E+01 -0.13938380418E+02  0.21127458584E+02  0.51100000000E-03 0.  1.
        -12    1    3    3    0    0 -0.23537978672E+01 -0.65687799819E+01  0.15958293468E+02  0.17417128502E+02  0.00000000000E+00 0.  1.
</event>
<event>
 7    1  0.6830263E-012  0.5930182E+02  0.7816164E-02  0.1266605E+00
        -11   -1    0    0    0    0  0.00000000000E+00  0.00000000000E+00  0.45593999997E+02  0.45594000000E+02  0.51100000000E-03 0. -1.
         11   -1    0    0    0    0 -0.00000000000E+00 -0.00000000000E+00 -0.45593999997E+02  0.45594000000E+02  0.51100000000E-03 0.  1.
    9900012    2    1    2    0    0  0.13343254561E+02  0.12281531216E+02 -0.26226894257E+02  0.59301820648E+02  0.49999774984E+02 0.  0.
        -12    1    1    2    0    0 -0.13343254561E+02 -0.12281531216E+02  0.26226894257E+02  0.31886179352E+02  0.00000000000E+00 0.  1.
         11    1    3    3    0    0  0.16960946530E+02  0.20186577743E+02 -0.12071228103E+02  0.28998037457E+02  0.51100000000E-03 0. -1.
        -11    1    3    3    0    0  0.87291010722E+01  0.38980303741E+01 -0.66572746074E+01  0.11649512942E+02  0.51100000000E-03 0.  1.
        -12    1    3    3    0    0 -0.12346793041E+02 -0.11803076901E+02 -0.74983915471E+01  0.18654270249E+02  0.00000000000E+00 0.  1.
</event>
<event>
 7    1  0.6830263E-012  0.5930192E+02  0.7816164E-02  0.1266605E+00
        -11   -1    0    0    0    0  0.00000000000E+00  0.00000000000E+00  0.45593999997E+02  0.45594000000E+02  0.51100000000E-03 0. -1.
         11   -1    0    0    0    0 -0.00000000000E+00 -0.00000000000E+00 -0.45593999997E+02  0.45594000000E+02  0.51100000000E-03 0.  1.
    9900012    2    1    2    0    0 -0.11199372432E+02 -0.25389117427E+02  0.15706322913E+02  0.59301924575E+02  0.49999964522E+02 0.  0.
        -12    1    1    2    0    0  0.11199372432E+02  0.25389117427E+02 -0.15706322913E+02  0.31886075425E+02  0.00000000000E+00 0.  1.
         11    1    3    3    0    0 -0.12911316421E+02 -0.67195435732E+01 -0.60444344230E+01  0.15760378971E+02  0.51100000000E-03 0. -1.
        -11    1    3    3    0    0 -0.44988286080E+01 -0.13244452678E+01 -0.75747498984E+01  0.89090095070E+01  0.51100000000E-03 0.  1.
         12    1    3    3    0    0  0.62107725972E+01 -0.17345128586E+02  0.29325507234E+02  0.34632536096E+02  0.00000000000E+00 0. -1.
</event>
<event>
 7    1  0.6830263E-012  0.5930194E+02  0.7816164E-02  0.1266605E+00
        -11   -1    0    0    0    0  0.00000000000E+00  0.00000000000E+00  0.45593999997E+02  0.45594000000E+02  0.51100000000E-03 0. -1.
         11   -1    0    0    0    0 -0.00000000000E+00 -0.00000000000E+00 -0.45593999997E+02  0.45594000000E+02  0.51100000000E-03 0.  1.
    9900012    2    1    2    0    0 -0.87849730544E+01  0.29978159431E+02 -0.63917882567E+01  0.59301941110E+02  0.49999994679E+02 0.  0.
        -12    1    1    2    0    0  0.87849730544E+01 -0.29978159431E+02  0.63917882567E+01  0.31886058890E+02  0.00000000000E+00 0.  1.
         11    1    3    3    0    0 -0.19103762410E+00  0.88609604004E+01 -0.41739711490E+00  0.88728425662E+01  0.51100000000E-03 0. -1.
        -11    1    3    3    0    0  0.12262501764E+02 -0.72270628786E+01 -0.54295176283E+01  0.15234140911E+02  0.51100000000E-03 0.  1.
         12    1    3    3    0    0 -0.20856437194E+02  0.28344261909E+02 -0.54487351349E+00  0.35194957633E+02  0.00000000000E+00 0. -1.
</event>
<event>
 7    1  0.6830263E-012  0.5930193E+02  0.7816164E-02  0.1266605E+00
        -11   -1    0    0    0    0  0.00000000000E+00  0.00000000000E+00  0.45593999997E+02  0.45594000000E+02  0.51100000000E-03 0. -1.
         11   -1    0    0    0    0 -0.00000000000E+00 -0.00000000000E+00 -0.45593999997E+02  0.45594000000E+02  0.51100000000E-03 0.  1.
    9900012    2    1    2    0    0 -0.30066080880E+02  0.10490309635E+02  0.16449128215E+01  0.59301928528E+02  0.49999971732E+02 0.  0.
        -12    1    1    2    0    0  0.30066080880E+02 -0.10490309635E+02 -0.16449128215E+01  0.31886071472E+02  0.00000000000E+00 0.  1.
         11    1    3    3    0    0  0.13882319512E+01  0.78773495609E+01  0.11953875429E+01  0.80875692080E+01  0.51100000000E-03 0. -1.
        -11    1    3    3    0    0  0.85130369503E+01  0.46355590722E+01  0.50541636515E+01  0.10931824025E+02  0.51100000000E-03 0.  1.
         12    1    3    3    0    0 -0.39967349782E+02 -0.20225989980E+01 -0.46046383728E+01  0.40282535295E+02  0.00000000000E+00 0. -1.
</event>
<event>
 7    1  0.6830263E-012  0.5930196E+02  0.7816164E-02  0.1266605E+00
        -11   -1    0    0    0    0  0.00000000000E+00  0.00000000000E+00  0.45593999997E+02  0.45594000000E+02  0.51100000000E-03 0. -1.
         11   -1    0    0    0    0 -0.00000000000E+00 -0.00000000000E+00 -0.45593999997E+02  0.45594000000E+02  0.51100000000E-03 0.  1.
    9900012    2    1    2    0    0 -0.10769050039E+02  0.27523989651E+02 -0.11965670054E+02  0.59301957523E+02  0.50000024612E+02 0.  0.
        -12    1    1    2    0    0  0.10769050039E+02 -0.27523989651E+02  0.11965670054E+02  0.31886042477E+02  0.00000000000E+00 0.  1.
         11    1    3    3    0    0 -0.22451798864E+02  0.13781351004E+02  0.27362218093E+01  0.26485766324E+02  0.51100000000E-03 0. -1.
        -11    1    3    3    0    0 -0.54792967301E+01  0.61771794071E+01 -0.10907870064E+02  0.13680711520E+02  0.51100000000E-03 0.  1.
         12    1    3    3    0    0  0.17162045555E+02  0.75654592392E+01 -0.37940217987E+01  0.19135479679E+02  0.00000000000E+00 0. -1.
</event>
<event>
 7    1  0.6830263E-012  0.5930196E+02  0.7816164E-02  0.1266605E+00
        -11   -1    0    0    0    0  0.00000000000E+00  0.00000000000E+00  0.45593999997E+02  0.45594000000E+02  0.51100000000E-03 0.  1.
         11   -1    0    0    0    0 -0.00000000000E+00 -0.00000000000E+00 -0.45593999997E+02  0.45594000000E+02  0.51100000000E-03 0. -1.
    9900012    2    1    2    0    0  0.15815870237E+01  0.12332857844E+02 -0.29361858436E+02  0.59301960250E+02  0.50000029585E+02 0.  0.
        -12    1    1    2    0    0 -0.15815870237E+01 -0.12332857844E+02  0.29361858436E+02  0.31886039750E+02  0.00000000000E+00 0.  1.
         11    1    3    3    0    0 -0.11969136673E+02  0.11273391997E+02 -0.69254574066E+01  0.17841288080E+02  0.51100000000E-03 0. -1.
        -11    1    3    3    0    0 -0.52294265546E+01  0.88819679724E+01  0.10823511319E+01  0.10363770616E+02  0.51100000000E-03 0.  1.
        -12    1    3    3    0    0  0.18780150251E+02 -0.78225021253E+01 -0.23518752162E+02  0.31096901553E+02  0.00000000000E+00 0.  1.
</event>
<event>
 7    1  0.6830263E-012  0.5930191E+02  0.7816164E-02  0.1266605E+00
        -11   -1    0    0    0    0  0.00000000000E+00  0.00000000000E+00  0.45593999997E+02  0.45594000000E+02  0.51100000000E-03 0. -1.
         11   -1    0    0    0    0 -0.00000000000E+00 -0.00000000000E+00 -0.45593999997E+02  0.45594000000E+02  0.51100000000E-03 0.  1.
    9900012    2    1    2    0    0 -0.11748900822E+02 -0.29486520316E+02  0.30382947082E+01  0.59301909214E+02  0.49999936509E+02 0.  0.
        -12    1    1    2    0    0  0.11748900822E+02  0.29486520316E+02 -0.30382947082E+01  0.31886090786E+02  0.00000000000E+00 0.  1.
         11    1    3    3    0    0  0.37833551795E+01 -0.10110949567E+02 -0.73966505772E+01  0.13086463143E+02  0.51100000000E-03 0. -1.
        -11    1    3    3    0    0  0.12389317679E+02 -0.34122199484E+01  0.25716121354E+01  0.13105404487E+02  0.51100000000E-03 0.  1.
         12    1    3    3    0    0 -0.27921573680E+02 -0.15963350800E+02  0.78633331499E+01  0.33110041585E+02  0.00000000000E+00 0. -1.
</event>
<event>
 7    1  0.6830263E-012  0.5930195E+02  0.7816164E-02  0.1266605E+00
        -11   -1    0    0    0    0  0.00000000000E+00  0.00000000000E+00  0.45593999997E+02  0.45594000000E+02  0.51100000000E-03 0. -1.
         11   -1    0    0    0    0 -0.00000000000E+00 -0.00000000000E+00 -0.45593999997E+02  0.45594000000E+02  0.51100000000E-03 0.  1.
    9900012    2    1    2    0    0  0.20566713625E+02 -0.99032659632E+01 -0.22263334226E+02  0.59301946043E+02  0.50000003676E+02 0.  0.
        -12    1    1    2    0    0 -0.20566713625E+02  0.99032659632E+01  0.22263334226E+02  0.31886053957E+02  0.00000000000E+00 0.  1.
         11    1    3    3    0    0  0.14793426331E+02 -0.69073104186E+01 -0.56268281436E+01  0.17268977823E+02  0.51100000000E-03 0. -1.
        -11    1    3    3    0    0  0.17973155120E+02 -0.79069529166E+01 -0.20439389062E+02  0.28342950356E+02  0.51100000000E-03 0.  1.
         12    1    3    3    0    0 -0.12199867826E+02  0.49109973720E+01  0.38028829799E+01  0.13690017864E+02  0.00000000000E+00 0. -1.
</event>
<event>
 7    1  0.6830263E-012  0.5930195E+02  0.7816164E-02  0.1266605E+00
        -11   -1    0    0    0    0  0.00000000000E+00  0.00000000000E+00  0.45593999997E+02  0.45594000000E+02  0.51100000000E-03 0.  1.
         11   -1    0    0    0    0 -0.00000000000E+00 -0.00000000000E+00 -0.45593999997E+02  0.45594000000E+02  0.51100000000E-03 0. -1.
    9900012    2    1    2    0    0 -0.22892478210E+02  0.18786328328E+02 -0.11820689607E+02  0.59301946725E+02  0.50000004920E+02 0.  0.
        -12    1    1    2    0    0  0.22892478210E+02 -0.18786328328E+02  0.11820689607E+02  0.31886053275E+02  0.00000000000E+00 0.  1.
         11    1    3    3    0    0 -0.13127999265E+02  0.21641871114E+02 -0.53529211949E+01  0.25872161015E+02  0.51100000000E-03 0. -1.
        -11    1    3    3    0    0 -0.10292727819E+02  0.78229466901E+01 -0.14962713053E+02  0.19774264159E+02  0.51100000000E-03 0.  1.
        -12    1    3    3    0    0  0.52824887384E+00 -0.10678489476E+02  0.84949446413E+01  0.13655521551E+02  0.00000000000E+00 0.  1.
</event>
<event>
 7    1  0.6830263E-012  0.5930191E+02  0.7816164E-02  0.1266605E+00
        -11   -1    0    0    0    0  0.00000000000E+00  0.00000000000E+00  0.45593999997E+02  0.45594000000E+02  0.51100000000E-03 0. -1.
         11   -1    0    0    0    0 -0.00000000000E+00 -0.00000000000E+00 -0.45593999997E+02  0.45594000000E+02  0.51100000000E-03 0.  1.
    9900012    2    1    2    0    0  0.77534484944E+01  0.24994240294E+02  0.18217978988E+02  0.59301909461E+02  0.49999936958E+02 0.  0.
        -12    1    1    2    0    0 -0.77534484944E+01 -0.24994240294E+02 -0.18217978988E+02  0.31886090539E+02  0.00000000000E+00 0.  1.
         11    1    3    3    0    0  0.97187348654E+01  0.59575971652E+01  0.19018118983E+01  0.11556974523E+02  0.51100000000E-03 0. -1.
        -11    1    3    3    0    0 -0.65940266111E+01 -0.65925664880E+01 -0.78707801632E+01  0.12202143274E+02  0.51100000000E-03 0.  1.
         12    1    3    3    0    0  0.46287402401E+01  0.25629209617E+02  0.24186947253E+02  0.35542791664E+02  0.00000000000E+00 0. -1.
</event>
<event>
 7    1  0.6830263E-012  0.5930195E+02  0.7816164E-02  0.1266605E+00
        -11   -1    0    0    0    0  0.00000000000E+00  0.00000000000E+00  0.45593999997E+02  0.45594000000E+02  0.51100000000E-03 0.  1.
         11   -1    0    0    0    0 -0.00000000000E+00 -0.00000000000E+00 -0.45593999997E+02  0.45594000000E+02  0.51100000000E-03 0. -1.
    9900012    2    1    2    0    0 -0.27556548531E+02  0.14093009660E+02 -0.76644740500E+01  0.59301945828E+02  0.50000003283E+02 0.  0.
        -12    1    1    2    0    0  0.27556548531E+02 -0.14093009660E+02  0.76644740500E+01  0.31886054172E+02  0.00000000000E+00 0.  1.
         11    1    3    3    0    0 -0.81768087182E+01  0.16933097387E+02 -0.19585046377E+02  0.27150764811E+02  0.51100000000E-03 0. -1.
        -11    1    3    3    0    0  0.28449730113E+01 -0.66178860936E+01  0.41067033191E+01  0.82918815835E+01  0.51100000000E-03 0.  1.
        -12    1    3    3    0    0 -0.22224712824E+02  0.37777983659E+01  0.78138690082E+01  0.23859299434E+02  0.00000000000E+00 0.  1.
</event>
<event>
 7    1  0.6830263E-012  0.5930197E+02  0.7816164E-02  0.1266605E+00
        -11   -1    0    0    0    0  0.00000000000E+00  0.00000000000E+00  0.45593999997E+02  0.45594000000E+02  0.51100000000E-03 0.  1.
         11   -1    0    0    0    0 -0.00000000000E+00 -0.00000000000E+00 -0.45593999997E+02  0.45594000000E+02  0.51100000000E-03 0. -1.
    9900012    2    1    2    0    0  0.30325477565E+02  0.18175034363E+01  0.96840702977E+01  0.59301966603E+02  0.50000041171E+02 0.  0.
        -12    1    1    2    0    0 -0.30325477565E+02 -0.18175034363E+01 -0.96840702977E+01  0.31886033397E+02  0.00000000000E+00 0.  1.
         11    1    3    3    0    0  0.17254228634E+00  0.13564272836E+02  0.16916284182E+02  0.21683632980E+02  0.51100000000E-03 0. -1.
        -11    1    3    3    0    0  0.48838916207E+01 -0.63186448845E+01  0.45748337359E+01  0.92036283341E+01  0.51100000000E-03 0.  1.
         12    1    3    3    0    0  0.25269043658E+02 -0.54281245156E+01 -0.11807047620E+02  0.28414705289E+02  0.00000000000E+00 0. -1.
</event>
<event>
 7    1  0.6830263E-012  0.5930194E+02  0.7816164E-02  0.1266605E+00
        -11   -1    0    0    0    0  0.00000000000E+00  0.00000000000E+00  0.45593999997E+02  0.45594000000E+02  0.51100000000E-03 0. -1.
         11   -1    0    0    0    0 -0.00000000000E+00 -0.00000000000E+00 -0.45593999997E+02  0.45594000000E+02  0.51100000000E-03 0.  1.
    9900012    2    1    2    0    0  0.26011652960E+01 -0.27158565747E+02  0.16503542219E+02  0.59301942544E+02  0.49999997294E+02 0.  0.
        -12    1    1    2    0    0 -0.26011652960E+01  0.27158565747E+02 -0.16503542219E+02  0.31886057456E+02  0.00000000000E+00 0.  1.
         11    1    3    3    0    0 -0.12107805817E+02 -0.28927238862E+02  0.15996020026E+02  0.35203078939E+02  0.51100000000E-03 0. -1.
        -11    1    3    3    0    0 -0.29781792373E+01  0.47799281905E+01 -0.20135725598E+01  0.59809480678E+01  0.51100000000E-03 0.  1.
        -12    1    3    3    0    0  0.17687150350E+02 -0.30112550754E+01  0.25210947537E+01  0.18117915537E+02  0.00000000000E+00 0.  1.
</event>
<event>
 7    1  0.6830263E-012  0.5930195E+02  0.7816164E-02  0.1266605E+00
        -11   -1    0    0    0    0  0.00000000000E+00  0.00000000000E+00  0.45593999997E+02  0.45594000000E+02  0.51100000000E-03 0. -1.
         11   -1    0    0    0    0 -0.00000000000E+00 -0.00000000000E+00 -0.45593999997E+02  0.45594000000E+02  0.51100000000E-03 0.  1.
    9900012    2    1    2    0    0 -0.41919421597E+01 -0.24231063901E+02  0.20297870935E+02  0.59301946601E+02  0.50000004693E+02 0.  0.
        -12    1    1    2    0    0  0.41919421597E+01  0.24231063901E+02 -0.20297870935E+02  0.31886053399E+02  0.00000000000E+00 0.  1.
         11    1    3    3    0    0 -0.77049260294E+01 -0.72261116111E+00  0.19257730058E+02  0.20754474680E+02  0.51100000000E-03 0. -1.
        -11    1    3    3    0    0  0.80106183397E+01 -0.26936800984E+02  0.83392344574E+01  0.29313888944E+02  0.51100000000E-03 0.  1.
         12    1    3    3    0    0 -0.44976344700E+01  0.34283482443E+01 -0.72990935796E+01  0.92335829770E+01  0.00000000000E+00 0. -1.
</event>
<event>
 7    1  0.6830263E-012  0.5930212E+02  0.7816164E-02  0.1266604E+00
        -11   -1    0    0    0    0  0.00000000000E+00  0.00000000000E+00  0.45593999997E+02  0.45594000000E+02  0.51100000000E-03 0.  1.
         11   -1    0    0    0    0 -0.00000000000E+00 -0.00000000000E+00 -0.45593999997E+02  0.45594000000E+02  0.51100000000E-03 0. -1.
    9900012    2    1    2    0    0 -0.18149932501E+02 -0.41941221085E+01 -0.25878533581E+02  0.59302122086E+02  0.50000324735E+02 0.  0.
        -12    1    1    2    0    0  0.18149932501E+02  0.41941221085E+01  0.25878533581E+02  0.31885877914E+02  0.00000000000E+00 0.  1.
         11    1    3    3    0    0 -0.55248345821E+00  0.72404864273E+01 -0.81484895144E+01  0.10914566565E+02  0.51100000000E-03 0.  1.
        -11    1    3    3    0    0 -0.17135430859E+02 -0.12654074263E+02  0.79038871017E+01  0.22720475738E+02  0.51100000000E-03 0. -1.
         12    1    3    3    0    0 -0.46201818374E+00  0.12194657271E+01 -0.25633931168E+02  0.25667079783E+02  0.00000000000E+00 0. -1.
</event>
<event>
 7    1  0.6830263E-012  0.5930190E+02  0.7816164E-02  0.1266605E+00
        -11   -1    0    0    0    0  0.00000000000E+00  0.00000000000E+00  0.45593999997E+02  0.45594000000E+02  0.51100000000E-03 0.  1.
         11   -1    0    0    0    0 -0.00000000000E+00 -0.00000000000E+00 -0.45593999997E+02  0.45594000000E+02  0.51100000000E-03 0. -1.
    9900012    2    1    2    0    0 -0.86658016403E+01 -0.64536758331E+01 -0.29999621752E+02  0.59301900284E+02  0.49999920222E+02 0.  0.
        -12    1    1    2    0    0  0.86658016403E+01  0.64536758331E+01  0.29999621752E+02  0.31886099716E+02  0.00000000000E+00 0.  1.
         11    1    3    3    0    0 -0.62476691505E+01  0.12628030305E+02 -0.49594419050E+01  0.14936418027E+02  0.51100000000E-03 0. -1.
        -11    1    3    3    0    0  0.40962105330E+01  0.27518247115E+01 -0.20560815114E+02  0.21144706155E+02  0.51100000000E-03 0.  1.
        -12    1    3    3    0    0 -0.65143430228E+01 -0.21833530850E+02 -0.44793647337E+01  0.23220776102E+02  0.00000000000E+00 0.  1.
</event>
<event>
 7    1  0.6830263E-012  0.5930199E+02  0.7816164E-02  0.1266605E+00
        -11   -1    0    0    0    0  0.00000000000E+00  0.00000000000E+00  0.45593999997E+02  0.45594000000E+02  0.51100000000E-03 0. -1.
         11   -1    0    0    0    0 -0.00000000000E+00 -0.00000000000E+00 -0.45593999997E+02  0.45594000000E+02  0.51100000000E-03 0.  1.
    9900012    2    1    2    0    0 -0.31211322226E+02 -0.61296501354E+01  0.22356963298E+01  0.59301990780E+02  0.50000085266E+02 0.  0.
        -12    1    1    2    0    0  0.31211322226E+02  0.61296501354E+01 -0.22356963298E+01  0.31886009220E+02  0.00000000000E+00 0.  1.
         11    1    3    3    0    0 -0.10846767319E+02 -0.75424883133E+01  0.17507408476E+02  0.21932871290E+02  0.51100000000E-03 0. -1.
        -11    1    3    3    0    0 -0.16812235597E+01 -0.10589305177E+02 -0.56973304046E+00  0.10737061646E+02  0.51100000000E-03 0.  1.
        -12    1    3    3    0    0 -0.18683331348E+02  0.12002143355E+02 -0.14701979106E+02  0.26632057844E+02  0.00000000000E+00 0.  1.
</event>
<event>
 7    1  0.6830263E-012  0.5930206E+02  0.7816164E-02  0.1266604E+00
        -11   -1    0    0    0    0  0.00000000000E+00  0.00000000000E+00  0.45593999997E+02  0.45594000000E+02  0.51100000000E-03 0.  1.
         11   -1    0    0    0    0 -0.00000000000E+00 -0.00000000000E+00 -0.45593999997E+02  0.45594000000E+02  0.51100000000E-03 0. -1.
    9900012    2    1    2    0    0  0.42553917960E+01  0.31225245766E+02 -0.48568393163E+01  0.59302059201E+02  0.50000210047E+02 0.  0.
        -12    1    1    2    0    0 -0.42553917960E+01 -0.31225245766E+02  0.48568393163E+01  0.31885940799E+02  0.00000000000E+00 0.  1.
         11    1    3    3    0    0  0.49502012475E+01  0.16236941810E+02  0.13770999631E+02  0.21858252511E+02  0.51100000000E-03 0.  1.
        -11    1    3    3    0    0  0.30044128116E+01  0.23242639186E+02 -0.13409988902E+02  0.27001380989E+02  0.51100000000E-03 0. -1.
         12    1    3    3    0    0 -0.36992222631E+01 -0.82543352295E+01 -0.52178500454E+01  0.10442425701E+02  0.00000000000E+00 0. -1.
</event>
<event>
 7    1  0.6830263E-012  0.5930197E+02  0.7816164E-02  0.1266605E+00
        -11   -1    0    0    0    0  0.00000000000E+00  0.00000000000E+00  0.45593999997E+02  0.45594000000E+02  0.51100000000E-03 0.  1.
         11   -1    0    0    0    0 -0.00000000000E+00 -0.00000000000E+00 -0.45593999997E+02  0.45594000000E+02  0.51100000000E-03 0. -1.
    9900012    2    1    2    0    0 -0.27036871580E+02  0.10943116304E+02  0.12883120095E+02  0.59301968534E+02  0.50000044694E+02 0.  0.
        -12    1    1    2    0    0  0.27036871580E+02 -0.10943116304E+02 -0.12883120095E+02  0.31886031466E+02  0.00000000000E+00 0.  1.
         11    1    3    3    0    0 -0.56253377098E+01 -0.72654002707E+01  0.13893459105E+02  0.16657090730E+02  0.51100000000E-03 0. -1.
        -11    1    3    3    0    0  0.38306543544E+01  0.11096987270E+02  0.87720910093E+01  0.14654917952E+02  0.51100000000E-03 0.  1.
         12    1    3    3    0    0 -0.25242188225E+02  0.71115293047E+01 -0.97824300192E+01  0.27989959852E+02  0.00000000000E+00 0. -1.
</event>
<event>
 7    1  0.6830263E-012  0.5930195E+02  0.7816164E-02  0.1266605E+00
        -11   -1    0    0    0    0  0.00000000000E+00  0.00000000000E+00  0.45593999997E+02  0.45594000000E+02  0.51100000000E-03 0. -1.
         11   -1    0    0    0    0 -0.00000000000E+00 -0.00000000000E+00 -0.45593999997E+02  0.45594000000E+02  0.51100000000E-03 0.  1.
    9900012    2    1    2    0    0  0.73912189937E+01  0.26787308289E+02  0.15637455724E+02  0.59301952501E+02  0.50000015453E+02 0.  0.
        -12    1    1    2    0    0 -0.73912189937E+01 -0.26787308289E+02 -0.15637455724E+02  0.31886047499E+02  0.00000000000E+00 0.  1.
         11    1    3    3    0    0  0.60030884050E+01 -0.78477148551E+01  0.57693857115E+01  0.11441569411E+02  0.51100000000E-03 0. -1.
        -11    1    3    3    0    0  0.23207745540E+01 -0.30707323420E+01  0.93810019881E+01  0.10139950207E+02  0.51100000000E-03 0.  1.
        -12    1    3    3    0    0 -0.93264396524E+00  0.37705755486E+02  0.48706802451E+00  0.37720432882E+02  0.00000000000E+00 0.  1.
</event>
<event>
 7    1  0.6830263E-012  0.5930194E+02  0.7816164E-02  0.1266605E+00
        -11   -1    0    0    0    0  0.00000000000E+00  0.00000000000E+00  0.45593999997E+02  0.45594000000E+02  0.51100000000E-03 0.  1.
         11   -1    0    0    0    0 -0.00000000000E+00 -0.00000000000E+00 -0.45593999997E+02  0.45594000000E+02  0.51100000000E-03 0. -1.
    9900012    2    1    2    0    0  0.28219641867E+02 -0.12360757347E+02 -0.82209656326E+01  0.59301940582E+02  0.49999993716E+02 0.  0.
        -12    1    1    2    0    0 -0.28219641867E+02  0.12360757347E+02  0.82209656326E+01  0.31886059418E+02  0.00000000000E+00 0.  1.
         11    1    3    3    0    0  0.82349020071E+01 -0.19161991388E+02 -0.11456749703E+02  0.23796063520E+02  0.51100000000E-03 0. -1.
        -11    1    3    3    0    0  0.22930260875E+02  0.27260128776E+01 -0.69766797817E+01  0.24122646435E+02  0.51100000000E-03 0.  1.
         12    1    3    3    0    0 -0.29455210150E+01  0.40752211634E+01  0.10212463852E+02  0.11383230627E+02  0.00000000000E+00 0. -1.
</event>
<event>
 7    1  0.6830263E-012  0.5930193E+02  0.7816164E-02  0.1266605E+00
        -11   -1    0    0    0    0  0.00000000000E+00  0.00000000000E+00  0.45593999997E+02  0.45594000000E+02  0.51100000000E-03 0.  1.
         11   -1    0    0    0    0 -0.00000000000E+00 -0.00000000000E+00 -0.45593999997E+02  0.45594000000E+02  0.51100000000E-03 0. -1.
    9900012    2    1    2    0    0  0.81844404006E+01 -0.89159250014E+00 -0.30804888400E+02  0.59301934843E+02  0.49999983249E+02 0.  0.
        -12    1    1    2    0    0 -0.81844404006E+01  0.89159250014E+00  0.30804888400E+02  0.31886065157E+02  0.00000000000E+00 0.  1.
         11    1    3    3    0    0 -0.90000743028E+01 -0.82881986460E+01 -0.15380003001E+02  0.19652991295E+02  0.51100000000E-03 0. -1.
        -11    1    3    3    0    0 -0.48039973085E+01  0.11920079476E+02 -0.10665760153E+02  0.16701051606E+02  0.51100000000E-03 0.  1.
         12    1    3    3    0    0  0.21988512012E+02 -0.45234733300E+01 -0.47591252458E+01  0.22947891942E+02  0.00000000000E+00 0. -1.
</event>
<event>
 7    1  0.6830263E-012  0.5930199E+02  0.7816164E-02  0.1266605E+00
        -11   -1    0    0    0    0  0.00000000000E+00  0.00000000000E+00  0.45593999997E+02  0.45594000000E+02  0.51100000000E-03 0.  1.
         11   -1    0    0    0    0 -0.00000000000E+00 -0.00000000000E+00 -0.45593999997E+02  0.45594000000E+02  0.51100000000E-03 0. -1.
    9900012    2    1    2    0    0 -0.53677215579E+01  0.29506193618E+02 -0.10830030408E+02  0.59301992800E+02  0.50000088949E+02 0.  0.
        -12    1    1    2    0    0  0.53677215579E+01 -0.29506193618E+02  0.10830030408E+02  0.31886007200E+02  0.00000000000E+00 0.  1.
         11    1    3    3    0    0 -0.97688239192E+01  0.10989793239E+01 -0.43751048188E+01  0.10760075221E+02  0.51100000000E-03 0. -1.
        -11    1    3    3    0    0  0.82851889975E+01 -0.45363246118E-01  0.11870811139E+02  0.14476276175E+02  0.51100000000E-03 0.  1.
         12    1    3    3    0    0 -0.38840866362E+01  0.28452577540E+02 -0.18325736728E+02  0.34065641404E+02  0.00000000000E+00 0. -1.
</event>
<event>
 7    1  0.6830263E-012  0.5930195E+02  0.7816164E-02  0.1266605E+00
        -11   -1    0    0    0    0  0.00000000000E+00  0.00000000000E+00  0.45593999997E+02  0.45594000000E+02  0.51100000000E-03 0. -1.
         11   -1    0    0    0    0 -0.00000000000E+00 -0.00000000000E+00 -0.45593999997E+02  0.45594000000E+02  0.51100000000E-03 0.  1.
    9900012    2    1    2    0    0 -0.13685226572E+02  0.63770233359E+01  0.28085016816E+02  0.59301952542E+02  0.50000015528E+02 0.  0.
        -12    1    1    2    0    0  0.13685226572E+02 -0.63770233359E+01 -0.28085016816E+02  0.31886047458E+02  0.00000000000E+00 0.  1.
         11    1    3    3    0    0 -0.69699019133E+01  0.10490273176E+02  0.70380149263E+01  0.14427717018E+02  0.51100000000E-03 0. -1.
        -11    1    3    3    0    0 -0.48774219203E+01  0.17123125158E+02  0.13185039964E+02  0.22154817510E+02  0.51100000000E-03 0.  1.
         12    1    3    3    0    0 -0.18379027384E+01 -0.21236374999E+02  0.78619619257E+01  0.22719418014E+02  0.00000000000E+00 0. -1.
</event>
<event>
 7    1  0.6830263E-012  0.5930194E+02  0.7816164E-02  0.1266605E+00
        -11   -1    0    0    0    0  0.00000000000E+00  0.00000000000E+00  0.45593999997E+02  0.45594000000E+02  0.51100000000E-03 0. -1.
         11   -1    0    0    0    0 -0.00000000000E+00 -0.00000000000E+00 -0.45593999997E+02  0.45594000000E+02  0.51100000000E-03 0.  1.
    9900012    2    1    2    0    0  0.12640562588E+02 -0.28599781330E+02  0.62441519011E+01  0.59301941172E+02  0.49999994791E+02 0.  0.
        -12    1    1    2    0    0 -0.12640562588E+02  0.28599781330E+02 -0.62441519011E+01  0.31886058828E+02  0.00000000000E+00 0.  1.
         11    1    3    3    0    0 -0.20941511668E+01  0.34292523304E+01  0.64552923951E+01  0.76036860023E+01  0.51100000000E-03 0. -1.
        -11    1    3    3    0    0  0.27849266510E+01  0.21490405497E+01 -0.12870113783E+02  0.13342189505E+02  0.51100000000E-03 0.  1.
         12    1    3    3    0    0  0.11949787103E+02 -0.34178074210E+02  0.12658973289E+02  0.38356065664E+02  0.00000000000E+00 0. -1.
</event>
<event>
 7    1  0.6830263E-012  0.5930198E+02  0.7816164E-02  0.1266605E+00
        -11   -1    0    0    0    0  0.00000000000E+00  0.00000000000E+00  0.45593999997E+02  0.45594000000E+02  0.51100000000E-03 0.  1.
         11   -1    0    0    0    0 -0.00000000000E+00 -0.00000000000E+00 -0.45593999997E+02  0.45594000000E+02  0.51100000000E-03 0. -1.
    9900012    2    1    2    0    0  0.12400055820E+02 -0.28205329400E+02 -0.82107404660E+01  0.59301980337E+02  0.50000066220E+02 0.  0.
        -12    1    1    2    0    0 -0.12400055820E+02  0.28205329400E+02  0.82107404660E+01  0.31886019663E+02  0.00000000000E+00 0.  1.
         11    1    3    3    0    0  0.11463999130E+02 -0.16550308102E+02 -0.65333387219E+01  0.21166494501E+02  0.51100000000E-03 0. -1.
        -11    1    3    3    0    0  0.89838732700E+01  0.26063346411E+01 -0.14555951642E+02  0.17302563037E+02  0.51100000000E-03 0.  1.
        -12    1    3    3    0    0 -0.80478165794E+01 -0.14261355939E+02  0.12878549898E+02  0.20832922800E+02  0.00000000000E+00 0.  1.
</event>
<event>
 7    1  0.6830263E-012  0.5930193E+02  0.7816164E-02  0.1266605E+00
        -11   -1    0    0    0    0  0.00000000000E+00  0.00000000000E+00  0.45593999997E+02  0.45594000000E+02  0.51100000000E-03 0.  1.
         11   -1    0    0    0    0 -0.00000000000E+00 -0.00000000000E+00 -0.45593999997E+02  0.45594000000E+02  0.51100000000E-03 0. -1.
    9900012    2    1    2    0    0  0.75271244480E+01 -0.30877420481E+02 -0.25785494895E+01  0.59301927562E+02  0.49999969971E+02 0.  0.
        -12    1    1    2    0    0 -0.75271244480E+01  0.30877420481E+02  0.25785494895E+01  0.31886072438E+02  0.00000000000E+00 0.  1.
         11    1    3    3    0    0  0.91289758695E+01 -0.38982343770E+01 -0.79628056630E+01  0.12725592559E+02  0.51100000000E-03 0.  1.
        -11    1    3    3    0    0 -0.80107912452E+01  0.18340552766E+01  0.13641552483E+02  0.15925717866E+02  0.51100000000E-03 0. -1.
         12    1    3    3    0    0  0.64089398237E+01 -0.28813241381E+02 -0.82572963100E+01  0.30650617137E+02  0.00000000000E+00 0. -1.
</event>
<event>
 7    1  0.6830263E-012  0.5930193E+02  0.7816164E-02  0.1266605E+00
        -11   -1    0    0    0    0  0.00000000000E+00  0.00000000000E+00  0.45593999997E+02  0.45594000000E+02  0.51100000000E-03 0.  1.
         11   -1    0    0    0    0 -0.00000000000E+00 -0.00000000000E+00 -0.45593999997E+02  0.45594000000E+02  0.51100000000E-03 0. -1.
    9900012    2    1    2    0    0 -0.72209131222E+01 -0.22835538623E+02 -0.21050368406E+02  0.59301930619E+02  0.49999975546E+02 0.  0.
        -12    1    1    2    0    0  0.72209131222E+01  0.22835538623E+02  0.21050368406E+02  0.31886069381E+02  0.00000000000E+00 0.  1.
         11    1    3    3    0    0  0.79666080233E+01 -0.61068235928E+01  0.29881046715E+01  0.10473247232E+02  0.51100000000E-03 0.  1.
        -11    1    3    3    0    0  0.11368218545E+02 -0.39685248928E+01 -0.24100108535E+01  0.12279810067E+02  0.51100000000E-03 0. -1.
         12    1    3    3    0    0 -0.26555739690E+02 -0.12760190137E+02 -0.21628462224E+02  0.36548873321E+02  0.00000000000E+00 0. -1.
</event>
<event>
 7    1  0.6830263E-012  0.5930193E+02  0.7816164E-02  0.1266605E+00
        -11   -1    0    0    0    0  0.00000000000E+00  0.00000000000E+00  0.45593999997E+02  0.45594000000E+02  0.51100000000E-03 0.  1.
         11   -1    0    0    0    0 -0.00000000000E+00 -0.00000000000E+00 -0.45593999997E+02  0.45594000000E+02  0.51100000000E-03 0. -1.
    9900012    2    1    2    0    0 -0.23277744830E+02 -0.10480565754E+01 -0.21766242761E+02  0.59301934848E+02  0.49999983259E+02 0.  0.
        -12    1    1    2    0    0  0.23277744830E+02  0.10480565754E+01  0.21766242761E+02  0.31886065152E+02  0.00000000000E+00 0.  1.
         11    1    3    3    0    0 -0.34091385962E+01 -0.14813679031E+02  0.71643828992E+00  0.15217772389E+02  0.51100000000E-03 0. -1.
        -11    1    3    3    0    0 -0.18715044087E+02  0.24167498055E+01 -0.26018690581E+02  0.32141341207E+02  0.51100000000E-03 0.  1.
        -12    1    3    3    0    0 -0.11535621463E+01  0.11348872650E+02  0.35360095300E+01  0.11942821252E+02  0.00000000000E+00 0.  1.
</event>
<event>
 7    1  0.6830263E-012  0.5930191E+02  0.7816164E-02  0.1266605E+00
        -11   -1    0    0    0    0  0.00000000000E+00  0.00000000000E+00  0.45593999997E+02  0.45594000000E+02  0.51100000000E-03 0. -1.
         11   -1    0    0    0    0 -0.00000000000E+00 -0.00000000000E+00 -0.45593999997E+02  0.45594000000E+02  0.51100000000E-03 0.  1.
    9900012    2    1    2    0    0  0.26072799946E+02 -0.10549888883E+02  0.15021045554E+02  0.59301908016E+02  0.49999934324E+02 0.  0.
        -12    1    1    2    0    0 -0.26072799946E+02  0.10549888883E+02 -0.15021045554E+02  0.31886091984E+02  0.00000000000E+00 0.  1.
         11    1    3    3    0    0  0.66633642515E+00  0.56160882274E+01  0.20950174464E+02  0.21700098192E+02  0.51100000000E-03 0. -1.
        -11    1    3    3    0    0  0.25048748317E+01  0.55582450365E+00  0.62379740816E+01  0.67450470499E+01  0.51100000000E-03 0.  1.
        -12    1    3    3    0    0  0.22901588689E+02 -0.16721801614E+02 -0.12167102992E+02  0.30856762774E+02  0.00000000000E+00 0.  1.
</event>
<event>
 7    1  0.6830263E-012  0.5930195E+02  0.7816164E-02  0.1266605E+00
        -11   -1    0    0    0    0  0.00000000000E+00  0.00000000000E+00  0.45593999997E+02  0.45594000000E+02  0.51100000000E-03 0. -1.
         11   -1    0    0    0    0 -0.00000000000E+00 -0.00000000000E+00 -0.45593999997E+02  0.45594000000E+02  0.51100000000E-03 0.  1.
    9900012    2    1    2    0    0  0.27881527191E+02 -0.15707910624E+01  0.15390691734E+02  0.59301947640E+02  0.50000006588E+02 0.  0.
        -12    1    1    2    0    0 -0.27881527191E+02  0.15707910624E+01 -0.15390691734E+02  0.31886052360E+02  0.00000000000E+00 0.  1.
         11    1    3    3    0    0  0.24737103526E+02  0.18198039222E+02  0.74937972278E+01  0.31610914563E+02  0.51100000000E-03 0. -1.
        -11    1    3    3    0    0  0.34866017488E+01  0.24793661616E+01  0.96908757560E+00  0.43866592423E+01  0.51100000000E-03 0.  1.
        -12    1    3    3    0    0 -0.34217808374E+00 -0.22248196446E+02  0.69278069303E+01  0.23304373834E+02  0.00000000000E+00 0.  1.
</event>
<event>
 7    1  0.6830263E-012  0.5930195E+02  0.7816164E-02  0.1266605E+00
        -11   -1    0    0    0    0  0.00000000000E+00  0.00000000000E+00  0.45593999997E+02  0.45594000000E+02  0.51100000000E-03 0.  1.
         11   -1    0    0    0    0 -0.00000000000E+00 -0.00000000000E+00 -0.45593999997E+02  0.45594000000E+02  0.51100000000E-03 0. -1.
    9900012    2    1    2    0    0  0.29551745427E+02 -0.11753547779E+02  0.22953949724E+01  0.59301946916E+02  0.50000005268E+02 0.  0.
        -12    1    1    2    0    0 -0.29551745427E+02  0.11753547779E+02 -0.22953949724E+01  0.31886053084E+02  0.00000000000E+00 0.  1.
         11    1    3    3    0    0  0.39725801133E+01  0.30204646984E+01 -0.74114519773E+01  0.89349997439E+01  0.51100000000E-03 0. -1.
        -11    1    3    3    0    0 -0.99383653564E+01  0.36490911729E+00  0.59166804614E+01  0.11572008147E+02  0.51100000000E-03 0.  1.
         12    1    3    3    0    0  0.35517530670E+02 -0.15138921595E+02  0.37901664882E+01  0.38794939025E+02  0.00000000000E+00 0. -1.
</event>
<event>
 7    1  0.8817781E-012  0.5930192E+02  0.7816164E-02  0.1266605E+00
        -11   -1    0    0    0    0  0.00000000000E+00  0.00000000000E+00  0.45593999997E+02  0.45594000000E+02  0.51100000000E-03 0. -1.
         11   -1    0    0    0    0 -0.00000000000E+00 -0.00000000000E+00 -0.45593999997E+02  0.45594000000E+02  0.51100000000E-03 0.  1.
    9900012    2    1    2    0    0  0.47989773466E+00 -0.13787633819E+02  0.28747050564E+02  0.59301920525E+02  0.49999957136E+02 0.  0.
        -12    1    1    2    0    0 -0.47989773466E+00  0.13787633819E+02 -0.28747050564E+02  0.31886079475E+02  0.00000000000E+00 0.  1.
         11    1    3    3    0    0  0.57399544289E+00  0.59806701146E+01  0.11867113301E+01  0.61242281007E+01  0.51100000000E-03 0. -1.
        -11    1    3    3    0    0 -0.51572648656E+01  0.51504423446E+01 -0.71100243653E+01  0.10182184637E+02  0.51100000000E-03 0.  1.
         12    1    3    3    0    0  0.50631671574E+01 -0.24918746278E+02  0.34670363600E+02  0.42995507787E+02  0.00000000000E+00 0. -1.
</event>
<event>
 7    1  0.6830263E-012  0.5930193E+02  0.7816164E-02  0.1266605E+00
        -11   -1    0    0    0    0  0.00000000000E+00  0.00000000000E+00  0.45593999997E+02  0.45594000000E+02  0.51100000000E-03 0. -1.
         11   -1    0    0    0    0 -0.00000000000E+00 -0.00000000000E+00 -0.45593999997E+02  0.45594000000E+02  0.51100000000E-03 0.  1.
    9900012    2    1    2    0    0 -0.23255441642E+02  0.19905123667E+02  0.89270492350E+01  0.59301925889E+02  0.49999966919E+02 0.  0.
        -12    1    1    2    0    0  0.23255441642E+02 -0.19905123667E+02 -0.89270492350E+01  0.31886074111E+02  0.00000000000E+00 0.  1.
         11    1    3    3    0    0 -0.58595779896E+01 -0.45644595484E+01 -0.36751747226E+01  0.82870896392E+01  0.51100000000E-03 0. -1.
        -11    1    3    3    0    0  0.10661153726E+02  0.29584425974E+01 -0.42465648989E+01  0.11850987093E+02  0.51100000000E-03 0.  1.
         12    1    3    3    0    0 -0.28057017378E+02  0.21511140618E+02  0.16848788857E+02  0.39163849157E+02  0.00000000000E+00 0. -1.
</event>
<event>
 7    1  0.6830263E-012  0.5930196E+02  0.7816164E-02  0.1266605E+00
        -11   -1    0    0    0    0  0.00000000000E+00  0.00000000000E+00  0.45593999997E+02  0.45594000000E+02  0.51100000000E-03 0.  1.
         11   -1    0    0    0    0 -0.00000000000E+00 -0.00000000000E+00 -0.45593999997E+02  0.45594000000E+02  0.51100000000E-03 0. -1.
    9900012    2    1    2    0    0 -0.15052832256E+02 -0.25265223989E+01 -0.27995510087E+02  0.59301958235E+02  0.50000025911E+02 0.  0.
        -12    1    1    2    0    0  0.15052832256E+02  0.25265223989E+01  0.27995510087E+02  0.31886041765E+02  0.00000000000E+00 0.  1.
         11    1    3    3    0    0 -0.19602783899E+01 -0.12119591104E+02 -0.24575339448E+02  0.27471339413E+02  0.51100000000E-03 0. -1.
        -11    1    3    3    0    0 -0.15226422782E+02 -0.49289625389E+01  0.21153634978E+01  0.16143524567E+02  0.51100000000E-03 0.  1.
        -12    1    3    3    0    0  0.21338689157E+01  0.14522031244E+02 -0.55355341372E+01  0.15687094256E+02  0.00000000000E+00 0.  1.
</event>
<event>
 7    1  0.6830263E-012  0.5930193E+02  0.7816164E-02  0.1266605E+00
        -11   -1    0    0    0    0  0.00000000000E+00  0.00000000000E+00  0.45593999997E+02  0.45594000000E+02  0.51100000000E-03 0. -1.
         11   -1    0    0    0    0 -0.00000000000E+00 -0.00000000000E+00 -0.45593999997E+02  0.45594000000E+02  0.51100000000E-03 0.  1.
    9900012    2    1    2    0    0  0.15065674174E+02  0.28091638722E+02 -0.77888827618E+00  0.59301931391E+02  0.49999976953E+02 0.  0.
        -12    1    1    2    0    0 -0.15065674174E+02 -0.28091638722E+02  0.77888827618E+00  0.31886068609E+02  0.00000000000E+00 0.  1.
         11    1    3    3    0    0 -0.11412940492E+02  0.25217562735E+02 -0.10049956157E+02  0.29447959182E+02  0.51100000000E-03 0.  1.
        -11    1    3    3    0    0  0.28667966851E+01  0.30247151509E+01  0.37467126066E+01  0.56040414520E+01  0.51100000000E-03 0. -1.
        -12    1    3    3    0    0  0.23611817981E+02 -0.15063916399E+00  0.55243552745E+01  0.24249930757E+02  0.00000000000E+00 0.  1.
</event>
<event>
 7    1  0.6830263E-012  0.5930195E+02  0.7816164E-02  0.1266605E+00
        -11   -1    0    0    0    0  0.00000000000E+00  0.00000000000E+00  0.45593999997E+02  0.45594000000E+02  0.51100000000E-03 0.  1.
         11   -1    0    0    0    0 -0.00000000000E+00 -0.00000000000E+00 -0.45593999997E+02  0.45594000000E+02  0.51100000000E-03 0. -1.
    9900012    2    1    2    0    0 -0.13934167863E+02 -0.19034053120E+02 -0.21453770444E+02  0.59301945392E+02  0.50000002489E+02 0.  0.
        -12    1    1    2    0    0  0.13934167863E+02  0.19034053120E+02  0.21453770444E+02  0.31886054608E+02  0.00000000000E+00 0.  1.
         11    1    3    3    0    0 -0.76008200792E+01  0.82102291900E+01 -0.31909244317E+01  0.11634531715E+02  0.51100000000E-03 0. -1.
        -11    1    3    3    0    0 -0.51631514436E+01  0.73872392066E+01 -0.63518804999E+01  0.11026142665E+02  0.51100000000E-03 0.  1.
        -12    1    3    3    0    0 -0.11701963400E+01 -0.34631521516E+02 -0.11910965512E+02  0.36641271013E+02  0.00000000000E+00 0.  1.
</event>
<event>
 7    1  0.6830263E-012  0.5930194E+02  0.7816164E-02  0.1266605E+00
        -11   -1    0    0    0    0  0.00000000000E+00  0.00000000000E+00  0.45593999997E+02  0.45594000000E+02  0.51100000000E-03 0.  1.
         11   -1    0    0    0    0 -0.00000000000E+00 -0.00000000000E+00 -0.45593999997E+02  0.45594000000E+02  0.51100000000E-03 0. -1.
    9900012    2    1    2    0    0  0.27179462000E+01 -0.26750859421E+02 -0.17138401766E+02  0.59301944640E+02  0.50000001117E+02 0.  0.
        -12    1    1    2    0    0 -0.27179462000E+01  0.26750859421E+02  0.17138401766E+02  0.31886055360E+02  0.00000000000E+00 0.  1.
         11    1    3    3    0    0  0.34605787424E+01 -0.34780853451E+02 -0.22201626634E+01  0.35023028060E+02  0.51100000000E-03 0. -1.
        -11    1    3    3    0    0 -0.23625308433E+01  0.69092126860E+01  0.17385256187E+01  0.75060804361E+01  0.51100000000E-03 0.  1.
        -12    1    3    3    0    0  0.16198983009E+01  0.11207813442E+01 -0.16656764721E+02  0.16772836144E+02  0.00000000000E+00 0.  1.
</event>
<event>
 7    1  0.6830263E-012  0.5930196E+02  0.7816164E-02  0.1266605E+00
        -11   -1    0    0    0    0  0.00000000000E+00  0.00000000000E+00  0.45593999997E+02  0.45594000000E+02  0.51100000000E-03 0. -1.
         11   -1    0    0    0    0 -0.00000000000E+00 -0.00000000000E+00 -0.45593999997E+02  0.45594000000E+02  0.51100000000E-03 0.  1.
    9900012    2    1    2    0    0 -0.84758637392E+01 -0.22125807154E+02 -0.21338419759E+02  0.59301956562E+02  0.50000022860E+02 0.  0.
        -12    1    1    2    0    0  0.84758637392E+01  0.22125807154E+02  0.21338419759E+02  0.31886043438E+02  0.00000000000E+00 0.  1.
         11    1    3    3    0    0 -0.10210788856E+02  0.38336889788E+01 -0.65752269120E+01  0.12735422625E+02  0.51100000000E-03 0. -1.
        -11    1    3    3    0    0 -0.45767110766E+01  0.75849634264E+01 -0.76398177466E+01  0.11698066931E+02  0.51100000000E-03 0.  1.
         12    1    3    3    0    0  0.63116361932E+01 -0.33544459559E+02 -0.71233751003E+01  0.34868467006E+02  0.00000000000E+00 0. -1.
</event>
<event>
 7    1  0.6830263E-012  0.5930195E+02  0.7816164E-02  0.1266605E+00
        -11   -1    0    0    0    0  0.00000000000E+00  0.00000000000E+00  0.45593999997E+02  0.45594000000E+02  0.51100000000E-03 0.  1.
         11   -1    0    0    0    0 -0.00000000000E+00 -0.00000000000E+00 -0.45593999997E+02  0.45594000000E+02  0.51100000000E-03 0. -1.
    9900012    2    1    2    0    0  0.22765989584E+02  0.59367605701E+01 -0.21521730817E+02  0.59301948110E+02  0.50000007445E+02 0.  0.
        -12    1    1    2    0    0 -0.22765989584E+02 -0.59367605701E+01  0.21521730817E+02  0.31886051890E+02  0.00000000000E+00 0.  1.
         11    1    3    3    0    0 -0.31050959896E+00 -0.33511404470E+01 -0.11400182538E+02  0.11886577332E+02  0.51100000000E-03 0. -1.
        -11    1    3    3    0    0 -0.87501248359E+01  0.74176761169E+01 -0.10471581501E+02  0.15531922708E+02  0.51100000000E-03 0.  1.
        -12    1    3    3    0    0  0.31826624018E+02  0.18702249002E+01  0.35003322160E+00  0.31883448070E+02  0.00000000000E+00 0.  1.
</event>
<event>
 7    1  0.6830263E-012  0.5930196E+02  0.7816164E-02  0.1266605E+00
        -11   -1    0    0    0    0  0.00000000000E+00  0.00000000000E+00  0.45593999997E+02  0.45594000000E+02  0.51100000000E-03 0.  1.
         11   -1    0    0    0    0 -0.00000000000E+00 -0.00000000000E+00 -0.45593999997E+02  0.45594000000E+02  0.51100000000E-03 0. -1.
    9900012    2    1    2    0    0 -0.29595947097E+02 -0.64247028756E+01 -0.99760913462E+01  0.59301964025E+02  0.50000036471E+02 0.  0.
        -12    1    1    2    0    0  0.29595947097E+02  0.64247028756E+01  0.99760913462E+01  0.31886035975E+02  0.00000000000E+00 0.  1.
         11    1    3    3    0    0 -0.19749124892E+02  0.93916802319E+01 -0.13554320242E+02  0.25728412097E+02  0.51100000000E-03 0. -1.
        -11    1    3    3    0    0  0.43205872567E+01 -0.85050025409E+01 -0.91155587559E+01  0.13194542590E+02  0.51100000000E-03 0.  1.
         12    1    3    3    0    0 -0.14167409462E+02 -0.73113805666E+01  0.12693787651E+02  0.20379009338E+02  0.00000000000E+00 0. -1.
</event>
<event>
 7    1  0.6830263E-012  0.5930193E+02  0.7816164E-02  0.1266605E+00
        -11   -1    0    0    0    0  0.00000000000E+00  0.00000000000E+00  0.45593999997E+02  0.45594000000E+02  0.51100000000E-03 0.  1.
         11   -1    0    0    0    0 -0.00000000000E+00 -0.00000000000E+00 -0.45593999997E+02  0.45594000000E+02  0.51100000000E-03 0. -1.
    9900012    2    1    2    0    0  0.22199063088E+01  0.29667559881E+02 -0.11472986615E+02  0.59301929135E+02  0.49999972840E+02 0.  0.
        -12    1    1    2    0    0 -0.22199063088E+01 -0.29667559881E+02  0.11472986615E+02  0.31886070865E+02  0.00000000000E+00 0.  1.
         11    1    3    3    0    0  0.21848365113E+01  0.11344036143E+02 -0.10186430204E+02  0.15402078664E+02  0.51100000000E-03 0. -1.
        -11    1    3    3    0    0  0.16719646352E+02  0.66579044911E+01  0.10034998885E+02  0.20605229172E+02  0.51100000000E-03 0.  1.
         12    1    3    3    0    0 -0.16684576554E+02  0.11665619247E+02 -0.11321555295E+02  0.23294621300E+02  0.00000000000E+00 0. -1.
</event>
<event>
 7    1  0.6830263E-012  0.5930193E+02  0.7816164E-02  0.1266605E+00
        -11   -1    0    0    0    0  0.00000000000E+00  0.00000000000E+00  0.45593999997E+02  0.45594000000E+02  0.51100000000E-03 0.  1.
         11   -1    0    0    0    0 -0.00000000000E+00 -0.00000000000E+00 -0.45593999997E+02  0.45594000000E+02  0.51100000000E-03 0. -1.
    9900012    2    1    2    0    0 -0.18621826524E+02 -0.68912361843E+01 -0.24949149284E+02  0.59301927661E+02  0.49999970151E+02 0.  0.
        -12    1    1    2    0    0  0.18621826524E+02  0.68912361843E+01  0.24949149284E+02  0.31886072339E+02  0.00000000000E+00 0.  1.
         11    1    3    3    0    0  0.37409484357E+00 -0.19398090068E+02 -0.18737822058E+02  0.26972797797E+02  0.51100000000E-03 0. -1.
        -11    1    3    3    0    0 -0.67397987966E+01  0.57169792042E+01 -0.13805568629E+02  0.16392146426E+02  0.51100000000E-03 0.  1.
        -12    1    3    3    0    0 -0.12256122570E+02  0.67898746795E+01  0.75942414026E+01  0.15936983438E+02  0.00000000000E+00 0.  1.
</event>
<event>
 7    1  0.6830263E-012  0.5930196E+02  0.7816164E-02  0.1266605E+00
        -11   -1    0    0    0    0  0.00000000000E+00  0.00000000000E+00  0.45593999997E+02  0.45594000000E+02  0.51100000000E-03 0. -1.
         11   -1    0    0    0    0 -0.00000000000E+00 -0.00000000000E+00 -0.45593999997E+02  0.45594000000E+02  0.51100000000E-03 0.  1.
    9900012    2    1    2    0    0  0.30992212859E+02  0.67783561030E+01 -0.32025446055E+01  0.59301958206E+02  0.50000025857E+02 0.  0.
        -12    1    1    2    0    0 -0.30992212859E+02 -0.67783561030E+01  0.32025446055E+01  0.31886041794E+02  0.00000000000E+00 0.  1.
         11    1    3    3    0    0  0.59265251985E+01 -0.25771294909E+01 -0.64986605023E+01  0.91650360571E+01  0.51100000000E-03 0.  1.
        -11    1    3    3    0    0  0.21319541446E+02  0.25187726867E+02  0.62928918278E+01  0.33593822646E+02  0.51100000000E-03 0. -1.
         12    1    3    3    0    0  0.37461462150E+01 -0.15832241273E+02 -0.29967759310E+01  0.16543099503E+02  0.00000000000E+00 0. -1.
</event>
<event>
 7    1  0.6830263E-012  0.5930184E+02  0.7816164E-02  0.1266605E+00
        -11   -1    0    0    0    0  0.00000000000E+00  0.00000000000E+00  0.45593999997E+02  0.45594000000E+02  0.51100000000E-03 0. -1.
         11   -1    0    0    0    0 -0.00000000000E+00 -0.00000000000E+00 -0.45593999997E+02  0.45594000000E+02  0.51100000000E-03 0.  1.
    9900012    2    1    2    0    0 -0.23719841318E+02 -0.21309045345E+02 -0.14465117827E+00  0.59301839842E+02  0.49999809989E+02 0.  0.
        -12    1    1    2    0    0  0.23719841318E+02  0.21309045345E+02  0.14465117827E+00  0.31886160158E+02  0.00000000000E+00 0.  1.
         11    1    3    3    0    0 -0.40512088584E+01 -0.79123718363E+01  0.26281826102E+01  0.92695881992E+01  0.51100000000E-03 0. -1.
        -11    1    3    3    0    0 -0.88338208635E+01 -0.16589442529E+02  0.18230718955E+02  0.26184062106E+02  0.51100000000E-03 0.  1.
        -12    1    3    3    0    0 -0.10834811596E+02  0.31927690205E+01 -0.21003552743E+02  0.23848189537E+02  0.00000000000E+00 0.  1.
</event>
<event>
 7    1  0.6830263E-012  0.5930194E+02  0.7816164E-02  0.1266605E+00
        -11   -1    0    0    0    0  0.00000000000E+00  0.00000000000E+00  0.45593999997E+02  0.45594000000E+02  0.51100000000E-03 0.  1.
         11   -1    0    0    0    0 -0.00000000000E+00 -0.00000000000E+00 -0.45593999997E+02  0.45594000000E+02  0.51100000000E-03 0. -1.
    9900012    2    1    2    0    0  0.10456044220E+02  0.15983388210E+02 -0.25532792501E+02  0.59301936394E+02  0.49999986077E+02 0.  0.
        -12    1    1    2    0    0 -0.10456044220E+02 -0.15983388210E+02  0.25532792501E+02  0.31886063606E+02  0.00000000000E+00 0.  1.
         11    1    3    3    0    0 -0.12264620918E+02  0.21600184879E+02 -0.10746388891E+02  0.27064252946E+02  0.51100000000E-03 0. -1.
        -11    1    3    3    0    0  0.62550786659E+01 -0.55279954307E+00  0.34388475901E+01  0.71594182348E+01  0.51100000000E-03 0.  1.
        -12    1    3    3    0    0  0.16465586472E+02 -0.50639971262E+01 -0.18225251201E+02  0.25078265213E+02  0.00000000000E+00 0.  1.
</event>
<event>
 7    1  0.6830263E-012  0.5930193E+02  0.7816164E-02  0.1266605E+00
        -11   -1    0    0    0    0  0.00000000000E+00  0.00000000000E+00  0.45593999997E+02  0.45594000000E+02  0.51100000000E-03 0. -1.
         11   -1    0    0    0    0 -0.00000000000E+00 -0.00000000000E+00 -0.45593999997E+02  0.45594000000E+02  0.51100000000E-03 0.  1.
    9900012    2    1    2    0    0 -0.20063267733E+02 -0.22795558452E+02  0.97236508435E+01  0.59301928072E+02  0.49999970901E+02 0.  0.
        -12    1    1    2    0    0  0.20063267733E+02  0.22795558452E+02 -0.97236508435E+01  0.31886071928E+02  0.00000000000E+00 0.  1.
         11    1    3    3    0    0 -0.10617260039E+02 -0.11013831548E+02  0.79744072911E+01  0.17251720726E+02  0.51100000000E-03 0. -1.
        -11    1    3    3    0    0 -0.19458372731E+02 -0.19390747510E+02  0.71162139563E+01  0.28377277172E+02  0.51100000000E-03 0.  1.
        -12    1    3    3    0    0  0.10012365038E+02  0.76090206062E+01 -0.53669704038E+01  0.13672930174E+02  0.00000000000E+00 0.  1.
</event>
<event>
 7    1  0.6830263E-012  0.5930199E+02  0.7816164E-02  0.1266605E+00
        -11   -1    0    0    0    0  0.00000000000E+00  0.00000000000E+00  0.45593999997E+02  0.45594000000E+02  0.51100000000E-03 0.  1.
         11   -1    0    0    0    0 -0.00000000000E+00 -0.00000000000E+00 -0.45593999997E+02  0.45594000000E+02  0.51100000000E-03 0. -1.
    9900012    2    1    2    0    0  0.83596931650E+01  0.20171237141E+02 -0.23236922638E+02  0.59301986588E+02  0.50000077620E+02 0.  0.
        -12    1    1    2    0    0 -0.83596931650E+01 -0.20171237141E+02  0.23236922638E+02  0.31886013412E+02  0.00000000000E+00 0.  1.
         11    1    3    3    0    0 -0.45261834225E+01  0.59432520588E+01 -0.15082382015E+02  0.16831126787E+02  0.51100000000E-03 0. -1.
        -11    1    3    3    0    0 -0.21794681260E+00 -0.27301185380E+01 -0.18480214140E+02  0.18682059923E+02  0.51100000000E-03 0.  1.
        -12    1    3    3    0    0  0.13103823400E+02  0.16958103620E+02  0.10325673517E+02  0.23788799879E+02  0.00000000000E+00 0.  1.
</event>
<event>
 7    1  0.6830263E-012  0.5930196E+02  0.7816164E-02  0.1266605E+00
        -11   -1    0    0    0    0  0.00000000000E+00  0.00000000000E+00  0.45593999997E+02  0.45594000000E+02  0.51100000000E-03 0.  1.
         11   -1    0    0    0    0 -0.00000000000E+00 -0.00000000000E+00 -0.45593999997E+02  0.45594000000E+02  0.51100000000E-03 0. -1.
    9900012    2    1    2    0    0 -0.26217071099E+02  0.95654281249E+01 -0.15423595188E+02  0.59301960410E+02  0.50000029877E+02 0.  0.
        -12    1    1    2    0    0  0.26217071099E+02 -0.95654281249E+01  0.15423595188E+02  0.31886039590E+02  0.00000000000E+00 0.  1.
         11    1    3    3    0    0  0.19946689606E+01 -0.35571887114E+01 -0.33085397652E+01  0.52515456230E+01  0.51100000000E-03 0. -1.
        -11    1    3    3    0    0 -0.36497590879E+01 -0.34564345514E+01 -0.22188968808E+02  0.22751220148E+02  0.51100000000E-03 0.  1.
        -12    1    3    3    0    0 -0.24561980972E+02  0.16579051388E+02  0.10073913385E+02  0.31299194639E+02  0.00000000000E+00 0.  1.
</event>
<event>
 7    1  0.6830263E-012  0.5930168E+02  0.7816164E-02  0.1266606E+00
        -11   -1    0    0    0    0  0.00000000000E+00  0.00000000000E+00  0.45593999997E+02  0.45594000000E+02  0.51100000000E-03 0. -1.
         11   -1    0    0    0    0 -0.00000000000E+00 -0.00000000000E+00 -0.45593999997E+02  0.45594000000E+02  0.51100000000E-03 0.  1.
    9900012    2    1    2    0    0  0.28102865263E+02 -0.13416880843E+02 -0.68522571419E+01  0.59301683884E+02  0.49999525557E+02 0.  0.
        -12    1    1    2    0    0 -0.28102865263E+02  0.13416880843E+02  0.68522571419E+01  0.31886316116E+02  0.00000000000E+00 0.  1.
         11    1    3    3    0    0  0.10566271491E+02  0.14909398060E+02  0.18040637727E+01  0.18362758238E+02  0.51100000000E-03 0. -1.
        -11    1    3    3    0    0 -0.38486482432E+00  0.18673897972E+01  0.33303309938E+01  0.38374953260E+01  0.51100000000E-03 0.  1.
        -12    1    3    3    0    0  0.17921458597E+02 -0.30193668700E+02 -0.11986651908E+02  0.37101430320E+02  0.00000000000E+00 0.  1.
</event>
<event>
 7    1  0.6830263E-012  0.5930194E+02  0.7816164E-02  0.1266605E+00
        -11   -1    0    0    0    0  0.00000000000E+00  0.00000000000E+00  0.45593999997E+02  0.45594000000E+02  0.51100000000E-03 0. -1.
         11   -1    0    0    0    0 -0.00000000000E+00 -0.00000000000E+00 -0.45593999997E+02  0.45594000000E+02  0.51100000000E-03 0.  1.
    9900012    2    1    2    0    0  0.13005418582E+02 -0.13312201721E+02  0.25891407434E+02  0.59301943391E+02  0.49999998839E+02 0.  0.
        -12    1    1    2    0    0 -0.13005418582E+02  0.13312201721E+02 -0.25891407434E+02  0.31886056609E+02  0.00000000000E+00 0.  1.
         11    1    3    3    0    0 -0.76184453884E+01 -0.92967426882E+00  0.20220745100E+01  0.79368627283E+01  0.51100000000E-03 0. -1.
        -11    1    3    3    0    0  0.12119658963E+02 -0.26296220904E+02  0.17664148199E+02  0.33917539697E+02  0.51100000000E-03 0.  1.
         12    1    3    3    0    0  0.85042050071E+01  0.13913693452E+02  0.62051847252E+01  0.17447540966E+02  0.00000000000E+00 0. -1.
</event>
<event>
 7    1  0.6830263E-012  0.5930193E+02  0.7816164E-02  0.1266605E+00
        -11   -1    0    0    0    0  0.00000000000E+00  0.00000000000E+00  0.45593999997E+02  0.45594000000E+02  0.51100000000E-03 0.  1.
         11   -1    0    0    0    0 -0.00000000000E+00 -0.00000000000E+00 -0.45593999997E+02  0.45594000000E+02  0.51100000000E-03 0. -1.
    9900012    2    1    2    0    0 -0.18441284946E+02  0.31862231088E+01 -0.25816438681E+02  0.59301929149E+02  0.49999972864E+02 0.  0.
        -12    1    1    2    0    0  0.18441284946E+02 -0.31862231088E+01  0.25816438681E+02  0.31886070851E+02  0.00000000000E+00 0.  1.
         11    1    3    3    0    0  0.56537405830E+01 -0.74476830912E+01 -0.65512999151E+01  0.11417193037E+02  0.51100000000E-03 0. -1.
        -11    1    3    3    0    0 -0.93456751628E+01  0.10400743533E+02  0.85574882371E+01  0.16393526633E+02  0.51100000000E-03 0.  1.
         12    1    3    3    0    0 -0.14749350366E+02  0.23316266683E+00 -0.27822627003E+02  0.31491209478E+02  0.00000000000E+00 0. -1.
</event>
<event>
 7    1  0.6830263E-012  0.5930191E+02  0.7816164E-02  0.1266605E+00
        -11   -1    0    0    0    0  0.00000000000E+00  0.00000000000E+00  0.45593999997E+02  0.45594000000E+02  0.51100000000E-03 0.  1.
         11   -1    0    0    0    0 -0.00000000000E+00 -0.00000000000E+00 -0.45593999997E+02  0.45594000000E+02  0.51100000000E-03 0. -1.
    9900012    2    1    2    0    0  0.64782583413E+01  0.28968794520E+02 -0.11643180211E+02  0.59301913183E+02  0.49999943746E+02 0.  0.
        -12    1    1    2    0    0 -0.64782583413E+01 -0.28968794520E+02  0.11643180211E+02  0.31886086817E+02  0.00000000000E+00 0.  1.
         11    1    3    3    0    0  0.13421628014E+02  0.50387085417E+01 -0.16408252038E+02  0.21788974678E+02  0.51100000000E-03 0. -1.
        -11    1    3    3    0    0 -0.36729064485E+01  0.44254993893E+00  0.12129885892E+02  0.12681491404E+02  0.51100000000E-03 0.  1.
        -12    1    3    3    0    0 -0.32704632243E+01  0.23487536040E+02 -0.73648140649E+01  0.24831447101E+02  0.00000000000E+00 0.  1.
</event>
<event>
 7    1  0.6830263E-012  0.5930196E+02  0.7816164E-02  0.1266605E+00
        -11   -1    0    0    0    0  0.00000000000E+00  0.00000000000E+00  0.45593999997E+02  0.45594000000E+02  0.51100000000E-03 0.  1.
         11   -1    0    0    0    0 -0.00000000000E+00 -0.00000000000E+00 -0.45593999997E+02  0.45594000000E+02  0.51100000000E-03 0. -1.
    9900012    2    1    2    0    0 -0.63697551503E+01  0.29025649047E+02 -0.11561021684E+02  0.59301963783E+02  0.50000036029E+02 0.  0.
        -12    1    1    2    0    0  0.63697551503E+01 -0.29025649047E+02  0.11561021684E+02  0.31886036217E+02  0.00000000000E+00 0.  1.
         11    1    3    3    0    0 -0.80689223192E+01 -0.15736888403E+01 -0.10471424031E+02  0.13312953296E+02  0.51100000000E-03 0.  1.
        -11    1    3    3    0    0 -0.85055317286E+01 -0.22346535910E+01  0.63034334269E+01  0.10819936224E+02  0.51100000000E-03 0. -1.
         12    1    3    3    0    0  0.10204698898E+02  0.32833991478E+02 -0.73930310796E+01  0.35169074263E+02  0.00000000000E+00 0. -1.
</event>
<event>
 7    1  0.6830263E-012  0.5930195E+02  0.7816164E-02  0.1266605E+00
        -11   -1    0    0    0    0  0.00000000000E+00  0.00000000000E+00  0.45593999997E+02  0.45594000000E+02  0.51100000000E-03 0. -1.
         11   -1    0    0    0    0 -0.00000000000E+00 -0.00000000000E+00 -0.45593999997E+02  0.45594000000E+02  0.51100000000E-03 0.  1.
    9900012    2    1    2    0    0 -0.27486377283E+02  0.14132955056E+02  0.78408291037E+01  0.59301953588E+02  0.50000017436E+02 0.  0.
        -12    1    1    2    0    0  0.27486377283E+02 -0.14132955056E+02 -0.78408291037E+01  0.31886046412E+02  0.00000000000E+00 0.  1.
         11    1    3    3    0    0 -0.10874918347E+02  0.77302947187E+01  0.98768039583E+01  0.16600378375E+02  0.51100000000E-03 0. -1.
        -11    1    3    3    0    0 -0.11722629874E+02  0.88915783106E+00  0.17917988273E+02  0.21430467956E+02  0.51100000000E-03 0.  1.
        -12    1    3    3    0    0 -0.48888290616E+01  0.55135025062E+01 -0.19953963127E+02  0.21271107258E+02  0.00000000000E+00 0.  1.
</event>
<event>
 7    1  0.7954586E-012  0.5930193E+02  0.7816164E-02  0.1266605E+00
        -11   -1    0    0    0    0  0.00000000000E+00  0.00000000000E+00  0.45593999997E+02  0.45594000000E+02  0.51100000000E-03 0.  1.
         11   -1    0    0    0    0 -0.00000000000E+00 -0.00000000000E+00 -0.45593999997E+02  0.45594000000E+02  0.51100000000E-03 0. -1.
    9900012    2    1    2    0    0 -0.14845630056E+02  0.20049388734E+02 -0.19858258406E+02  0.59301934904E+02  0.49999983360E+02 0.  0.
        -12    1    1    2    0    0  0.14845630056E+02 -0.20049388734E+02  0.19858258406E+02  0.31886065096E+02  0.00000000000E+00 0.  1.
         11    1    3    3    0    0 -0.58405934713E+01  0.19955350721E+02 -0.40316586526E+01  0.21179773990E+02  0.51100000000E-03 0. -1.
        -11    1    3    3    0    0 -0.90162342474E+00 -0.97152815424E+01  0.69867393430E+01  0.12000589450E+02  0.51100000000E-03 0.  1.
         12    1    3    3    0    0 -0.81034131599E+01  0.98093195556E+01 -0.22813339097E+02  0.26121571464E+02  0.00000000000E+00 0. -1.
</event>
<event>
 7    1  0.6830263E-012  0.5930196E+02  0.7816164E-02  0.1266605E+00
        -11   -1    0    0    0    0  0.00000000000E+00  0.00000000000E+00  0.45593999997E+02  0.45594000000E+02  0.51100000000E-03 0. -1.
         11   -1    0    0    0    0 -0.00000000000E+00 -0.00000000000E+00 -0.45593999997E+02  0.45594000000E+02  0.51100000000E-03 0.  1.
    9900012    2    1    2    0    0 -0.27147249501E+02  0.36073182219E+01 -0.16331980469E+02  0.59301960950E+02  0.50000030863E+02 0.  0.
        -12    1    1    2    0    0  0.27147249501E+02 -0.36073182219E+01  0.16331980469E+02  0.31886039050E+02  0.00000000000E+00 0.  1.
         11    1    3    3    0    0 -0.20073941195E+02  0.58037815755E+01 -0.35080231221E+01  0.21188516280E+02  0.51100000000E-03 0. -1.
        -11    1    3    3    0    0 -0.59918257626E+00 -0.27096503505E+01 -0.24551446189E+02  0.24707786931E+02  0.51100000000E-03 0.  1.
         12    1    3    3    0    0 -0.64741257299E+01  0.51318699695E+00  0.11727488842E+02  0.13405657739E+02  0.00000000000E+00 0. -1.
</event>
<event>
 7    1  0.6830263E-012  0.5930196E+02  0.7816164E-02  0.1266605E+00
        -11   -1    0    0    0    0  0.00000000000E+00  0.00000000000E+00  0.45593999997E+02  0.45594000000E+02  0.51100000000E-03 0. -1.
         11   -1    0    0    0    0 -0.00000000000E+00 -0.00000000000E+00 -0.45593999997E+02  0.45594000000E+02  0.51100000000E-03 0.  1.
    9900012    2    1    2    0    0 -0.46879366580E+01  0.46614878093E+01  0.31193164857E+02  0.59301956775E+02  0.50000023249E+02 0.  0.
        -12    1    1    2    0    0  0.46879366580E+01 -0.46614878093E+01 -0.31193164857E+02  0.31886043225E+02  0.00000000000E+00 0.  1.
         11    1    3    3    0    0  0.18900693026E+02  0.43761623543E+01  0.13022345721E+02  0.23365968462E+02  0.51100000000E-03 0. -1.
        -11    1    3    3    0    0 -0.48297795244E+01 -0.53488432388E+00  0.16366591060E+02  0.17072731905E+02  0.51100000000E-03 0.  1.
        -12    1    3    3    0    0 -0.18758850160E+02  0.82020977883E+00  0.18042280756E+01  0.18863256409E+02  0.00000000000E+00 0.  1.
</event>
<event>
 7    1  0.6830263E-012  0.5930194E+02  0.7816164E-02  0.1266605E+00
        -11   -1    0    0    0    0  0.00000000000E+00  0.00000000000E+00  0.45593999997E+02  0.45594000000E+02  0.51100000000E-03 0.  1.
         11   -1    0    0    0    0 -0.00000000000E+00 -0.00000000000E+00 -0.45593999997E+02  0.45594000000E+02  0.51100000000E-03 0. -1.
    9900012    2    1    2    0    0 -0.24415804839E+02  0.67288948253E+01 -0.19372955479E+02  0.59301937912E+02  0.49999988847E+02 0.  0.
        -12    1    1    2    0    0  0.24415804839E+02 -0.67288948253E+01  0.19372955479E+02  0.31886062088E+02  0.00000000000E+00 0.  1.
         11    1    3    3    0    0 -0.24212452291E+00 -0.25558920193E+01 -0.21364590014E+02  0.21518292567E+02  0.51100000000E-03 0. -1.
        -11    1    3    3    0    0  0.37121987382E+01 -0.65052093810E+00  0.68175908999E+01  0.77899385686E+01  0.51100000000E-03 0.  1.
        -12    1    3    3    0    0 -0.27885879054E+02  0.99353077827E+01 -0.48259563648E+01  0.29993706776E+02  0.00000000000E+00 0.  1.
</event>
<event>
 7    1  0.6830263E-012  0.5930193E+02  0.7816164E-02  0.1266605E+00
        -11   -1    0    0    0    0  0.00000000000E+00  0.00000000000E+00  0.45593999997E+02  0.45594000000E+02  0.51100000000E-03 0.  1.
         11   -1    0    0    0    0 -0.00000000000E+00 -0.00000000000E+00 -0.45593999997E+02  0.45594000000E+02  0.51100000000E-03 0. -1.
    9900012    2    1    2    0    0 -0.12556553253E+02  0.29079644485E+02 -0.36644949074E+01  0.59301932887E+02  0.49999979682E+02 0.  0.
        -12    1    1    2    0    0  0.12556553253E+02 -0.29079644485E+02  0.36644949074E+01  0.31886067113E+02  0.00000000000E+00 0.  1.
         11    1    3    3    0    0  0.55251541784E+01  0.16105516217E+02  0.51390165560E+01  0.17785513002E+02  0.51100000000E-03 0. -1.
        -11    1    3    3    0    0  0.46188961241E+01 -0.48333233491E+01  0.60934919163E+01  0.90457647547E+01  0.51100000000E-03 0.  1.
         12    1    3    3    0    0 -0.22700603556E+02  0.17807451618E+02 -0.14897003380E+02  0.32470655131E+02  0.00000000000E+00 0. -1.
</event>
<event>
 7    1  0.6830263E-012  0.5930193E+02  0.7816164E-02  0.1266605E+00
        -11   -1    0    0    0    0  0.00000000000E+00  0.00000000000E+00  0.45593999997E+02  0.45594000000E+02  0.51100000000E-03 0.  1.
         11   -1    0    0    0    0 -0.00000000000E+00 -0.00000000000E+00 -0.45593999997E+02  0.45594000000E+02  0.51100000000E-03 0. -1.
    9900012    2    1    2    0    0  0.16627975773E+02  0.18492410367E+02  0.19956516133E+02  0.59301931637E+02  0.49999977403E+02 0.  0.
        -12    1    1    2    0    0 -0.16627975773E+02 -0.18492410367E+02 -0.19956516133E+02  0.31886068363E+02  0.00000000000E+00 0.  1.
         11    1    3    3    0    0  0.19245878413E+02  0.45536624893E+00  0.15930363335E+02  0.24987750410E+02  0.51100000000E-03 0. -1.
        -11    1    3    3    0    0 -0.49561383338E+01 -0.39173611838E+01  0.96469402670E+01  0.11531369503E+02  0.51100000000E-03 0.  1.
         12    1    3    3    0    0  0.23382356935E+01  0.21954405302E+02 -0.56207874694E+01  0.22782811725E+02  0.00000000000E+00 0. -1.
</event>
<event>
 7    1  0.6830263E-012  0.5930194E+02  0.7816164E-02  0.1266605E+00
        -11   -1    0    0    0    0  0.00000000000E+00  0.00000000000E+00  0.45593999997E+02  0.45594000000E+02  0.51100000000E-03 0. -1.
         11   -1    0    0    0    0 -0.00000000000E+00 -0.00000000000E+00 -0.45593999997E+02  0.45594000000E+02  0.51100000000E-03 0.  1.
    9900012    2    1    2    0    0  0.17137714005E+02 -0.23112475769E+02  0.13741655721E+02  0.59301939104E+02  0.49999991020E+02 0.  0.
        -12    1    1    2    0    0 -0.17137714005E+02  0.23112475769E+02 -0.13741655721E+02  0.31886060896E+02  0.00000000000E+00 0.  1.
         11    1    3    3    0    0  0.19317206012E+01 -0.29514157897E+02  0.77775677730E+01  0.30582799439E+02  0.51100000000E-03 0. -1.
        -11    1    3    3    0    0  0.67780376064E+01  0.28115675835E+01 -0.87293870903E+01  0.11403898689E+02  0.51100000000E-03 0.  1.
        -12    1    3    3    0    0  0.84279557977E+01  0.35901145436E+01  0.14693475038E+02  0.17315240976E+02  0.00000000000E+00 0.  1.
</event>
<event>
 7    1  0.6830263E-012  0.5930193E+02  0.7816164E-02  0.1266605E+00
        -11   -1    0    0    0    0  0.00000000000E+00  0.00000000000E+00  0.45593999997E+02  0.45594000000E+02  0.51100000000E-03 0.  1.
         11   -1    0    0    0    0 -0.00000000000E+00 -0.00000000000E+00 -0.45593999997E+02  0.45594000000E+02  0.51100000000E-03 0. -1.
    9900012    2    1    2    0    0 -0.16280103888E+02  0.25026083994E+02 -0.11197087057E+02  0.59301930609E+02  0.49999975527E+02 0.  0.
        -12    1    1    2    0    0  0.16280103888E+02 -0.25026083994E+02  0.11197087057E+02  0.31886069391E+02  0.00000000000E+00 0.  1.
         11    1    3    3    0    0 -0.32828267843E-01 -0.12035316764E+01  0.35898247982E+00  0.12563577807E+01  0.51100000000E-03 0. -1.
        -11    1    3    3    0    0  0.32823994343E+00 -0.83576893540E+01 -0.17345751946E+02  0.19257046078E+02  0.51100000000E-03 0.  1.
         12    1    3    3    0    0 -0.16575515563E+02  0.34587305024E+02  0.57896824095E+01  0.38788526750E+02  0.00000000000E+00 0. -1.
</event>
<event>
 7    1  0.6830263E-012  0.5930196E+02  0.7816164E-02  0.1266605E+00
        -11   -1    0    0    0    0  0.00000000000E+00  0.00000000000E+00  0.45593999997E+02  0.45594000000E+02  0.51100000000E-03 0. -1.
         11   -1    0    0    0    0 -0.00000000000E+00 -0.00000000000E+00 -0.45593999997E+02  0.45594000000E+02  0.51100000000E-03 0.  1.
    9900012    2    1    2    0    0 -0.22296819345E+02  0.22536811306E+02  0.34152323119E+01  0.59301955584E+02  0.50000021075E+02 0.  0.
        -12    1    1    2    0    0  0.22296819345E+02 -0.22536811306E+02 -0.34152323119E+01  0.31886044416E+02  0.00000000000E+00 0.  1.
         11    1    3    3    0    0 -0.21566363186E+02  0.12893077133E+02 -0.12185999340E+02  0.27925580373E+02  0.51100000000E-03 0. -1.
        -11    1    3    3    0    0 -0.93597135830E+01  0.33495019864E+01 -0.25975737845E+01  0.10274764802E+02  0.51100000000E-03 0.  1.
        -12    1    3    3    0    0  0.86292574236E+01  0.62942321875E+01  0.18198805436E+02  0.21101610408E+02  0.00000000000E+00 0.  1.
</event>
<event>
 7    1  0.6830263E-012  0.5930199E+02  0.7816164E-02  0.1266605E+00
        -11   -1    0    0    0    0  0.00000000000E+00  0.00000000000E+00  0.45593999997E+02  0.45594000000E+02  0.51100000000E-03 0. -1.
         11   -1    0    0    0    0 -0.00000000000E+00 -0.00000000000E+00 -0.45593999997E+02  0.45594000000E+02  0.51100000000E-03 0.  1.
    9900012    2    1    2    0    0 -0.26637946903E+02 -0.15595432120E+02  0.79949934719E+01  0.59301989920E+02  0.50000083696E+02 0.  0.
        -12    1    1    2    0    0  0.26637946903E+02  0.15595432120E+02 -0.79949934719E+01  0.31886010080E+02  0.00000000000E+00 0.  1.
         11    1    3    3    0    0  0.83357407810E+01 -0.80098781527E+01  0.12142052341E+02  0.16765206760E+02  0.51100000000E-03 0. -1.
        -11    1    3    3    0    0  0.17199621684E+01 -0.24555234271E+01  0.36001411618E+01  0.46849633731E+01  0.51100000000E-03 0.  1.
        -12    1    3    3    0    0 -0.36693649853E+02 -0.51300305398E+01 -0.77472000305E+01  0.37851819787E+02  0.00000000000E+00 0.  1.
</event>
<event>
 7    1  0.6830263E-012  0.5930195E+02  0.7816164E-02  0.1266605E+00
        -11   -1    0    0    0    0  0.00000000000E+00  0.00000000000E+00  0.45593999997E+02  0.45594000000E+02  0.51100000000E-03 0.  1.
         11   -1    0    0    0    0 -0.00000000000E+00 -0.00000000000E+00 -0.45593999997E+02  0.45594000000E+02  0.51100000000E-03 0. -1.
    9900012    2    1    2    0    0 -0.12176101346E+02  0.28374569252E+02 -0.79590573303E+01  0.59301949479E+02  0.50000009942E+02 0.  0.
        -12    1    1    2    0    0  0.12176101346E+02 -0.28374569252E+02  0.79590573303E+01  0.31886050521E+02  0.00000000000E+00 0.  1.
         11    1    3    3    0    0 -0.50138442397E+01  0.12314728192E+02 -0.17676169105E+01  0.13413263373E+02  0.51100000000E-03 0. -1.
        -11    1    3    3    0    0  0.76689657126E+01  0.78595653647E+01  0.15103262017E+02  0.18673358740E+02  0.51100000000E-03 0.  1.
         12    1    3    3    0    0 -0.14831222819E+02  0.82002756957E+01 -0.21294702437E+02  0.27215327366E+02  0.00000000000E+00 0. -1.
</event>
<event>
 7    1  0.6830263E-012  0.5930197E+02  0.7816164E-02  0.1266605E+00
        -11   -1    0    0    0    0  0.00000000000E+00  0.00000000000E+00  0.45593999997E+02  0.45594000000E+02  0.51100000000E-03 0.  1.
         11   -1    0    0    0    0 -0.00000000000E+00 -0.00000000000E+00 -0.45593999997E+02  0.45594000000E+02  0.51100000000E-03 0. -1.
    9900012    2    1    2    0    0  0.27543585428E+02  0.82824656886E+01 -0.13764828891E+02  0.59301970920E+02  0.50000049045E+02 0.  0.
        -12    1    1    2    0    0 -0.27543585428E+02 -0.82824656886E+01  0.13764828891E+02  0.31886029080E+02  0.00000000000E+00 0.  1.
         11    1    3    3    0    0  0.67411210698E+01  0.78931402921E+01 -0.11287507391E+02  0.15334673140E+02  0.51100000000E-03 0. -1.
        -11    1    3    3    0    0 -0.10147875066E+02  0.65163037183E+01 -0.29393458775E+01  0.12412950372E+02  0.51100000000E-03 0.  1.
        -12    1    3    3    0    0  0.30950339424E+02 -0.61269783218E+01  0.46202437792E+00  0.31554347408E+02  0.00000000000E+00 0.  1.
</event>
<event>
 7    1  0.6830263E-012  0.5930195E+02  0.7816164E-02  0.1266605E+00
        -11   -1    0    0    0    0  0.00000000000E+00  0.00000000000E+00  0.45593999997E+02  0.45594000000E+02  0.51100000000E-03 0.  1.
         11   -1    0    0    0    0 -0.00000000000E+00 -0.00000000000E+00 -0.45593999997E+02  0.45594000000E+02  0.51100000000E-03 0. -1.
    9900012    2    1    2    0    0  0.28054139834E+01 -0.18140497933E+02  0.26072445333E+02  0.59301946332E+02  0.50000004202E+02 0.  0.
        -12    1    1    2    0    0 -0.28054139834E+01  0.18140497933E+02 -0.26072445333E+02  0.31886053668E+02  0.00000000000E+00 0.  1.
         11    1    3    3    0    0  0.77088564025E+01 -0.66238789705E+01 -0.38035678622E+00  0.10170885468E+02  0.51100000000E-03 0. -1.
        -11    1    3    3    0    0  0.94352739358E+01 -0.91875340594E+01 -0.53133621207E+01  0.14200950448E+02  0.51100000000E-03 0.  1.
        -12    1    3    3    0    0 -0.14338716355E+02 -0.23290849033E+01  0.31766164240E+02  0.34930110416E+02  0.00000000000E+00 0.  1.
</event>
<event>
 7    1  0.6830263E-012  0.5930197E+02  0.7816164E-02  0.1266605E+00
        -11   -1    0    0    0    0  0.00000000000E+00  0.00000000000E+00  0.45593999997E+02  0.45594000000E+02  0.51100000000E-03 0. -1.
         11   -1    0    0    0    0 -0.00000000000E+00 -0.00000000000E+00 -0.45593999997E+02  0.45594000000E+02  0.51100000000E-03 0.  1.
    9900012    2    1    2    0    0  0.28817045987E+01  0.88238956336E+01  0.30504978156E+02  0.59301967825E+02  0.50000043401E+02 0.  0.
        -12    1    1    2    0    0 -0.28817045987E+01 -0.88238956336E+01 -0.30504978156E+02  0.31886032175E+02  0.00000000000E+00 0.  1.
         11    1    3    3    0    0  0.49228761984E+01  0.95289618075E+01  0.66415423937E+01  0.12615304547E+02  0.51100000000E-03 0. -1.
        -11    1    3    3    0    0  0.12497387549E+02  0.14069132599E+02  0.74188819736E+01  0.20227827309E+02  0.51100000000E-03 0.  1.
         12    1    3    3    0    0 -0.14538559149E+02 -0.14774198773E+02  0.16444553789E+02  0.26458835969E+02  0.00000000000E+00 0. -1.
</event>
<event>
 7    1  0.6830263E-012  0.5930195E+02  0.7816164E-02  0.1266605E+00
        -11   -1    0    0    0    0  0.00000000000E+00  0.00000000000E+00  0.45593999997E+02  0.45594000000E+02  0.51100000000E-03 0.  1.
         11   -1    0    0    0    0 -0.00000000000E+00 -0.00000000000E+00 -0.45593999997E+02  0.45594000000E+02  0.51100000000E-03 0. -1.
    9900012    2    1    2    0    0  0.20874625833E+02 -0.20528376167E+02 -0.12631555256E+02  0.59301946310E+02  0.50000004162E+02 0.  0.
        -12    1    1    2    0    0 -0.20874625833E+02  0.20528376167E+02  0.12631555256E+02  0.31886053690E+02  0.00000000000E+00 0.  1.
         11    1    3    3    0    0  0.11053178496E+01  0.35681255039E+01 -0.56375412322E+01  0.67627744725E+01  0.51100000000E-03 0. -1.
        -11    1    3    3    0    0  0.50144167546E+01  0.64681235774E+01 -0.15519339930E+02  0.17545110719E+02  0.51100000000E-03 0.  1.
         12    1    3    3    0    0  0.14754891229E+02 -0.30564625248E+02  0.85253259064E+01  0.34994061119E+02  0.00000000000E+00 0. -1.
</event>
<event>
 7    1  0.6830263E-012  0.5930194E+02  0.7816164E-02  0.1266605E+00
        -11   -1    0    0    0    0  0.00000000000E+00  0.00000000000E+00  0.45593999997E+02  0.45594000000E+02  0.51100000000E-03 0.  1.
         11   -1    0    0    0    0 -0.00000000000E+00 -0.00000000000E+00 -0.45593999997E+02  0.45594000000E+02  0.51100000000E-03 0. -1.
    9900012    2    1    2    0    0  0.29736417074E+01 -0.66334813698E+01 -0.31046337798E+02  0.59301941749E+02  0.49999995845E+02 0.  0.
        -12    1    1    2    0    0 -0.29736417074E+01  0.66334813698E+01  0.31046337798E+02  0.31886058251E+02  0.00000000000E+00 0.  1.
         11    1    3    3    0    0  0.13001453869E+01 -0.11161989680E+02 -0.83049001408E+01  0.13973251527E+02  0.51100000000E-03 0. -1.
        -11    1    3    3    0    0  0.45179358199E+01 -0.74664602491E+01  0.82290685294E+01  0.11994888155E+02  0.51100000000E-03 0.  1.
        -12    1    3    3    0    0 -0.28444394993E+01  0.11994968559E+02 -0.30970506187E+02  0.33333802067E+02  0.00000000000E+00 0.  1.
</event>
<event>
 7    1  0.6830263E-012  0.5930192E+02  0.7816164E-02  0.1266605E+00
        -11   -1    0    0    0    0  0.00000000000E+00  0.00000000000E+00  0.45593999997E+02  0.45594000000E+02  0.51100000000E-03 0. -1.
         11   -1    0    0    0    0 -0.00000000000E+00 -0.00000000000E+00 -0.45593999997E+02  0.45594000000E+02  0.51100000000E-03 0.  1.
    9900012    2    1    2    0    0 -0.15757634077E+02 -0.29111729470E+01  0.27567080484E+02  0.59301923320E+02  0.49999962235E+02 0.  0.
        -12    1    1    2    0    0  0.15757634077E+02  0.29111729470E+01 -0.27567080484E+02  0.31886076680E+02  0.00000000000E+00 0.  1.
         11    1    3    3    0    0 -0.22824353827E+01 -0.76559603991E+01  0.32105388844E+01  0.86099245698E+01  0.51100000000E-03 0. -1.
        -11    1    3    3    0    0 -0.18730095619E+01  0.21002009659E+01 -0.12058211228E+02  0.12382223839E+02  0.51100000000E-03 0.  1.
         12    1    3    3    0    0 -0.11602189132E+02  0.26445864862E+01  0.36414752827E+02  0.38309774912E+02  0.00000000000E+00 0. -1.
</event>
<event>
 7    1  0.6830263E-012  0.5930171E+02  0.7816164E-02  0.1266606E+00
        -11   -1    0    0    0    0  0.00000000000E+00  0.00000000000E+00  0.45593999997E+02  0.45594000000E+02  0.51100000000E-03 0.  1.
         11   -1    0    0    0    0 -0.00000000000E+00 -0.00000000000E+00 -0.45593999997E+02  0.45594000000E+02  0.51100000000E-03 0. -1.
    9900012    2    1    2    0    0  0.13359047304E+02 -0.19570289645E+02 -0.21337180884E+02  0.59301707181E+02  0.49999568047E+02 0.  0.
        -12    1    1    2    0    0 -0.13359047304E+02  0.19570289645E+02  0.21337180884E+02  0.31886292819E+02  0.00000000000E+00 0.  1.
         11    1    3    3    0    0  0.20215554599E+01 -0.31780655895E+01 -0.59062736100E+01  0.70050592850E+01  0.51100000000E-03 0. -1.
        -11    1    3    3    0    0  0.12063488252E+02 -0.19139580055E+02  0.11387318946E+02  0.25328290636E+02  0.51100000000E-03 0.  1.
         12    1    3    3    0    0 -0.72599640699E+00  0.27473559997E+01 -0.26818226220E+02  0.26968357261E+02  0.00000000000E+00 0. -1.
</event>
<event>
 7    1  0.6830263E-012  0.5930194E+02  0.7816164E-02  0.1266605E+00
        -11   -1    0    0    0    0  0.00000000000E+00  0.00000000000E+00  0.45593999997E+02  0.45594000000E+02  0.51100000000E-03 0.  1.
         11   -1    0    0    0    0 -0.00000000000E+00 -0.00000000000E+00 -0.45593999997E+02  0.45594000000E+02  0.51100000000E-03 0. -1.
    9900012    2    1    2    0    0  0.11616271339E+02  0.22234925032E+02 -0.19682253437E+02  0.59301941113E+02  0.49999994684E+02 0.  0.
        -12    1    1    2    0    0 -0.11616271339E+02 -0.22234925032E+02  0.19682253437E+02  0.31886058887E+02  0.00000000000E+00 0.  1.
         11    1    3    3    0    0 -0.33665749128E+01  0.18265150237E+02 -0.68695686080E+01  0.19802538043E+02  0.51100000000E-03 0. -1.
        -11    1    3    3    0    0  0.14107709527E+02  0.69673308208E+01 -0.23546959717E+02  0.28320142638E+02  0.51100000000E-03 0.  1.
        -12    1    3    3    0    0  0.87513672560E+00 -0.29975560260E+01  0.10734274888E+02  0.11179260431E+02  0.00000000000E+00 0.  1.
</event>
<event>
 7    1  0.6830263E-012  0.5930194E+02  0.7816164E-02  0.1266605E+00
        -11   -1    0    0    0    0  0.00000000000E+00  0.00000000000E+00  0.45593999997E+02  0.45594000000E+02  0.51100000000E-03 0. -1.
         11   -1    0    0    0    0 -0.00000000000E+00 -0.00000000000E+00 -0.45593999997E+02  0.45594000000E+02  0.51100000000E-03 0.  1.
    9900012    2    1    2    0    0  0.47879477990E+00  0.19689059986E+02  0.25076527634E+02  0.59301944023E+02  0.49999999991E+02 0.  0.
        -12    1    1    2    0    0 -0.47879477990E+00 -0.19689059986E+02 -0.25076527634E+02  0.31886055977E+02  0.00000000000E+00 0.  1.
         11    1    3    3    0    0  0.47393991407E+01  0.15800350002E+02  0.17396408975E+02  0.23973902683E+02  0.51100000000E-03 0. -1.
        -11    1    3    3    0    0  0.58414010564E+01  0.16133719491E+02 -0.10882772154E+01  0.17193115438E+02  0.51100000000E-03 0.  1.
        -12    1    3    3    0    0 -0.10102005417E+02 -0.12245009506E+02  0.87683958746E+01  0.18134925902E+02  0.00000000000E+00 0.  1.
</event>
<event>
 7    1  0.6830263E-012  0.5930194E+02  0.7816164E-02  0.1266605E+00
        -11   -1    0    0    0    0  0.00000000000E+00  0.00000000000E+00  0.45593999997E+02  0.45594000000E+02  0.51100000000E-03 0.  1.
         11   -1    0    0    0    0 -0.00000000000E+00 -0.00000000000E+00 -0.45593999997E+02  0.45594000000E+02  0.51100000000E-03 0. -1.
    9900012    2    1    2    0    0 -0.26086356420E+02  0.14286294180E+02  0.11494545600E+02  0.59301940802E+02  0.49999994117E+02 0.  0.
        -12    1    1    2    0    0  0.26086356420E+02 -0.14286294180E+02 -0.11494545600E+02  0.31886059198E+02  0.00000000000E+00 0.  1.
         11    1    3    3    0    0 -0.29781128596E+02  0.99875540222E+01  0.65389703031E+01  0.32084653476E+02  0.51100000000E-03 0. -1.
        -11    1    3    3    0    0 -0.97082207382E+01  0.47887227107E+01 -0.34828782369E+01  0.11371537107E+02  0.51100000000E-03 0.  1.
         12    1    3    3    0    0  0.13402992914E+02 -0.48998255317E+00  0.84384535339E+01  0.15845750219E+02  0.00000000000E+00 0. -1.
</event>
<event>
 7    1  0.6830263E-012  0.5930194E+02  0.7816164E-02  0.1266605E+00
        -11   -1    0    0    0    0  0.00000000000E+00  0.00000000000E+00  0.45593999997E+02  0.45594000000E+02  0.51100000000E-03 0. -1.
         11   -1    0    0    0    0 -0.00000000000E+00 -0.00000000000E+00 -0.45593999997E+02  0.45594000000E+02  0.51100000000E-03 0.  1.
    9900012    2    1    2    0    0  0.11570907237E+02  0.22092843580E+02  0.19868102715E+02  0.59301935062E+02  0.49999983648E+02 0.  0.
        -12    1    1    2    0    0 -0.11570907237E+02 -0.22092843580E+02 -0.19868102715E+02  0.31886064938E+02  0.00000000000E+00 0.  1.
         11    1    3    3    0    0  0.40119130257E+01  0.36019507307E+01 -0.35985070537E+01  0.64821870128E+01  0.51100000000E-03 0. -1.
        -11    1    3    3    0    0 -0.13229665125E+02  0.10585462992E+01 -0.43468065883E+01  0.13965646686E+02  0.51100000000E-03 0.  1.
        -12    1    3    3    0    0  0.20788659336E+02  0.17432346551E+02  0.27813416357E+02  0.38854101363E+02  0.00000000000E+00 0.  1.
</event>
<event>
 7    1  0.6830263E-012  0.5930187E+02  0.7816164E-02  0.1266605E+00
        -11   -1    0    0    0    0  0.00000000000E+00  0.00000000000E+00  0.45593999997E+02  0.45594000000E+02  0.51100000000E-03 0. -1.
         11   -1    0    0    0    0 -0.00000000000E+00 -0.00000000000E+00 -0.45593999997E+02  0.45594000000E+02  0.51100000000E-03 0.  1.
    9900012    2    1    2    0    0 -0.33205377486E+01  0.75270325713E+01  0.30806547114E+02  0.59301866095E+02  0.49999857870E+02 0.  0.
        -12    1    1    2    0    0  0.33205377486E+01 -0.75270325713E+01 -0.30806547114E+02  0.31886133905E+02  0.00000000000E+00 0.  1.
         11    1    3    3    0    0  0.67881618741E+01  0.37766959285E+00  0.38645121198E+01  0.78202448898E+01  0.51100000000E-03 0. -1.
        -11    1    3    3    0    0  0.33043707515E+01 -0.13906094060E+02  0.21680908615E+02  0.25968444634E+02  0.51100000000E-03 0.  1.
         12    1    3    3    0    0 -0.13413070374E+02  0.21055457039E+02  0.52611263793E+01  0.25513176571E+02  0.00000000000E+00 0. -1.
</event>
<event>
 7    1  0.1001063E-011  0.5930199E+02  0.7816164E-02  0.1266605E+00
        -11   -1    0    0    0    0  0.00000000000E+00  0.00000000000E+00  0.45593999997E+02  0.45594000000E+02  0.51100000000E-03 0. -1.
         11   -1    0    0    0    0 -0.00000000000E+00 -0.00000000000E+00 -0.45593999997E+02  0.45594000000E+02  0.51100000000E-03 0.  1.
    9900012    2    1    2    0    0  0.87326743759E+01  0.20148737564E+02  0.23118961164E+02  0.59301990646E+02  0.50000085021E+02 0.  0.
        -12    1    1    2    0    0 -0.87326743759E+01 -0.20148737564E+02 -0.23118961164E+02  0.31886009354E+02  0.00000000000E+00 0.  1.
         11    1    3    3    0    0 -0.63114560280E+01  0.89207371669E+00  0.13760372465E+02  0.15165029619E+02  0.51100000000E-03 0. -1.
        -11    1    3    3    0    0  0.33090626866E+01  0.67926564852E+01 -0.13564523460E+02  0.15526956397E+02  0.51100000000E-03 0.  1.
         12    1    3    3    0    0  0.11735067717E+02  0.12464007363E+02  0.22923112160E+02  0.28610004631E+02  0.00000000000E+00 0. -1.
</event>
<event>
 7    1  0.6830263E-012  0.5930188E+02  0.7816164E-02  0.1266605E+00
        -11   -1    0    0    0    0  0.00000000000E+00  0.00000000000E+00  0.45593999997E+02  0.45594000000E+02  0.51100000000E-03 0.  1.
         11   -1    0    0    0    0 -0.00000000000E+00 -0.00000000000E+00 -0.45593999997E+02  0.45594000000E+02  0.51100000000E-03 0. -1.
    9900012    2    1    2    0    0  0.23037215357E+01  0.22802215800E+02 -0.22169269674E+02  0.59301879254E+02  0.49999881869E+02 0.  0.
        -12    1    1    2    0    0 -0.23037215357E+01 -0.22802215800E+02  0.22169269674E+02  0.31886120746E+02  0.00000000000E+00 0.  1.
         11    1    3    3    0    0 -0.32457219692E+01 -0.20432848729E+01 -0.14870729336E+02  0.15357353790E+02  0.51100000000E-03 0. -1.
        -11    1    3    3    0    0  0.10833946797E+02 -0.33884690250E+01  0.53616576357E+01  0.12554023196E+02  0.51100000000E-03 0.  1.
         12    1    3    3    0    0 -0.52845032922E+01  0.28233969698E+02 -0.12660197974E+02  0.31390502269E+02  0.00000000000E+00 0. -1.
</event>
<event>
 7    1  0.6830263E-012  0.5930193E+02  0.7816164E-02  0.1266605E+00
        -11   -1    0    0    0    0  0.00000000000E+00  0.00000000000E+00  0.45593999997E+02  0.45594000000E+02  0.51100000000E-03 0. -1.
         11   -1    0    0    0    0 -0.00000000000E+00 -0.00000000000E+00 -0.45593999997E+02  0.45594000000E+02  0.51100000000E-03 0.  1.
    9900012    2    1    2    0    0 -0.10258567217E+02 -0.13941573485E+02  0.26779022165E+02  0.59301926227E+02  0.49999967535E+02 0.  0.
        -12    1    1    2    0    0  0.10258567217E+02  0.13941573485E+02 -0.26779022165E+02  0.31886073773E+02  0.00000000000E+00 0.  1.
         11    1    3    3    0    0  0.11994917631E+02  0.72167199418E+00  0.70947015748E+01  0.13954699930E+02  0.51100000000E-03 0. -1.
        -11    1    3    3    0    0  0.13824911591E+01 -0.14377742353E+02 -0.21949768506E+00  0.14445723812E+02  0.51100000000E-03 0.  1.
         12    1    3    3    0    0 -0.23635976007E+02 -0.28550312675E+00  0.19903818275E+02  0.30901502484E+02  0.00000000000E+00 0. -1.
</event>
<event>
 7    1  0.6830263E-012  0.5930193E+02  0.7816164E-02  0.1266605E+00
        -11   -1    0    0    0    0  0.00000000000E+00  0.00000000000E+00  0.45593999997E+02  0.45594000000E+02  0.51100000000E-03 0.  1.
         11   -1    0    0    0    0 -0.00000000000E+00 -0.00000000000E+00 -0.45593999997E+02  0.45594000000E+02  0.51100000000E-03 0. -1.
    9900012    2    1    2    0    0 -0.31140135932E+02 -0.62772887445E+01 -0.27584608729E+01  0.59301928962E+02  0.49999972524E+02 0.  0.
        -12    1    1    2    0    0  0.31140135932E+02  0.62772887445E+01  0.27584608729E+01  0.31886071038E+02  0.00000000000E+00 0.  1.
         11    1    3    3    0    0 -0.17766447661E+02 -0.10442696833E+02 -0.93937388293E+01  0.22648154651E+02  0.51100000000E-03 0. -1.
        -11    1    3    3    0    0  0.71553282421E+01 -0.91142477116E+01  0.17106169995E+01  0.11713003218E+02  0.51100000000E-03 0.  1.
        -12    1    3    3    0    0 -0.20529016513E+02  0.13279655800E+02  0.49246609569E+01  0.24940771093E+02  0.00000000000E+00 0.  1.
</event>
<event>
 7    1  0.6830263E-012  0.5930192E+02  0.7816164E-02  0.1266605E+00
        -11   -1    0    0    0    0  0.00000000000E+00  0.00000000000E+00  0.45593999997E+02  0.45594000000E+02  0.51100000000E-03 0.  1.
         11   -1    0    0    0    0 -0.00000000000E+00 -0.00000000000E+00 -0.45593999997E+02  0.45594000000E+02  0.51100000000E-03 0. -1.
    9900012    2    1    2    0    0 -0.20365316528E+02 -0.63980476599E+01 -0.23686299798E+02  0.59301922642E+02  0.49999960998E+02 0.  0.
        -12    1    1    2    0    0  0.20365316528E+02  0.63980476599E+01  0.23686299798E+02  0.31886077358E+02  0.00000000000E+00 0.  1.
         11    1    3    3    0    0 -0.64142528173E+01 -0.14419688442E+02  0.79527688215E+00  0.15801978343E+02  0.51100000000E-03 0. -1.
        -11    1    3    3    0    0  0.60001116368E+01  0.35830199350E+01 -0.21791547749E+02  0.22884731265E+02  0.51100000000E-03 0.  1.
         12    1    3    3    0    0 -0.19951175347E+02  0.44386208474E+01 -0.26900289310E+01  0.20615213034E+02  0.00000000000E+00 0. -1.
</event>
<event>
 7    1  0.6830263E-012  0.5930201E+02  0.7816164E-02  0.1266605E+00
        -11   -1    0    0    0    0  0.00000000000E+00  0.00000000000E+00  0.45593999997E+02  0.45594000000E+02  0.51100000000E-03 0.  1.
         11   -1    0    0    0    0 -0.00000000000E+00 -0.00000000000E+00 -0.45593999997E+02  0.45594000000E+02  0.51100000000E-03 0. -1.
    9900012    2    1    2    0    0  0.62404172643E+01  0.31195973298E+02 -0.21412241984E+01  0.59302009366E+02  0.50000119160E+02 0.  0.
        -12    1    1    2    0    0 -0.62404172643E+01 -0.31195973298E+02  0.21412241984E+01  0.31885990634E+02  0.00000000000E+00 0.  1.
         11    1    3    3    0    0  0.69396269469E+01  0.11452292393E+01 -0.46780703664E+01  0.84471483228E+01  0.51100000000E-03 0. -1.
        -11    1    3    3    0    0 -0.10912342291E+02  0.19629902138E+02 -0.15771318464E+02  0.27443519428E+02  0.51100000000E-03 0.  1.
        -12    1    3    3    0    0  0.10213132609E+02  0.10420841922E+02  0.18308164632E+02  0.23411341615E+02  0.00000000000E+00 0.  1.
</event>
<event>
 7    1  0.6830263E-012  0.5930193E+02  0.7816164E-02  0.1266605E+00
        -11   -1    0    0    0    0  0.00000000000E+00  0.00000000000E+00  0.45593999997E+02  0.45594000000E+02  0.51100000000E-03 0.  1.
         11   -1    0    0    0    0 -0.00000000000E+00 -0.00000000000E+00 -0.45593999997E+02  0.45594000000E+02  0.51100000000E-03 0. -1.
    9900012    2    1    2    0    0  0.93530595352E+01 -0.20522612302E+02 -0.22540274810E+02  0.59301932088E+02  0.49999978225E+02 0.  0.
        -12    1    1    2    0    0 -0.93530595352E+01  0.20522612302E+02  0.22540274810E+02  0.31886067912E+02  0.00000000000E+00 0.  1.
         11    1    3    3    0    0 -0.64717684232E+00 -0.83253228322E+00  0.12135738108E+01  0.16077031826E+01  0.51100000000E-03 0. -1.
        -11    1    3    3    0    0  0.14428838617E+02 -0.12673229014E+02  0.10885609587E+02  0.22074841196E+02  0.51100000000E-03 0.  1.
         12    1    3    3    0    0 -0.44286022396E+01 -0.70168510045E+01 -0.34639458208E+02  0.35619387709E+02  0.00000000000E+00 0. -1.
</event>
<event>
 7    1  0.6830263E-012  0.5930192E+02  0.7816164E-02  0.1266605E+00
        -11   -1    0    0    0    0  0.00000000000E+00  0.00000000000E+00  0.45593999997E+02  0.45594000000E+02  0.51100000000E-03 0. -1.
         11   -1    0    0    0    0 -0.00000000000E+00 -0.00000000000E+00 -0.45593999997E+02  0.45594000000E+02  0.51100000000E-03 0.  1.
    9900012    2    1    2    0    0 -0.29092655175E+02 -0.10542740096E+02  0.76934971940E+01  0.59301923839E+02  0.49999963180E+02 0.  0.
        -12    1    1    2    0    0  0.29092655175E+02  0.10542740096E+02 -0.76934971940E+01  0.31886076161E+02  0.00000000000E+00 0.  1.
         11    1    3    3    0    0 -0.16896195601E+02 -0.46031973038E-03 -0.10447631088E+02  0.19865407663E+02  0.51100000000E-03 0. -1.
        -11    1    3    3    0    0 -0.27387382237E+01 -0.34595507152E+01 -0.88960509816E+01  0.99302014852E+01  0.51100000000E-03 0.  1.
         12    1    3    3    0    0 -0.94577213503E+01 -0.70827290608E+01  0.27037179264E+02  0.29506314691E+02  0.00000000000E+00 0. -1.
</event>
<event>
 7    1  0.6830263E-012  0.5930193E+02  0.7816164E-02  0.1266605E+00
        -11   -1    0    0    0    0  0.00000000000E+00  0.00000000000E+00  0.45593999997E+02  0.45594000000E+02  0.51100000000E-03 0. -1.
         11   -1    0    0    0    0 -0.00000000000E+00 -0.00000000000E+00 -0.45593999997E+02  0.45594000000E+02  0.51100000000E-03 0.  1.
    9900012    2    1    2    0    0 -0.14177574680E+01 -0.30246349418E+02  0.99934883978E+01  0.59301929378E+02  0.49999973282E+02 0.  0.
        -12    1    1    2    0    0  0.14177574680E+01  0.30246349418E+02 -0.99934883978E+01  0.31886070622E+02  0.00000000000E+00 0.  1.
         11    1    3    3    0    0  0.52194588496E-01  0.16980866559E+01 -0.96644496744E+00  0.19545430930E+01  0.51100000000E-03 0. -1.
        -11    1    3    3    0    0  0.11899792976E+02  0.70794957031E+01  0.79983207111E+01  0.15990543041E+02  0.51100000000E-03 0.  1.
         12    1    3    3    0    0 -0.13369745033E+02 -0.39023931777E+02  0.29616126541E+01  0.41356843244E+02  0.00000000000E+00 0. -1.
</event>
<event>
 7    1  0.6830263E-012  0.5930190E+02  0.7816164E-02  0.1266605E+00
        -11   -1    0    0    0    0  0.00000000000E+00  0.00000000000E+00  0.45593999997E+02  0.45594000000E+02  0.51100000000E-03 0. -1.
         11   -1    0    0    0    0 -0.00000000000E+00 -0.00000000000E+00 -0.45593999997E+02  0.45594000000E+02  0.51100000000E-03 0.  1.
    9900012    2    1    2    0    0  0.13585729491E+02 -0.19308688432E+02  0.21431882197E+02  0.59301904766E+02  0.49999928396E+02 0.  0.
        -12    1    1    2    0    0 -0.13585729491E+02  0.19308688432E+02 -0.21431882197E+02  0.31886095234E+02  0.00000000000E+00 0.  1.
         11    1    3    3    0    0 -0.32410443070E+01 -0.14323768409E+01  0.36981989514E+01  0.51217914210E+01  0.51100000000E-03 0. -1.
        -11    1    3    3    0    0 -0.11712715907E+01  0.70761021221E+01 -0.10304219202E+02  0.12554681677E+02  0.51100000000E-03 0.  1.
         12    1    3    3    0    0  0.17998045389E+02 -0.24952413713E+02  0.28037902448E+02  0.41625431668E+02  0.00000000000E+00 0. -1.
</event>
<event>
 7    1  0.6830263E-012  0.5930193E+02  0.7816164E-02  0.1266605E+00
        -11   -1    0    0    0    0  0.00000000000E+00  0.00000000000E+00  0.45593999997E+02  0.45594000000E+02  0.51100000000E-03 0. -1.
         11   -1    0    0    0    0 -0.00000000000E+00 -0.00000000000E+00 -0.45593999997E+02  0.45594000000E+02  0.51100000000E-03 0.  1.
    9900012    2    1    2    0    0  0.16728582397E+02  0.36597786030E+01  0.26897618884E+02  0.59301931725E+02  0.49999977562E+02 0.  0.
        -12    1    1    2    0    0 -0.16728582397E+02 -0.36597786030E+01 -0.26897618884E+02  0.31886068275E+02  0.00000000000E+00 0.  1.
         11    1    3    3    0    0  0.19287249358E+01 -0.66447699219E+01  0.86817691094E+01  0.11101624310E+02  0.51100000000E-03 0. -1.
        -11    1    3    3    0    0  0.38409801384E+01  0.78039776087E+01 -0.12649776083E+02  0.15351613275E+02  0.51100000000E-03 0.  1.
         12    1    3    3    0    0  0.10958877323E+02  0.25005709162E+01  0.30865625857E+02  0.32848694139E+02  0.00000000000E+00 0. -1.
</event>
<event>
 7    1  0.6830263E-012  0.5930192E+02  0.7816164E-02  0.1266605E+00
        -11   -1    0    0    0    0  0.00000000000E+00  0.00000000000E+00  0.45593999997E+02  0.45594000000E+02  0.51100000000E-03 0.  1.
         11   -1    0    0    0    0 -0.00000000000E+00 -0.00000000000E+00 -0.45593999997E+02  0.45594000000E+02  0.51100000000E-03 0. -1.
    9900012    2    1    2    0    0  0.15909729732E+01 -0.31501137668E+02  0.46764588987E+01  0.59301919382E+02  0.49999955051E+02 0.  0.
        -12    1    1    2    0    0 -0.15909729732E+01  0.31501137668E+02 -0.46764588987E+01  0.31886080618E+02  0.00000000000E+00 0.  1.
         11    1    3    3    0    0  0.34466260963E+01 -0.15765492806E+02 -0.13849670204E+02  0.21266014198E+02  0.51100000000E-03 0. -1.
        -11    1    3    3    0    0 -0.15156949756E+02 -0.54424639969E+01  0.65337355875E+01  0.17379391280E+02  0.51100000000E-03 0.  1.
         12    1    3    3    0    0  0.13301296633E+02 -0.10293180865E+02  0.11992393515E+02  0.20656513903E+02  0.00000000000E+00 0. -1.
</event>
<event>
 7    1  0.6830263E-012  0.5930194E+02  0.7816164E-02  0.1266605E+00
        -11   -1    0    0    0    0  0.00000000000E+00  0.00000000000E+00  0.45593999997E+02  0.45594000000E+02  0.51100000000E-03 0.  1.
         11   -1    0    0    0    0 -0.00000000000E+00 -0.00000000000E+00 -0.45593999997E+02  0.45594000000E+02  0.51100000000E-03 0. -1.
    9900012    2    1    2    0    0  0.30909517662E+02  0.68753043965E+01 -0.37486762940E+01  0.59301942442E+02  0.49999997108E+02 0.  0.
        -12    1    1    2    0    0 -0.30909517662E+02 -0.68753043965E+01  0.37486762940E+01  0.31886057558E+02  0.00000000000E+00 0.  1.
         11    1    3    3    0    0  0.32440834261E+02  0.28411791791E+01 -0.94168780097E+01  0.33899227401E+02  0.51100000000E-03 0. -1.
        -11    1    3    3    0    0  0.89828163118E+01  0.54625481621E+01 -0.38027736242E+01  0.11179960144E+02  0.51100000000E-03 0.  1.
        -12    1    3    3    0    0 -0.10514132911E+02 -0.14284229447E+01  0.94709753399E+01  0.14222754897E+02  0.00000000000E+00 0.  1.
</event>
<event>
 7    1  0.6830263E-012  0.5930194E+02  0.7816164E-02  0.1266605E+00
        -11   -1    0    0    0    0  0.00000000000E+00  0.00000000000E+00  0.45593999997E+02  0.45594000000E+02  0.51100000000E-03 0. -1.
         11   -1    0    0    0    0 -0.00000000000E+00 -0.00000000000E+00 -0.45593999997E+02  0.45594000000E+02  0.51100000000E-03 0.  1.
    9900012    2    1    2    0    0  0.10942459874E+02  0.85561097743E+01  0.28701505247E+02  0.59301939629E+02  0.49999991977E+02 0.  0.
        -12    1    1    2    0    0 -0.10942459874E+02 -0.85561097743E+01 -0.28701505247E+02  0.31886060371E+02  0.00000000000E+00 0.  1.
         11    1    3    3    0    0 -0.44998956765E+01 -0.75226777267E+01  0.14165915178E+02  0.16658718269E+02  0.51100000000E-03 0. -1.
        -11    1    3    3    0    0  0.32064402169E+00 -0.26853466258E+01  0.18083418863E+02  0.18284527260E+02  0.51100000000E-03 0.  1.
        -12    1    3    3    0    0  0.15121711529E+02  0.18764134127E+02 -0.35478287935E+01  0.24358694100E+02  0.00000000000E+00 0.  1.
</event>
<event>
 7    1  0.6830263E-012  0.5930192E+02  0.7816164E-02  0.1266605E+00
        -11   -1    0    0    0    0  0.00000000000E+00  0.00000000000E+00  0.45593999997E+02  0.45594000000E+02  0.51100000000E-03 0.  1.
         11   -1    0    0    0    0 -0.00000000000E+00 -0.00000000000E+00 -0.45593999997E+02  0.45594000000E+02  0.51100000000E-03 0. -1.
    9900012    2    1    2    0    0 -0.18222443865E+01  0.21056288130E+02 -0.23875396667E+02  0.59301915098E+02  0.49999947238E+02 0.  0.
        -12    1    1    2    0    0  0.18222443865E+01 -0.21056288130E+02  0.23875396667E+02  0.31886084902E+02  0.00000000000E+00 0.  1.
         11    1    3    3    0    0 -0.46761845186E+01 -0.39307026919E+00 -0.22609910992E+02  0.23091757863E+02  0.51100000000E-03 0. -1.
        -11    1    3    3    0    0 -0.78027009879E+01 -0.14761110567E+01  0.59460076047E+01  0.99204865433E+01  0.51100000000E-03 0.  1.
        -12    1    3    3    0    0  0.10656641120E+02  0.22925469456E+02 -0.72114932797E+01  0.26289670691E+02  0.00000000000E+00 0.  1.
</event>
<event>
 7    1  0.6830263E-012  0.5930194E+02  0.7816164E-02  0.1266605E+00
        -11   -1    0    0    0    0  0.00000000000E+00  0.00000000000E+00  0.45593999997E+02  0.45594000000E+02  0.51100000000E-03 0.  1.
         11   -1    0    0    0    0 -0.00000000000E+00 -0.00000000000E+00 -0.45593999997E+02  0.45594000000E+02  0.51100000000E-03 0. -1.
    9900012    2    1    2    0    0  0.11076279307E+02  0.70954415039E+01 -0.29046372992E+02  0.59301936627E+02  0.49999986503E+02 0.  0.
        -12    1    1    2    0    0 -0.11076279307E+02 -0.70954415039E+01  0.29046372992E+02  0.31886063373E+02  0.00000000000E+00 0.  1.
         11    1    3    3    0    0 -0.10539949760E+02  0.10431912962E+02 -0.65953090163E+01  0.16230016953E+02  0.51100000000E-03 0. -1.
        -11    1    3    3    0    0  0.28481981344E+01 -0.55010855843E+01  0.61924400025E+01  0.87590232711E+01  0.51100000000E-03 0.  1.
        -12    1    3    3    0    0  0.18768030933E+02  0.21646141262E+01 -0.28643503979E+02  0.34312896403E+02  0.00000000000E+00 0.  1.
</event>
<event>
 7    1  0.6830263E-012  0.5930195E+02  0.7816164E-02  0.1266605E+00
        -11   -1    0    0    0    0  0.00000000000E+00  0.00000000000E+00  0.45593999997E+02  0.45594000000E+02  0.51100000000E-03 0.  1.
         11   -1    0    0    0    0 -0.00000000000E+00 -0.00000000000E+00 -0.45593999997E+02  0.45594000000E+02  0.51100000000E-03 0. -1.
    9900012    2    1    2    0    0  0.85659966774E+01 -0.91630090976E+01 -0.29315233641E+02  0.59301953550E+02  0.50000017366E+02 0.  0.
        -12    1    1    2    0    0 -0.85659966774E+01  0.91630090976E+01  0.29315233641E+02  0.31886046450E+02  0.00000000000E+00 0.  1.
         11    1    3    3    0    0  0.13536778594E+02  0.41054980235E+00 -0.25152607256E+02  0.28566879036E+02  0.51100000000E-03 0. -1.
        -11    1    3    3    0    0  0.70158248735E+01 -0.38271622290E+01  0.89943836988E+01  0.12031953614E+02  0.51100000000E-03 0.  1.
         12    1    3    3    0    0 -0.11986606790E+02 -0.57463966709E+01 -0.13157010084E+02  0.18703120899E+02  0.00000000000E+00 0. -1.
</event>
<event>
 7    1  0.6830263E-012  0.5930191E+02  0.7816164E-02  0.1266605E+00
        -11   -1    0    0    0    0  0.00000000000E+00  0.00000000000E+00  0.45593999997E+02  0.45594000000E+02  0.51100000000E-03 0.  1.
         11   -1    0    0    0    0 -0.00000000000E+00 -0.00000000000E+00 -0.45593999997E+02  0.45594000000E+02  0.51100000000E-03 0. -1.
    9900012    2    1    2    0    0 -0.30148131721E+02  0.40448175333E+01  0.95630639441E+01  0.59301912327E+02  0.49999942185E+02 0.  0.
        -12    1    1    2    0    0  0.30148131721E+02 -0.40448175333E+01 -0.95630639441E+01  0.31886087673E+02  0.00000000000E+00 0.  1.
         11    1    3    3    0    0 -0.10022512365E+02  0.20824240297E+01 -0.27429217061E+01  0.10597681997E+02  0.51100000000E-03 0. -1.
        -11    1    3    3    0    0  0.90654029050E+00  0.19191922903E+02  0.94177659917E+00  0.19236389044E+02  0.51100000000E-03 0.  1.
         12    1    3    3    0    0 -0.21032159646E+02 -0.17229529400E+02  0.11364209051E+02  0.29467841286E+02  0.00000000000E+00 0. -1.
</event>
<event>
 7    1  0.6830263E-012  0.5930193E+02  0.7816164E-02  0.1266605E+00
        -11   -1    0    0    0    0  0.00000000000E+00  0.00000000000E+00  0.45593999997E+02  0.45594000000E+02  0.51100000000E-03 0.  1.
         11   -1    0    0    0    0 -0.00000000000E+00 -0.00000000000E+00 -0.45593999997E+02  0.45594000000E+02  0.51100000000E-03 0. -1.
    9900012    2    1    2    0    0 -0.30453131815E+01  0.24548359559E+02 -0.20120281466E+02  0.59301927559E+02  0.49999969966E+02 0.  0.
        -12    1    1    2    0    0  0.30453131815E+01 -0.24548359559E+02  0.20120281466E+02  0.31886072441E+02  0.00000000000E+00 0.  1.
         11    1    3    3    0    0  0.27102055676E+01 -0.11970750345E+01 -0.16789708514E+01  0.34054583007E+01  0.51100000000E-03 0. -1.
        -11    1    3    3    0    0  0.18944738750E+02  0.30178345094E+01 -0.60133210454E+01  0.20103991685E+02  0.51100000000E-03 0.  1.
         12    1    3    3    0    0 -0.24700257499E+02  0.22727600084E+02 -0.12427989569E+02  0.35792477573E+02  0.00000000000E+00 0. -1.
</event>
<event>
 7    1  0.6830263E-012  0.5930194E+02  0.7816164E-02  0.1266605E+00
        -11   -1    0    0    0    0  0.00000000000E+00  0.00000000000E+00  0.45593999997E+02  0.45594000000E+02  0.51100000000E-03 0. -1.
         11   -1    0    0    0    0 -0.00000000000E+00 -0.00000000000E+00 -0.45593999997E+02  0.45594000000E+02  0.51100000000E-03 0.  1.
    9900012    2    1    2    0    0 -0.11020778925E+02  0.18377804937E+02  0.23611849634E+02  0.59301941518E+02  0.49999995423E+02 0.  0.
        -12    1    1    2    0    0  0.11020778925E+02 -0.18377804937E+02 -0.23611849634E+02  0.31886058482E+02  0.00000000000E+00 0.  1.
         11    1    3    3    0    0 -0.49810912436E+01 -0.21401604636E+01  0.12679392624E+01  0.55676949468E+01  0.51100000000E-03 0. -1.
        -11    1    3    3    0    0 -0.53528470749E+01 -0.69201264547E+01 -0.86716610342E+01  0.12318231501E+02  0.51100000000E-03 0.  1.
         12    1    3    3    0    0 -0.68684060605E+00  0.27438091855E+02  0.31015571406E+02  0.41416015070E+02  0.00000000000E+00 0. -1.
</event>
<event>
 7    1  0.6830263E-012  0.5930200E+02  0.7816164E-02  0.1266605E+00
        -11   -1    0    0    0    0  0.00000000000E+00  0.00000000000E+00  0.45593999997E+02  0.45594000000E+02  0.51100000000E-03 0.  1.
         11   -1    0    0    0    0 -0.00000000000E+00 -0.00000000000E+00 -0.45593999997E+02  0.45594000000E+02  0.51100000000E-03 0. -1.
    9900012    2    1    2    0    0 -0.11389859347E+02  0.28512400604E+02  0.86041247268E+01  0.59302002345E+02  0.50000106357E+02 0.  0.
        -12    1    1    2    0    0  0.11389859347E+02 -0.28512400604E+02 -0.86041247268E+01  0.31885997655E+02  0.00000000000E+00 0.  1.
         11    1    3    3    0    0 -0.13809223860E+02  0.22012749197E+02  0.20533300215E+02  0.33119061110E+02  0.51100000000E-03 0. -1.
        -11    1    3    3    0    0  0.23806487204E+01  0.27003788809E+01  0.64654019850E+01  0.74000646969E+01  0.51100000000E-03 0.  1.
         12    1    3    3    0    0  0.38715791931E-01  0.37992725259E+01 -0.18394577473E+02  0.18782876538E+02  0.00000000000E+00 0. -1.
</event>
<event>
 7    1  0.6830263E-012  0.5930195E+02  0.7816164E-02  0.1266605E+00
        -11   -1    0    0    0    0  0.00000000000E+00  0.00000000000E+00  0.45593999997E+02  0.45594000000E+02  0.51100000000E-03 0.  1.
         11   -1    0    0    0    0 -0.00000000000E+00 -0.00000000000E+00 -0.45593999997E+02  0.45594000000E+02  0.51100000000E-03 0. -1.
    9900012    2    1    2    0    0 -0.24053287606E+02 -0.19423382095E+02  0.78033253003E+01  0.59301948153E+02  0.50000007523E+02 0.  0.
        -12    1    1    2    0    0  0.24053287606E+02  0.19423382095E+02 -0.78033253003E+01  0.31886051847E+02  0.00000000000E+00 0.  1.
         11    1    3    3    0    0 -0.99572499896E+01  0.90734975518E+01  0.20318651995E+01  0.13623643478E+02  0.51100000000E-03 0. -1.
        -11    1    3    3    0    0  0.65432037534E+01  0.14429739422E+01  0.64599438228E+01  0.93073392337E+01  0.51100000000E-03 0.  1.
        -12    1    3    3    0    0 -0.20639241370E+02 -0.29939853589E+02 -0.68848372196E+00  0.36370965441E+02  0.00000000000E+00 0.  1.
</event>
<event>
 7    1  0.6830263E-012  0.5930194E+02  0.7816164E-02  0.1266605E+00
        -11   -1    0    0    0    0  0.00000000000E+00  0.00000000000E+00  0.45593999997E+02  0.45594000000E+02  0.51100000000E-03 0.  1.
         11   -1    0    0    0    0 -0.00000000000E+00 -0.00000000000E+00 -0.45593999997E+02  0.45594000000E+02  0.51100000000E-03 0. -1.
    9900012    2    1    2    0    0  0.85441046547E+01 -0.16224176745E+02 -0.26086297432E+02  0.59301944284E+02  0.50000000467E+02 0.  0.
        -12    1    1    2    0    0 -0.85441046547E+01  0.16224176745E+02  0.26086297432E+02  0.31886055716E+02  0.00000000000E+00 0.  1.
         11    1    3    3    0    0 -0.64516291651E+01  0.13565315902E+02 -0.72741812257E+01  0.16689967860E+02  0.51100000000E-03 0. -1.
        -11    1    3    3    0    0  0.14220230098E+02 -0.93244002350E+01 -0.43856173818E+01  0.17561122511E+02  0.51100000000E-03 0.  1.
        -12    1    3    3    0    0  0.77550372219E+00 -0.20465092411E+02 -0.14426498825E+02  0.25050853913E+02  0.00000000000E+00 0.  1.
</event>
<event>
 7    1  0.6830263E-012  0.5930195E+02  0.7816164E-02  0.1266605E+00
        -11   -1    0    0    0    0  0.00000000000E+00  0.00000000000E+00  0.45593999997E+02  0.45594000000E+02  0.51100000000E-03 0.  1.
         11   -1    0    0    0    0 -0.00000000000E+00 -0.00000000000E+00 -0.45593999997E+02  0.45594000000E+02  0.51100000000E-03 0. -1.
    9900012    2    1    2    0    0  0.18020148396E+02 -0.26304168313E+02 -0.29197620635E+00  0.59301948678E+02  0.50000008481E+02 0.  0.
        -12    1    1    2    0    0 -0.18020148396E+02  0.26304168313E+02  0.29197620635E+00  0.31886051322E+02  0.00000000000E+00 0.  1.
         11    1    3    3    0    0  0.37596681563E+01 -0.22017482883E+02 -0.30990835045E+01  0.22550143592E+02  0.51100000000E-03 0. -1.
        -11    1    3    3    0    0  0.62739272003E+01 -0.61543533393E+01 -0.14865240101E+02  0.17268861893E+02  0.51100000000E-03 0.  1.
        -12    1    3    3    0    0  0.79865530392E+01  0.18676679102E+01  0.17672347400E+02  0.19482943193E+02  0.00000000000E+00 0.  1.
</event>
<event>
 7    1  0.6830263E-012  0.5930194E+02  0.7816164E-02  0.1266605E+00
        -11   -1    0    0    0    0  0.00000000000E+00  0.00000000000E+00  0.45593999997E+02  0.45594000000E+02  0.51100000000E-03 0.  1.
         11   -1    0    0    0    0 -0.00000000000E+00 -0.00000000000E+00 -0.45593999997E+02  0.45594000000E+02  0.51100000000E-03 0. -1.
    9900012    2    1    2    0    0  0.27881253869E+01  0.98929569109E+01 -0.30184040678E+02  0.59301944250E+02  0.50000000406E+02 0.  0.
        -12    1    1    2    0    0 -0.27881253869E+01 -0.98929569109E+01  0.30184040678E+02  0.31886055750E+02  0.00000000000E+00 0.  1.
         11    1    3    3    0    0  0.14521234872E+02 -0.80452823361E+01 -0.30150117305E+02  0.34418344002E+02  0.51100000000E-03 0. -1.
        -11    1    3    3    0    0  0.15231660993E+01  0.80390929625E+01 -0.13252078012E+01  0.82887409541E+01  0.51100000000E-03 0.  1.
        -12    1    3    3    0    0 -0.13256275584E+02  0.98991462845E+01  0.12912844279E+01  0.16594859294E+02  0.00000000000E+00 0.  1.
</event>
<event>
 7    1  0.6830263E-012  0.5930195E+02  0.7816164E-02  0.1266605E+00
        -11   -1    0    0    0    0  0.00000000000E+00  0.00000000000E+00  0.45593999997E+02  0.45594000000E+02  0.51100000000E-03 0.  1.
         11   -1    0    0    0    0 -0.00000000000E+00 -0.00000000000E+00 -0.45593999997E+02  0.45594000000E+02  0.51100000000E-03 0. -1.
    9900012    2    1    2    0    0 -0.20277744017E+02  0.14964317208E+02 -0.19534652803E+02  0.59301947374E+02  0.50000006104E+02 0.  0.
        -12    1    1    2    0    0  0.20277744017E+02 -0.14964317208E+02  0.19534652803E+02  0.31886052626E+02  0.00000000000E+00 0.  1.
         11    1    3    3    0    0 -0.28209202599E+02  0.15987526721E+02 -0.49882522605E+01  0.32806139407E+02  0.51100000000E-03 0. -1.
        -11    1    3    3    0    0 -0.67396331930E+01 -0.44631946818E+00 -0.16481817660E+01  0.69525793802E+01  0.51100000000E-03 0.  1.
         12    1    3    3    0    0  0.14671091775E+02 -0.57689004548E+00 -0.12898218776E+02  0.19543228587E+02  0.00000000000E+00 0. -1.
</event>
<event>
 7    1  0.6830263E-012  0.5930192E+02  0.7816164E-02  0.1266605E+00
        -11   -1    0    0    0    0  0.00000000000E+00  0.00000000000E+00  0.45593999997E+02  0.45594000000E+02  0.51100000000E-03 0.  1.
         11   -1    0    0    0    0 -0.00000000000E+00 -0.00000000000E+00 -0.45593999997E+02  0.45594000000E+02  0.51100000000E-03 0. -1.
    9900012    2    1    2    0    0 -0.74108780745E+00  0.31012672803E+02 -0.73747472837E+01  0.59301921799E+02  0.49999959460E+02 0.  0.
        -12    1    1    2    0    0  0.74108780745E+00 -0.31012672803E+02  0.73747472837E+01  0.31886078201E+02  0.00000000000E+00 0.  1.
         11    1    3    3    0    0 -0.39588196414E+01 -0.64873497044E+01 -0.56896619007E+00  0.76211339003E+01  0.51100000000E-03 0. -1.
        -11    1    3    3    0    0 -0.11454663410E+02  0.19496053678E+02  0.81733744227E+01  0.24043907182E+02  0.51100000000E-03 0.  1.
         12    1    3    3    0    0  0.14672395244E+02  0.18003968829E+02 -0.14979155516E+02  0.27636880717E+02  0.00000000000E+00 0. -1.
</event>
<event>
 7    1  0.6830263E-012  0.5930188E+02  0.7816164E-02  0.1266605E+00
        -11   -1    0    0    0    0  0.00000000000E+00  0.00000000000E+00  0.45593999997E+02  0.45594000000E+02  0.51100000000E-03 0.  1.
         11   -1    0    0    0    0 -0.00000000000E+00 -0.00000000000E+00 -0.45593999997E+02  0.45594000000E+02  0.51100000000E-03 0. -1.
    9900012    2    1    2    0    0  0.73026942329E+01 -0.12399039495E+02 -0.28454504944E+02  0.59301884290E+02  0.49999891053E+02 0.  0.
        -12    1    1    2    0    0 -0.73026942329E+01  0.12399039495E+02  0.28454504944E+02  0.31886115710E+02  0.00000000000E+00 0.  1.
         11    1    3    3    0    0  0.43656847772E+01  0.30661479750E+01 -0.32997995344E+02  0.33426459040E+02  0.51100000000E-03 0. -1.
        -11    1    3    3    0    0  0.36422682212E+01  0.34530133645E+01  0.47966005205E+01  0.69423912239E+01  0.51100000000E-03 0.  1.
        -12    1    3    3    0    0 -0.70525876551E+00 -0.18918200834E+02 -0.25311012065E+00  0.18933034027E+02  0.00000000000E+00 0.  1.
</event>
<event>
 7    1  0.6830263E-012  0.5930190E+02  0.7816164E-02  0.1266605E+00
        -11   -1    0    0    0    0  0.00000000000E+00  0.00000000000E+00  0.45593999997E+02  0.45594000000E+02  0.51100000000E-03 0.  1.
         11   -1    0    0    0    0 -0.00000000000E+00 -0.00000000000E+00 -0.45593999997E+02  0.45594000000E+02  0.51100000000E-03 0. -1.
    9900012    2    1    2    0    0  0.31064995942E+02  0.11275493212E+01 -0.71005732838E+01  0.59301898305E+02  0.49999916613E+02 0.  0.
        -12    1    1    2    0    0 -0.31064995942E+02 -0.11275493212E+01  0.71005732838E+01  0.31886101695E+02  0.00000000000E+00 0.  1.
         11    1    3    3    0    0  0.95755369133E+01  0.16792987287E+01 -0.85369888977E+01  0.12937972449E+02  0.51100000000E-03 0. -1.
        -11    1    3    3    0    0  0.31691813928E+02 -0.88700597756E+01  0.32758787474E+01  0.33072351175E+02  0.51100000000E-03 0.  1.
        -12    1    3    3    0    0 -0.10202354899E+02  0.83183103681E+01 -0.18394631336E+01  0.13291574681E+02  0.00000000000E+00 0.  1.
</event>
<event>
 7    1  0.6830263E-012  0.5930192E+02  0.7816164E-02  0.1266605E+00
        -11   -1    0    0    0    0  0.00000000000E+00  0.00000000000E+00  0.45593999997E+02  0.45594000000E+02  0.51100000000E-03 0.  1.
         11   -1    0    0    0    0 -0.00000000000E+00 -0.00000000000E+00 -0.45593999997E+02  0.45594000000E+02  0.51100000000E-03 0. -1.
    9900012    2    1    2    0    0  0.22213306625E+02 -0.84528996706E+01 -0.21256514703E+02  0.59301922766E+02  0.49999961223E+02 0.  0.
        -12    1    1    2    0    0 -0.22213306625E+02  0.84528996706E+01  0.21256514703E+02  0.31886077234E+02  0.00000000000E+00 0.  1.
         11    1    3    3    0    0 -0.53918989320E+00 -0.12524036928E+02 -0.37865087564E+01  0.13095032475E+02  0.51100000000E-03 0.  1.
        -11    1    3    3    0    0 -0.98232025245E+01 -0.50197949120E+00 -0.49325915680E+01  0.11003533573E+02  0.51100000000E-03 0. -1.
        -12    1    3    3    0    0  0.32575699042E+02  0.45731167481E+01 -0.12537414379E+02  0.35203356718E+02  0.00000000000E+00 0.  1.
</event>
<event>
 7    1  0.6830263E-012  0.5930196E+02  0.7816164E-02  0.1266605E+00
        -11   -1    0    0    0    0  0.00000000000E+00  0.00000000000E+00  0.45593999997E+02  0.45594000000E+02  0.51100000000E-03 0. -1.
         11   -1    0    0    0    0 -0.00000000000E+00 -0.00000000000E+00 -0.45593999997E+02  0.45594000000E+02  0.51100000000E-03 0.  1.
    9900012    2    1    2    0    0  0.28047865416E+02  0.13340766530E+02 -0.72153280371E+01  0.59301956585E+02  0.50000022901E+02 0.  0.
        -12    1    1    2    0    0 -0.28047865416E+02 -0.13340766530E+02  0.72153280371E+01  0.31886043415E+02  0.00000000000E+00 0.  1.
         11    1    3    3    0    0 -0.40469730779E+01 -0.11390761763E+01 -0.77169451558E+01  0.87878739424E+01  0.51100000000E-03 0. -1.
        -11    1    3    3    0    0  0.16096388767E+02  0.26038941115E+02  0.22773400764E+01  0.30697010666E+02  0.51100000000E-03 0.  1.
         12    1    3    3    0    0  0.15998449727E+02 -0.11559098409E+02 -0.17757229576E+01  0.19817071977E+02  0.00000000000E+00 0. -1.
</event>
<event>
 7    1  0.6830263E-012  0.5930194E+02  0.7816164E-02  0.1266605E+00
        -11   -1    0    0    0    0  0.00000000000E+00  0.00000000000E+00  0.45593999997E+02  0.45594000000E+02  0.51100000000E-03 0. -1.
         11   -1    0    0    0    0 -0.00000000000E+00 -0.00000000000E+00 -0.45593999997E+02  0.45594000000E+02  0.51100000000E-03 0.  1.
    9900012    2    1    2    0    0  0.31704544778E+02 -0.20365758767E+01 -0.27193973911E+01  0.59301938421E+02  0.49999989774E+02 0.  0.
        -12    1    1    2    0    0 -0.31704544778E+02  0.20365758767E+01  0.27193973911E+01  0.31886061579E+02  0.00000000000E+00 0.  1.
         11    1    3    3    0    0  0.22756779951E+02 -0.21573545074E+01 -0.12632503806E+01  0.22893689392E+02  0.51100000000E-03 0. -1.
        -11    1    3    3    0    0  0.12389000089E+02  0.48070459580E+01 -0.15968431771E+02  0.20774643860E+02  0.51100000000E-03 0.  1.
         12    1    3    3    0    0 -0.34412352620E+01 -0.46862673273E+01  0.14512284760E+02  0.15633605168E+02  0.00000000000E+00 0. -1.
</event>
<event>
 7    1  0.6830263E-012  0.5930196E+02  0.7816164E-02  0.1266605E+00
        -11   -1    0    0    0    0  0.00000000000E+00  0.00000000000E+00  0.45593999997E+02  0.45594000000E+02  0.51100000000E-03 0.  1.
         11   -1    0    0    0    0 -0.00000000000E+00 -0.00000000000E+00 -0.45593999997E+02  0.45594000000E+02  0.51100000000E-03 0. -1.
    9900012    2    1    2    0    0 -0.11980171602E+02 -0.23036830725E+02 -0.18506737469E+02  0.59301962096E+02  0.50000032952E+02 0.  0.
        -12    1    1    2    0    0  0.11980171602E+02  0.23036830725E+02  0.18506737469E+02  0.31886037904E+02  0.00000000000E+00 0.  1.
         11    1    3    3    0    0 -0.71934025099E+01 -0.71723462343E+01 -0.10844846720E+02  0.14859282985E+02  0.51100000000E-03 0. -1.
        -11    1    3    3    0    0 -0.18303732005E+02 -0.12081230746E+02 -0.16858214923E+02  0.27661926041E+02  0.51100000000E-03 0.  1.
        -12    1    3    3    0    0  0.13516962913E+02 -0.37832537441E+01  0.91963241741E+01  0.16780753070E+02  0.00000000000E+00 0.  1.
</event>
<event>
 7    1  0.6830263E-012  0.5930193E+02  0.7816164E-02  0.1266605E+00
        -11   -1    0    0    0    0  0.00000000000E+00  0.00000000000E+00  0.45593999997E+02  0.45594000000E+02  0.51100000000E-03 0.  1.
         11   -1    0    0    0    0 -0.00000000000E+00 -0.00000000000E+00 -0.45593999997E+02  0.45594000000E+02  0.51100000000E-03 0. -1.
    9900012    2    1    2    0    0 -0.66898616508E+01 -0.29067518501E+02  0.11271495855E+02  0.59301929381E+02  0.49999973288E+02 0.  0.
        -12    1    1    2    0    0  0.66898616508E+01  0.29067518501E+02 -0.11271495855E+02  0.31886070619E+02  0.00000000000E+00 0.  1.
         11    1    3    3    0    0  0.13163520742E+02 -0.17456995361E+02 -0.62840340371E+01  0.22748935127E+02  0.51100000000E-03 0. -1.
        -11    1    3    3    0    0 -0.21296664792E+01 -0.10761553106E+02 -0.82986986803E+00  0.11001599376E+02  0.51100000000E-03 0.  1.
        -12    1    3    3    0    0 -0.17723715913E+02 -0.84897003333E+00  0.18385399761E+02  0.25551394879E+02  0.00000000000E+00 0.  1.
</event>
<event>
 7    1  0.6830263E-012  0.5930189E+02  0.7816164E-02  0.1266605E+00
        -11   -1    0    0    0    0  0.00000000000E+00  0.00000000000E+00  0.45593999997E+02  0.45594000000E+02  0.51100000000E-03 0.  1.
         11   -1    0    0    0    0 -0.00000000000E+00 -0.00000000000E+00 -0.45593999997E+02  0.45594000000E+02  0.51100000000E-03 0. -1.
    9900012    2    1    2    0    0 -0.13042376001E+02 -0.28944103401E+02 -0.29764676467E+01  0.59301889339E+02  0.49999900261E+02 0.  0.
        -12    1    1    2    0    0  0.13042376001E+02  0.28944103401E+02  0.29764676467E+01  0.31886110661E+02  0.00000000000E+00 0.  1.
         11    1    3    3    0    0 -0.13279896169E+02 -0.29593766251E+02  0.37705658566E+01  0.32655226386E+02  0.51100000000E-03 0. -1.
        -11    1    3    3    0    0 -0.95128154589E+01  0.10486262560E+01  0.54600775093E+01  0.11018426460E+02  0.51100000000E-03 0.  1.
         12    1    3    3    0    0  0.97503356263E+01 -0.39896340582E+00 -0.12207111013E+02  0.15628236494E+02  0.00000000000E+00 0. -1.
</event>
<event>
 7    1  0.6830263E-012  0.5930197E+02  0.7816164E-02  0.1266605E+00
        -11   -1    0    0    0    0  0.00000000000E+00  0.00000000000E+00  0.45593999997E+02  0.45594000000E+02  0.51100000000E-03 0.  1.
         11   -1    0    0    0    0 -0.00000000000E+00 -0.00000000000E+00 -0.45593999997E+02  0.45594000000E+02  0.51100000000E-03 0. -1.
    9900012    2    1    2    0    0 -0.26245754312E+02 -0.16028664455E+02 -0.84238651626E+01  0.59301965315E+02  0.50000038824E+02 0.  0.
        -12    1    1    2    0    0  0.26245754312E+02  0.16028664455E+02  0.84238651626E+01  0.31886034685E+02  0.00000000000E+00 0.  1.
         11    1    3    3    0    0 -0.31015695094E+01 -0.86535813684E+01 -0.70472211640E+01  0.11583070850E+02  0.51100000000E-03 0. -1.
        -11    1    3    3    0    0 -0.64914201945E+01 -0.21110408029E+02  0.88992193554E+01  0.23811425171E+02  0.51100000000E-03 0.  1.
         12    1    3    3    0    0 -0.16652764608E+02  0.13735324942E+02 -0.10275863354E+02  0.23907469294E+02  0.00000000000E+00 0. -1.
</event>
<event>
 7    1  0.6830263E-012  0.5930196E+02  0.7816164E-02  0.1266605E+00
        -11   -1    0    0    0    0  0.00000000000E+00  0.00000000000E+00  0.45593999997E+02  0.45594000000E+02  0.51100000000E-03 0.  1.
         11   -1    0    0    0    0 -0.00000000000E+00 -0.00000000000E+00 -0.45593999997E+02  0.45594000000E+02  0.51100000000E-03 0. -1.
    9900012    2    1    2    0    0 -0.29370863208E+02 -0.46626434318E+01 -0.11503557683E+02  0.59301957776E+02  0.50000025074E+02 0.  0.
        -12    1    1    2    0    0  0.29370863208E+02  0.46626434318E+01  0.11503557683E+02  0.31886042224E+02  0.00000000000E+00 0.  1.
         11    1    3    3    0    0 -0.14949316032E+02 -0.70407149372E+01 -0.20110763804E+02  0.26028763661E+02  0.51100000000E-03 0. -1.
        -11    1    3    3    0    0 -0.16780939711E+01 -0.18145324905E+01 -0.10018634460E+02  0.10318990466E+02  0.51100000000E-03 0.  1.
        -12    1    3    3    0    0 -0.12743453205E+02  0.41926039959E+01  0.18625840581E+02  0.22954203650E+02  0.00000000000E+00 0.  1.
</event>
<event>
 7    1  0.6830263E-012  0.5930195E+02  0.7816164E-02  0.1266605E+00
        -11   -1    0    0    0    0  0.00000000000E+00  0.00000000000E+00  0.45593999997E+02  0.45594000000E+02  0.51100000000E-03 0.  1.
         11   -1    0    0    0    0 -0.00000000000E+00 -0.00000000000E+00 -0.45593999997E+02  0.45594000000E+02  0.51100000000E-03 0. -1.
    9900012    2    1    2    0    0  0.10279205623E+02 -0.20049256724E+02 -0.22562918112E+02  0.59301952312E+02  0.50000015108E+02 0.  0.
        -12    1    1    2    0    0 -0.10279205623E+02  0.20049256724E+02  0.22562918112E+02  0.31886047688E+02  0.00000000000E+00 0.  1.
         11    1    3    3    0    0 -0.41000549727E+01 -0.17157115025E+02 -0.25594903399E+02  0.31084982340E+02  0.51100000000E-03 0. -1.
        -11    1    3    3    0    0  0.58784816679E+00 -0.85750599660E+01 -0.62688939726E+01  0.10638432722E+02  0.51100000000E-03 0.  1.
        -12    1    3    3    0    0  0.13791412429E+02  0.56829182675E+01  0.93008792598E+01  0.17578537250E+02  0.00000000000E+00 0.  1.
</event>
<event>
 7    1  0.6830263E-012  0.5930192E+02  0.7816164E-02  0.1266605E+00
        -11   -1    0    0    0    0  0.00000000000E+00  0.00000000000E+00  0.45593999997E+02  0.45594000000E+02  0.51100000000E-03 0.  1.
         11   -1    0    0    0    0 -0.00000000000E+00 -0.00000000000E+00 -0.45593999997E+02  0.45594000000E+02  0.51100000000E-03 0. -1.
    9900012    2    1    2    0    0  0.42449976127E+00  0.94105293954E+01 -0.30462831228E+02  0.59301916045E+02  0.49999948966E+02 0.  0.
        -12    1    1    2    0    0 -0.42449976127E+00 -0.94105293954E+01  0.30462831228E+02  0.31886083955E+02  0.00000000000E+00 0.  1.
         11    1    3    3    0    0  0.17619426590E+02 -0.94871108721E+01 -0.15062003190E+02  0.25046225393E+02  0.51100000000E-03 0. -1.
        -11    1    3    3    0    0 -0.74072186599E+01 -0.18211470527E+01 -0.47602939742E+01  0.89913215851E+01  0.51100000000E-03 0.  1.
        -12    1    3    3    0    0 -0.97877081687E+01  0.20718787320E+02 -0.10640534064E+02  0.25264369067E+02  0.00000000000E+00 0.  1.
</event>
<event>
 7    1  0.6830263E-012  0.5930196E+02  0.7816164E-02  0.1266605E+00
        -11   -1    0    0    0    0  0.00000000000E+00  0.00000000000E+00  0.45593999997E+02  0.45594000000E+02  0.51100000000E-03 0. -1.
         11   -1    0    0    0    0 -0.00000000000E+00 -0.00000000000E+00 -0.45593999997E+02  0.45594000000E+02  0.51100000000E-03 0.  1.
    9900012    2    1    2    0    0 -0.21028670486E+02 -0.42372932631E+01  0.23591522675E+02  0.59301959500E+02  0.50000028219E+02 0.  0.
        -12    1    1    2    0    0  0.21028670486E+02  0.42372932631E+01 -0.23591522675E+02  0.31886040500E+02  0.00000000000E+00 0.  1.
         11    1    3    3    0    0 -0.20770356943E+02 -0.16529401263E+02  0.22238197175E+02  0.34628979880E+02  0.51100000000E-03 0. -1.
        -11    1    3    3    0    0 -0.15035512638E+01 -0.33721651516E+01  0.70501970461E+01  0.79584824472E+01  0.51100000000E-03 0.  1.
        -12    1    3    3    0    0  0.12452377204E+01  0.15664273152E+02 -0.56968715459E+01  0.16714497174E+02  0.00000000000E+00 0.  1.
</event>
<event>
 7    1  0.6830263E-012  0.5930194E+02  0.7816164E-02  0.1266605E+00
        -11   -1    0    0    0    0  0.00000000000E+00  0.00000000000E+00  0.45593999997E+02  0.45594000000E+02  0.51100000000E-03 0. -1.
         11   -1    0    0    0    0 -0.00000000000E+00 -0.00000000000E+00 -0.45593999997E+02  0.45594000000E+02  0.51100000000E-03 0.  1.
    9900012    2    1    2    0    0 -0.16110116924E+02  0.21957265422E+02  0.16585043994E+02  0.59301936329E+02  0.49999985960E+02 0.  0.
        -12    1    1    2    0    0  0.16110116924E+02 -0.21957265422E+02 -0.16585043994E+02  0.31886063671E+02  0.00000000000E+00 0.  1.
         11    1    3    3    0    0 -0.15412579506E+02  0.19293561660E+02  0.13829656187E+02  0.28302800552E+02  0.51100000000E-03 0. -1.
        -11    1    3    3    0    0  0.55076484683E+01  0.12885899600E+02  0.98184134181E+01  0.17110869132E+02  0.51100000000E-03 0.  1.
        -12    1    3    3    0    0 -0.62051858863E+01 -0.10222195838E+02 -0.70630256115E+01  0.13888266645E+02  0.00000000000E+00 0.  1.
</event>
<event>
 7    1  0.6830263E-012  0.5930197E+02  0.7816164E-02  0.1266605E+00
        -11   -1    0    0    0    0  0.00000000000E+00  0.00000000000E+00  0.45593999997E+02  0.45594000000E+02  0.51100000000E-03 0.  1.
         11   -1    0    0    0    0 -0.00000000000E+00 -0.00000000000E+00 -0.45593999997E+02  0.45594000000E+02  0.51100000000E-03 0. -1.
    9900012    2    1    2    0    0  0.14121553629E+02  0.28206414368E+02 -0.46581709927E+01  0.59301974136E+02  0.50000054910E+02 0.  0.
        -12    1    1    2    0    0 -0.14121553629E+02 -0.28206414368E+02  0.46581709927E+01  0.31886025864E+02  0.00000000000E+00 0.  1.
         11    1    3    3    0    0  0.95094887181E+00  0.55916189359E+01 -0.20505121018E+01  0.60311778469E+01  0.51100000000E-03 0. -1.
        -11    1    3    3    0    0  0.19006177326E+02  0.34098043919E+02  0.31446845291E+01  0.39163764077E+02  0.51100000000E-03 0.  1.
         12    1    3    3    0    0 -0.58355725691E+01 -0.11483248486E+02 -0.57523434200E+01  0.14107032212E+02  0.00000000000E+00 0. -1.
</event>
<event>
 7    1  0.6830263E-012  0.5930199E+02  0.7816164E-02  0.1266605E+00
        -11   -1    0    0    0    0  0.00000000000E+00  0.00000000000E+00  0.45593999997E+02  0.45594000000E+02  0.51100000000E-03 0.  1.
         11   -1    0    0    0    0 -0.00000000000E+00 -0.00000000000E+00 -0.45593999997E+02  0.45594000000E+02  0.51100000000E-03 0. -1.
    9900012    2    1    2    0    0  0.20698236298E+02  0.21446613914E+02 -0.11328866867E+02  0.59301992744E+02  0.50000088848E+02 0.  0.
        -12    1    1    2    0    0 -0.20698236298E+02 -0.21446613914E+02  0.11328866867E+02  0.31886007256E+02  0.00000000000E+00 0.  1.
         11    1    3    3    0    0 -0.48937123503E+01 -0.65385486396E+01 -0.32999446480E+00  0.81737344885E+01  0.51100000000E-03 0. -1.
        -11    1    3    3    0    0 -0.29472823902E+01 -0.24303189110E+01 -0.85306343683E+01  0.93469057170E+01  0.51100000000E-03 0.  1.
         12    1    3    3    0    0  0.28539231039E+02  0.30415481464E+02 -0.24682380335E+01  0.41781352539E+02  0.00000000000E+00 0. -1.
</event>
<event>
 7    1  0.6830263E-012  0.5930193E+02  0.7816164E-02  0.1266605E+00
        -11   -1    0    0    0    0  0.00000000000E+00  0.00000000000E+00  0.45593999997E+02  0.45594000000E+02  0.51100000000E-03 0. -1.
         11   -1    0    0    0    0 -0.00000000000E+00 -0.00000000000E+00 -0.45593999997E+02  0.45594000000E+02  0.51100000000E-03 0.  1.
    9900012    2    1    2    0    0 -0.14465034453E+02 -0.24342179474E+02  0.14660915432E+02  0.59301931497E+02  0.49999977148E+02 0.  0.
        -12    1    1    2    0    0  0.14465034453E+02  0.24342179474E+02 -0.14660915432E+02  0.31886068503E+02  0.00000000000E+00 0.  1.
         11    1    3    3    0    0  0.31019303645E+01  0.12365825898E+01 -0.31334395389E+01  0.45792523508E+01  0.51100000000E-03 0. -1.
        -11    1    3    3    0    0 -0.11703768732E+02  0.98961909528E+01  0.20235216404E+01  0.15459865394E+02  0.51100000000E-03 0.  1.
         12    1    3    3    0    0 -0.58631960859E+01 -0.35474953016E+02  0.15770833330E+02  0.39262813753E+02  0.00000000000E+00 0. -1.
</event>
<event>
 7    1  0.6830263E-012  0.5930194E+02  0.7816164E-02  0.1266605E+00
        -11   -1    0    0    0    0  0.00000000000E+00  0.00000000000E+00  0.45593999997E+02  0.45594000000E+02  0.51100000000E-03 0.  1.
         11   -1    0    0    0    0 -0.00000000000E+00 -0.00000000000E+00 -0.45593999997E+02  0.45594000000E+02  0.51100000000E-03 0. -1.
    9900012    2    1    2    0    0 -0.82659452747E+01 -0.70992471731E+01 -0.29966571688E+02  0.59301943793E+02  0.49999999573E+02 0.  0.
        -12    1    1    2    0    0  0.82659452747E+01  0.70992471731E+01  0.29966571688E+02  0.31886056207E+02  0.00000000000E+00 0.  1.
         11    1    3    3    0    0 -0.22816235827E+01 -0.19579789173E+01  0.42088190733E+01  0.51723926636E+01  0.51100000000E-03 0.  1.
        -11    1    3    3    0    0 -0.16741272653E+02 -0.18339961759E+02 -0.22247716784E+02  0.33340445554E+02  0.51100000000E-03 0. -1.
        -12    1    3    3    0    0  0.10756950961E+02  0.13198693503E+02 -0.11927673976E+02  0.20789105576E+02  0.00000000000E+00 0.  1.
</event>
<event>
 7    1  0.6830263E-012  0.5930195E+02  0.7816164E-02  0.1266605E+00
        -11   -1    0    0    0    0  0.00000000000E+00  0.00000000000E+00  0.45593999997E+02  0.45594000000E+02  0.51100000000E-03 0. -1.
         11   -1    0    0    0    0 -0.00000000000E+00 -0.00000000000E+00 -0.45593999997E+02  0.45594000000E+02  0.51100000000E-03 0.  1.
    9900012    2    1    2    0    0  0.29275902330E+02 -0.10240816647E+02  0.74005090334E+01  0.59301947927E+02  0.50000007111E+02 0.  0.
        -12    1    1    2    0    0 -0.29275902330E+02  0.10240816647E+02 -0.74005090334E+01  0.31886052073E+02  0.00000000000E+00 0.  1.
         11    1    3    3    0    0  0.11207541387E+01 -0.94695905283E+01 -0.59519152003E+01  0.11240753063E+02  0.51100000000E-03 0. -1.
        -11    1    3    3    0    0 -0.67091663322E+01 -0.70057737023E+01 -0.11931287335E+01  0.97732970117E+01  0.51100000000E-03 0.  1.
         12    1    3    3    0    0  0.34864314524E+02  0.62345475836E+01  0.14545552967E+02  0.38287897852E+02  0.00000000000E+00 0. -1.
</event>
<event>
 7    1  0.6830263E-012  0.5930191E+02  0.7816164E-02  0.1266605E+00
        -11   -1    0    0    0    0  0.00000000000E+00  0.00000000000E+00  0.45593999997E+02  0.45594000000E+02  0.51100000000E-03 0.  1.
         11   -1    0    0    0    0 -0.00000000000E+00 -0.00000000000E+00 -0.45593999997E+02  0.45594000000E+02  0.51100000000E-03 0. -1.
    9900012    2    1    2    0    0 -0.12488586821E+01  0.25510407603E+02 -0.19088790967E+02  0.59301913933E+02  0.49999945114E+02 0.  0.
        -12    1    1    2    0    0  0.12488586821E+01 -0.25510407603E+02  0.19088790967E+02  0.31886086067E+02  0.00000000000E+00 0.  1.
         11    1    3    3    0    0 -0.10434394775E+02  0.11123484513E+02 -0.87416194398E+01  0.17579090213E+02  0.51100000000E-03 0. -1.
        -11    1    3    3    0    0  0.36039358703E+01  0.26598778369E+02 -0.85816079305E+01  0.28180265425E+02  0.51100000000E-03 0.  1.
        -12    1    3    3    0    0  0.55816002221E+01 -0.12211855278E+02 -0.17655635965E+01  0.13542558296E+02  0.00000000000E+00 0.  1.
</event>
<event>
 7    1  0.6830263E-012  0.5930195E+02  0.7816164E-02  0.1266605E+00
        -11   -1    0    0    0    0  0.00000000000E+00  0.00000000000E+00  0.45593999997E+02  0.45594000000E+02  0.51100000000E-03 0.  1.
         11   -1    0    0    0    0 -0.00000000000E+00 -0.00000000000E+00 -0.45593999997E+02  0.45594000000E+02  0.51100000000E-03 0. -1.
    9900012    2    1    2    0    0  0.14869139835E+02  0.20417103724E+02 -0.19462038274E+02  0.59301946972E+02  0.50000005370E+02 0.  0.
        -12    1    1    2    0    0 -0.14869139835E+02 -0.20417103724E+02  0.19462038274E+02  0.31886053028E+02  0.00000000000E+00 0.  1.
         11    1    3    3    0    0  0.21579892199E+02  0.25096066123E+02 -0.15246836149E+02  0.36441326745E+02  0.51100000000E-03 0. -1.
        -11    1    3    3    0    0  0.28295041523E+01  0.68914661773E+01 -0.18825897600E+01  0.76839146460E+01  0.51100000000E-03 0.  1.
         12    1    3    3    0    0 -0.95402565160E+01 -0.11570428577E+02 -0.23326123656E+01  0.15176705581E+02  0.00000000000E+00 0. -1.
</event>
<event>
 7    1  0.6830263E-012  0.5930193E+02  0.7816164E-02  0.1266605E+00
        -11   -1    0    0    0    0  0.00000000000E+00  0.00000000000E+00  0.45593999997E+02  0.45594000000E+02  0.51100000000E-03 0. -1.
         11   -1    0    0    0    0 -0.00000000000E+00 -0.00000000000E+00 -0.45593999997E+02  0.45594000000E+02  0.51100000000E-03 0.  1.
    9900012    2    1    2    0    0  0.25328352361E+02  0.12211674890E+02  0.15035648692E+02  0.59301934571E+02  0.49999982753E+02 0.  0.
        -12    1    1    2    0    0 -0.25328352361E+02 -0.12211674890E+02 -0.15035648692E+02  0.31886065429E+02  0.00000000000E+00 0.  1.
         11    1    3    3    0    0  0.86289962343E+00  0.75652386490E+01  0.12975069420E+02  0.15044263302E+02  0.51100000000E-03 0. -1.
        -11    1    3    3    0    0  0.61111735849E+01 -0.15599014714E+02  0.24275291918E+01  0.16928337216E+02  0.51100000000E-03 0.  1.
        -12    1    3    3    0    0  0.18354279153E+02  0.20245450955E+02 -0.36694991948E+00  0.27329334054E+02  0.00000000000E+00 0.  1.
</event>
<event>
 7    1  0.6830263E-012  0.5930194E+02  0.7816164E-02  0.1266605E+00
        -11   -1    0    0    0    0  0.00000000000E+00  0.00000000000E+00  0.45593999997E+02  0.45594000000E+02  0.51100000000E-03 0.  1.
         11   -1    0    0    0    0 -0.00000000000E+00 -0.00000000000E+00 -0.45593999997E+02  0.45594000000E+02  0.51100000000E-03 0. -1.
    9900012    2    1    2    0    0 -0.29927616468E+02  0.89688997386E+01 -0.63731908326E+01  0.59301937976E+02  0.49999988963E+02 0.  0.
        -12    1    1    2    0    0  0.29927616468E+02 -0.89688997386E+01  0.63731908326E+01  0.31886062024E+02  0.00000000000E+00 0.  1.
         11    1    3    3    0    0 -0.24390286813E+02 -0.37812522496E+01  0.48384385911E+01  0.25151430330E+02  0.51100000000E-03 0. -1.
        -11    1    3    3    0    0  0.44202474029E+01 -0.78863006195E+01 -0.53284932714E+01  0.10494053810E+02  0.51100000000E-03 0.  1.
         12    1    3    3    0    0 -0.99575770583E+01  0.20636452608E+02 -0.58831361523E+01  0.23656453836E+02  0.00000000000E+00 0. -1.
</event>
<event>
 7    1  0.6830263E-012  0.5930195E+02  0.7816164E-02  0.1266605E+00
        -11   -1    0    0    0    0  0.00000000000E+00  0.00000000000E+00  0.45593999997E+02  0.45594000000E+02  0.51100000000E-03 0. -1.
         11   -1    0    0    0    0 -0.00000000000E+00 -0.00000000000E+00 -0.45593999997E+02  0.45594000000E+02  0.51100000000E-03 0.  1.
    9900012    2    1    2    0    0  0.96689008109E+01  0.21722301345E+02  0.21245570444E+02  0.59301948471E+02  0.50000008104E+02 0.  0.
        -12    1    1    2    0    0 -0.96689008109E+01 -0.21722301345E+02 -0.21245570444E+02  0.31886051529E+02  0.00000000000E+00 0.  1.
         11    1    3    3    0    0  0.22453459692E+02  0.17723075515E+02  0.16978483158E+02  0.33264608046E+02  0.51100000000E-03 0. -1.
        -11    1    3    3    0    0 -0.19408147135E+01 -0.39066448366E+00  0.11903440509E+02  0.12066949768E+02  0.51100000000E-03 0.  1.
        -12    1    3    3    0    0 -0.10843744168E+02  0.43898903133E+01 -0.76363532236E+01  0.13970390657E+02  0.00000000000E+00 0.  1.
</event>
<event>
 7    1  0.6830263E-012  0.5930195E+02  0.7816164E-02  0.1266605E+00
        -11   -1    0    0    0    0  0.00000000000E+00  0.00000000000E+00  0.45593999997E+02  0.45594000000E+02  0.51100000000E-03 0.  1.
         11   -1    0    0    0    0 -0.00000000000E+00 -0.00000000000E+00 -0.45593999997E+02  0.45594000000E+02  0.51100000000E-03 0. -1.
    9900012    2    1    2    0    0  0.23960353420E+02  0.83466068857E+01 -0.19312055429E+02  0.59301954974E+02  0.50000019963E+02 0.  0.
        -12    1    1    2    0    0 -0.23960353420E+02 -0.83466068857E+01  0.19312055429E+02  0.31886045026E+02  0.00000000000E+00 0.  1.
         11    1    3    3    0    0 -0.15548378877E+01 -0.11652553088E+02 -0.11684620034E+02  0.16574976920E+02  0.51100000000E-03 0. -1.
        -11    1    3    3    0    0  0.24025751231E+01  0.22832402693E+01  0.87217024960E+01  0.93302544467E+01  0.51100000000E-03 0.  1.
         12    1    3    3    0    0  0.23112616185E+02  0.17715919704E+02 -0.16349137891E+02  0.33396723607E+02  0.00000000000E+00 0. -1.
</event>
<event>
 7    1  0.6830263E-012  0.5930194E+02  0.7816164E-02  0.1266605E+00
        -11   -1    0    0    0    0  0.00000000000E+00  0.00000000000E+00  0.45593999997E+02  0.45594000000E+02  0.51100000000E-03 0.  1.
         11   -1    0    0    0    0 -0.00000000000E+00 -0.00000000000E+00 -0.45593999997E+02  0.45594000000E+02  0.51100000000E-03 0. -1.
    9900012    2    1    2    0    0  0.85333526984E+01  0.29017208024E+02 -0.10094764875E+02  0.59301941171E+02  0.49999994789E+02 0.  0.
        -12    1    1    2    0    0 -0.85333526984E+01 -0.29017208024E+02  0.10094764875E+02  0.31886058829E+02  0.00000000000E+00 0.  1.
         11    1    3    3    0    0 -0.12926672616E+02  0.74510053891E+01  0.47890177270E+01  0.15670068196E+02  0.51100000000E-03 0.  1.
        -11    1    3    3    0    0  0.31982108646E+01  0.20509486502E+02 -0.14527469632E+02  0.25336040801E+02  0.51100000000E-03 0. -1.
        -12    1    3    3    0    0  0.18261814450E+02  0.10567161326E+01 -0.35631297048E+00  0.18295832173E+02  0.00000000000E+00 0.  1.
</event>
<event>
 7    1  0.6830263E-012  0.5930183E+02  0.7816164E-02  0.1266605E+00
        -11   -1    0    0    0    0  0.00000000000E+00  0.00000000000E+00  0.45593999997E+02  0.45594000000E+02  0.51100000000E-03 0.  1.
         11   -1    0    0    0    0 -0.00000000000E+00 -0.00000000000E+00 -0.45593999997E+02  0.45594000000E+02  0.51100000000E-03 0. -1.
    9900012    2    1    2    0    0  0.27803495940E+02  0.14482907019E+02 -0.58257267245E+01  0.59301826287E+02  0.49999785268E+02 0.  0.
        -12    1    1    2    0    0 -0.27803495940E+02 -0.14482907019E+02  0.58257267245E+01  0.31886173713E+02  0.00000000000E+00 0.  1.
         11    1    3    3    0    0  0.14628939078E+02  0.15256282902E+02 -0.21035578521E+02  0.29820388839E+02  0.51100000000E-03 0. -1.
        -11    1    3    3    0    0 -0.37454883712E+01  0.69394919243E+00 -0.27993340298E+01  0.47272105826E+01  0.51100000000E-03 0.  1.
        -12    1    3    3    0    0  0.16920045233E+02 -0.14673250758E+01  0.18009185826E+02  0.24754226865E+02  0.00000000000E+00 0.  1.
</event>
<event>
 7    1  0.6830263E-012  0.5930192E+02  0.7816164E-02  0.1266605E+00
        -11   -1    0    0    0    0  0.00000000000E+00  0.00000000000E+00  0.45593999997E+02  0.45594000000E+02  0.51100000000E-03 0. -1.
         11   -1    0    0    0    0 -0.00000000000E+00 -0.00000000000E+00 -0.45593999997E+02  0.45594000000E+02  0.51100000000E-03 0.  1.
    9900012    2    1    2    0    0  0.19352375949E+01  0.30443276499E+02  0.92835210284E+01  0.59301921671E+02  0.49999959227E+02 0.  0.
        -12    1    1    2    0    0 -0.19352375949E+01 -0.30443276499E+02 -0.92835210284E+01  0.31886078329E+02  0.00000000000E+00 0.  1.
         11    1    3    3    0    0 -0.26338103112E+00  0.13710030984E+02  0.52838252354E+01  0.14695343770E+02  0.51100000000E-03 0.  1.
        -11    1    3    3    0    0 -0.95107020752E+01 -0.10615450653E+02  0.41904709663E+01  0.14856018771E+02  0.51100000000E-03 0. -1.
         12    1    3    3    0    0  0.11709320701E+02  0.27348696168E+02 -0.19077517324E+00  0.29750559130E+02  0.00000000000E+00 0. -1.
</event>
<event>
 7    1  0.6830263E-012  0.5930192E+02  0.7816164E-02  0.1266605E+00
        -11   -1    0    0    0    0  0.00000000000E+00  0.00000000000E+00  0.45593999997E+02  0.45594000000E+02  0.51100000000E-03 0.  1.
         11   -1    0    0    0    0 -0.00000000000E+00 -0.00000000000E+00 -0.45593999997E+02  0.45594000000E+02  0.51100000000E-03 0. -1.
    9900012    2    1    2    0    0 -0.63541669198E+01 -0.80846078994E+01 -0.30182539121E+02  0.59301921691E+02  0.49999959262E+02 0.  0.
        -12    1    1    2    0    0  0.63541669198E+01  0.80846078994E+01  0.30182539121E+02  0.31886078309E+02  0.00000000000E+00 0.  1.
         11    1    3    3    0    0  0.25645115284E+01 -0.28482419386E+01  0.45735524419E+00  0.38598413958E+01  0.51100000000E-03 0. -1.
        -11    1    3    3    0    0 -0.21320237635E+02 -0.12024797169E+02 -0.33477014537E+01  0.24705371583E+02  0.51100000000E-03 0.  1.
         12    1    3    3    0    0  0.12401559186E+02  0.67884312078E+01 -0.27292192912E+02  0.30736708712E+02  0.00000000000E+00 0. -1.
</event>
<event>
 7    1  0.6830263E-012  0.5930192E+02  0.7816164E-02  0.1266605E+00
        -11   -1    0    0    0    0  0.00000000000E+00  0.00000000000E+00  0.45593999997E+02  0.45594000000E+02  0.51100000000E-03 0. -1.
         11   -1    0    0    0    0 -0.00000000000E+00 -0.00000000000E+00 -0.45593999997E+02  0.45594000000E+02  0.51100000000E-03 0.  1.
    9900012    2    1    2    0    0 -0.49470408017E+01  0.30520555894E+02  0.77938911762E+01  0.59301917073E+02  0.49999950840E+02 0.  0.
        -12    1    1    2    0    0  0.49470408017E+01 -0.30520555894E+02 -0.77938911762E+01  0.31886082927E+02  0.00000000000E+00 0.  1.
         11    1    3    3    0    0  0.17465124293E+02  0.24769533140E+02  0.47635826946E+01  0.30679831467E+02  0.51100000000E-03 0. -1.
        -11    1    3    3    0    0 -0.60472443107E+01 -0.37674848000E+01  0.61781139604E+01  0.94303869401E+01  0.51100000000E-03 0.  1.
        -12    1    3    3    0    0 -0.16364920784E+02  0.95185075545E+01 -0.31478054788E+01  0.19191698665E+02  0.00000000000E+00 0.  1.
</event>
<event>
 7    1  0.6830263E-012  0.5930194E+02  0.7816164E-02  0.1266605E+00
        -11   -1    0    0    0    0  0.00000000000E+00  0.00000000000E+00  0.45593999997E+02  0.45594000000E+02  0.51100000000E-03 0. -1.
         11   -1    0    0    0    0 -0.00000000000E+00 -0.00000000000E+00 -0.45593999997E+02  0.45594000000E+02  0.51100000000E-03 0.  1.
    9900012    2    1    2    0    0 -0.14782192897E+00 -0.28042118752E+02 -0.15176917486E+02  0.59301935649E+02  0.49999984720E+02 0.  0.
        -12    1    1    2    0    0  0.14782192897E+00  0.28042118752E+02  0.15176917486E+02  0.31886064351E+02  0.00000000000E+00 0.  1.
         11    1    3    3    0    0 -0.28285106462E+01  0.20278612400E+00 -0.17590783893E+01  0.33370573457E+01  0.51100000000E-03 0. -1.
        -11    1    3    3    0    0 -0.10872865427E+02  0.52046440517E+01 -0.15709071362E+02  0.19801071830E+02  0.51100000000E-03 0.  1.
         12    1    3    3    0    0  0.13553554144E+02 -0.33449548927E+02  0.22912322650E+01  0.36163806474E+02  0.00000000000E+00 0. -1.
</event>
<event>
 7    1  0.6830263E-012  0.5930196E+02  0.7816164E-02  0.1266605E+00
        -11   -1    0    0    0    0  0.00000000000E+00  0.00000000000E+00  0.45593999997E+02  0.45594000000E+02  0.51100000000E-03 0.  1.
         11   -1    0    0    0    0 -0.00000000000E+00 -0.00000000000E+00 -0.45593999997E+02  0.45594000000E+02  0.51100000000E-03 0. -1.
    9900012    2    1    2    0    0 -0.14434102843E+02  0.65288690088E+01 -0.27672194738E+02  0.59301955764E+02  0.50000021404E+02 0.  0.
        -12    1    1    2    0    0  0.14434102843E+02 -0.65288690088E+01  0.27672194738E+02  0.31886044236E+02  0.00000000000E+00 0.  1.
         11    1    3    3    0    0  0.21530748758E+01 -0.13216778262E+02 -0.11764226235E+02  0.17824589146E+02  0.51100000000E-03 0. -1.
        -11    1    3    3    0    0  0.17274392114E+01 -0.58171507179E+01 -0.59331304541E+01  0.84867735890E+01  0.51100000000E-03 0.  1.
        -12    1    3    3    0    0 -0.18314616930E+02  0.25562797989E+02 -0.99748380488E+01  0.32990593029E+02  0.00000000000E+00 0.  1.
</event>
<event>
 7    1  0.6830263E-012  0.5930191E+02  0.7816164E-02  0.1266605E+00
        -11   -1    0    0    0    0  0.00000000000E+00  0.00000000000E+00  0.45593999997E+02  0.45594000000E+02  0.51100000000E-03 0. -1.
         11   -1    0    0    0    0 -0.00000000000E+00 -0.00000000000E+00 -0.45593999997E+02  0.45594000000E+02  0.51100000000E-03 0.  1.
    9900012    2    1    2    0    0  0.14858010343E+02 -0.66976608296E+01  0.27406270841E+02  0.59301908779E+02  0.49999935714E+02 0.  0.
        -12    1    1    2    0    0 -0.14858010343E+02  0.66976608296E+01 -0.27406270841E+02  0.31886091221E+02  0.00000000000E+00 0.  1.
         11    1    3    3    0    0 -0.44441255510E+01  0.82840362407E+01  0.38686117946E+01  0.10165710296E+02  0.51100000000E-03 0. -1.
        -11    1    3    3    0    0 -0.86144174613E+01  0.26359539092E+01  0.78293534441E+00  0.90426450347E+01  0.51100000000E-03 0.  1.
        -12    1    3    3    0    0  0.27916553355E+02 -0.17617650979E+02  0.22754723702E+02  0.40093553448E+02  0.00000000000E+00 0.  1.
</event>
<event>
 7    1  0.6830263E-012  0.5930203E+02  0.7816164E-02  0.1266604E+00
        -11   -1    0    0    0    0  0.00000000000E+00  0.00000000000E+00  0.45593999997E+02  0.45594000000E+02  0.51100000000E-03 0. -1.
         11   -1    0    0    0    0 -0.00000000000E+00 -0.00000000000E+00 -0.45593999997E+02  0.45594000000E+02  0.51100000000E-03 0.  1.
    9900012    2    1    2    0    0  0.24096179379E+01 -0.16405790586E+02  0.27235247408E+02  0.59302032479E+02  0.50000161314E+02 0.  0.
        -12    1    1    2    0    0 -0.24096179379E+01  0.16405790586E+02 -0.27235247408E+02  0.31885967521E+02  0.00000000000E+00 0.  1.
         11    1    3    3    0    0 -0.18396151812E+02 -0.76255589698E+01  0.12284746823E+02  0.23398345153E+02  0.51100000000E-03 0. -1.
        -11    1    3    3    0    0  0.28724824648E+01 -0.11042624488E+02 -0.14435951643E+01  0.11501072922E+02  0.51100000000E-03 0.  1.
        -12    1    3    3    0    0  0.17933287285E+02  0.22623928722E+01  0.16394095749E+02  0.24402614405E+02  0.00000000000E+00 0.  1.
</event>
<event>
 7    1  0.6830263E-012  0.5930195E+02  0.7816164E-02  0.1266605E+00
        -11   -1    0    0    0    0  0.00000000000E+00  0.00000000000E+00  0.45593999997E+02  0.45594000000E+02  0.51100000000E-03 0. -1.
         11   -1    0    0    0    0 -0.00000000000E+00 -0.00000000000E+00 -0.45593999997E+02  0.45594000000E+02  0.51100000000E-03 0.  1.
    9900012    2    1    2    0    0 -0.16580916245E+02 -0.57115145548E+01  0.26630277612E+02  0.59301954969E+02  0.50000019954E+02 0.  0.
        -12    1    1    2    0    0  0.16580916245E+02  0.57115145548E+01 -0.26630277612E+02  0.31886045031E+02  0.00000000000E+00 0.  1.
         11    1    3    3    0    0 -0.11251190640E+02 -0.47333082076E+01  0.32786957570E+02  0.34985398159E+02  0.51100000000E-03 0. -1.
        -11    1    3    3    0    0  0.60051986503E+01 -0.54384186219E+01  0.34475350152E+01  0.88047888038E+01  0.51100000000E-03 0.  1.
         12    1    3    3    0    0 -0.11334924255E+02  0.44602122747E+01 -0.96042149731E+01  0.15511768006E+02  0.00000000000E+00 0. -1.
</event>
<event>
 7    1  0.6830263E-012  0.5930192E+02  0.7816164E-02  0.1266605E+00
        -11   -1    0    0    0    0  0.00000000000E+00  0.00000000000E+00  0.45593999997E+02  0.45594000000E+02  0.51100000000E-03 0. -1.
         11   -1    0    0    0    0 -0.00000000000E+00 -0.00000000000E+00 -0.45593999997E+02  0.45594000000E+02  0.51100000000E-03 0.  1.
    9900012    2    1    2    0    0  0.97061531715E+00 -0.28589363576E+02  0.14086463802E+02  0.59301917359E+02  0.49999951362E+02 0.  0.
        -12    1    1    2    0    0 -0.97061531715E+00  0.28589363576E+02 -0.14086463802E+02  0.31886082641E+02  0.00000000000E+00 0.  1.
         11    1    3    3    0    0 -0.29914455015E+01 -0.94549647284E+01  0.64437215853E-01  0.99171193711E+01  0.51100000000E-03 0. -1.
        -11    1    3    3    0    0 -0.13760158669E+02  0.72175143165E+01  0.57529912112E+01  0.16568988733E+02  0.51100000000E-03 0.  1.
         12    1    3    3    0    0  0.17722219488E+02 -0.26351913164E+02  0.82690353753E+01  0.32815809254E+02  0.00000000000E+00 0. -1.
</event>
<event>
 7    1  0.6830263E-012  0.5930194E+02  0.7816164E-02  0.1266605E+00
        -11   -1    0    0    0    0  0.00000000000E+00  0.00000000000E+00  0.45593999997E+02  0.45594000000E+02  0.51100000000E-03 0. -1.
         11   -1    0    0    0    0 -0.00000000000E+00 -0.00000000000E+00 -0.45593999997E+02  0.45594000000E+02  0.51100000000E-03 0.  1.
    9900012    2    1    2    0    0  0.14213989082E+02  0.17429681509E+02 -0.22602864123E+02  0.59301941139E+02  0.49999994732E+02 0.  0.
        -12    1    1    2    0    0 -0.14213989082E+02 -0.17429681509E+02  0.22602864123E+02  0.31886058861E+02  0.00000000000E+00 0.  1.
         11    1    3    3    0    0  0.70029179209E+01  0.23089494638E+02 -0.12575801809E+02  0.27208756191E+02  0.51100000000E-03 0. -1.
        -11    1    3    3    0    0  0.95496783269E-01  0.11245905464E+02 -0.12098825191E+00  0.11246961713E+02  0.51100000000E-03 0.  1.
        -12    1    3    3    0    0  0.71155743775E+01 -0.16905718593E+02 -0.99060740615E+01  0.20846223236E+02  0.00000000000E+00 0.  1.
</event>
<event>
 7    1  0.6830263E-012  0.5930213E+02  0.7816164E-02  0.1266604E+00
        -11   -1    0    0    0    0  0.00000000000E+00  0.00000000000E+00  0.45593999997E+02  0.45594000000E+02  0.51100000000E-03 0. -1.
         11   -1    0    0    0    0 -0.00000000000E+00 -0.00000000000E+00 -0.45593999997E+02  0.45594000000E+02  0.51100000000E-03 0.  1.
    9900012    2    1    2    0    0  0.30084763670E+02 -0.10460586287E+02 -0.14804139753E+01  0.59302133286E+02  0.50000345160E+02 0.  0.
        -12    1    1    2    0    0 -0.30084763670E+02  0.10460586287E+02  0.14804139753E+01  0.31885866714E+02  0.00000000000E+00 0.  1.
         11    1    3    3    0    0 -0.11451586801E+01  0.57474927770E+01 -0.42784292522E+01  0.72560332656E+01  0.51100000000E-03 0. -1.
        -11    1    3    3    0    0 -0.35475195002E+01  0.63697348328E+01 -0.62541905430E+01  0.96059000647E+01  0.51100000000E-03 0.  1.
         12    1    3    3    0    0  0.34777441851E+02 -0.22577813897E+02  0.90522058199E+01  0.42440199955E+02  0.00000000000E+00 0. -1.
</event>
<event>
 7    1  0.6830263E-012  0.5930195E+02  0.7816164E-02  0.1266605E+00
        -11   -1    0    0    0    0  0.00000000000E+00  0.00000000000E+00  0.45593999997E+02  0.45594000000E+02  0.51100000000E-03 0. -1.
         11   -1    0    0    0    0 -0.00000000000E+00 -0.00000000000E+00 -0.45593999997E+02  0.45594000000E+02  0.51100000000E-03 0.  1.
    9900012    2    1    2    0    0 -0.12472012296E+02  0.13722656127E+02 -0.25939506815E+02  0.59301946690E+02  0.50000004856E+02 0.  0.
        -12    1    1    2    0    0  0.12472012296E+02 -0.13722656127E+02  0.25939506815E+02  0.31886053310E+02  0.00000000000E+00 0.  1.
         11    1    3    3    0    0  0.25233255346E+01  0.25347522554E+02 -0.12812393026E+02  0.28513531642E+02  0.51100000000E-03 0. -1.
        -11    1    3    3    0    0  0.18131642918E+01 -0.63720155294E+01 -0.11280033281E+02  0.13081639719E+02  0.51100000000E-03 0.  1.
        -12    1    3    3    0    0 -0.16808502123E+02 -0.52528508982E+01 -0.18470805081E+01  0.17706775330E+02  0.00000000000E+00 0.  1.
</event>
<event>
 7    1  0.6830263E-012  0.5930192E+02  0.7816164E-02  0.1266605E+00
        -11   -1    0    0    0    0  0.00000000000E+00  0.00000000000E+00  0.45593999997E+02  0.45594000000E+02  0.51100000000E-03 0.  1.
         11   -1    0    0    0    0 -0.00000000000E+00 -0.00000000000E+00 -0.45593999997E+02  0.45594000000E+02  0.51100000000E-03 0. -1.
    9900012    2    1    2    0    0 -0.47465648532E+01  0.21221003884E+01 -0.31459317348E+02  0.59301924106E+02  0.49999963667E+02 0.  0.
        -12    1    1    2    0    0  0.47465648532E+01 -0.21221003884E+01  0.31459317348E+02  0.31886075894E+02  0.00000000000E+00 0.  1.
         11    1    3    3    0    0  0.72300884946E+01  0.18678017262E+02 -0.16085381550E+02  0.25688168645E+02  0.51100000000E-03 0. -1.
        -11    1    3    3    0    0 -0.10208268736E+02  0.25982266704E+01 -0.69130425559E+01  0.12599590869E+02  0.51100000000E-03 0.  1.
        -12    1    3    3    0    0 -0.17683846116E+01 -0.19154143544E+02 -0.84608932420E+01  0.21014164592E+02  0.00000000000E+00 0.  1.
</event>
<event>
 7    1  0.6830263E-012  0.5930197E+02  0.7816164E-02  0.1266605E+00
        -11   -1    0    0    0    0  0.00000000000E+00  0.00000000000E+00  0.45593999997E+02  0.45594000000E+02  0.51100000000E-03 0.  1.
         11   -1    0    0    0    0 -0.00000000000E+00 -0.00000000000E+00 -0.45593999997E+02  0.45594000000E+02  0.51100000000E-03 0. -1.
    9900012    2    1    2    0    0 -0.21179813240E+02  0.21618020705E+02  0.10039701139E+02  0.59301970033E+02  0.50000047427E+02 0.  0.
        -12    1    1    2    0    0  0.21179813240E+02 -0.21618020705E+02 -0.10039701139E+02  0.31886029967E+02  0.00000000000E+00 0.  1.
         11    1    3    3    0    0 -0.12764397174E+02  0.19570279554E+02 -0.12611755689E+02  0.26551498241E+02  0.51100000000E-03 0. -1.
        -11    1    3    3    0    0  0.69837166865E+01  0.38859452481E+01  0.95152243647E+01  0.12426277166E+02  0.51100000000E-03 0.  1.
        -12    1    3    3    0    0 -0.15399132753E+02 -0.18382040972E+01  0.13136232464E+02  0.20324194626E+02  0.00000000000E+00 0.  1.
</event>
<event>
 7    1  0.6830263E-012  0.5930196E+02  0.7816164E-02  0.1266605E+00
        -11   -1    0    0    0    0  0.00000000000E+00  0.00000000000E+00  0.45593999997E+02  0.45594000000E+02  0.51100000000E-03 0. -1.
         11   -1    0    0    0    0 -0.00000000000E+00 -0.00000000000E+00 -0.45593999997E+02  0.45594000000E+02  0.51100000000E-03 0.  1.
    9900012    2    1    2    0    0  0.44935862490E+01 -0.27146281835E+02  0.16112307800E+02  0.59301962342E+02  0.50000033402E+02 0.  0.
        -12    1    1    2    0    0 -0.44935862490E+01  0.27146281835E+02 -0.16112307800E+02  0.31886037658E+02  0.00000000000E+00 0.  1.
         11    1    3    3    0    0 -0.49940194496E+01 -0.87292289737E+01 -0.73161052550E+01  0.12436441014E+02  0.51100000000E-03 0. -1.
        -11    1    3    3    0    0 -0.12046908857E+02 -0.13572894468E+02  0.74559434170E+01  0.19619953357E+02  0.51100000000E-03 0.  1.
         12    1    3    3    0    0  0.21534514556E+02 -0.48441583940E+01  0.15972469638E+02  0.27245567971E+02  0.00000000000E+00 0. -1.
</event>
<event>
 7    1  0.6830263E-012  0.5930199E+02  0.7816164E-02  0.1266605E+00
        -11   -1    0    0    0    0  0.00000000000E+00  0.00000000000E+00  0.45593999997E+02  0.45594000000E+02  0.51100000000E-03 0. -1.
         11   -1    0    0    0    0 -0.00000000000E+00 -0.00000000000E+00 -0.45593999997E+02  0.45594000000E+02  0.51100000000E-03 0.  1.
    9900012    2    1    2    0    0  0.23883726992E+02 -0.11304126117E+02  0.17846615605E+02  0.59301994122E+02  0.50000091360E+02 0.  0.
        -12    1    1    2    0    0 -0.23883726992E+02  0.11304126117E+02 -0.17846615605E+02  0.31886005878E+02  0.00000000000E+00 0.  1.
         11    1    3    3    0    0  0.82724509266E+01 -0.51812268224E+01  0.19641173481E+01  0.99567219975E+01  0.51100000000E-03 0.  1.
        -11    1    3    3    0    0  0.22436397057E+02  0.64793868479E+01 -0.51304670041E+01  0.23910166431E+02  0.51100000000E-03 0. -1.
         12    1    3    3    0    0 -0.68251209919E+01 -0.12602286143E+02  0.21012965261E+02  0.25435105693E+02  0.00000000000E+00 0. -1.
</event>
<event>
 7    1  0.6830263E-012  0.5930196E+02  0.7816164E-02  0.1266605E+00
        -11   -1    0    0    0    0  0.00000000000E+00  0.00000000000E+00  0.45593999997E+02  0.45594000000E+02  0.51100000000E-03 0.  1.
         11   -1    0    0    0    0 -0.00000000000E+00 -0.00000000000E+00 -0.45593999997E+02  0.45594000000E+02  0.51100000000E-03 0. -1.
    9900012    2    1    2    0    0  0.25752898233E+02 -0.14223097006E+02 -0.12296798989E+02  0.59301960402E+02  0.50000029864E+02 0.  0.
        -12    1    1    2    0    0 -0.25752898233E+02  0.14223097006E+02  0.12296798989E+02  0.31886039598E+02  0.00000000000E+00 0.  1.
         11    1    3    3    0    0  0.85328224869E+00  0.94345731645E+01  0.44085650346E+01  0.10448670122E+02  0.51100000000E-03 0. -1.
        -11    1    3    3    0    0  0.11210096966E+02  0.30692283942E+01  0.40962066179E+01  0.12323365849E+02  0.51100000000E-03 0.  1.
         12    1    3    3    0    0  0.13689519018E+02 -0.26726898565E+02 -0.20801570641E+02  0.36529924432E+02  0.00000000000E+00 0. -1.
</event>
<event>
 7    1  0.6830263E-012  0.5930193E+02  0.7816164E-02  0.1266605E+00
        -11   -1    0    0    0    0  0.00000000000E+00  0.00000000000E+00  0.45593999997E+02  0.45594000000E+02  0.51100000000E-03 0.  1.
         11   -1    0    0    0    0 -0.00000000000E+00 -0.00000000000E+00 -0.45593999997E+02  0.45594000000E+02  0.51100000000E-03 0. -1.
    9900012    2    1    2    0    0  0.25724531355E+02  0.13441162389E+02 -0.13202475174E+02  0.59301926072E+02  0.49999967254E+02 0.  0.
        -12    1    1    2    0    0 -0.25724531355E+02 -0.13441162389E+02  0.13202475174E+02  0.31886073928E+02  0.00000000000E+00 0.  1.
         11    1    3    3    0    0  0.10539225747E+01  0.15782821447E+02 -0.12569526779E+02  0.20203989936E+02  0.51100000000E-03 0. -1.
        -11    1    3    3    0    0 -0.47957429603E+01 -0.53771961029E+01  0.52272425342E+01  0.89015421834E+01  0.51100000000E-03 0.  1.
         12    1    3    3    0    0  0.29466351740E+02  0.30355370444E+01 -0.58601909298E+01  0.30196393953E+02  0.00000000000E+00 0. -1.
</event>
<event>
 7    1  0.6830263E-012  0.5930195E+02  0.7816164E-02  0.1266605E+00
        -11   -1    0    0    0    0  0.00000000000E+00  0.00000000000E+00  0.45593999997E+02  0.45594000000E+02  0.51100000000E-03 0.  1.
         11   -1    0    0    0    0 -0.00000000000E+00 -0.00000000000E+00 -0.45593999997E+02  0.45594000000E+02  0.51100000000E-03 0. -1.
    9900012    2    1    2    0    0 -0.19721916554E+01 -0.14536524705E+02 -0.28311131059E+02  0.59301949252E+02  0.50000009528E+02 0.  0.
        -12    1    1    2    0    0  0.19721916554E+01  0.14536524705E+02  0.28311131059E+02  0.31886050748E+02  0.00000000000E+00 0.  1.
         11    1    3    3    0    0 -0.22991578138E+01 -0.11176484910E+02  0.27946126606E+01  0.11747757309E+02  0.51100000000E-03 0. -1.
        -11    1    3    3    0    0  0.10320287920E+02  0.42202349340E+01  0.27208216180E+01  0.11477002927E+02  0.51100000000E-03 0.  1.
        -12    1    3    3    0    0 -0.99933217615E+01 -0.75802747292E+01 -0.33826565338E+02  0.36077189017E+02  0.00000000000E+00 0.  1.
</event>
<event>
 7    1  0.6830263E-012  0.5930193E+02  0.7816164E-02  0.1266605E+00
        -11   -1    0    0    0    0  0.00000000000E+00  0.00000000000E+00  0.45593999997E+02  0.45594000000E+02  0.51100000000E-03 0. -1.
         11   -1    0    0    0    0 -0.00000000000E+00 -0.00000000000E+00 -0.45593999997E+02  0.45594000000E+02  0.51100000000E-03 0.  1.
    9900012    2    1    2    0    0  0.18413747708E+02  0.12740800614E+02  0.22700822582E+02  0.59301930144E+02  0.49999974680E+02 0.  0.
        -12    1    1    2    0    0 -0.18413747708E+02 -0.12740800614E+02 -0.22700822582E+02  0.31886069856E+02  0.00000000000E+00 0.  1.
         11    1    3    3    0    0  0.67339995353E+01  0.10242976877E+02  0.15048954519E+02  0.19409697510E+02  0.51100000000E-03 0. -1.
        -11    1    3    3    0    0 -0.68015210187E+01 -0.25776820838E+01  0.17057190904E+02  0.18543270879E+02  0.51100000000E-03 0.  1.
         12    1    3    3    0    0  0.18481269192E+02  0.50755058208E+01 -0.94053228412E+01  0.21348961755E+02  0.00000000000E+00 0. -1.
</event>
<event>
 7    1  0.6830263E-012  0.5930208E+02  0.7816164E-02  0.1266604E+00
        -11   -1    0    0    0    0  0.00000000000E+00  0.00000000000E+00  0.45593999997E+02  0.45594000000E+02  0.51100000000E-03 0.  1.
         11   -1    0    0    0    0 -0.00000000000E+00 -0.00000000000E+00 -0.45593999997E+02  0.45594000000E+02  0.51100000000E-03 0. -1.
    9900012    2    1    2    0    0 -0.50257142195E+01  0.27879863045E+02 -0.14634453386E+02  0.59302081592E+02  0.50000250883E+02 0.  0.
        -12    1    1    2    0    0  0.50257142195E+01 -0.27879863045E+02  0.14634453386E+02  0.31885918408E+02  0.00000000000E+00 0.  1.
         11    1    3    3    0    0  0.92065023631E+01  0.84754279654E+01 -0.27278671259E+01  0.12807569023E+02  0.51100000000E-03 0. -1.
        -11    1    3    3    0    0  0.49918983573E+01 -0.88642786581E+01  0.34585553097E+00  0.10179101220E+02  0.51100000000E-03 0.  1.
         12    1    3    3    0    0 -0.19224114940E+02  0.28268713738E+02 -0.12252441791E+02  0.36315411349E+02  0.00000000000E+00 0. -1.
</event>
<event>
 7    1  0.6830263E-012  0.5930195E+02  0.7816164E-02  0.1266605E+00
        -11   -1    0    0    0    0  0.00000000000E+00  0.00000000000E+00  0.45593999997E+02  0.45594000000E+02  0.51100000000E-03 0.  1.
         11   -1    0    0    0    0 -0.00000000000E+00 -0.00000000000E+00 -0.45593999997E+02  0.45594000000E+02  0.51100000000E-03 0. -1.
    9900012    2    1    2    0    0 -0.16346188880E+02  0.27377138049E+02 -0.11980640882E+00  0.59301953957E+02  0.50000018109E+02 0.  0.
        -12    1    1    2    0    0  0.16346188880E+02 -0.27377138049E+02  0.11980640882E+00  0.31886046043E+02  0.00000000000E+00 0.  1.
         11    1    3    3    0    0  0.51440867923E+01  0.50263815260E+01 -0.10266902001E+02  0.12535366654E+02  0.51100000000E-03 0. -1.
        -11    1    3    3    0    0 -0.14892631219E+02 -0.48373251066E+01 -0.28533981109E+01  0.15916408510E+02  0.51100000000E-03 0.  1.
         12    1    3    3    0    0 -0.65976444528E+01  0.27188081630E+02  0.13000493704E+02  0.30850178793E+02  0.00000000000E+00 0. -1.
</event>
<event>
 7    1  0.6830263E-012  0.5930193E+02  0.7816164E-02  0.1266605E+00
        -11   -1    0    0    0    0  0.00000000000E+00  0.00000000000E+00  0.45593999997E+02  0.45594000000E+02  0.51100000000E-03 0.  1.
         11   -1    0    0    0    0 -0.00000000000E+00 -0.00000000000E+00 -0.45593999997E+02  0.45594000000E+02  0.51100000000E-03 0. -1.
    9900012    2    1    2    0    0  0.22026056816E+02 -0.20346279484E+02 -0.10844493074E+02  0.59301932545E+02  0.49999979058E+02 0.  0.
        -12    1    1    2    0    0 -0.22026056816E+02  0.20346279484E+02  0.10844493074E+02  0.31886067455E+02  0.00000000000E+00 0.  1.
         11    1    3    3    0    0 -0.52965868919E+01 -0.40872251684E+01  0.27690260949E+01  0.72406317443E+01  0.51100000000E-03 0. -1.
        -11    1    3    3    0    0  0.62949584124E+01  0.12799597330E+02 -0.22820787499E+01  0.14445209479E+02  0.51100000000E-03 0.  1.
         12    1    3    3    0    0  0.21027685296E+02 -0.29058651646E+02 -0.11331440419E+02  0.37616091322E+02  0.00000000000E+00 0. -1.
</event>
<event>
 7    1  0.6830263E-012  0.5930194E+02  0.7816164E-02  0.1266605E+00
        -11   -1    0    0    0    0  0.00000000000E+00  0.00000000000E+00  0.45593999997E+02  0.45594000000E+02  0.51100000000E-03 0.  1.
         11   -1    0    0    0    0 -0.00000000000E+00 -0.00000000000E+00 -0.45593999997E+02  0.45594000000E+02  0.51100000000E-03 0. -1.
    9900012    2    1    2    0    0 -0.28133812481E+02  0.12698807797E+02 -0.79968561499E+01  0.59301939841E+02  0.49999992365E+02 0.  0.
        -12    1    1    2    0    0  0.28133812481E+02 -0.12698807797E+02  0.79968561499E+01  0.31886060159E+02  0.00000000000E+00 0.  1.
         11    1    3    3    0    0 -0.19639772306E+02  0.96728141383E+01  0.13467417787E+02  0.25703216369E+02  0.51100000000E-03 0. -1.
        -11    1    3    3    0    0 -0.12226796135E+02 -0.36988410838E+01 -0.23411277707E+01  0.12986795163E+02  0.51100000000E-03 0.  1.
         12    1    3    3    0    0  0.37327559605E+01  0.67248347426E+01 -0.19123146166E+02  0.20611928310E+02  0.00000000000E+00 0. -1.
</event>
<event>
 7    1  0.6830263E-012  0.5930195E+02  0.7816164E-02  0.1266605E+00
        -11   -1    0    0    0    0  0.00000000000E+00  0.00000000000E+00  0.45593999997E+02  0.45594000000E+02  0.51100000000E-03 0. -1.
         11   -1    0    0    0    0 -0.00000000000E+00 -0.00000000000E+00 -0.45593999997E+02  0.45594000000E+02  0.51100000000E-03 0.  1.
    9900012    2    1    2    0    0 -0.19675519011E+02 -0.88717234960E+01  0.23470976070E+02  0.59301949071E+02  0.50000009198E+02 0.  0.
        -12    1    1    2    0    0  0.19675519011E+02  0.88717234960E+01 -0.23470976070E+02  0.31886050929E+02  0.00000000000E+00 0.  1.
         11    1    3    3    0    0  0.28036109907E+01  0.48078803133E+01 -0.13079592558E+01  0.57172288191E+01  0.51100000000E-03 0. -1.
        -11    1    3    3    0    0  0.77010358220E+01  0.59182973114E+01 -0.30933960463E+00  0.97174012498E+01  0.51100000000E-03 0.  1.
         12    1    3    3    0    0 -0.30180165823E+02 -0.19597901121E+02  0.25088274931E+02  0.43867319002E+02  0.00000000000E+00 0. -1.
</event>
<event>
 7    1  0.6830263E-012  0.5930194E+02  0.7816164E-02  0.1266605E+00
        -11   -1    0    0    0    0  0.00000000000E+00  0.00000000000E+00  0.45593999997E+02  0.45594000000E+02  0.51100000000E-03 0. -1.
         11   -1    0    0    0    0 -0.00000000000E+00 -0.00000000000E+00 -0.45593999997E+02  0.45594000000E+02  0.51100000000E-03 0.  1.
    9900012    2    1    2    0    0 -0.15860939892E+02  0.27631598869E+02 -0.12830245733E+01  0.59301939999E+02  0.49999992653E+02 0.  0.
        -12    1    1    2    0    0  0.15860939892E+02 -0.27631598869E+02  0.12830245733E+01  0.31886060001E+02  0.00000000000E+00 0.  1.
         11    1    3    3    0    0 -0.10405338181E+02  0.19585159683E+00  0.16430528971E+02  0.19449208288E+02  0.51100000000E-03 0. -1.
        -11    1    3    3    0    0 -0.17338511711E+01  0.47547355011E+01  0.52993157315E+01  0.73277893701E+01  0.51100000000E-03 0.  1.
        -12    1    3    3    0    0 -0.37217505406E+01  0.22681011771E+02 -0.23012869275E+02  0.32524942342E+02  0.00000000000E+00 0.  1.
</event>
<event>
 7    1  0.6830263E-012  0.5930202E+02  0.7816164E-02  0.1266605E+00
        -11   -1    0    0    0    0  0.00000000000E+00  0.00000000000E+00  0.45593999997E+02  0.45594000000E+02  0.51100000000E-03 0.  1.
         11   -1    0    0    0    0 -0.00000000000E+00 -0.00000000000E+00 -0.45593999997E+02  0.45594000000E+02  0.51100000000E-03 0. -1.
    9900012    2    1    2    0    0 -0.15959279160E+02 -0.25663085375E+02  0.10169732302E+02  0.59302015659E+02  0.50000130639E+02 0.  0.
        -12    1    1    2    0    0  0.15959279160E+02  0.25663085375E+02 -0.10169732302E+02  0.31885984341E+02  0.00000000000E+00 0.  1.
         11    1    3    3    0    0 -0.15497963638E+02 -0.25167022747E+02  0.13630567167E+02  0.32547784447E+02  0.51100000000E-03 0. -1.
        -11    1    3    3    0    0 -0.10633025801E+02  0.95466465043E+00  0.64546623060E+01  0.12475387289E+02  0.51100000000E-03 0.  1.
        -12    1    3    3    0    0  0.10171710278E+02 -0.14507272790E+01 -0.99154971712E+01  0.14278843923E+02  0.00000000000E+00 0.  1.
</event>
<event>
 7    1  0.6830263E-012  0.5930198E+02  0.7816164E-02  0.1266605E+00
        -11   -1    0    0    0    0  0.00000000000E+00  0.00000000000E+00  0.45593999997E+02  0.45594000000E+02  0.51100000000E-03 0.  1.
         11   -1    0    0    0    0 -0.00000000000E+00 -0.00000000000E+00 -0.45593999997E+02  0.45594000000E+02  0.51100000000E-03 0. -1.
    9900012    2    1    2    0    0  0.30068314889E+02 -0.99131217327E+01 -0.37874553455E+01  0.59301978599E+02  0.50000063051E+02 0.  0.
        -12    1    1    2    0    0 -0.30068314889E+02  0.99131217327E+01  0.37874553455E+01  0.31886021401E+02  0.00000000000E+00 0.  1.
         11    1    3    3    0    0  0.31165964499E+02 -0.45663593628E+00 -0.15228833212E+01  0.31206490245E+02  0.51100000000E-03 0. -1.
        -11    1    3    3    0    0  0.52083458232E+01  0.79309075705E+01 -0.12743217569E+01  0.95734036427E+01  0.51100000000E-03 0.  1.
        -12    1    3    3    0    0 -0.63059954328E+01 -0.17387393367E+02 -0.99025026745E+00  0.18522084712E+02  0.00000000000E+00 0.  1.
</event>
<event>
 7    1  0.6830263E-012  0.5930193E+02  0.7816164E-02  0.1266605E+00
        -11   -1    0    0    0    0  0.00000000000E+00  0.00000000000E+00  0.45593999997E+02  0.45594000000E+02  0.51100000000E-03 0.  1.
         11   -1    0    0    0    0 -0.00000000000E+00 -0.00000000000E+00 -0.45593999997E+02  0.45594000000E+02  0.51100000000E-03 0. -1.
    9900012    2    1    2    0    0 -0.17963330885E+02 -0.12816882891E+02  0.23016680986E+02  0.59301931771E+02  0.49999977646E+02 0.  0.
        -12    1    1    2    0    0  0.17963330885E+02  0.12816882891E+02 -0.23016680986E+02  0.31886068229E+02  0.00000000000E+00 0.  1.
         11    1    3    3    0    0 -0.18751646095E+02 -0.54343514330E+01 -0.23914765107E+01  0.19669152674E+02  0.51100000000E-03 0. -1.
        -11    1    3    3    0    0  0.15804392689E+01 -0.49684229568E+01 -0.60987602632E+01  0.80235834868E+01  0.51100000000E-03 0.  1.
        -12    1    3    3    0    0 -0.79212405899E+00 -0.24141085011E+01  0.31506917760E+02  0.31609195610E+02  0.00000000000E+00 0.  1.
</event>
<event>
 7    1  0.6830263E-012  0.5930192E+02  0.7816164E-02  0.1266605E+00
        -11   -1    0    0    0    0  0.00000000000E+00  0.00000000000E+00  0.45593999997E+02  0.45594000000E+02  0.51100000000E-03 0.  1.
         11   -1    0    0    0    0 -0.00000000000E+00 -0.00000000000E+00 -0.45593999997E+02  0.45594000000E+02  0.51100000000E-03 0. -1.
    9900012    2    1    2    0    0  0.28700305458E+02  0.13263635631E+02  0.41340428545E+01  0.59301923511E+02  0.49999962583E+02 0.  0.
        -12    1    1    2    0    0 -0.28700305458E+02 -0.13263635631E+02 -0.41340428545E+01  0.31886076489E+02  0.00000000000E+00 0.  1.
         11    1    3    3    0    0 -0.12355061771E+00 -0.42333442291E+01 -0.10118442196E+02  0.10969017315E+02  0.51100000000E-03 0. -1.
        -11    1    3    3    0    0  0.15145487474E+02 -0.68570447277E+01 -0.71952943727E+00  0.16640990839E+02  0.51100000000E-03 0.  1.
         12    1    3    3    0    0  0.13678368601E+02  0.24354024588E+02  0.14972014488E+02  0.31691915357E+02  0.00000000000E+00 0. -1.
</event>
<event>
 7    1  0.6830263E-012  0.5930183E+02  0.7816164E-02  0.1266605E+00
        -11   -1    0    0    0    0  0.00000000000E+00  0.00000000000E+00  0.45593999997E+02  0.45594000000E+02  0.51100000000E-03 0. -1.
         11   -1    0    0    0    0 -0.00000000000E+00 -0.00000000000E+00 -0.45593999997E+02  0.45594000000E+02  0.51100000000E-03 0.  1.
    9900012    2    1    2    0    0  0.25670517841E+02  0.18335802456E+02  0.46422663371E+01  0.59301830981E+02  0.49999793830E+02 0.  0.
        -12    1    1    2    0    0 -0.25670517841E+02 -0.18335802456E+02 -0.46422663371E+01  0.31886169019E+02  0.00000000000E+00 0.  1.
         11    1    3    3    0    0 -0.18391818804E+01 -0.20416866561E+01 -0.91201021250E+00  0.28953129848E+01  0.51100000000E-03 0. -1.
        -11    1    3    3    0    0 -0.91621008185E+01  0.22256081869E+01  0.11703219252E+02  0.15028731295E+02  0.51100000000E-03 0.  1.
         12    1    3    3    0    0  0.36671800540E+02  0.18151880925E+02 -0.61489427022E+01  0.41377786702E+02  0.00000000000E+00 0. -1.
</event>
<event>
 7    1  0.6830263E-012  0.5930195E+02  0.7816164E-02  0.1266605E+00
        -11   -1    0    0    0    0  0.00000000000E+00  0.00000000000E+00  0.45593999997E+02  0.45594000000E+02  0.51100000000E-03 0.  1.
         11   -1    0    0    0    0 -0.00000000000E+00 -0.00000000000E+00 -0.45593999997E+02  0.45594000000E+02  0.51100000000E-03 0. -1.
    9900012    2    1    2    0    0  0.17108909931E+02  0.20891060736E+02 -0.16957849572E+02  0.59301954779E+02  0.50000019608E+02 0.  0.
        -12    1    1    2    0    0 -0.17108909931E+02 -0.20891060736E+02  0.16957849572E+02  0.31886045221E+02  0.00000000000E+00 0.  1.
         11    1    3    3    0    0  0.20542619823E+00  0.22746122708E+02 -0.91400210178E+01  0.24514654447E+02  0.51100000000E-03 0. -1.
        -11    1    3    3    0    0  0.16931901789E+02 -0.12923912517E+02 -0.99580656046E+01  0.23513397964E+02  0.51100000000E-03 0.  1.
         12    1    3    3    0    0 -0.28418056497E-01  0.11068850546E+02  0.21402370504E+01  0.11273902369E+02  0.00000000000E+00 0. -1.
</event>
<event>
 7    1  0.6830263E-012  0.5930201E+02  0.7816164E-02  0.1266605E+00
        -11   -1    0    0    0    0  0.00000000000E+00  0.00000000000E+00  0.45593999997E+02  0.45594000000E+02  0.51100000000E-03 0. -1.
         11   -1    0    0    0    0 -0.00000000000E+00 -0.00000000000E+00 -0.45593999997E+02  0.45594000000E+02  0.51100000000E-03 0.  1.
    9900012    2    1    2    0    0  0.20598916132E+01 -0.12345838118E+01  0.31795422705E+02  0.59302011609E+02  0.50000123252E+02 0.  0.
        -12    1    1    2    0    0 -0.20598916132E+01  0.12345838118E+01 -0.31795422705E+02  0.31885988391E+02  0.00000000000E+00 0.  1.
         11    1    3    3    0    0  0.14486602060E+02 -0.12765402711E+02  0.16672498123E+02  0.25510573094E+02  0.51100000000E-03 0. -1.
        -11    1    3    3    0    0 -0.29224077131E+01 -0.61270812781E+01  0.11586633577E+02  0.13428762778E+02  0.51100000000E-03 0.  1.
        -12    1    3    3    0    0 -0.95043027338E+01  0.17657900178E+02  0.35362910050E+01  0.20362675738E+02  0.00000000000E+00 0.  1.
</event>
<event>
 7    1  0.6830263E-012  0.5930195E+02  0.7816164E-02  0.1266605E+00
        -11   -1    0    0    0    0  0.00000000000E+00  0.00000000000E+00  0.45593999997E+02  0.45594000000E+02  0.51100000000E-03 0. -1.
         11   -1    0    0    0    0 -0.00000000000E+00 -0.00000000000E+00 -0.45593999997E+02  0.45594000000E+02  0.51100000000E-03 0.  1.
    9900012    2    1    2    0    0 -0.10910503888E+02  0.26579614177E+02  0.13827687148E+02  0.59301954200E+02  0.50000018551E+02 0.  0.
        -12    1    1    2    0    0  0.10910503888E+02 -0.26579614177E+02 -0.13827687148E+02  0.31886045800E+02  0.00000000000E+00 0.  1.
         11    1    3    3    0    0 -0.18045056276E+02 -0.36333420842E+01  0.92893378111E+01  0.20618366277E+02  0.51100000000E-03 0. -1.
        -11    1    3    3    0    0 -0.42383288450E-01 -0.29138571421E+01 -0.27574233249E+01  0.40119500796E+01  0.51100000000E-03 0.  1.
         12    1    3    3    0    0  0.71769356759E+01  0.33126813404E+02  0.72957726619E+01  0.34671637843E+02  0.00000000000E+00 0. -1.
</event>
<event>
 7    1  0.6830263E-012  0.5930195E+02  0.7816164E-02  0.1266605E+00
        -11   -1    0    0    0    0  0.00000000000E+00  0.00000000000E+00  0.45593999997E+02  0.45594000000E+02  0.51100000000E-03 0.  1.
         11   -1    0    0    0    0 -0.00000000000E+00 -0.00000000000E+00 -0.45593999997E+02  0.45594000000E+02  0.51100000000E-03 0. -1.
    9900012    2    1    2    0    0  0.34801783761E+01  0.99745705022E+01 -0.30085158629E+02  0.59301945557E+02  0.50000002789E+02 0.  0.
        -12    1    1    2    0    0 -0.34801783761E+01 -0.99745705022E+01  0.30085158629E+02  0.31886054443E+02  0.00000000000E+00 0.  1.
         11    1    3    3    0    0  0.16463118483E+02 -0.26024712873E+01 -0.74780588377E+01  0.18268237223E+02  0.51100000000E-03 0. -1.
        -11    1    3    3    0    0  0.32830070346E+01  0.27055704954E+01  0.55855618350E+01  0.70211643029E+01  0.51100000000E-03 0.  1.
        -12    1    3    3    0    0 -0.16265947142E+02  0.98714712941E+01 -0.28192661626E+02  0.34012544031E+02  0.00000000000E+00 0.  1.
</event>
<event>
 7    1  0.6830263E-012  0.5930190E+02  0.7816164E-02  0.1266605E+00
        -11   -1    0    0    0    0  0.00000000000E+00  0.00000000000E+00  0.45593999997E+02  0.45594000000E+02  0.51100000000E-03 0.  1.
         11   -1    0    0    0    0 -0.00000000000E+00 -0.00000000000E+00 -0.45593999997E+02  0.45594000000E+02  0.51100000000E-03 0. -1.
    9900012    2    1    2    0    0 -0.86054291468E+01  0.29648416233E+02  0.79775519623E+01  0.59301900658E+02  0.49999920905E+02 0.  0.
        -12    1    1    2    0    0  0.86054291468E+01 -0.29648416233E+02 -0.79775519623E+01  0.31886099342E+02  0.00000000000E+00 0.  1.
         11    1    3    3    0    0  0.37779495778E+01  0.21193562616E+01 -0.25286562924E+01  0.50158425894E+01  0.51100000000E-03 0. -1.
        -11    1    3    3    0    0  0.97154686681E+01  0.13785999225E+02 -0.11327446710E+02  0.20316376530E+02  0.51100000000E-03 0.  1.
        -12    1    3    3    0    0 -0.22098847393E+02  0.13743060746E+02  0.21833654965E+02  0.33969681539E+02  0.00000000000E+00 0.  1.
</event>
<event>
 7    1  0.6830263E-012  0.5930183E+02  0.7816164E-02  0.1266605E+00
        -11   -1    0    0    0    0  0.00000000000E+00  0.00000000000E+00  0.45593999997E+02  0.45594000000E+02  0.51100000000E-03 0.  1.
         11   -1    0    0    0    0 -0.00000000000E+00 -0.00000000000E+00 -0.45593999997E+02  0.45594000000E+02  0.51100000000E-03 0. -1.
    9900012    2    1    2    0    0  0.99351562643E+00 -0.27320034263E+02 -0.16412075503E+02  0.59301834226E+02  0.49999799748E+02 0.  0.
        -12    1    1    2    0    0 -0.99351562643E+00  0.27320034263E+02  0.16412075503E+02  0.31886165774E+02  0.00000000000E+00 0.  1.
         11    1    3    3    0    0  0.14253145435E+01  0.61215533305E+01 -0.50844587514E+01  0.80843464660E+01  0.51100000000E-03 0. -1.
        -11    1    3    3    0    0  0.65710678544E+01  0.65810042277E+01 -0.15684765775E+01  0.94312601717E+01  0.51100000000E-03 0.  1.
         12    1    3    3    0    0 -0.70028667715E+01 -0.40022591821E+02 -0.97591401740E+01  0.41786227588E+02  0.00000000000E+00 0. -1.
</event>
<event>
 7    1  0.6830263E-012  0.5930195E+02  0.7816164E-02  0.1266605E+00
        -11   -1    0    0    0    0  0.00000000000E+00  0.00000000000E+00  0.45593999997E+02  0.45594000000E+02  0.51100000000E-03 0. -1.
         11   -1    0    0    0    0 -0.00000000000E+00 -0.00000000000E+00 -0.45593999997E+02  0.45594000000E+02  0.51100000000E-03 0.  1.
    9900012    2    1    2    0    0 -0.26608710774E+02  0.62303413908E+01  0.16428015489E+02  0.59301947629E+02  0.50000006568E+02 0.  0.
        -12    1    1    2    0    0  0.26608710774E+02 -0.62303413908E+01 -0.16428015489E+02  0.31886052371E+02  0.00000000000E+00 0.  1.
         11    1    3    3    0    0 -0.18878276072E+01 -0.37859371453E+01  0.84568303362E+01  0.94559606989E+01  0.51100000000E-03 0. -1.
        -11    1    3    3    0    0 -0.23690670994E+02  0.59759784888E+01 -0.13540493282E+02  0.27933942966E+02  0.51100000000E-03 0.  1.
         12    1    3    3    0    0 -0.10302121730E+01  0.40403000473E+01  0.21511678435E+02  0.21912043964E+02  0.00000000000E+00 0. -1.
</event>
<event>
 7    1  0.6830263E-012  0.5930188E+02  0.7816164E-02  0.1266605E+00
        -11   -1    0    0    0    0  0.00000000000E+00  0.00000000000E+00  0.45593999997E+02  0.45594000000E+02  0.51100000000E-03 0. -1.
         11   -1    0    0    0    0 -0.00000000000E+00 -0.00000000000E+00 -0.45593999997E+02  0.45594000000E+02  0.51100000000E-03 0.  1.
    9900012    2    1    2    0    0 -0.12999658000E+02 -0.62779129032E+01  0.28430990679E+02  0.59301881868E+02  0.49999886636E+02 0.  0.
        -12    1    1    2    0    0  0.12999658000E+02  0.62779129032E+01 -0.28430990679E+02  0.31886118132E+02  0.00000000000E+00 0.  1.
         11    1    3    3    0    0  0.97673099289E+01 -0.91604023071E-01 -0.16196735207E+01  0.99011149432E+01  0.51100000000E-03 0.  1.
        -11    1    3    3    0    0  0.50133766921E+01  0.29691834766E+01 -0.18564566286E+01  0.61152618791E+01  0.51100000000E-03 0. -1.
         12    1    3    3    0    0 -0.27780344621E+02 -0.91554923567E+01  0.31907120828E+02  0.43285505046E+02  0.00000000000E+00 0. -1.
</event>
<event>
 7    1  0.6830263E-012  0.5930192E+02  0.7816164E-02  0.1266605E+00
        -11   -1    0    0    0    0  0.00000000000E+00  0.00000000000E+00  0.45593999997E+02  0.45594000000E+02  0.51100000000E-03 0.  1.
         11   -1    0    0    0    0 -0.00000000000E+00 -0.00000000000E+00 -0.45593999997E+02  0.45594000000E+02  0.51100000000E-03 0. -1.
    9900012    2    1    2    0    0  0.15242580517E+02 -0.95087223502E+01 -0.26343308842E+02  0.59301921811E+02  0.49999959482E+02 0.  0.
        -12    1    1    2    0    0 -0.15242580517E+02  0.95087223502E+01  0.26343308842E+02  0.31886078189E+02  0.00000000000E+00 0.  1.
         11    1    3    3    0    0  0.12479054074E+02 -0.94371280083E+01  0.59298305011E+01  0.16731678507E+02  0.51100000000E-03 0. -1.
        -11    1    3    3    0    0  0.51236464647E+01 -0.12900649689E+02 -0.11427128013E+02  0.17979370689E+02  0.51100000000E-03 0.  1.
         12    1    3    3    0    0 -0.23601200219E+01  0.12829055347E+02 -0.20846011330E+02  0.24590872616E+02  0.00000000000E+00 0. -1.
</event>
<event>
 7    1  0.6830263E-012  0.5930201E+02  0.7816164E-02  0.1266605E+00
        -11   -1    0    0    0    0  0.00000000000E+00  0.00000000000E+00  0.45593999997E+02  0.45594000000E+02  0.51100000000E-03 0. -1.
         11   -1    0    0    0    0 -0.00000000000E+00 -0.00000000000E+00 -0.45593999997E+02  0.45594000000E+02  0.51100000000E-03 0.  1.
    9900012    2    1    2    0    0 -0.12556261783E+02 -0.20489705185E+02  0.20957786435E+02  0.59302007138E+02  0.50000115099E+02 0.  0.
        -12    1    1    2    0    0  0.12556261783E+02  0.20489705185E+02 -0.20957786435E+02  0.31885992862E+02  0.00000000000E+00 0.  1.
         11    1    3    3    0    0  0.34387452053E+01 -0.17045006062E+01  0.11602524930E+02  0.12220837774E+02  0.51100000000E-03 0. -1.
        -11    1    3    3    0    0 -0.48266687548E+01 -0.53362379238E+01  0.23510707203E+02  0.24587100681E+02  0.51100000000E-03 0.  1.
        -12    1    3    3    0    0 -0.11168338234E+02 -0.13448966655E+02 -0.14155445698E+02  0.22494068683E+02  0.00000000000E+00 0.  1.
</event>
<event>
 7    1  0.6830263E-012  0.5930191E+02  0.7816164E-02  0.1266605E+00
        -11   -1    0    0    0    0  0.00000000000E+00  0.00000000000E+00  0.45593999997E+02  0.45594000000E+02  0.51100000000E-03 0.  1.
         11   -1    0    0    0    0 -0.00000000000E+00 -0.00000000000E+00 -0.45593999997E+02  0.45594000000E+02  0.51100000000E-03 0. -1.
    9900012    2    1    2    0    0  0.24393338116E+02 -0.13580069664E+02  0.15403551980E+02  0.59301911339E+02  0.49999940384E+02 0.  0.
        -12    1    1    2    0    0 -0.24393338116E+02  0.13580069664E+02 -0.15403551980E+02  0.31886088661E+02  0.00000000000E+00 0.  1.
         11    1    3    3    0    0 -0.81450441153E+01 -0.15101100632E+02  0.53415237988E+01  0.17969887609E+02  0.51100000000E-03 0. -1.
        -11    1    3    3    0    0  0.49612752123E+00 -0.33450027332E+01  0.81988940151E+01  0.88688809403E+01  0.51100000000E-03 0.  1.
        -12    1    3    3    0    0  0.32042254710E+02  0.48660337013E+01  0.18631341665E+01  0.32463142790E+02  0.00000000000E+00 0.  1.
</event>
<event>
 7    1  0.6830263E-012  0.5930193E+02  0.7816164E-02  0.1266605E+00
        -11   -1    0    0    0    0  0.00000000000E+00  0.00000000000E+00  0.45593999997E+02  0.45594000000E+02  0.51100000000E-03 0.  1.
         11   -1    0    0    0    0 -0.00000000000E+00 -0.00000000000E+00 -0.45593999997E+02  0.45594000000E+02  0.51100000000E-03 0. -1.
    9900012    2    1    2    0    0 -0.27740785538E+02 -0.37479047192E+01  0.15268377845E+02  0.59301931976E+02  0.49999978020E+02 0.  0.
        -12    1    1    2    0    0  0.27740785538E+02  0.37479047192E+01 -0.15268377845E+02  0.31886068024E+02  0.00000000000E+00 0.  1.
         11    1    3    3    0    0 -0.13102520373E+01  0.27232475923E+01  0.10164551823E+01  0.31884195535E+01  0.51100000000E-03 0. -1.
        -11    1    3    3    0    0 -0.29998002642E+02  0.13146951524E+02  0.15292207101E+02  0.36146564085E+02  0.51100000000E-03 0.  1.
         12    1    3    3    0    0  0.35674691415E+01 -0.19618103835E+02 -0.10402844386E+01  0.19966948337E+02  0.00000000000E+00 0. -1.
</event>
<event>
 7    1  0.6830263E-012  0.5930197E+02  0.7816164E-02  0.1266605E+00
        -11   -1    0    0    0    0  0.00000000000E+00  0.00000000000E+00  0.45593999997E+02  0.45594000000E+02  0.51100000000E-03 0. -1.
         11   -1    0    0    0    0 -0.00000000000E+00 -0.00000000000E+00 -0.45593999997E+02  0.45594000000E+02  0.51100000000E-03 0.  1.
    9900012    2    1    2    0    0 -0.14525257848E+02  0.16579971986E+02  0.23039976412E+02  0.59301967012E+02  0.50000041918E+02 0.  0.
        -12    1    1    2    0    0  0.14525257848E+02 -0.16579971986E+02 -0.23039976412E+02  0.31886032988E+02  0.00000000000E+00 0.  1.
         11    1    3    3    0    0 -0.24074145616E+02  0.18691861623E+02  0.17788810142E+02  0.35290111145E+02  0.51100000000E-03 0. -1.
        -11    1    3    3    0    0 -0.44223317073E+01 -0.17714670053E+01  0.84268366067E+01  0.96802215128E+01  0.51100000000E-03 0.  1.
        -12    1    3    3    0    0  0.13971219475E+02 -0.34042263210E+00 -0.31756703357E+01  0.14331634355E+02  0.00000000000E+00 0.  1.
</event>
<event>
 7    1  0.6830263E-012  0.5930183E+02  0.7816164E-02  0.1266605E+00
        -11   -1    0    0    0    0  0.00000000000E+00  0.00000000000E+00  0.45593999997E+02  0.45594000000E+02  0.51100000000E-03 0. -1.
         11   -1    0    0    0    0 -0.00000000000E+00 -0.00000000000E+00 -0.45593999997E+02  0.45594000000E+02  0.51100000000E-03 0.  1.
    9900012    2    1    2    0    0 -0.18631780445E+02 -0.19292911013E+02 -0.17244359288E+02  0.59301833953E+02  0.49999799250E+02 0.  0.
        -12    1    1    2    0    0  0.18631780445E+02  0.19292911013E+02  0.17244359288E+02  0.31886166047E+02  0.00000000000E+00 0.  1.
         11    1    3    3    0    0  0.12843273835E+00 -0.98237047289E+01  0.69234780903E+01  0.12018994080E+02  0.51100000000E-03 0. -1.
        -11    1    3    3    0    0  0.78123075644E+01 -0.22771539490E+01 -0.16983284344E+02  0.18832140796E+02  0.51100000000E-03 0.  1.
         12    1    3    3    0    0 -0.26572520748E+02 -0.71920523353E+01 -0.71845530342E+01  0.28450699077E+02  0.00000000000E+00 0. -1.
</event>
<event>
 7    1  0.6830263E-012  0.5930194E+02  0.7816164E-02  0.1266605E+00
        -11   -1    0    0    0    0  0.00000000000E+00  0.00000000000E+00  0.45593999997E+02  0.45594000000E+02  0.51100000000E-03 0.  1.
         11   -1    0    0    0    0 -0.00000000000E+00 -0.00000000000E+00 -0.45593999997E+02  0.45594000000E+02  0.51100000000E-03 0. -1.
    9900012    2    1    2    0    0  0.70824858656E+01  0.22976266804E+02 -0.20943986776E+02  0.59301936832E+02  0.49999986877E+02 0.  0.
        -12    1    1    2    0    0 -0.70824858656E+01 -0.22976266804E+02  0.20943986776E+02  0.31886063168E+02  0.00000000000E+00 0.  1.
         11    1    3    3    0    0 -0.16171709267E+02  0.55059807787E+01 -0.21153639123E+02  0.27190374278E+02  0.51100000000E-03 0. -1.
        -11    1    3    3    0    0 -0.12535079493E+01  0.29616739125E+01 -0.15638686660E+01  0.35760984339E+01  0.51100000000E-03 0.  1.
        -12    1    3    3    0    0  0.24507703082E+02  0.14508612113E+02  0.17735210130E+01  0.28535464121E+02  0.00000000000E+00 0.  1.
</event>
<event>
 7    1  0.6830263E-012  0.5930195E+02  0.7816164E-02  0.1266605E+00
        -11   -1    0    0    0    0  0.00000000000E+00  0.00000000000E+00  0.45593999997E+02  0.45594000000E+02  0.51100000000E-03 0.  1.
         11   -1    0    0    0    0 -0.00000000000E+00 -0.00000000000E+00 -0.45593999997E+02  0.45594000000E+02  0.51100000000E-03 0. -1.
    9900012    2    1    2    0    0 -0.10841720987E+02 -0.23815086490E+02  0.18221386575E+02  0.59301949960E+02  0.50000010818E+02 0.  0.
        -12    1    1    2    0    0  0.10841720987E+02  0.23815086490E+02 -0.18221386575E+02  0.31886050040E+02  0.00000000000E+00 0.  1.
         11    1    3    3    0    0 -0.15036146596E+01 -0.83520451545E+01  0.12220253340E+00  0.84871932361E+01  0.51100000000E-03 0. -1.
        -11    1    3    3    0    0  0.12923936252E+02 -0.17390619713E+02  0.18462869861E+02  0.28466460019E+02  0.51100000000E-03 0.  1.
         12    1    3    3    0    0 -0.22262042579E+02  0.19275783779E+01 -0.36368581914E+00  0.22348296704E+02  0.00000000000E+00 0. -1.
</event>
<event>
 7    1  0.6830263E-012  0.5930191E+02  0.7816164E-02  0.1266605E+00
        -11   -1    0    0    0    0  0.00000000000E+00  0.00000000000E+00  0.45593999997E+02  0.45594000000E+02  0.51100000000E-03 0.  1.
         11   -1    0    0    0    0 -0.00000000000E+00 -0.00000000000E+00 -0.45593999997E+02  0.45594000000E+02  0.51100000000E-03 0. -1.
    9900012    2    1    2    0    0  0.19666772361E+02 -0.51291903559E+01 -0.24568928962E+02  0.59301909001E+02  0.49999936120E+02 0.  0.
        -12    1    1    2    0    0 -0.19666772361E+02  0.51291903559E+01  0.24568928962E+02  0.31886090999E+02  0.00000000000E+00 0.  1.
         11    1    3    3    0    0 -0.47754799042E+01 -0.74157731823E+01 -0.20736491538E+02  0.22534439903E+02  0.51100000000E-03 0. -1.
        -11    1    3    3    0    0 -0.22011706241E+01  0.80715889404E+00 -0.92466785215E+01  0.95392725896E+01  0.51100000000E-03 0.  1.
        -12    1    3    3    0    0  0.26643422890E+02  0.14794239324E+01  0.54142410966E+01  0.27228196508E+02  0.00000000000E+00 0.  1.
</event>
<event>
 7    1  0.6830263E-012  0.5930220E+02  0.7816164E-02  0.1266604E+00
        -11   -1    0    0    0    0  0.00000000000E+00  0.00000000000E+00  0.45593999997E+02  0.45594000000E+02  0.51100000000E-03 0.  1.
         11   -1    0    0    0    0 -0.00000000000E+00 -0.00000000000E+00 -0.45593999997E+02  0.45594000000E+02  0.51100000000E-03 0. -1.
    9900012    2    1    2    0    0  0.12180902298E+02 -0.21510259634E+02 -0.20140477255E+02  0.59302196350E+02  0.50000460174E+02 0.  0.
        -12    1    1    2    0    0 -0.12180902298E+02  0.21510259634E+02  0.20140477255E+02  0.31885803650E+02  0.00000000000E+00 0.  1.
         11    1    3    3    0    0  0.34376501408E+01 -0.17839851067E+02 -0.12601990870E+02  0.22110809545E+02  0.51100000000E-03 0. -1.
        -11    1    3    3    0    0 -0.18735306151E+01  0.76322731959E+01 -0.17207310823E+02  0.18917009730E+02  0.51100000000E-03 0.  1.
         12    1    3    3    0    0  0.10616782772E+02 -0.11302681763E+02  0.96688244380E+01  0.18274377075E+02  0.00000000000E+00 0. -1.
</event>
<event>
 7    1  0.6830263E-012  0.5930205E+02  0.7816164E-02  0.1266604E+00
        -11   -1    0    0    0    0  0.00000000000E+00  0.00000000000E+00  0.45593999997E+02  0.45594000000E+02  0.51100000000E-03 0.  1.
         11   -1    0    0    0    0 -0.00000000000E+00 -0.00000000000E+00 -0.45593999997E+02  0.45594000000E+02  0.51100000000E-03 0. -1.
    9900012    2    1    2    0    0  0.16885691862E+02  0.26490655667E+02 -0.54619249013E+01  0.59302046181E+02  0.50000186303E+02 0.  0.
        -12    1    1    2    0    0 -0.16885691862E+02 -0.26490655667E+02  0.54619249013E+01  0.31885953819E+02  0.00000000000E+00 0.  1.
         11    1    3    3    0    0 -0.37059406407E+01 -0.11970068942E+01 -0.17311248007E+02  0.17743904006E+02  0.51100000000E-03 0. -1.
        -11    1    3    3    0    0  0.94810484529E+01  0.29541848076E+01 -0.33422981055E+01  0.10477998117E+02  0.51100000000E-03 0.  1.
         12    1    3    3    0    0  0.11110584049E+02  0.24733477753E+02  0.15191621211E+02  0.31080144059E+02  0.00000000000E+00 0. -1.
</event>
<event>
 7    1  0.6830263E-012  0.5930197E+02  0.7816164E-02  0.1266605E+00
        -11   -1    0    0    0    0  0.00000000000E+00  0.00000000000E+00  0.45593999997E+02  0.45594000000E+02  0.51100000000E-03 0.  1.
         11   -1    0    0    0    0 -0.00000000000E+00 -0.00000000000E+00 -0.45593999997E+02  0.45594000000E+02  0.51100000000E-03 0. -1.
    9900012    2    1    2    0    0  0.23057318720E+02 -0.15903045669E+02 -0.15237185924E+02  0.59301974174E+02  0.50000054979E+02 0.  0.
        -12    1    1    2    0    0 -0.23057318720E+02  0.15903045669E+02  0.15237185924E+02  0.31886025826E+02  0.00000000000E+00 0.  1.
         11    1    3    3    0    0  0.29416932718E+02 -0.92123258812E+01 -0.99467170637E+01  0.32390740332E+02  0.51100000000E-03 0.  1.
        -11    1    3    3    0    0  0.75150318570E+01 -0.29026258483E+01 -0.89790070795E+01  0.12063312523E+02  0.51100000000E-03 0. -1.
        -12    1    3    3    0    0 -0.13874645855E+02 -0.37880939391E+01  0.36885382187E+01  0.14847921319E+02  0.00000000000E+00 0.  1.
</event>
<event>
 7    1  0.6830263E-012  0.5930182E+02  0.7816164E-02  0.1266605E+00
        -11   -1    0    0    0    0  0.00000000000E+00  0.00000000000E+00  0.45593999997E+02  0.45594000000E+02  0.51100000000E-03 0. -1.
         11   -1    0    0    0    0 -0.00000000000E+00 -0.00000000000E+00 -0.45593999997E+02  0.45594000000E+02  0.51100000000E-03 0.  1.
    9900012    2    1    2    0    0  0.25203751425E+02 -0.59841016381E+01  0.18592736875E+02  0.59301820819E+02  0.49999775296E+02 0.  0.
        -12    1    1    2    0    0 -0.25203751425E+02  0.59841016381E+01 -0.18592736875E+02  0.31886179181E+02  0.00000000000E+00 0.  1.
         11    1    3    3    0    0  0.16415523098E+02  0.73856979087E+01  0.17632120802E+02  0.25197412891E+02  0.51100000000E-03 0. -1.
        -11    1    3    3    0    0 -0.87958594339E+00  0.85890494983E+01 -0.41402090518E+01  0.95753210896E+01  0.51100000000E-03 0.  1.
        -12    1    3    3    0    0  0.96678142699E+01 -0.21958849045E+02  0.51008251245E+01  0.24529086838E+02  0.00000000000E+00 0.  1.
</event>
<event>
 7    1  0.6830263E-012  0.5930194E+02  0.7816164E-02  0.1266605E+00
        -11   -1    0    0    0    0  0.00000000000E+00  0.00000000000E+00  0.45593999997E+02  0.45594000000E+02  0.51100000000E-03 0. -1.
         11   -1    0    0    0    0 -0.00000000000E+00 -0.00000000000E+00 -0.45593999997E+02  0.45594000000E+02  0.51100000000E-03 0.  1.
    9900012    2    1    2    0    0 -0.13921850129E+02 -0.11633219690E+02  0.26221582645E+02  0.59301935523E+02  0.49999984490E+02 0.  0.
        -12    1    1    2    0    0  0.13921850129E+02  0.11633219690E+02 -0.26221582645E+02  0.31886064477E+02  0.00000000000E+00 0.  1.
         11    1    3    3    0    0 -0.17264677599E+02 -0.15141150817E+01  0.28282093996E+02  0.33169842902E+02  0.51100000000E-03 0. -1.
        -11    1    3    3    0    0  0.78154113852E+00 -0.14615843070E+02  0.65899675957E+01  0.16051833178E+02  0.51100000000E-03 0.  1.
        -12    1    3    3    0    0  0.25612863320E+01  0.44967384613E+01 -0.86504789459E+01  0.10080259444E+02  0.00000000000E+00 0.  1.
</event>
<event>
 7    1  0.6830263E-012  0.5930199E+02  0.7816164E-02  0.1266605E+00
        -11   -1    0    0    0    0  0.00000000000E+00  0.00000000000E+00  0.45593999997E+02  0.45594000000E+02  0.51100000000E-03 0.  1.
         11   -1    0    0    0    0 -0.00000000000E+00 -0.00000000000E+00 -0.45593999997E+02  0.45594000000E+02  0.51100000000E-03 0. -1.
    9900012    2    1    2    0    0  0.27102241640E+01 -0.59826865798E-01 -0.31770562429E+02  0.59301991606E+02  0.50000086771E+02 0.  0.
        -12    1    1    2    0    0 -0.27102241640E+01  0.59826865798E-01  0.31770562429E+02  0.31886008394E+02  0.00000000000E+00 0.  1.
         11    1    3    3    0    0 -0.21550571279E+01 -0.87452034815E+01 -0.67419553847E+01  0.11250636330E+02  0.51100000000E-03 0. -1.
        -11    1    3    3    0    0  0.55680270270E+01 -0.28214763017E+01  0.96577642391E+01  0.11499394065E+02  0.51100000000E-03 0.  1.
        -12    1    3    3    0    0 -0.70274573509E+00  0.11506852917E+02 -0.34686371283E+02  0.36551961212E+02  0.00000000000E+00 0.  1.
</event>
<event>
 7    1  0.6830263E-012  0.5930195E+02  0.7816164E-02  0.1266605E+00
        -11   -1    0    0    0    0  0.00000000000E+00  0.00000000000E+00  0.45593999997E+02  0.45594000000E+02  0.51100000000E-03 0. -1.
         11   -1    0    0    0    0 -0.00000000000E+00 -0.00000000000E+00 -0.45593999997E+02  0.45594000000E+02  0.51100000000E-03 0.  1.
    9900012    2    1    2    0    0  0.25791556650E+02  0.17937864684E+02 -0.54542236747E+01  0.59301953840E+02  0.50000017895E+02 0.  0.
        -12    1    1    2    0    0 -0.25791556650E+02 -0.17937864684E+02  0.54542236747E+01  0.31886046160E+02  0.00000000000E+00 0.  1.
         11    1    3    3    0    0  0.24883605293E+02  0.16859722634E+02 -0.84888321873E+01  0.31233064721E+02  0.51100000000E-03 0. -1.
        -11    1    3    3    0    0  0.13928828692E+02  0.35861995841E+01 -0.33590196312E+00  0.14387005476E+02  0.51100000000E-03 0.  1.
        -12    1    3    3    0    0 -0.13020877334E+02 -0.25080575348E+01  0.33705104757E+01  0.13681883643E+02  0.00000000000E+00 0.  1.
</event>
<event>
 7    1  0.6830263E-012  0.5930195E+02  0.7816164E-02  0.1266605E+00
        -11   -1    0    0    0    0  0.00000000000E+00  0.00000000000E+00  0.45593999997E+02  0.45594000000E+02  0.51100000000E-03 0.  1.
         11   -1    0    0    0    0 -0.00000000000E+00 -0.00000000000E+00 -0.45593999997E+02  0.45594000000E+02  0.51100000000E-03 0. -1.
    9900012    2    1    2    0    0 -0.38014909692E+01 -0.10925743755E+01 -0.31639773034E+02  0.59301948348E+02  0.50000007878E+02 0.  0.
        -12    1    1    2    0    0  0.38014909692E+01  0.10925743755E+01  0.31639773034E+02  0.31886051652E+02  0.00000000000E+00 0.  1.
         11    1    3    3    0    0  0.53057776986E+01 -0.20052827266E+02 -0.13823292919E+02  0.24926904857E+02  0.51100000000E-03 0.  1.
        -11    1    3    3    0    0 -0.43068103735E+01  0.91566859798E+01 -0.20738005354E+02  0.23075059697E+02  0.51100000000E-03 0. -1.
        -12    1    3    3    0    0 -0.48004582943E+01  0.98035669108E+01  0.29215252388E+01  0.11299983793E+02  0.00000000000E+00 0.  1.
</event>
<event>
 7    1  0.6830263E-012  0.5930194E+02  0.7816164E-02  0.1266605E+00
        -11   -1    0    0    0    0  0.00000000000E+00  0.00000000000E+00  0.45593999997E+02  0.45594000000E+02  0.51100000000E-03 0.  1.
         11   -1    0    0    0    0 -0.00000000000E+00 -0.00000000000E+00 -0.45593999997E+02  0.45594000000E+02  0.51100000000E-03 0. -1.
    9900012    2    1    2    0    0  0.16008620346E+02 -0.20778654946E+02 -0.18129878636E+02  0.59301938373E+02  0.49999989686E+02 0.  0.
        -12    1    1    2    0    0 -0.16008620346E+02  0.20778654946E+02  0.18129878636E+02  0.31886061627E+02  0.00000000000E+00 0.  1.
         11    1    3    3    0    0  0.11593946631E+02 -0.15806136213E+02 -0.19021247944E+02  0.27314124809E+02  0.51100000000E-03 0. -1.
        -11    1    3    3    0    0 -0.21441759681E+00  0.54180973282E+01 -0.12969231581E+02  0.14057123519E+02  0.51100000000E-03 0.  1.
        -12    1    3    3    0    0  0.46290913114E+01 -0.10390616061E+02  0.13860600889E+02  0.17930690045E+02  0.00000000000E+00 0.  1.
</event>
<event>
 7    1  0.6830263E-012  0.5930194E+02  0.7816164E-02  0.1266605E+00
        -11   -1    0    0    0    0  0.00000000000E+00  0.00000000000E+00  0.45593999997E+02  0.45594000000E+02  0.51100000000E-03 0.  1.
         11   -1    0    0    0    0 -0.00000000000E+00 -0.00000000000E+00 -0.45593999997E+02  0.45594000000E+02  0.51100000000E-03 0. -1.
    9900012    2    1    2    0    0 -0.12441589786E+02 -0.55313915971E+01 -0.28832817853E+02  0.59301939805E+02  0.49999992299E+02 0.  0.
        -12    1    1    2    0    0  0.12441589786E+02  0.55313915971E+01  0.28832817853E+02  0.31886060195E+02  0.00000000000E+00 0.  1.
         11    1    3    3    0    0  0.39879915080E+01  0.10873219669E+02  0.50266711071E+01  0.12625308112E+02  0.51100000000E-03 0. -1.
        -11    1    3    3    0    0 -0.12102385319E+02 -0.13577414552E+00 -0.24713644701E+02  0.27518183074E+02  0.51100000000E-03 0.  1.
        -12    1    3    3    0    0 -0.43271959751E+01 -0.16268837121E+02 -0.91458442592E+01  0.19158448619E+02  0.00000000000E+00 0.  1.
</event>
<event>
 7    1  0.6830263E-012  0.5930194E+02  0.7816164E-02  0.1266605E+00
        -11   -1    0    0    0    0  0.00000000000E+00  0.00000000000E+00  0.45593999997E+02  0.45594000000E+02  0.51100000000E-03 0. -1.
         11   -1    0    0    0    0 -0.00000000000E+00 -0.00000000000E+00 -0.45593999997E+02  0.45594000000E+02  0.51100000000E-03 0.  1.
    9900012    2    1    2    0    0  0.72614436779E+01  0.30511121356E+02 -0.57501058657E+01  0.59301940222E+02  0.49999993059E+02 0.  0.
        -12    1    1    2    0    0 -0.72614436779E+01 -0.30511121356E+02  0.57501058657E+01  0.31886059778E+02  0.00000000000E+00 0.  1.
         11    1    3    3    0    0 -0.29339198928E+01  0.38464661200E+01  0.14307203908E+02  0.15102955720E+02  0.51100000000E-03 0. -1.
        -11    1    3    3    0    0  0.14232888369E+02  0.43989745103E+01 -0.15724431763E+01  0.14979942118E+02  0.51100000000E-03 0.  1.
        -12    1    3    3    0    0 -0.40375247983E+01  0.22265680726E+02 -0.18484866597E+02  0.29219042384E+02  0.00000000000E+00 0.  1.
</event>
<event>
 7    1  0.6830263E-012  0.5930193E+02  0.7816164E-02  0.1266605E+00
        -11   -1    0    0    0    0  0.00000000000E+00  0.00000000000E+00  0.45593999997E+02  0.45594000000E+02  0.51100000000E-03 0. -1.
         11   -1    0    0    0    0 -0.00000000000E+00 -0.00000000000E+00 -0.45593999997E+02  0.45594000000E+02  0.51100000000E-03 0.  1.
    9900012    2    1    2    0    0  0.25214797032E+02 -0.45976679818E+01  0.18968305272E+02  0.59301934939E+02  0.49999983424E+02 0.  0.
        -12    1    1    2    0    0 -0.25214797032E+02  0.45976679818E+01 -0.18968305272E+02  0.31886065061E+02  0.00000000000E+00 0.  1.
         11    1    3    3    0    0  0.38794368824E+01 -0.76389742367E+01  0.84369140865E+01  0.12024370149E+02  0.51100000000E-03 0. -1.
        -11    1    3    3    0    0  0.28052954887E+02 -0.52523592959E+01 -0.44478652478E+01  0.28884927931E+02  0.51100000000E-03 0.  1.
        -12    1    3    3    0    0 -0.67175947378E+01  0.82936655508E+01  0.14979256433E+02  0.18392636859E+02  0.00000000000E+00 0.  1.
</event>
<event>
 7    1  0.6830263E-012  0.5930195E+02  0.7816164E-02  0.1266605E+00
        -11   -1    0    0    0    0  0.00000000000E+00  0.00000000000E+00  0.45593999997E+02  0.45594000000E+02  0.51100000000E-03 0.  1.
         11   -1    0    0    0    0 -0.00000000000E+00 -0.00000000000E+00 -0.45593999997E+02  0.45594000000E+02  0.51100000000E-03 0. -1.
    9900012    2    1    2    0    0  0.21497126945E+02  0.14434549401E+02 -0.18607462413E+02  0.59301947551E+02  0.50000006426E+02 0.  0.
        -12    1    1    2    0    0 -0.21497126945E+02 -0.14434549401E+02  0.18607462413E+02  0.31886052449E+02  0.00000000000E+00 0.  1.
         11    1    3    3    0    0 -0.71366948249E+01 -0.21134681968E+01 -0.54946198460E+01  0.92514868187E+01  0.51100000000E-03 0. -1.
        -11    1    3    3    0    0 -0.22911861670E+01 -0.81394475059E+01 -0.44000120847E+01  0.95320641186E+01  0.51100000000E-03 0.  1.
        -12    1    3    3    0    0  0.30925007937E+02  0.24687465104E+02 -0.87128304818E+01  0.40518396614E+02  0.00000000000E+00 0.  1.
</event>
<event>
 7    1  0.6830263E-012  0.5930195E+02  0.7816164E-02  0.1266605E+00
        -11   -1    0    0    0    0  0.00000000000E+00  0.00000000000E+00  0.45593999997E+02  0.45594000000E+02  0.51100000000E-03 0.  1.
         11   -1    0    0    0    0 -0.00000000000E+00 -0.00000000000E+00 -0.45593999997E+02  0.45594000000E+02  0.51100000000E-03 0. -1.
    9900012    2    1    2    0    0 -0.30558923059E+02 -0.85927168255E+01 -0.30062827037E+01  0.59301948243E+02  0.50000007687E+02 0.  0.
        -12    1    1    2    0    0  0.30558923059E+02  0.85927168255E+01  0.30062827037E+01  0.31886051757E+02  0.00000000000E+00 0.  1.
         11    1    3    3    0    0 -0.80280418677E+01 -0.10924972447E+02  0.80149482281E+01  0.15749408705E+02  0.51100000000E-03 0. -1.
        -11    1    3    3    0    0 -0.10485774405E+02  0.12503622738E+02  0.85489796210E+01  0.18422190404E+02  0.51100000000E-03 0.  1.
         12    1    3    3    0    0 -0.12045106786E+02 -0.10171367117E+02 -0.19570210553E+02  0.25130349134E+02  0.00000000000E+00 0. -1.
</event>
<event>
 7    1  0.6830263E-012  0.5930171E+02  0.7816164E-02  0.1266606E+00
        -11   -1    0    0    0    0  0.00000000000E+00  0.00000000000E+00  0.45593999997E+02  0.45594000000E+02  0.51100000000E-03 0.  1.
         11   -1    0    0    0    0 -0.00000000000E+00 -0.00000000000E+00 -0.45593999997E+02  0.45594000000E+02  0.51100000000E-03 0. -1.
    9900012    2    1    2    0    0 -0.46387181079E+01  0.12713451380E+02 -0.28871889387E+02  0.59301709083E+02  0.49999571515E+02 0.  0.
        -12    1    1    2    0    0  0.46387181079E+01 -0.12713451380E+02  0.28871889387E+02  0.31886290917E+02  0.00000000000E+00 0.  1.
         11    1    3    3    0    0 -0.42264549147E+01 -0.67142195014E+01 -0.20824973060E+02  0.22285043592E+02  0.51100000000E-03 0. -1.
        -11    1    3    3    0    0 -0.14153541122E+01  0.12463437965E+02 -0.19729221211E+02  0.23379107832E+02  0.51100000000E-03 0.  1.
        -12    1    3    3    0    0  0.10030909190E+01  0.69642329158E+01  0.11682304884E+02  0.13637557659E+02  0.00000000000E+00 0.  1.
</event>
<event>
 7    1  0.6830263E-012  0.5930194E+02  0.7816164E-02  0.1266605E+00
        -11   -1    0    0    0    0  0.00000000000E+00  0.00000000000E+00  0.45593999997E+02  0.45594000000E+02  0.51100000000E-03 0. -1.
         11   -1    0    0    0    0 -0.00000000000E+00 -0.00000000000E+00 -0.45593999997E+02  0.45594000000E+02  0.51100000000E-03 0.  1.
    9900012    2    1    2    0    0  0.16707996068E+02  0.21657813762E+02 -0.16386061781E+02  0.59301936426E+02  0.49999986136E+02 0.  0.
        -12    1    1    2    0    0 -0.16707996068E+02 -0.21657813762E+02  0.16386061781E+02  0.31886063574E+02  0.00000000000E+00 0.  1.
         11    1    3    3    0    0  0.17561737683E+02  0.78590093324E+00  0.64886851760E+01  0.18738604705E+02  0.51100000000E-03 0. -1.
        -11    1    3    3    0    0  0.11990063313E+01 -0.21795421421E+01  0.42395663388E+01  0.49154799495E+01  0.51100000000E-03 0.  1.
         12    1    3    3    0    0 -0.20527479462E+01  0.23051454971E+02 -0.27114313295E+02  0.35647851771E+02  0.00000000000E+00 0. -1.
</event>
<event>
 7    1  0.6830263E-012  0.5930195E+02  0.7816164E-02  0.1266605E+00
        -11   -1    0    0    0    0  0.00000000000E+00  0.00000000000E+00  0.45593999997E+02  0.45594000000E+02  0.51100000000E-03 0. -1.
         11   -1    0    0    0    0 -0.00000000000E+00 -0.00000000000E+00 -0.45593999997E+02  0.45594000000E+02  0.51100000000E-03 0.  1.
    9900012    2    1    2    0    0 -0.29484775482E+02  0.10445573424E+02  0.61853079104E+01  0.59301952529E+02  0.50000015505E+02 0.  0.
        -12    1    1    2    0    0  0.29484775482E+02 -0.10445573424E+02 -0.61853079104E+01  0.31886047471E+02  0.00000000000E+00 0.  1.
         11    1    3    3    0    0 -0.27779000646E+01  0.10681043995E+02 -0.39376991180E+01  0.11717802874E+02  0.51100000000E-03 0. -1.
        -11    1    3    3    0    0 -0.17848968722E+02  0.30080744946E+01 -0.13215289910E+02  0.22411561397E+02  0.51100000000E-03 0.  1.
        -12    1    3    3    0    0 -0.88579066948E+01 -0.32435450661E+01  0.23338296938E+02  0.25172588258E+02  0.00000000000E+00 0.  1.
</event>
<event>
 7    1  0.6830263E-012  0.5930193E+02  0.7816164E-02  0.1266605E+00
        -11   -1    0    0    0    0  0.00000000000E+00  0.00000000000E+00  0.45593999997E+02  0.45594000000E+02  0.51100000000E-03 0.  1.
         11   -1    0    0    0    0 -0.00000000000E+00 -0.00000000000E+00 -0.45593999997E+02  0.45594000000E+02  0.51100000000E-03 0. -1.
    9900012    2    1    2    0    0  0.25074718997E+02  0.19526738702E+02  0.25858600242E+01  0.59301925779E+02  0.49999966720E+02 0.  0.
        -12    1    1    2    0    0 -0.25074718997E+02 -0.19526738702E+02 -0.25858600242E+01  0.31886074221E+02  0.00000000000E+00 0.  1.
         11    1    3    3    0    0  0.70427928621E+01 -0.51699770193E+01 -0.53200141125E+01  0.10228985487E+02  0.51100000000E-03 0. -1.
        -11    1    3    3    0    0  0.22238544824E+02  0.66112173520E+01  0.16642188954E+02  0.28552119435E+02  0.51100000000E-03 0.  1.
         12    1    3    3    0    0 -0.42066186889E+01  0.18085498370E+02 -0.87363148177E+01  0.20520820857E+02  0.00000000000E+00 0. -1.
</event>
<event>
 7    1  0.6830263E-012  0.5930196E+02  0.7816164E-02  0.1266605E+00
        -11   -1    0    0    0    0  0.00000000000E+00  0.00000000000E+00  0.45593999997E+02  0.45594000000E+02  0.51100000000E-03 0.  1.
         11   -1    0    0    0    0 -0.00000000000E+00 -0.00000000000E+00 -0.45593999997E+02  0.45594000000E+02  0.51100000000E-03 0. -1.
    9900012    2    1    2    0    0 -0.19262138389E+02 -0.42274524710E+01 -0.25056301373E+02  0.59301959666E+02  0.50000028520E+02 0.  0.
        -12    1    1    2    0    0  0.19262138389E+02  0.42274524710E+01  0.25056301373E+02  0.31886040334E+02  0.00000000000E+00 0.  1.
         11    1    3    3    0    0 -0.12773983880E+02 -0.14478006882E+02 -0.10137886461E+02  0.21807431981E+02  0.51100000000E-03 0. -1.
        -11    1    3    3    0    0  0.29181108462E+01 -0.10536976534E+02 -0.83313631594E+01  0.13746085179E+02  0.51100000000E-03 0.  1.
        -12    1    3    3    0    0 -0.94062653548E+01  0.20787530945E+02 -0.65870517519E+01  0.23748442506E+02  0.00000000000E+00 0.  1.
</event>
<event>
 7    1  0.6830263E-012  0.5930196E+02  0.7816164E-02  0.1266605E+00
        -11   -1    0    0    0    0  0.00000000000E+00  0.00000000000E+00  0.45593999997E+02  0.45594000000E+02  0.51100000000E-03 0.  1.
         11   -1    0    0    0    0 -0.00000000000E+00 -0.00000000000E+00 -0.45593999997E+02  0.45594000000E+02  0.51100000000E-03 0. -1.
    9900012    2    1    2    0    0  0.90917361418E+01  0.28330353021E+02 -0.11465209058E+02  0.59301959370E+02  0.50000027980E+02 0.  0.
        -12    1    1    2    0    0 -0.90917361418E+01 -0.28330353021E+02  0.11465209058E+02  0.31886040630E+02  0.00000000000E+00 0.  1.
         11    1    3    3    0    0 -0.11549701805E+02  0.45092659078E+01 -0.11350647611E+02  0.16809708274E+02  0.51100000000E-03 0. -1.
        -11    1    3    3    0    0  0.66318476837E+01  0.26069417241E+02  0.50935921609E+01  0.27377739139E+02  0.51100000000E-03 0.  1.
         12    1    3    3    0    0  0.14009590263E+02 -0.22483301281E+01 -0.52081536078E+01  0.15114511957E+02  0.00000000000E+00 0. -1.
</event>
<event>
 7    1  0.6830263E-012  0.5930193E+02  0.7816164E-02  0.1266605E+00
        -11   -1    0    0    0    0  0.00000000000E+00  0.00000000000E+00  0.45593999997E+02  0.45594000000E+02  0.51100000000E-03 0. -1.
         11   -1    0    0    0    0 -0.00000000000E+00 -0.00000000000E+00 -0.45593999997E+02  0.45594000000E+02  0.51100000000E-03 0.  1.
    9900012    2    1    2    0    0 -0.25721646262E+02  0.11342249092E+02  0.15048971686E+02  0.59301933298E+02  0.49999980432E+02 0.  0.
        -12    1    1    2    0    0  0.25721646262E+02 -0.11342249092E+02 -0.15048971686E+02  0.31886066702E+02  0.00000000000E+00 0.  1.
         11    1    3    3    0    0  0.41433498128E+01  0.34835714907E+01  0.11313779861E+02  0.12542098430E+02  0.51100000000E-03 0. -1.
        -11    1    3    3    0    0 -0.43050198773E+01 -0.35858060413E+01 -0.12985617224E+02  0.14142752775E+02  0.51100000000E-03 0.  1.
         12    1    3    3    0    0 -0.25559976198E+02  0.11444483643E+02  0.16720809048E+02  0.32617082094E+02  0.00000000000E+00 0. -1.
</event>
<event>
 7    1  0.6830263E-012  0.5930196E+02  0.7816164E-02  0.1266605E+00
        -11   -1    0    0    0    0  0.00000000000E+00  0.00000000000E+00  0.45593999997E+02  0.45594000000E+02  0.51100000000E-03 0. -1.
         11   -1    0    0    0    0 -0.00000000000E+00 -0.00000000000E+00 -0.45593999997E+02  0.45594000000E+02  0.51100000000E-03 0.  1.
    9900012    2    1    2    0    0 -0.19689573390E+02  0.21081026471E+02  0.13587883710E+02  0.59301959777E+02  0.50000028724E+02 0.  0.
        -12    1    1    2    0    0  0.19689573390E+02 -0.21081026471E+02 -0.13587883710E+02  0.31886040223E+02  0.00000000000E+00 0.  1.
         11    1    3    3    0    0  0.35467955336E+01 -0.20977954277E+01 -0.45780011533E+00  0.41460927897E+01  0.51100000000E-03 0.  1.
        -11    1    3    3    0    0 -0.22695849227E+02 -0.71169839428E+00  0.20295867840E+02  0.30455382749E+02  0.51100000000E-03 0. -1.
         12    1    3    3    0    0 -0.54051969751E+00  0.23890520293E+02 -0.62501840153E+01  0.24700484239E+02  0.00000000000E+00 0. -1.
</event>
<event>
 7    1  0.6830263E-012  0.5930194E+02  0.7816164E-02  0.1266605E+00
        -11   -1    0    0    0    0  0.00000000000E+00  0.00000000000E+00  0.45593999997E+02  0.45594000000E+02  0.51100000000E-03 0.  1.
         11   -1    0    0    0    0 -0.00000000000E+00 -0.00000000000E+00 -0.45593999997E+02  0.45594000000E+02  0.51100000000E-03 0. -1.
    9900012    2    1    2    0    0  0.83477221562E+01  0.23307496330E+02  0.20094694514E+02  0.59301943517E+02  0.49999999069E+02 0.  0.
        -12    1    1    2    0    0 -0.83477221562E+01 -0.23307496330E+02 -0.20094694514E+02  0.31886056483E+02  0.00000000000E+00 0.  1.
         11    1    3    3    0    0 -0.73464555368E+00 -0.10386763144E+02  0.31792732866E+01  0.10887255466E+02  0.51100000000E-03 0. -1.
        -11    1    3    3    0    0 -0.97325512283E+01  0.48663421962E+01  0.30311494433E+01  0.11295649915E+02  0.51100000000E-03 0.  1.
         12    1    3    3    0    0  0.18814918938E+02  0.28827917278E+02  0.13884271784E+02  0.37119038137E+02  0.00000000000E+00 0. -1.
</event>
<event>
 7    1  0.6830263E-012  0.5930195E+02  0.7816164E-02  0.1266605E+00
        -11   -1    0    0    0    0  0.00000000000E+00  0.00000000000E+00  0.45593999997E+02  0.45594000000E+02  0.51100000000E-03 0.  1.
         11   -1    0    0    0    0 -0.00000000000E+00 -0.00000000000E+00 -0.45593999997E+02  0.45594000000E+02  0.51100000000E-03 0. -1.
    9900012    2    1    2    0    0  0.19041794788E+02 -0.89542367910E+01 -0.23957296611E+02  0.59301947153E+02  0.50000005700E+02 0.  0.
        -12    1    1    2    0    0 -0.19041794788E+02  0.89542367910E+01  0.23957296611E+02  0.31886052847E+02  0.00000000000E+00 0.  1.
         11    1    3    3    0    0  0.54779353949E+01  0.28337154066E+01 -0.11621517145E+02  0.13156647757E+02  0.51100000000E-03 0. -1.
        -11    1    3    3    0    0 -0.47279104547E+01 -0.10280427975E+02 -0.22485395026E+02  0.25172074335E+02  0.51100000000E-03 0.  1.
        -12    1    3    3    0    0  0.18291769848E+02 -0.15075242222E+01  0.10149615559E+02  0.20973225061E+02  0.00000000000E+00 0.  1.
</event>
<event>
 7    1  0.6830263E-012  0.5930195E+02  0.7816164E-02  0.1266605E+00
        -11   -1    0    0    0    0  0.00000000000E+00  0.00000000000E+00  0.45593999997E+02  0.45594000000E+02  0.51100000000E-03 0.  1.
         11   -1    0    0    0    0 -0.00000000000E+00 -0.00000000000E+00 -0.45593999997E+02  0.45594000000E+02  0.51100000000E-03 0. -1.
    9900012    2    1    2    0    0  0.26689169661E+01 -0.85112413628E+01 -0.30612998259E+02  0.59301952742E+02  0.50000015893E+02 0.  0.
        -12    1    1    2    0    0 -0.26689169661E+01  0.85112413628E+01  0.30612998259E+02  0.31886047258E+02  0.00000000000E+00 0.  1.
         11    1    3    3    0    0  0.11222589517E+01  0.22878028889E+01 -0.16777508928E+00  0.25537533073E+01  0.51100000000E-03 0. -1.
        -11    1    3    3    0    0 -0.15962082849E+02  0.79830721635E+01 -0.12837904599E+01  0.17893173230E+02  0.51100000000E-03 0.  1.
         12    1    3    3    0    0  0.17508740863E+02 -0.18782116415E+02 -0.29161432710E+02  0.38855026205E+02  0.00000000000E+00 0. -1.
</event>
<event>
 7    1  0.6830263E-012  0.5930197E+02  0.7816164E-02  0.1266605E+00
        -11   -1    0    0    0    0  0.00000000000E+00  0.00000000000E+00  0.45593999997E+02  0.45594000000E+02  0.51100000000E-03 0. -1.
         11   -1    0    0    0    0 -0.00000000000E+00 -0.00000000000E+00 -0.45593999997E+02  0.45594000000E+02  0.51100000000E-03 0.  1.
    9900012    2    1    2    0    0 -0.16682323386E+02  0.21375340130E+02  0.16778373254E+02  0.59301970328E+02  0.50000047965E+02 0.  0.
        -12    1    1    2    0    0  0.16682323386E+02 -0.21375340130E+02 -0.16778373254E+02  0.31886029672E+02  0.00000000000E+00 0.  1.
         11    1    3    3    0    0 -0.12421128193E+02  0.25532426925E+02  0.10491701346E+02  0.30269870295E+02  0.51100000000E-03 0. -1.
        -11    1    3    3    0    0 -0.12330575327E+02  0.64990522187E+01 -0.68745864869E+00  0.13955406382E+02  0.51100000000E-03 0.  1.
         12    1    3    3    0    0  0.80693801343E+01 -0.10656139014E+02  0.69741305560E+01  0.15076693651E+02  0.00000000000E+00 0. -1.
</event>
<event>
 7    1  0.6830263E-012  0.5930205E+02  0.7816164E-02  0.1266604E+00
        -11   -1    0    0    0    0  0.00000000000E+00  0.00000000000E+00  0.45593999997E+02  0.45594000000E+02  0.51100000000E-03 0.  1.
         11   -1    0    0    0    0 -0.00000000000E+00 -0.00000000000E+00 -0.45593999997E+02  0.45594000000E+02  0.51100000000E-03 0. -1.
    9900012    2    1    2    0    0 -0.13060584759E+02  0.93602220222E+01 -0.27541261296E+02  0.59302051617E+02  0.50000196216E+02 0.  0.
        -12    1    1    2    0    0  0.13060584759E+02 -0.93602220222E+01  0.27541261296E+02  0.31885948383E+02  0.00000000000E+00 0.  1.
         11    1    3    3    0    0 -0.13007218767E+02 -0.68519701527E+01 -0.30951291877E+01  0.15023882986E+02  0.51100000000E-03 0. -1.
        -11    1    3    3    0    0 -0.15071122966E+02  0.15833610326E+02 -0.13524886997E+02  0.25705340533E+02  0.51100000000E-03 0.  1.
        -12    1    3    3    0    0  0.15017756974E+02  0.37858184936E+00 -0.10921245111E+02  0.18572828098E+02  0.00000000000E+00 0.  1.
</event>
<event>
 7    1  0.6830263E-012  0.5930193E+02  0.7816164E-02  0.1266605E+00
        -11   -1    0    0    0    0  0.00000000000E+00  0.00000000000E+00  0.45593999997E+02  0.45594000000E+02  0.51100000000E-03 0.  1.
         11   -1    0    0    0    0 -0.00000000000E+00 -0.00000000000E+00 -0.45593999997E+02  0.45594000000E+02  0.51100000000E-03 0. -1.
    9900012    2    1    2    0    0  0.24008715160E+02  0.69641453552E+00 -0.20971835971E+02  0.59301932497E+02  0.49999978970E+02 0.  0.
        -12    1    1    2    0    0 -0.24008715160E+02 -0.69641453552E+00  0.20971835971E+02  0.31886067503E+02  0.00000000000E+00 0.  1.
         11    1    3    3    0    0  0.17655088758E+02  0.95799005519E+01 -0.16859535324E+02  0.26224427262E+02  0.51100000000E-03 0. -1.
        -11    1    3    3    0    0  0.16806887261E+02 -0.13333551979E+02 -0.29957449734E+01  0.21661707135E+02  0.51100000000E-03 0.  1.
        -12    1    3    3    0    0 -0.10453260860E+02  0.44500659628E+01 -0.11165556738E+01  0.11415798099E+02  0.00000000000E+00 0.  1.
</event>
<event>
 7    1  0.6830263E-012  0.5930196E+02  0.7816164E-02  0.1266605E+00
        -11   -1    0    0    0    0  0.00000000000E+00  0.00000000000E+00  0.45593999997E+02  0.45594000000E+02  0.51100000000E-03 0.  1.
         11   -1    0    0    0    0 -0.00000000000E+00 -0.00000000000E+00 -0.45593999997E+02  0.45594000000E+02  0.51100000000E-03 0. -1.
    9900012    2    1    2    0    0  0.18314002029E+02  0.26200671476E+01 -0.25970214925E+02  0.59301960964E+02  0.50000030888E+02 0.  0.
        -12    1    1    2    0    0 -0.18314002029E+02 -0.26200671476E+01  0.25970214925E+02  0.31886039036E+02  0.00000000000E+00 0.  1.
         11    1    3    3    0    0  0.15942978957E+02 -0.16150763456E+02 -0.23187278775E+02  0.32444963176E+02  0.51100000000E-03 0.  1.
        -11    1    3    3    0    0  0.10687915784E+02  0.10475651339E+02 -0.15013967570E+01  0.15040778147E+02  0.51100000000E-03 0. -1.
        -12    1    3    3    0    0 -0.83168927122E+01  0.82951792643E+01 -0.12815393929E+01  0.11816219642E+02  0.00000000000E+00 0.  1.
</event>
<event>
 7    1  0.6830263E-012  0.5930195E+02  0.7816164E-02  0.1266605E+00
        -11   -1    0    0    0    0  0.00000000000E+00  0.00000000000E+00  0.45593999997E+02  0.45594000000E+02  0.51100000000E-03 0. -1.
         11   -1    0    0    0    0 -0.00000000000E+00 -0.00000000000E+00 -0.45593999997E+02  0.45594000000E+02  0.51100000000E-03 0.  1.
    9900012    2    1    2    0    0  0.24911815860E+02 -0.19863114714E+02 -0.12563792297E+01  0.59301946868E+02  0.50000005180E+02 0.  0.
        -12    1    1    2    0    0 -0.24911815860E+02  0.19863114714E+02  0.12563792297E+01  0.31886053132E+02  0.00000000000E+00 0.  1.
         11    1    3    3    0    0  0.10261247956E+02 -0.36130902769E+01  0.12138122192E+02  0.16299743605E+02  0.51100000000E-03 0. -1.
        -11    1    3    3    0    0  0.87743050266E+01  0.86658708160E+01  0.28844668798E+01  0.12665144892E+02  0.51100000000E-03 0.  1.
        -12    1    3    3    0    0  0.58762628771E+01 -0.24915895253E+02 -0.16278968301E+02  0.30337058371E+02  0.00000000000E+00 0.  1.
</event>
<event>
 7    1  0.6830263E-012  0.5930193E+02  0.7816164E-02  0.1266605E+00
        -11   -1    0    0    0    0  0.00000000000E+00  0.00000000000E+00  0.45593999997E+02  0.45594000000E+02  0.51100000000E-03 0. -1.
         11   -1    0    0    0    0 -0.00000000000E+00 -0.00000000000E+00 -0.45593999997E+02  0.45594000000E+02  0.51100000000E-03 0.  1.
    9900012    2    1    2    0    0 -0.19793551049E+02  0.10836335570E+02  0.22527990992E+02  0.59301933923E+02  0.49999981571E+02 0.  0.
        -12    1    1    2    0    0  0.19793551049E+02 -0.10836335570E+02 -0.22527990992E+02  0.31886066077E+02  0.00000000000E+00 0.  1.
         11    1    3    3    0    0  0.10014495577E+02  0.10752879523E+02  0.46747601796E+01  0.15419725118E+02  0.51100000000E-03 0. -1.
        -11    1    3    3    0    0 -0.22143529018E+02 -0.24826559426E+01 -0.20735820034E+01  0.22378543306E+02  0.51100000000E-03 0.  1.
        -12    1    3    3    0    0 -0.76645176085E+01  0.25661119888E+01  0.19926812816E+02  0.21503665500E+02  0.00000000000E+00 0.  1.
</event>
<event>
 7    1  0.6830263E-012  0.5930190E+02  0.7816164E-02  0.1266605E+00
        -11   -1    0    0    0    0  0.00000000000E+00  0.00000000000E+00  0.45593999997E+02  0.45594000000E+02  0.51100000000E-03 0.  1.
         11   -1    0    0    0    0 -0.00000000000E+00 -0.00000000000E+00 -0.45593999997E+02  0.45594000000E+02  0.51100000000E-03 0. -1.
    9900012    2    1    2    0    0  0.81210142770E-01 -0.59401932912E+01 -0.31327793151E+02  0.59301904047E+02  0.49999927085E+02 0.  0.
        -12    1    1    2    0    0 -0.81210142770E-01  0.59401932912E+01  0.31327793151E+02  0.31886095953E+02  0.00000000000E+00 0.  1.
         11    1    3    3    0    0 -0.52602888093E+01 -0.79240517121E+01 -0.11136327792E+02  0.14645102623E+02  0.51100000000E-03 0. -1.
        -11    1    3    3    0    0 -0.63633792579E+01 -0.16642114546E+02 -0.96596753989E+01  0.20267261809E+02  0.51100000000E-03 0.  1.
        -12    1    3    3    0    0  0.11704878210E+02  0.18625972967E+02 -0.10531789960E+02  0.24389539615E+02  0.00000000000E+00 0.  1.
</event>
<event>
 7    1  0.6830263E-012  0.5930196E+02  0.7816164E-02  0.1266605E+00
        -11   -1    0    0    0    0  0.00000000000E+00  0.00000000000E+00  0.45593999997E+02  0.45594000000E+02  0.51100000000E-03 0.  1.
         11   -1    0    0    0    0 -0.00000000000E+00 -0.00000000000E+00 -0.45593999997E+02  0.45594000000E+02  0.51100000000E-03 0. -1.
    9900012    2    1    2    0    0 -0.31925640127E+01 -0.24300693001E+02 -0.20396167198E+02  0.59301956318E+02  0.50000022415E+02 0.  0.
        -12    1    1    2    0    0  0.31925640127E+01  0.24300693001E+02  0.20396167198E+02  0.31886043682E+02  0.00000000000E+00 0.  1.
         11    1    3    3    0    0 -0.14776957073E+02 -0.14841837747E+02 -0.47320250389E+01  0.21471624748E+02  0.51100000000E-03 0. -1.
        -11    1    3    3    0    0 -0.10598615996E+02 -0.31904474039E+01 -0.27386680230E+01  0.11402189196E+02  0.51100000000E-03 0.  1.
        -12    1    3    3    0    0  0.22183009056E+02 -0.62684078500E+01 -0.12925474136E+02  0.26428142375E+02  0.00000000000E+00 0.  1.
</event>
<event>
 7    1  0.6830263E-012  0.5930195E+02  0.7816164E-02  0.1266605E+00
        -11   -1    0    0    0    0  0.00000000000E+00  0.00000000000E+00  0.45593999997E+02  0.45594000000E+02  0.51100000000E-03 0.  1.
         11   -1    0    0    0    0 -0.00000000000E+00 -0.00000000000E+00 -0.45593999997E+02  0.45594000000E+02  0.51100000000E-03 0. -1.
    9900012    2    1    2    0    0  0.27301954290E+01 -0.31746317689E+02 -0.11989554811E+01  0.59301950571E+02  0.50000011934E+02 0.  0.
        -12    1    1    2    0    0 -0.27301954290E+01  0.31746317689E+02  0.11989554811E+01  0.31886049429E+02  0.00000000000E+00 0.  1.
         11    1    3    3    0    0 -0.17174762415E+01  0.16954030156E+01  0.22742537223E+00  0.24240129097E+01  0.51100000000E-03 0. -1.
        -11    1    3    3    0    0 -0.18992691084E+01  0.96635658370E+01 -0.81611269370E+01  0.12790454291E+02  0.51100000000E-03 0.  1.
         12    1    3    3    0    0  0.63469407789E+01 -0.43105286542E+02  0.67347460836E+01  0.44087483370E+02  0.00000000000E+00 0. -1.
</event>
<event>
 7    1  0.6830263E-012  0.5930191E+02  0.7816164E-02  0.1266605E+00
        -11   -1    0    0    0    0  0.00000000000E+00  0.00000000000E+00  0.45593999997E+02  0.45594000000E+02  0.51100000000E-03 0.  1.
         11   -1    0    0    0    0 -0.00000000000E+00 -0.00000000000E+00 -0.45593999997E+02  0.45594000000E+02  0.51100000000E-03 0. -1.
    9900012    2    1    2    0    0 -0.17226486543E+01 -0.78406134365E+01 -0.30859032742E+02  0.59301911510E+02  0.49999940695E+02 0.  0.
        -12    1    1    2    0    0  0.17226486543E+01  0.78406134365E+01  0.30859032742E+02  0.31886088490E+02  0.00000000000E+00 0.  1.
         11    1    3    3    0    0  0.18791224304E+01  0.10099788926E+01 -0.22607687520E+01  0.31084134350E+01  0.51100000000E-03 0. -1.
        -11    1    3    3    0    0  0.15315455248E+02 -0.14674778110E+02  0.24414876596E+00  0.21212540888E+02  0.51100000000E-03 0.  1.
        -12    1    3    3    0    0 -0.18917226333E+02  0.58241857811E+01 -0.28842412756E+02  0.34980957187E+02  0.00000000000E+00 0.  1.
</event>
<event>
 7    1  0.6830263E-012  0.5930193E+02  0.7816164E-02  0.1266605E+00
        -11   -1    0    0    0    0  0.00000000000E+00  0.00000000000E+00  0.45593999997E+02  0.45594000000E+02  0.51100000000E-03 0. -1.
         11   -1    0    0    0    0 -0.00000000000E+00 -0.00000000000E+00 -0.45593999997E+02  0.45594000000E+02  0.51100000000E-03 0.  1.
    9900012    2    1    2    0    0  0.11518461279E+02 -0.22051369974E+02  0.19944511219E+02  0.59301931008E+02  0.49999976256E+02 0.  0.
        -12    1    1    2    0    0 -0.11518461279E+02  0.22051369974E+02 -0.19944511219E+02  0.31886068992E+02  0.00000000000E+00 0.  1.
         11    1    3    3    0    0 -0.62395963278E+01 -0.16618156970E+02  0.25024376177E+02  0.30680858963E+02  0.51100000000E-03 0. -1.
        -11    1    3    3    0    0 -0.25186617030E+01 -0.63570913156E+01  0.19994647961E+01  0.71241930421E+01  0.51100000000E-03 0.  1.
        -12    1    3    3    0    0  0.20276719310E+02  0.92387831139E+00 -0.70793297540E+01  0.21496879003E+02  0.00000000000E+00 0.  1.
</event>
<event>
 7    1  0.6830263E-012  0.5930194E+02  0.7816164E-02  0.1266605E+00
        -11   -1    0    0    0    0  0.00000000000E+00  0.00000000000E+00  0.45593999997E+02  0.45594000000E+02  0.51100000000E-03 0.  1.
         11   -1    0    0    0    0 -0.00000000000E+00 -0.00000000000E+00 -0.45593999997E+02  0.45594000000E+02  0.51100000000E-03 0. -1.
    9900012    2    1    2    0    0 -0.28324384216E+02 -0.11345789257E+02 -0.92586769647E+01  0.59301940755E+02  0.49999994031E+02 0.  0.
        -12    1    1    2    0    0  0.28324384216E+02  0.11345789257E+02  0.92586769647E+01  0.31886059245E+02  0.00000000000E+00 0.  1.
         11    1    3    3    0    0 -0.30081417353E+02  0.11275919864E+01 -0.84917526591E+01  0.31277355980E+02  0.51100000000E-03 0. -1.
        -11    1    3    3    0    0 -0.96893596557E+01 -0.84442032274E+00  0.47181784344E+01  0.10810085301E+02  0.51100000000E-03 0.  1.
        -12    1    3    3    0    0  0.11446392792E+02 -0.11628960920E+02 -0.54851027401E+01  0.17214499473E+02  0.00000000000E+00 0.  1.
</event>
<event>
 7    1  0.6830263E-012  0.5930200E+02  0.7816164E-02  0.1266605E+00
        -11   -1    0    0    0    0  0.00000000000E+00  0.00000000000E+00  0.45593999997E+02  0.45594000000E+02  0.51100000000E-03 0. -1.
         11   -1    0    0    0    0 -0.00000000000E+00 -0.00000000000E+00 -0.45593999997E+02  0.45594000000E+02  0.51100000000E-03 0.  1.
    9900012    2    1    2    0    0  0.14639318958E+02 -0.28006048154E+02  0.42507019196E+01  0.59302002140E+02  0.50000105982E+02 0.  0.
        -12    1    1    2    0    0 -0.14639318958E+02  0.28006048154E+02 -0.42507019196E+01  0.31885997860E+02  0.00000000000E+00 0.  1.
         11    1    3    3    0    0  0.44106141001E+01 -0.17376797242E+02  0.11390031934E+02  0.21240043005E+02  0.51100000000E-03 0. -1.
        -11    1    3    3    0    0  0.15779737456E+01 -0.19129573703E+02 -0.14337891158E+02  0.23958416357E+02  0.51100000000E-03 0.  1.
         12    1    3    3    0    0  0.86507311122E+01  0.85003227918E+01  0.71985611436E+01  0.14103542778E+02  0.00000000000E+00 0. -1.
</event>
<event>
 7    1  0.6830263E-012  0.5930190E+02  0.7816164E-02  0.1266605E+00
        -11   -1    0    0    0    0  0.00000000000E+00  0.00000000000E+00  0.45593999997E+02  0.45594000000E+02  0.51100000000E-03 0.  1.
         11   -1    0    0    0    0 -0.00000000000E+00 -0.00000000000E+00 -0.45593999997E+02  0.45594000000E+02  0.51100000000E-03 0. -1.
    9900012    2    1    2    0    0 -0.10677756216E+01 -0.20424928201E+02 -0.24462323444E+02  0.59301904204E+02  0.49999927371E+02 0.  0.
        -12    1    1    2    0    0  0.10677756216E+01  0.20424928201E+02  0.24462323444E+02  0.31886095796E+02  0.00000000000E+00 0.  1.
         11    1    3    3    0    0 -0.97008441628E+01 -0.13792814995E+02 -0.20217241294E+02  0.26326506961E+02  0.51100000000E-03 0. -1.
        -11    1    3    3    0    0  0.15239635490E+02  0.39013102329E+01 -0.10641940596E+02  0.18992567265E+02  0.51100000000E-03 0.  1.
         12    1    3    3    0    0 -0.66065669489E+01 -0.10533423439E+02  0.63968584467E+01  0.13982829978E+02  0.00000000000E+00 0. -1.
</event>
<event>
 7    1  0.6830263E-012  0.5930180E+02  0.7816164E-02  0.1266605E+00
        -11   -1    0    0    0    0  0.00000000000E+00  0.00000000000E+00  0.45593999997E+02  0.45594000000E+02  0.51100000000E-03 0.  1.
         11   -1    0    0    0    0 -0.00000000000E+00 -0.00000000000E+00 -0.45593999997E+02  0.45594000000E+02  0.51100000000E-03 0. -1.
    9900012    2    1    2    0    0  0.18761312106E+02 -0.16336926929E+01 -0.25730792688E+02  0.59301804302E+02  0.49999745173E+02 0.  0.
        -12    1    1    2    0    0 -0.18761312106E+02  0.16336926929E+01  0.25730792688E+02  0.31886195698E+02  0.00000000000E+00 0.  1.
         11    1    3    3    0    0  0.24844868466E+01  0.53866224366E+01 -0.38667663078E+01  0.70809786121E+01  0.51100000000E-03 0. -1.
        -11    1    3    3    0    0  0.93088358564E+01  0.49415631447E+01  0.11800160602E+02  0.15821417819E+02  0.51100000000E-03 0.  1.
         12    1    3    3    0    0  0.69679894034E+01 -0.11961878274E+02 -0.33664186982E+02  0.36399407871E+02  0.00000000000E+00 0. -1.
</event>
<event>
 7    1  0.6830263E-012  0.5930196E+02  0.7816164E-02  0.1266605E+00
        -11   -1    0    0    0    0  0.00000000000E+00  0.00000000000E+00  0.45593999997E+02  0.45594000000E+02  0.51100000000E-03 0.  1.
         11   -1    0    0    0    0 -0.00000000000E+00 -0.00000000000E+00 -0.45593999997E+02  0.45594000000E+02  0.51100000000E-03 0. -1.
    9900012    2    1    2    0    0  0.29171337815E+02 -0.12837249398E+02  0.97861866056E+00  0.59301958908E+02  0.50000027138E+02 0.  0.
        -12    1    1    2    0    0 -0.29171337815E+02  0.12837249398E+02 -0.97861866056E+00  0.31886041092E+02  0.00000000000E+00 0.  1.
         11    1    3    3    0    0  0.54011810164E+01  0.64015628988E+00 -0.44400022520E+00  0.54570773229E+01  0.51100000000E-03 0.  1.
        -11    1    3    3    0    0  0.35324461907E+02 -0.19797492108E+02 -0.72854972199E+00  0.40500482562E+02  0.51100000000E-03 0. -1.
        -12    1    3    3    0    0 -0.11554305109E+02  0.63200864206E+01  0.21511686078E+01  0.13344399023E+02  0.00000000000E+00 0.  1.
</event>
<event>
 7    1  0.6830263E-012  0.5930192E+02  0.7816164E-02  0.1266605E+00
        -11   -1    0    0    0    0  0.00000000000E+00  0.00000000000E+00  0.45593999997E+02  0.45594000000E+02  0.51100000000E-03 0.  1.
         11   -1    0    0    0    0 -0.00000000000E+00 -0.00000000000E+00 -0.45593999997E+02  0.45594000000E+02  0.51100000000E-03 0. -1.
    9900012    2    1    2    0    0  0.12241379528E+02 -0.82930395127E+01 -0.28250599082E+02  0.59301917996E+02  0.49999952524E+02 0.  0.
        -12    1    1    2    0    0 -0.12241379528E+02  0.82930395127E+01  0.28250599082E+02  0.31886082004E+02  0.00000000000E+00 0.  1.
         11    1    3    3    0    0  0.88964778730E+01  0.50731250591E+01 -0.18503988542E+02  0.21149030915E+02  0.51100000000E-03 0. -1.
        -11    1    3    3    0    0  0.42447915770E+01  0.97887523012E+01 -0.10498200568E+02  0.14968304600E+02  0.51100000000E-03 0.  1.
         12    1    3    3    0    0 -0.89988992214E+00 -0.23154916873E+02  0.75159002911E+00  0.23184582481E+02  0.00000000000E+00 0. -1.
</event>
<event>
 7    1  0.6830263E-012  0.5930197E+02  0.7816164E-02  0.1266605E+00
        -11   -1    0    0    0    0  0.00000000000E+00  0.00000000000E+00  0.45593999997E+02  0.45594000000E+02  0.51100000000E-03 0. -1.
         11   -1    0    0    0    0 -0.00000000000E+00 -0.00000000000E+00 -0.45593999997E+02  0.45594000000E+02  0.51100000000E-03 0.  1.
    9900012    2    1    2    0    0 -0.29734901533E+02  0.10983771686E+02  0.34512805950E+01  0.59301969401E+02  0.50000046275E+02 0.  0.
        -12    1    1    2    0    0  0.29734901533E+02 -0.10983771686E+02 -0.34512805950E+01  0.31886030599E+02  0.00000000000E+00 0.  1.
         11    1    3    3    0    0 -0.22066324397E+02  0.24887772757E+00  0.13670268020E+02  0.25958829722E+02  0.51100000000E-03 0. -1.
        -11    1    3    3    0    0 -0.15446803608E+02  0.11702515030E+02  0.12860727199E+01  0.19421806894E+02  0.51100000000E-03 0.  1.
        -12    1    3    3    0    0  0.77782264717E+01 -0.96762107226E+00 -0.11505060145E+02  0.13921332786E+02  0.00000000000E+00 0.  1.
</event>
<event>
 7    1  0.6830263E-012  0.5930189E+02  0.7816164E-02  0.1266605E+00
        -11   -1    0    0    0    0  0.00000000000E+00  0.00000000000E+00  0.45593999997E+02  0.45594000000E+02  0.51100000000E-03 0. -1.
         11   -1    0    0    0    0 -0.00000000000E+00 -0.00000000000E+00 -0.45593999997E+02  0.45594000000E+02  0.51100000000E-03 0.  1.
    9900012    2    1    2    0    0 -0.15328265439E+02  0.14680887414E+02  0.23795788399E+02  0.59301894528E+02  0.49999909724E+02 0.  0.
        -12    1    1    2    0    0  0.15328265439E+02 -0.14680887414E+02 -0.23795788399E+02  0.31886105472E+02  0.00000000000E+00 0.  1.
         11    1    3    3    0    0 -0.78784423095E+01  0.13062143677E+02  0.26897170979E+02  0.30921630901E+02  0.51100000000E-03 0. -1.
        -11    1    3    3    0    0 -0.11106876855E+02  0.93716124705E+01  0.61392045668E+01  0.15775920472E+02  0.51100000000E-03 0.  1.
         12    1    3    3    0    0  0.36570537254E+01 -0.77528687332E+01 -0.92405871467E+01  0.12604343155E+02  0.00000000000E+00 0. -1.
</event>
<event>
 7    1  0.6830263E-012  0.5930196E+02  0.7816164E-02  0.1266605E+00
        -11   -1    0    0    0    0  0.00000000000E+00  0.00000000000E+00  0.45593999997E+02  0.45594000000E+02  0.51100000000E-03 0.  1.
         11   -1    0    0    0    0 -0.00000000000E+00 -0.00000000000E+00 -0.45593999997E+02  0.45594000000E+02  0.51100000000E-03 0. -1.
    9900012    2    1    2    0    0  0.25392527291E+02  0.18634750892E+01 -0.19195487875E+02  0.59301957028E+02  0.50000023710E+02 0.  0.
        -12    1    1    2    0    0 -0.25392527291E+02 -0.18634750892E+01  0.19195487875E+02  0.31886042972E+02  0.00000000000E+00 0.  1.
         11    1    3    3    0    0  0.18234854740E+02  0.14082671052E+02 -0.22452028687E+02  0.32170252467E+02  0.51100000000E-03 0. -1.
        -11    1    3    3    0    0  0.17422760714E+01  0.68524613973E+01  0.21175452325E+00  0.70736548792E+01  0.51100000000E-03 0.  1.
        -12    1    3    3    0    0  0.54153964793E+01 -0.19071657360E+02  0.30447862883E+01  0.20058049682E+02  0.00000000000E+00 0.  1.
</event>
<event>
 7    1  0.6830263E-012  0.5930194E+02  0.7816164E-02  0.1266605E+00
        -11   -1    0    0    0    0  0.00000000000E+00  0.00000000000E+00  0.45593999997E+02  0.45594000000E+02  0.51100000000E-03 0. -1.
         11   -1    0    0    0    0 -0.00000000000E+00 -0.00000000000E+00 -0.45593999997E+02  0.45594000000E+02  0.51100000000E-03 0.  1.
    9900012    2    1    2    0    0  0.14663183420E+02 -0.12408069127E+02  0.25450961927E+02  0.59301943636E+02  0.49999999286E+02 0.  0.
        -12    1    1    2    0    0 -0.14663183420E+02  0.12408069127E+02 -0.25450961927E+02  0.31886056364E+02  0.00000000000E+00 0.  1.
         11    1    3    3    0    0  0.36970701399E+00 -0.12810080651E+02  0.25328710433E+02  0.28386236489E+02  0.51100000000E-03 0. -1.
        -11    1    3    3    0    0 -0.64542924316E+01  0.17820483999E+01  0.63310060171E+01  0.92149457264E+01  0.51100000000E-03 0.  1.
        -12    1    3    3    0    0  0.20747768837E+02 -0.13800368758E+01 -0.62087545232E+01  0.21700761421E+02  0.00000000000E+00 0.  1.
</event>
<event>
 7    1  0.6830263E-012  0.5930196E+02  0.7816164E-02  0.1266605E+00
        -11   -1    0    0    0    0  0.00000000000E+00  0.00000000000E+00  0.45593999997E+02  0.45594000000E+02  0.51100000000E-03 0.  1.
         11   -1    0    0    0    0 -0.00000000000E+00 -0.00000000000E+00 -0.45593999997E+02  0.45594000000E+02  0.51100000000E-03 0. -1.
    9900012    2    1    2    0    0 -0.95462052449E+01 -0.14047919094E+02  0.26986024602E+02  0.59301959335E+02  0.50000027917E+02 0.  0.
        -12    1    1    2    0    0  0.95462052449E+01  0.14047919094E+02 -0.26986024602E+02  0.31886040665E+02  0.00000000000E+00 0.  1.
         11    1    3    3    0    0  0.40588043492E+01 -0.53566920179E+01 -0.12916252235E+01  0.68437079204E+01  0.51100000000E-03 0. -1.
        -11    1    3    3    0    0  0.14081442528E+02 -0.15494812899E+01  0.34258220377E+01  0.14574778655E+02  0.51100000000E-03 0.  1.
        -12    1    3    3    0    0 -0.27686452122E+02 -0.71417457856E+01  0.24851827788E+02  0.37883472760E+02  0.00000000000E+00 0.  1.
</event>
<event>
 7    1  0.6830263E-012  0.5930190E+02  0.7816164E-02  0.1266605E+00
        -11   -1    0    0    0    0  0.00000000000E+00  0.00000000000E+00  0.45593999997E+02  0.45594000000E+02  0.51100000000E-03 0. -1.
         11   -1    0    0    0    0 -0.00000000000E+00 -0.00000000000E+00 -0.45593999997E+02  0.45594000000E+02  0.51100000000E-03 0.  1.
    9900012    2    1    2    0    0  0.23066789540E+02  0.21738948636E+02  0.34734616266E+01  0.59301896394E+02  0.49999913127E+02 0.  0.
        -12    1    1    2    0    0 -0.23066789540E+02 -0.21738948636E+02 -0.34734616266E+01  0.31886103606E+02  0.00000000000E+00 0.  1.
         11    1    3    3    0    0  0.15964123735E+02 -0.25942323875E+01 -0.24455185216E+01  0.16357379051E+02  0.51100000000E-03 0.  1.
        -11    1    3    3    0    0 -0.77942574870E+01  0.76216752614E+01 -0.10535717846E+02  0.15160532127E+02  0.51100000000E-03 0. -1.
         12    1    3    3    0    0  0.14896923292E+02  0.16711505762E+02  0.16454697995E+02  0.27783985216E+02  0.00000000000E+00 0. -1.
</event>
<event>
 7    1  0.6830263E-012  0.5930195E+02  0.7816164E-02  0.1266605E+00
        -11   -1    0    0    0    0  0.00000000000E+00  0.00000000000E+00  0.45593999997E+02  0.45594000000E+02  0.51100000000E-03 0. -1.
         11   -1    0    0    0    0 -0.00000000000E+00 -0.00000000000E+00 -0.45593999997E+02  0.45594000000E+02  0.51100000000E-03 0.  1.
    9900012    2    1    2    0    0 -0.26846491352E+02  0.15373501953E+02  0.77228065253E+01  0.59301946609E+02  0.50000004707E+02 0.  0.
        -12    1    1    2    0    0  0.26846491352E+02 -0.15373501953E+02 -0.77228065253E+01  0.31886053391E+02  0.00000000000E+00 0.  1.
         11    1    3    3    0    0  0.50260588816E+01 -0.55357319984E+01 -0.77844314449E-01  0.74774097546E+01  0.51100000000E-03 0. -1.
        -11    1    3    3    0    0  0.67687187667E+01  0.12716698204E+01 -0.24038865899E+01  0.72946123183E+01  0.51100000000E-03 0.  1.
         12    1    3    3    0    0 -0.38641269001E+02  0.19637564131E+02  0.10204537430E+02  0.44529924536E+02  0.00000000000E+00 0. -1.
</event>
<event>
 7    1  0.6830263E-012  0.5930194E+02  0.7816164E-02  0.1266605E+00
        -11   -1    0    0    0    0  0.00000000000E+00  0.00000000000E+00  0.45593999997E+02  0.45594000000E+02  0.51100000000E-03 0.  1.
         11   -1    0    0    0    0 -0.00000000000E+00 -0.00000000000E+00 -0.45593999997E+02  0.45594000000E+02  0.51100000000E-03 0. -1.
    9900012    2    1    2    0    0 -0.26547821708E+02  0.21580290982E+01 -0.17529313277E+02  0.59301941118E+02  0.49999994694E+02 0.  0.
        -12    1    1    2    0    0  0.26547821708E+02 -0.21580290982E+01  0.17529313277E+02  0.31886058882E+02  0.00000000000E+00 0.  1.
         11    1    3    3    0    0 -0.16466300681E+02 -0.82979086370E+01 -0.12025203469E+02  0.22013629065E+02  0.51100000000E-03 0. -1.
        -11    1    3    3    0    0  0.80044894533E+01 -0.68164383721E+00 -0.12557699465E+02  0.14907458061E+02  0.51100000000E-03 0.  1.
        -12    1    3    3    0    0 -0.18086010481E+02  0.11137581572E+02  0.70535896569E+01  0.22380853993E+02  0.00000000000E+00 0.  1.
</event>
<event>
 7    1  0.6830263E-012  0.5930192E+02  0.7816164E-02  0.1266605E+00
        -11   -1    0    0    0    0  0.00000000000E+00  0.00000000000E+00  0.45593999997E+02  0.45594000000E+02  0.51100000000E-03 0.  1.
         11   -1    0    0    0    0 -0.00000000000E+00 -0.00000000000E+00 -0.45593999997E+02  0.45594000000E+02  0.51100000000E-03 0. -1.
    9900012    2    1    2    0    0  0.62743075650E+01 -0.14131906477E+02 -0.27886272235E+02  0.59301923175E+02  0.49999961970E+02 0.  0.
        -12    1    1    2    0    0 -0.62743075650E+01  0.14131906477E+02  0.27886272235E+02  0.31886076825E+02  0.00000000000E+00 0.  1.
         11    1    3    3    0    0 -0.54148608670E+01 -0.20742032613E+02 -0.14535500994E+02  0.25900452207E+02  0.51100000000E-03 0. -1.
        -11    1    3    3    0    0 -0.16279279270E+01 -0.84857666079E+01  0.97306781111E+00  0.86951276865E+01  0.51100000000E-03 0.  1.
        -12    1    3    3    0    0  0.13317096359E+02  0.15095892744E+02 -0.14323839052E+02  0.24706343282E+02  0.00000000000E+00 0.  1.
</event>
<event>
 7    1  0.6830263E-012  0.5930195E+02  0.7816164E-02  0.1266605E+00
        -11   -1    0    0    0    0  0.00000000000E+00  0.00000000000E+00  0.45593999997E+02  0.45594000000E+02  0.51100000000E-03 0.  1.
         11   -1    0    0    0    0 -0.00000000000E+00 -0.00000000000E+00 -0.45593999997E+02  0.45594000000E+02  0.51100000000E-03 0. -1.
    9900012    2    1    2    0    0 -0.13516591402E+01 -0.24307783515E+02 -0.20591862998E+02  0.59301950644E+02  0.50000012066E+02 0.  0.
        -12    1    1    2    0    0  0.13516591402E+01  0.24307783515E+02  0.20591862998E+02  0.31886049356E+02  0.00000000000E+00 0.  1.
         11    1    3    3    0    0  0.33347695358E+00 -0.15966591168E+02 -0.31396402008E+01  0.16275766687E+02  0.51100000000E-03 0.  1.
        -11    1    3    3    0    0 -0.16934855300E+02 -0.14708206141E+02 -0.12941945738E+02  0.25896227749E+02  0.51100000000E-03 0. -1.
         12    1    3    3    0    0  0.15249719206E+02  0.63670137935E+01 -0.45102770588E+01  0.17129956207E+02  0.00000000000E+00 0. -1.
</event>
<event>
 7    1  0.6830263E-012  0.5930192E+02  0.7816164E-02  0.1266605E+00
        -11   -1    0    0    0    0  0.00000000000E+00  0.00000000000E+00  0.45593999997E+02  0.45594000000E+02  0.51100000000E-03 0.  1.
         11   -1    0    0    0    0 -0.00000000000E+00 -0.00000000000E+00 -0.45593999997E+02  0.45594000000E+02  0.51100000000E-03 0. -1.
    9900012    2    1    2    0    0 -0.29585842117E+02  0.79108181921E+01 -0.88780219764E+01  0.59301915693E+02  0.49999948324E+02 0.  0.
        -12    1    1    2    0    0  0.29585842117E+02 -0.79108181921E+01  0.88780219764E+01  0.31886084307E+02  0.00000000000E+00 0.  1.
         11    1    3    3    0    0 -0.27486639858E+01 -0.12844441448E+02  0.40158051798E+01  0.13735411218E+02  0.51100000000E-03 0. -1.
        -11    1    3    3    0    0  0.32544965791E+00  0.55397636586E+01 -0.13319948957E+02  0.14429689510E+02  0.51100000000E-03 0.  1.
        -12    1    3    3    0    0 -0.27162627789E+02  0.15215495981E+02  0.42612180112E+00  0.31136814965E+02  0.00000000000E+00 0.  1.
</event>
<event>
 7    1  0.6830263E-012  0.5930195E+02  0.7816164E-02  0.1266605E+00
        -11   -1    0    0    0    0  0.00000000000E+00  0.00000000000E+00  0.45593999997E+02  0.45594000000E+02  0.51100000000E-03 0.  1.
         11   -1    0    0    0    0 -0.00000000000E+00 -0.00000000000E+00 -0.45593999997E+02  0.45594000000E+02  0.51100000000E-03 0. -1.
    9900012    2    1    2    0    0 -0.18697280392E+02  0.21384323243E+02 -0.14485954461E+02  0.59301945819E+02  0.50000003267E+02 0.  0.
        -12    1    1    2    0    0  0.18697280392E+02 -0.21384323243E+02  0.14485954461E+02  0.31886054181E+02  0.00000000000E+00 0.  1.
         11    1    3    3    0    0 -0.19241914013E+02  0.18415077418E+02  0.12971353823E+01  0.26665500027E+02  0.51100000000E-03 0. -1.
        -11    1    3    3    0    0 -0.35978563805E+01  0.31291881077E+00  0.77734415990E+01  0.85713991432E+01  0.51100000000E-03 0.  1.
         12    1    3    3    0    0  0.41424900023E+01  0.26563270136E+01 -0.23556531442E+02  0.24065046649E+02  0.00000000000E+00 0. -1.
</event>
<event>
 7    1  0.6830263E-012  0.5930192E+02  0.7816164E-02  0.1266605E+00
        -11   -1    0    0    0    0  0.00000000000E+00  0.00000000000E+00  0.45593999997E+02  0.45594000000E+02  0.51100000000E-03 0. -1.
         11   -1    0    0    0    0 -0.00000000000E+00 -0.00000000000E+00 -0.45593999997E+02  0.45594000000E+02  0.51100000000E-03 0.  1.
    9900012    2    1    2    0    0  0.18236213042E+02 -0.20654086325E+01 -0.26074824121E+02  0.59301924169E+02  0.49999963783E+02 0.  0.
        -12    1    1    2    0    0 -0.18236213042E+02  0.20654086325E+01  0.26074824121E+02  0.31886075831E+02  0.00000000000E+00 0.  1.
         11    1    3    3    0    0  0.26014648023E+01 -0.11860534668E+02 -0.13583330766E+01  0.12218222896E+02  0.51100000000E-03 0. -1.
        -11    1    3    3    0    0 -0.11464086481E+02  0.91727212495E+00 -0.82631282280E+01  0.14161424906E+02  0.51100000000E-03 0.  1.
        -12    1    3    3    0    0  0.27098834721E+02  0.88778539102E+01 -0.16453362816E+02  0.32922276368E+02  0.00000000000E+00 0.  1.
</event>
<event>
 7    1  0.6830263E-012  0.5930195E+02  0.7816164E-02  0.1266605E+00
        -11   -1    0    0    0    0  0.00000000000E+00  0.00000000000E+00  0.45593999997E+02  0.45594000000E+02  0.51100000000E-03 0. -1.
         11   -1    0    0    0    0 -0.00000000000E+00 -0.00000000000E+00 -0.45593999997E+02  0.45594000000E+02  0.51100000000E-03 0.  1.
    9900012    2    1    2    0    0  0.28271365874E+02  0.47943443205E+01  0.13945045924E+02  0.59301950203E+02  0.50000011262E+02 0.  0.
        -12    1    1    2    0    0 -0.28271365874E+02 -0.47943443205E+01 -0.13945045924E+02  0.31886049797E+02  0.00000000000E+00 0.  1.
         11    1    3    3    0    0  0.30491630046E+01  0.23671866375E+01  0.42093623834E+01  0.57113658210E+01  0.51100000000E-03 0. -1.
        -11    1    3    3    0    0  0.36821260486E+02  0.23035348746E+01  0.16220152646E+02  0.40301424898E+02  0.51100000000E-03 0.  1.
        -12    1    3    3    0    0 -0.11599057617E+02  0.12362280842E+00 -0.64844691055E+01  0.13289159483E+02  0.00000000000E+00 0.  1.
</event>
<event>
 7    1  0.6830263E-012  0.5930195E+02  0.7816164E-02  0.1266605E+00
        -11   -1    0    0    0    0  0.00000000000E+00  0.00000000000E+00  0.45593999997E+02  0.45594000000E+02  0.51100000000E-03 0.  1.
         11   -1    0    0    0    0 -0.00000000000E+00 -0.00000000000E+00 -0.45593999997E+02  0.45594000000E+02  0.51100000000E-03 0. -1.
    9900012    2    1    2    0    0  0.29282749210E+02  0.11028263735E-01 -0.12619068846E+02  0.59301946286E+02  0.50000004118E+02 0.  0.
        -12    1    1    2    0    0 -0.29282749210E+02 -0.11028263735E-01  0.12619068846E+02  0.31886053714E+02  0.00000000000E+00 0.  1.
         11    1    3    3    0    0  0.68404936172E+01 -0.29641378730E+01 -0.96951418904E+01  0.12230054897E+02  0.51100000000E-03 0. -1.
        -11    1    3    3    0    0  0.17462204875E+00 -0.15840321889E+02 -0.75604322270E+01  0.17552960608E+02  0.51100000000E-03 0.  1.
         12    1    3    3    0    0  0.22267633544E+02  0.18815488025E+02  0.46365052712E+01  0.29518930780E+02  0.00000000000E+00 0. -1.
</event>
<event>
 7    1  0.6830263E-012  0.5930196E+02  0.7816164E-02  0.1266605E+00
        -11   -1    0    0    0    0  0.00000000000E+00  0.00000000000E+00  0.45593999997E+02  0.45594000000E+02  0.51100000000E-03 0. -1.
         11   -1    0    0    0    0 -0.00000000000E+00 -0.00000000000E+00 -0.45593999997E+02  0.45594000000E+02  0.51100000000E-03 0.  1.
    9900012    2    1    2    0    0  0.10869394528E+02 -0.29839387180E+02  0.28612415046E+01  0.59301961243E+02  0.50000031397E+02 0.  0.
        -12    1    1    2    0    0 -0.10869394528E+02  0.29839387180E+02 -0.28612415046E+01  0.31886038757E+02  0.00000000000E+00 0.  1.
         11    1    3    3    0    0  0.71251954053E+01 -0.17483031178E+02  0.23097188956E+01  0.19019978716E+02  0.51100000000E-03 0. -1.
        -11    1    3    3    0    0  0.20771844375E+02 -0.88005005412E+01 -0.22177331838E+01  0.22667965706E+02  0.51100000000E-03 0.  1.
        -12    1    3    3    0    0 -0.17027645253E+02 -0.35558554605E+01  0.27692557928E+01  0.17614016821E+02  0.00000000000E+00 0.  1.
</event>
<event>
 7    1  0.6830263E-012  0.5930195E+02  0.7816164E-02  0.1266605E+00
        -11   -1    0    0    0    0  0.00000000000E+00  0.00000000000E+00  0.45593999997E+02  0.45594000000E+02  0.51100000000E-03 0. -1.
         11   -1    0    0    0    0 -0.00000000000E+00 -0.00000000000E+00 -0.45593999997E+02  0.45594000000E+02  0.51100000000E-03 0.  1.
    9900012    2    1    2    0    0 -0.15566583097E+02  0.27144272427E+02 -0.61310905275E+01  0.59301948097E+02  0.50000007422E+02 0.  0.
        -12    1    1    2    0    0  0.15566583097E+02 -0.27144272427E+02  0.61310905275E+01  0.31886051903E+02  0.00000000000E+00 0.  1.
         11    1    3    3    0    0 -0.27389498941E+01 -0.20822871552E+01  0.87062755586E+01  0.93614635972E+01  0.51100000000E-03 0. -1.
        -11    1    3    3    0    0  0.96422478546E+01  0.10927311891E+01  0.24371406739E+01  0.10005331582E+02  0.51100000000E-03 0.  1.
        -12    1    3    3    0    0 -0.22469881058E+02  0.28133828393E+02 -0.17274506760E+02  0.39935152918E+02  0.00000000000E+00 0.  1.
</event>
<event>
 7    1  0.6830263E-012  0.5930195E+02  0.7816164E-02  0.1266605E+00
        -11   -1    0    0    0    0  0.00000000000E+00  0.00000000000E+00  0.45593999997E+02  0.45594000000E+02  0.51100000000E-03 0.  1.
         11   -1    0    0    0    0 -0.00000000000E+00 -0.00000000000E+00 -0.45593999997E+02  0.45594000000E+02  0.51100000000E-03 0. -1.
    9900012    2    1    2    0    0 -0.22919594401E+02 -0.17000300922E+02 -0.14226813319E+02  0.59301948878E+02  0.50000008845E+02 0.  0.
        -12    1    1    2    0    0  0.22919594401E+02  0.17000300922E+02  0.14226813319E+02  0.31886051122E+02  0.00000000000E+00 0.  1.
         11    1    3    3    0    0  0.82367099309E+01  0.13108033305E+01 -0.19679919136E+01  0.85693983622E+01  0.51100000000E-03 0. -1.
        -11    1    3    3    0    0  0.58893560401E+01  0.32043281823E+00  0.29116617567E+01  0.65776109800E+01  0.51100000000E-03 0.  1.
         12    1    3    3    0    0 -0.37045660372E+02 -0.18631537071E+02 -0.15170483162E+02  0.44154939536E+02  0.00000000000E+00 0. -1.
</event>
<event>
 7    1  0.6830263E-012  0.5930195E+02  0.7816164E-02  0.1266605E+00
        -11   -1    0    0    0    0  0.00000000000E+00  0.00000000000E+00  0.45593999997E+02  0.45594000000E+02  0.51100000000E-03 0. -1.
         11   -1    0    0    0    0 -0.00000000000E+00 -0.00000000000E+00 -0.45593999997E+02  0.45594000000E+02  0.51100000000E-03 0.  1.
    9900012    2    1    2    0    0 -0.92506589845E+01  0.12304307455E+02  0.27923990339E+02  0.59301954305E+02  0.50000018743E+02 0.  0.
        -12    1    1    2    0    0  0.92506589845E+01 -0.12304307455E+02 -0.27923990339E+02  0.31886045695E+02  0.00000000000E+00 0.  1.
         11    1    3    3    0    0  0.97421899888E+01  0.13445242483E+02  0.21997242247E+02  0.27560179207E+02  0.51100000000E-03 0. -1.
        -11    1    3    3    0    0  0.11366274604E+01 -0.89087546578E+01  0.46857448211E+01  0.10129858653E+02  0.51100000000E-03 0.  1.
        -12    1    3    3    0    0 -0.20129476434E+02  0.77678196301E+01  0.12410032710E+01  0.21611916445E+02  0.00000000000E+00 0.  1.
</event>
<event>
 7    1  0.6830263E-012  0.5930194E+02  0.7816164E-02  0.1266605E+00
        -11   -1    0    0    0    0  0.00000000000E+00  0.00000000000E+00  0.45593999997E+02  0.45594000000E+02  0.51100000000E-03 0. -1.
         11   -1    0    0    0    0 -0.00000000000E+00 -0.00000000000E+00 -0.45593999997E+02  0.45594000000E+02  0.51100000000E-03 0.  1.
    9900012    2    1    2    0    0  0.71646868683E+01 -0.30952445234E+02 -0.27081312265E+01  0.59301943822E+02  0.49999999624E+02 0.  0.
        -12    1    1    2    0    0 -0.71646868683E+01  0.30952445234E+02  0.27081312265E+01  0.31886056178E+02  0.00000000000E+00 0.  1.
         11    1    3    3    0    0  0.13285163228E+02 -0.25342859705E+02 -0.52752334121E+01  0.29096119807E+02  0.51100000000E-03 0. -1.
        -11    1    3    3    0    0 -0.47749543703E+01 -0.54186942788E+01 -0.12843764352E+02  0.14735152525E+02  0.51100000000E-03 0.  1.
         12    1    3    3    0    0 -0.13455219898E+01 -0.19089124987E+00  0.15410866538E+02  0.15470671490E+02  0.00000000000E+00 0. -1.
</event>
<event>
 7    1  0.6830263E-012  0.5930175E+02  0.7816164E-02  0.1266605E+00
        -11   -1    0    0    0    0  0.00000000000E+00  0.00000000000E+00  0.45593999997E+02  0.45594000000E+02  0.51100000000E-03 0. -1.
         11   -1    0    0    0    0 -0.00000000000E+00 -0.00000000000E+00 -0.45593999997E+02  0.45594000000E+02  0.51100000000E-03 0.  1.
    9900012    2    1    2    0    0 -0.15624075388E+02 -0.26601997735E+02 -0.80594486220E+01  0.59301753321E+02  0.49999652195E+02 0.  0.
        -12    1    1    2    0    0  0.15624075388E+02  0.26601997735E+02  0.80594486220E+01  0.31886246679E+02  0.00000000000E+00 0.  1.
         11    1    3    3    0    0 -0.15346119175E+02 -0.26609794069E+02 -0.87285194892E+01  0.31933862385E+02  0.51100000000E-03 0. -1.
        -11    1    3    3    0    0  0.88401888450E+01 -0.97950061943E+01  0.35711037380E+01  0.13669084363E+02  0.51100000000E-03 0.  1.
        -12    1    3    3    0    0 -0.91181450582E+01  0.98028025286E+01 -0.29020328708E+01  0.13698806572E+02  0.00000000000E+00 0.  1.
</event>
<event>
 7    1  0.6830263E-012  0.5930203E+02  0.7816164E-02  0.1266604E+00
        -11   -1    0    0    0    0  0.00000000000E+00  0.00000000000E+00  0.45593999997E+02  0.45594000000E+02  0.51100000000E-03 0. -1.
         11   -1    0    0    0    0 -0.00000000000E+00 -0.00000000000E+00 -0.45593999997E+02  0.45594000000E+02  0.51100000000E-03 0.  1.
    9900012    2    1    2    0    0  0.31237711031E+02  0.17401683878E+01  0.61556939395E+01  0.59302025900E+02  0.50000149315E+02 0.  0.
        -12    1    1    2    0    0 -0.31237711031E+02 -0.17401683878E+01 -0.61556939395E+01  0.31885974100E+02  0.00000000000E+00 0.  1.
         11    1    3    3    0    0  0.29102811720E+02  0.13717780126E+02  0.27310473431E+01  0.32289468274E+02  0.51100000000E-03 0. -1.
        -11    1    3    3    0    0  0.99341277264E+01 -0.14608429248E+02 -0.94918266580E+00  0.17691637764E+02  0.51100000000E-03 0.  1.
        -12    1    3    3    0    0 -0.77992284156E+01  0.26308175097E+01  0.43738292622E+01  0.93209198614E+01  0.00000000000E+00 0.  1.
</event>
<event>
 7    1  0.6830263E-012  0.5930194E+02  0.7816164E-02  0.1266605E+00
        -11   -1    0    0    0    0  0.00000000000E+00  0.00000000000E+00  0.45593999997E+02  0.45594000000E+02  0.51100000000E-03 0. -1.
         11   -1    0    0    0    0 -0.00000000000E+00 -0.00000000000E+00 -0.45593999997E+02  0.45594000000E+02  0.51100000000E-03 0.  1.
    9900012    2    1    2    0    0 -0.92129319649E+01  0.27438172026E+02  0.13378696545E+02  0.59301938456E+02  0.49999989839E+02 0.  0.
        -12    1    1    2    0    0  0.92129319649E+01 -0.27438172026E+02 -0.13378696545E+02  0.31886061544E+02  0.00000000000E+00 0.  1.
         11    1    3    3    0    0  0.73266195785E+01  0.98499157021E+01 -0.39054274924E+01  0.12882257486E+02  0.51100000000E-03 0. -1.
        -11    1    3    3    0    0  0.10922288653E+02  0.53152580133E+01  0.93188650678E+00  0.12182642156E+02  0.51100000000E-03 0.  1.
         12    1    3    3    0    0 -0.27461840197E+02  0.12272998311E+02  0.16352237531E+02  0.34237038814E+02  0.00000000000E+00 0. -1.
</event>
<event>
 7    1  0.6830263E-012  0.5930193E+02  0.7816164E-02  0.1266605E+00
        -11   -1    0    0    0    0  0.00000000000E+00  0.00000000000E+00  0.45593999997E+02  0.45594000000E+02  0.51100000000E-03 0.  1.
         11   -1    0    0    0    0 -0.00000000000E+00 -0.00000000000E+00 -0.45593999997E+02  0.45594000000E+02  0.51100000000E-03 0. -1.
    9900012    2    1    2    0    0  0.79546514199E+01  0.10277501360E+02 -0.29117318638E+02  0.59301925326E+02  0.49999965893E+02 0.  0.
        -12    1    1    2    0    0 -0.79546514199E+01 -0.10277501360E+02  0.29117318638E+02  0.31886074674E+02  0.00000000000E+00 0.  1.
         11    1    3    3    0    0  0.84058777286E+01 -0.10640343246E+02 -0.76854950738E+01  0.15586613474E+02  0.51100000000E-03 0. -1.
        -11    1    3    3    0    0  0.89148395412E+01 -0.48758983705E+01 -0.27784446713E+01  0.10534158914E+02  0.51100000000E-03 0.  1.
         12    1    3    3    0    0 -0.93660658499E+01  0.25793742977E+02 -0.18653378893E+02  0.33181152939E+02  0.00000000000E+00 0. -1.
</event>
<event>
 7    1  0.6830263E-012  0.5930193E+02  0.7816164E-02  0.1266605E+00
        -11   -1    0    0    0    0  0.00000000000E+00  0.00000000000E+00  0.45593999997E+02  0.45594000000E+02  0.51100000000E-03 0.  1.
         11   -1    0    0    0    0 -0.00000000000E+00 -0.00000000000E+00 -0.45593999997E+02  0.45594000000E+02  0.51100000000E-03 0. -1.
    9900012    2    1    2    0    0  0.31241989201E+02 -0.63507184588E+01  0.57247250794E+00  0.59301933467E+02  0.49999980739E+02 0.  0.
        -12    1    1    2    0    0 -0.31241989201E+02  0.63507184588E+01 -0.57247250794E+00  0.31886066533E+02  0.00000000000E+00 0.  1.
         11    1    3    3    0    0 -0.29840868923E+01 -0.13016781411E+00 -0.28500101895E+01  0.41284714583E+01  0.51100000000E-03 0. -1.
        -11    1    3    3    0    0 -0.55317587353E+01  0.10353940100E+02 -0.14337033671E+01  0.11826239297E+02  0.51100000000E-03 0.  1.
        -12    1    3    3    0    0  0.39757834829E+02 -0.16574490745E+02  0.48561860646E+01  0.43347222712E+02  0.00000000000E+00 0.  1.
</event>
<event>
 7    1  0.6830263E-012  0.5930196E+02  0.7816164E-02  0.1266605E+00
        -11   -1    0    0    0    0  0.00000000000E+00  0.00000000000E+00  0.45593999997E+02  0.45594000000E+02  0.51100000000E-03 0. -1.
         11   -1    0    0    0    0 -0.00000000000E+00 -0.00000000000E+00 -0.45593999997E+02  0.45594000000E+02  0.51100000000E-03 0.  1.
    9900012    2    1    2    0    0 -0.30031135689E+02  0.90113457369E+01  0.58005498551E+01  0.59301955382E+02  0.50000020708E+02 0.  0.
        -12    1    1    2    0    0  0.30031135689E+02 -0.90113457369E+01 -0.58005498551E+01  0.31886044618E+02  0.00000000000E+00 0.  1.
         11    1    3    3    0    0 -0.29604549267E+02 -0.26638687166E+00  0.81172227126E+01  0.30698364844E+02  0.51100000000E-03 0. -1.
        -11    1    3    3    0    0 -0.15727608938E+01 -0.67603067828E+01  0.71336414022E+01  0.99530982384E+01  0.51100000000E-03 0.  1.
        -12    1    3    3    0    0  0.11461744720E+01  0.16038039391E+02 -0.94503142597E+01  0.18650492300E+02  0.00000000000E+00 0.  1.
</event>
<event>
 7    1  0.6830263E-012  0.5930186E+02  0.7816164E-02  0.1266605E+00
        -11   -1    0    0    0    0  0.00000000000E+00  0.00000000000E+00  0.45593999997E+02  0.45594000000E+02  0.51100000000E-03 0. -1.
         11   -1    0    0    0    0 -0.00000000000E+00 -0.00000000000E+00 -0.45593999997E+02  0.45594000000E+02  0.51100000000E-03 0.  1.
    9900012    2    1    2    0    0 -0.22571774711E+02 -0.28854023272E+01  0.22336417408E+02  0.59301857197E+02  0.49999841642E+02 0.  0.
        -12    1    1    2    0    0  0.22571774711E+02  0.28854023272E+01 -0.22336417408E+02  0.31886142803E+02  0.00000000000E+00 0.  1.
         11    1    3    3    0    0 -0.49596081825E+01 -0.36148677520E+01  0.21121953641E+02  0.21995497450E+02  0.51100000000E-03 0. -1.
        -11    1    3    3    0    0  0.12064266081E+01 -0.12462041406E+02  0.59177663104E+01  0.13848389781E+02  0.51100000000E-03 0.  1.
        -12    1    3    3    0    0 -0.18818593137E+02  0.13191506831E+02 -0.47033025432E+01  0.23457969966E+02  0.00000000000E+00 0.  1.
</event>
<event>
 7    1  0.6830263E-012  0.5930195E+02  0.7816164E-02  0.1266605E+00
        -11   -1    0    0    0    0  0.00000000000E+00  0.00000000000E+00  0.45593999997E+02  0.45594000000E+02  0.51100000000E-03 0.  1.
         11   -1    0    0    0    0 -0.00000000000E+00 -0.00000000000E+00 -0.45593999997E+02  0.45594000000E+02  0.51100000000E-03 0. -1.
    9900012    2    1    2    0    0 -0.18937467208E+02 -0.25589804592E+02 -0.18039493945E+01  0.59301952946E+02  0.50000016265E+02 0.  0.
        -12    1    1    2    0    0  0.18937467208E+02  0.25589804592E+02  0.18039493945E+01  0.31886047054E+02  0.00000000000E+00 0.  1.
         11    1    3    3    0    0  0.22871742233E+01 -0.89644409277E+01  0.52118234502E+01  0.10618637908E+02  0.51100000000E-03 0. -1.
        -11    1    3    3    0    0  0.76104347572E+01 -0.27314301622E+01  0.96555721651E+01  0.12594026442E+02  0.51100000000E-03 0.  1.
         12    1    3    3    0    0 -0.28835076189E+02 -0.13893933502E+02 -0.16671345010E+02  0.36089288597E+02  0.00000000000E+00 0. -1.
</event>
<event>
 7    1  0.6830263E-012  0.5930195E+02  0.7816164E-02  0.1266605E+00
        -11   -1    0    0    0    0  0.00000000000E+00  0.00000000000E+00  0.45593999997E+02  0.45594000000E+02  0.51100000000E-03 0.  1.
         11   -1    0    0    0    0 -0.00000000000E+00 -0.00000000000E+00 -0.45593999997E+02  0.45594000000E+02  0.51100000000E-03 0. -1.
    9900012    2    1    2    0    0 -0.12260372711E+02  0.13228949432E+02 -0.26294456810E+02  0.59301948174E+02  0.50000007562E+02 0.  0.
        -12    1    1    2    0    0  0.12260372711E+02 -0.13228949432E+02  0.26294456810E+02  0.31886051826E+02  0.00000000000E+00 0.  1.
         11    1    3    3    0    0  0.29406250614E+01  0.16974826014E+02 -0.11963740693E+02  0.20974343508E+02  0.51100000000E-03 0. -1.
        -11    1    3    3    0    0 -0.13785945012E+02  0.14022100850E+01 -0.23752010912E+02  0.27498663524E+02  0.51100000000E-03 0.  1.
        -12    1    3    3    0    0 -0.14150527610E+01 -0.51480866673E+01  0.94212947946E+01  0.10828941142E+02  0.00000000000E+00 0.  1.
</event>
<event>
 7    1  0.6830263E-012  0.5930194E+02  0.7816164E-02  0.1266605E+00
        -11   -1    0    0    0    0  0.00000000000E+00  0.00000000000E+00  0.45593999997E+02  0.45594000000E+02  0.51100000000E-03 0.  1.
         11   -1    0    0    0    0 -0.00000000000E+00 -0.00000000000E+00 -0.45593999997E+02  0.45594000000E+02  0.51100000000E-03 0. -1.
    9900012    2    1    2    0    0 -0.79174391618E+01 -0.27245881971E+02 -0.14549810292E+02  0.59301938675E+02  0.49999990239E+02 0.  0.
        -12    1    1    2    0    0  0.79174391618E+01  0.27245881971E+02  0.14549810292E+02  0.31886061325E+02  0.00000000000E+00 0.  1.
         11    1    3    3    0    0  0.73632860144E+01 -0.19747741764E+02 -0.20132478579E+02  0.29146320174E+02  0.51100000000E-03 0. -1.
        -11    1    3    3    0    0 -0.14316564746E+02 -0.64849208539E+01 -0.72064811494E+01  0.17290216755E+02  0.51100000000E-03 0.  1.
         12    1    3    3    0    0 -0.96416042976E+00 -0.10132193530E+01  0.12789149436E+02  0.12865401746E+02  0.00000000000E+00 0. -1.
</event>
<event>
 7    1  0.6830263E-012  0.5930185E+02  0.7816164E-02  0.1266605E+00
        -11   -1    0    0    0    0  0.00000000000E+00  0.00000000000E+00  0.45593999997E+02  0.45594000000E+02  0.51100000000E-03 0. -1.
         11   -1    0    0    0    0 -0.00000000000E+00 -0.00000000000E+00 -0.45593999997E+02  0.45594000000E+02  0.51100000000E-03 0.  1.
    9900012    2    1    2    0    0 -0.29465558794E+02  0.11821049339E+02  0.29614265068E+01  0.59301852389E+02  0.49999832873E+02 0.  0.
        -12    1    1    2    0    0  0.29465558794E+02 -0.11821049339E+02 -0.29614265068E+01  0.31886147611E+02  0.00000000000E+00 0.  1.
         11    1    3    3    0    0  0.10085991577E+01 -0.27365244056E+01 -0.64154571733E+01  0.70472639433E+01  0.51100000000E-03 0. -1.
        -11    1    3    3    0    0  0.66566572920E+01 -0.25863556356E+01 -0.52030696727E+01  0.88358506131E+01  0.51100000000E-03 0.  1.
         12    1    3    3    0    0 -0.37130815244E+02  0.17143929380E+02  0.14579953353E+02  0.43418737833E+02  0.00000000000E+00 0. -1.
</event>
<event>
 7    1  0.6830263E-012  0.5930193E+02  0.7816164E-02  0.1266605E+00
        -11   -1    0    0    0    0  0.00000000000E+00  0.00000000000E+00  0.45593999997E+02  0.45594000000E+02  0.51100000000E-03 0. -1.
         11   -1    0    0    0    0 -0.00000000000E+00 -0.00000000000E+00 -0.45593999997E+02  0.45594000000E+02  0.51100000000E-03 0.  1.
    9900012    2    1    2    0    0 -0.15859948581E+01 -0.24149093161E+02  0.20761193036E+02  0.59301933820E+02  0.49999981383E+02 0.  0.
        -12    1    1    2    0    0  0.15859948581E+01  0.24149093161E+02 -0.20761193036E+02  0.31886066180E+02  0.00000000000E+00 0.  1.
         11    1    3    3    0    0 -0.13360251084E+02 -0.24010604336E+02  0.52215046525E+01  0.27969081871E+02  0.51100000000E-03 0. -1.
        -11    1    3    3    0    0  0.72567591913E+01 -0.38561418266E+01 -0.52393874184E+01  0.97458485792E+01  0.51100000000E-03 0.  1.
         12    1    3    3    0    0  0.45174970344E+01  0.37176530021E+01  0.20779075802E+02  0.21587003370E+02  0.00000000000E+00 0. -1.
</event>
<event>
 7    1  0.6830263E-012  0.5930193E+02  0.7816164E-02  0.1266605E+00
        -11   -1    0    0    0    0  0.00000000000E+00  0.00000000000E+00  0.45593999997E+02  0.45594000000E+02  0.51100000000E-03 0. -1.
         11   -1    0    0    0    0 -0.00000000000E+00 -0.00000000000E+00 -0.45593999997E+02  0.45594000000E+02  0.51100000000E-03 0.  1.
    9900012    2    1    2    0    0  0.10865414204E+02 -0.76152442860E+01  0.28994346851E+02  0.59301932186E+02  0.49999978403E+02 0.  0.
        -12    1    1    2    0    0 -0.10865414204E+02  0.76152442860E+01 -0.28994346851E+02  0.31886067814E+02  0.00000000000E+00 0.  1.
         11    1    3    3    0    0  0.14142158577E+02  0.15978485878E+00  0.20045634860E+02  0.24532705876E+02  0.51100000000E-03 0. -1.
        -11    1    3    3    0    0 -0.21684068013E+01  0.12421857484E+02  0.70660256471E+01  0.14454523517E+02  0.51100000000E-03 0.  1.
        -12    1    3    3    0    0 -0.11083375713E+01 -0.20196886629E+02  0.18826863439E+01  0.20314702792E+02  0.00000000000E+00 0.  1.
</event>
<event>
 7    1  0.6830263E-012  0.5930195E+02  0.7816164E-02  0.1266605E+00
        -11   -1    0    0    0    0  0.00000000000E+00  0.00000000000E+00  0.45593999997E+02  0.45594000000E+02  0.51100000000E-03 0.  1.
         11   -1    0    0    0    0 -0.00000000000E+00 -0.00000000000E+00 -0.45593999997E+02  0.45594000000E+02  0.51100000000E-03 0. -1.
    9900012    2    1    2    0    0 -0.27047007569E+02  0.73184280875E+01 -0.15219073705E+02  0.59301949562E+02  0.50000010093E+02 0.  0.
        -12    1    1    2    0    0  0.27047007569E+02 -0.73184280875E+01  0.15219073705E+02  0.31886050438E+02  0.00000000000E+00 0.  1.
         11    1    3    3    0    0  0.13422463276E+01  0.15190385897E+02  0.73228379624E+01  0.16916660575E+02  0.51100000000E-03 0. -1.
        -11    1    3    3    0    0 -0.12233791154E+02 -0.63384102712E+01  0.97489860757E+00  0.13812730299E+02  0.51100000000E-03 0.  1.
         12    1    3    3    0    0 -0.16155462743E+02 -0.15335475388E+01 -0.23516810275E+02  0.28572558688E+02  0.00000000000E+00 0. -1.
</event>
<event>
 7    1  0.6830263E-012  0.5930193E+02  0.7816164E-02  0.1266605E+00
        -11   -1    0    0    0    0  0.00000000000E+00  0.00000000000E+00  0.45593999997E+02  0.45594000000E+02  0.51100000000E-03 0.  1.
         11   -1    0    0    0    0 -0.00000000000E+00 -0.00000000000E+00 -0.45593999997E+02  0.45594000000E+02  0.51100000000E-03 0. -1.
    9900012    2    1    2    0    0  0.14010204967E+02 -0.23901587267E+02  0.15784483655E+02  0.59301927158E+02  0.49999969233E+02 0.  0.
        -12    1    1    2    0    0 -0.14010204967E+02  0.23901587267E+02 -0.15784483655E+02  0.31886072842E+02  0.00000000000E+00 0.  1.
         11    1    3    3    0    0  0.13264580884E+02  0.34904107117E+01 -0.13731236509E+01  0.13784685045E+02  0.51100000000E-03 0. -1.
        -11    1    3    3    0    0  0.15960394405E+02 -0.10070412825E+02  0.10109539304E+02  0.21409114630E+02  0.51100000000E-03 0.  1.
         12    1    3    3    0    0 -0.15214770322E+02 -0.17321585154E+02  0.70480680014E+01  0.24108127483E+02  0.00000000000E+00 0. -1.
</event>
<event>
 7    1  0.6830263E-012  0.5930194E+02  0.7816164E-02  0.1266605E+00
        -11   -1    0    0    0    0  0.00000000000E+00  0.00000000000E+00  0.45593999997E+02  0.45594000000E+02  0.51100000000E-03 0. -1.
         11   -1    0    0    0    0 -0.00000000000E+00 -0.00000000000E+00 -0.45593999997E+02  0.45594000000E+02  0.51100000000E-03 0.  1.
    9900012    2    1    2    0    0 -0.12815237010E+01 -0.17299007057E+02  0.26754865424E+02  0.59301940789E+02  0.49999994093E+02 0.  0.
        -12    1    1    2    0    0  0.12815237010E+01  0.17299007057E+02 -0.26754865424E+02  0.31886059211E+02  0.00000000000E+00 0.  1.
         11    1    3    3    0    0  0.21865846176E+01  0.46594079965E+01  0.94118246640E+01  0.10727240043E+02  0.51100000000E-03 0. -1.
        -11    1    3    3    0    0  0.46647893255E+01  0.45751381659E+01 -0.84539401303E+01  0.10684626932E+02  0.51100000000E-03 0.  1.
         12    1    3    3    0    0 -0.81328976441E+01 -0.26533553220E+02  0.25796980891E+02  0.37890073814E+02  0.00000000000E+00 0. -1.
</event>
<event>
 7    1  0.6830263E-012  0.5930192E+02  0.7816164E-02  0.1266605E+00
        -11   -1    0    0    0    0  0.00000000000E+00  0.00000000000E+00  0.45593999997E+02  0.45594000000E+02  0.51100000000E-03 0.  1.
         11   -1    0    0    0    0 -0.00000000000E+00 -0.00000000000E+00 -0.45593999997E+02  0.45594000000E+02  0.51100000000E-03 0. -1.
    9900012    2    1    2    0    0  0.14515651777E+02  0.20068240647E+02 -0.20081918356E+02  0.59301923508E+02  0.49999962578E+02 0.  0.
        -12    1    1    2    0    0 -0.14515651777E+02 -0.20068240647E+02  0.20081918356E+02  0.31886076492E+02  0.00000000000E+00 0.  1.
         11    1    3    3    0    0  0.65945739052E+01  0.11906877780E+02 -0.14845770293E+02  0.20140979106E+02  0.51100000000E-03 0. -1.
        -11    1    3    3    0    0  0.14473532192E+02 -0.78922634665E+01 -0.12165451055E+02  0.20488268750E+02  0.51100000000E-03 0.  1.
         12    1    3    3    0    0 -0.65524543199E+01  0.16053626333E+02  0.69293029933E+01  0.18672675653E+02  0.00000000000E+00 0. -1.
</event>
<event>
 7    1  0.6830263E-012  0.5930193E+02  0.7816164E-02  0.1266605E+00
        -11   -1    0    0    0    0  0.00000000000E+00  0.00000000000E+00  0.45593999997E+02  0.45594000000E+02  0.51100000000E-03 0. -1.
         11   -1    0    0    0    0 -0.00000000000E+00 -0.00000000000E+00 -0.45593999997E+02  0.45594000000E+02  0.51100000000E-03 0.  1.
    9900012    2    1    2    0    0 -0.16655811467E+02 -0.65836984901E+01  0.26381056514E+02  0.59301932757E+02  0.49999979445E+02 0.  0.
        -12    1    1    2    0    0  0.16655811467E+02  0.65836984901E+01 -0.26381056514E+02  0.31886067243E+02  0.00000000000E+00 0.  1.
         11    1    3    3    0    0 -0.96237189739E+01 -0.13689363412E+02 -0.51486580740E-01  0.16733717120E+02  0.51100000000E-03 0. -1.
        -11    1    3    3    0    0 -0.77990541480E+01 -0.50937673483E+01 -0.37213661176E+01  0.10030965928E+02  0.51100000000E-03 0.  1.
         12    1    3    3    0    0  0.76696165479E+00  0.12199432270E+02  0.30153909212E+02  0.32537249710E+02  0.00000000000E+00 0. -1.
</event>
<event>
 7    1  0.6830263E-012  0.5930200E+02  0.7816164E-02  0.1266605E+00
        -11   -1    0    0    0    0  0.00000000000E+00  0.00000000000E+00  0.45593999997E+02  0.45594000000E+02  0.51100000000E-03 0.  1.
         11   -1    0    0    0    0 -0.00000000000E+00 -0.00000000000E+00 -0.45593999997E+02  0.45594000000E+02  0.51100000000E-03 0. -1.
    9900012    2    1    2    0    0  0.70022392967E+01 -0.13549834882E+02 -0.28001568073E+02  0.59301996879E+02  0.50000096389E+02 0.  0.
        -12    1    1    2    0    0 -0.70022392967E+01  0.13549834882E+02  0.28001568073E+02  0.31886003121E+02  0.00000000000E+00 0.  1.
         11    1    3    3    0    0  0.16250198318E+02 -0.68895026230E+01 -0.16561409306E+02  0.24203604489E+02  0.51100000000E-03 0. -1.
        -11    1    3    3    0    0 -0.91819701938E+01 -0.10408533684E+02 -0.20805687917E+02  0.25010453815E+02  0.51100000000E-03 0.  1.
        -12    1    3    3    0    0 -0.65988827668E-01  0.37482014249E+01  0.93655291502E+01  0.10087938576E+02  0.00000000000E+00 0.  1.
</event>
<event>
 7    1  0.6830263E-012  0.5930196E+02  0.7816164E-02  0.1266605E+00
        -11   -1    0    0    0    0  0.00000000000E+00  0.00000000000E+00  0.45593999997E+02  0.45594000000E+02  0.51100000000E-03 0.  1.
         11   -1    0    0    0    0 -0.00000000000E+00 -0.00000000000E+00 -0.45593999997E+02  0.45594000000E+02  0.51100000000E-03 0. -1.
    9900012    2    1    2    0    0  0.29599091089E+02 -0.70083071025E+00 -0.11837320935E+02  0.59301960360E+02  0.50000029786E+02 0.  0.
        -12    1    1    2    0    0 -0.29599091089E+02  0.70083071025E+00  0.11837320935E+02  0.31886039640E+02  0.00000000000E+00 0.  1.
         11    1    3    3    0    0  0.10643540028E+02  0.14841316085E+02 -0.18050665189E+02  0.25678320068E+02  0.51100000000E-03 0. -1.
        -11    1    3    3    0    0  0.92210444502E+01 -0.12088111201E+02 -0.70946281341E+01  0.16777480198E+02  0.51100000000E-03 0.  1.
        -12    1    3    3    0    0  0.97345066112E+01 -0.34540355944E+01  0.13307972388E+02  0.16846160094E+02  0.00000000000E+00 0.  1.
</event>
<event>
 7    1  0.6830263E-012  0.5930179E+02  0.7816164E-02  0.1266605E+00
        -11   -1    0    0    0    0  0.00000000000E+00  0.00000000000E+00  0.45593999997E+02  0.45594000000E+02  0.51100000000E-03 0.  1.
         11   -1    0    0    0    0 -0.00000000000E+00 -0.00000000000E+00 -0.45593999997E+02  0.45594000000E+02  0.51100000000E-03 0. -1.
    9900012    2    1    2    0    0 -0.22113217658E+01  0.31624548830E+02  0.34246872663E+01  0.59301788003E+02  0.49999715448E+02 0.  0.
        -12    1    1    2    0    0  0.22113217658E+01 -0.31624548830E+02 -0.34246872663E+01  0.31886211997E+02  0.00000000000E+00 0.  1.
         11    1    3    3    0    0  0.11196316080E+01  0.11829557572E+01 -0.55087504179E+01  0.57445009086E+01  0.51100000000E-03 0. -1.
        -11    1    3    3    0    0  0.74536685491E+01  0.72420091999E+01 -0.15182678829E+02  0.18398848028E+02  0.51100000000E-03 0.  1.
        -12    1    3    3    0    0 -0.10784621923E+02  0.23199583873E+02  0.24116116513E+02  0.35158439066E+02  0.00000000000E+00 0.  1.
</event>
<event>
 7    1  0.6830263E-012  0.5930194E+02  0.7816164E-02  0.1266605E+00
        -11   -1    0    0    0    0  0.00000000000E+00  0.00000000000E+00  0.45593999997E+02  0.45594000000E+02  0.51100000000E-03 0. -1.
         11   -1    0    0    0    0 -0.00000000000E+00 -0.00000000000E+00 -0.45593999997E+02  0.45594000000E+02  0.51100000000E-03 0.  1.
    9900012    2    1    2    0    0  0.72070387994E+01  0.26665351947E+02 -0.15929160644E+02  0.59301944090E+02  0.50000000113E+02 0.  0.
        -12    1    1    2    0    0 -0.72070387994E+01 -0.26665351947E+02  0.15929160644E+02  0.31886055910E+02  0.00000000000E+00 0.  1.
         11    1    3    3    0    0  0.10805366799E+02  0.83192347890E+01 -0.19538099664E+01  0.13776174824E+02  0.51100000000E-03 0. -1.
        -11    1    3    3    0    0  0.16300643006E+02  0.10427377514E+02 -0.14374499497E+02  0.24105339663E+02  0.51100000000E-03 0.  1.
        -12    1    3    3    0    0 -0.19898971005E+02  0.79187396438E+01  0.39914881955E+00  0.21420429603E+02  0.00000000000E+00 0.  1.
</event>
<event>
 7    1  0.6830263E-012  0.5930189E+02  0.7816164E-02  0.1266605E+00
        -11   -1    0    0    0    0  0.00000000000E+00  0.00000000000E+00  0.45593999997E+02  0.45594000000E+02  0.51100000000E-03 0. -1.
         11   -1    0    0    0    0 -0.00000000000E+00 -0.00000000000E+00 -0.45593999997E+02  0.45594000000E+02  0.51100000000E-03 0.  1.
    9900012    2    1    2    0    0 -0.11064620535E+02 -0.24034508779E+02 -0.17794401427E+02  0.59301887631E+02  0.49999897147E+02 0.  0.
        -12    1    1    2    0    0  0.11064620535E+02  0.24034508779E+02  0.17794401427E+02  0.31886112369E+02  0.00000000000E+00 0.  1.
         11    1    3    3    0    0 -0.15504187693E+01 -0.32823421247E+02 -0.12943389102E+02  0.35317305991E+02  0.51100000000E-03 0. -1.
        -11    1    3    3    0    0 -0.11005784082E+02 -0.10018096066E+01 -0.79427857740E+01  0.13609509611E+02  0.51100000000E-03 0.  1.
        -12    1    3    3    0    0  0.14915823167E+01  0.97907220750E+01  0.30917734488E+01  0.10375072029E+02  0.00000000000E+00 0.  1.
</event>
<event>
 7    1  0.6830263E-012  0.5930190E+02  0.7816164E-02  0.1266605E+00
        -11   -1    0    0    0    0  0.00000000000E+00  0.00000000000E+00  0.45593999997E+02  0.45594000000E+02  0.51100000000E-03 0. -1.
         11   -1    0    0    0    0 -0.00000000000E+00 -0.00000000000E+00 -0.45593999997E+02  0.45594000000E+02  0.51100000000E-03 0.  1.
    9900012    2    1    2    0    0 -0.26858658879E+02  0.14352118583E+02  0.94526482113E+01  0.59301899222E+02  0.49999918285E+02 0.  0.
        -12    1    1    2    0    0  0.26858658879E+02 -0.14352118583E+02 -0.94526482113E+01  0.31886100778E+02  0.00000000000E+00 0.  1.
         11    1    3    3    0    0  0.53109532900E+01 -0.75684153302E+01 -0.44517955258E+01  0.10261852617E+02  0.51100000000E-03 0.  1.
        -11    1    3    3    0    0 -0.91864682944E+00  0.97278741289E+01 -0.45223473839E+01  0.10766943540E+02  0.51100000000E-03 0. -1.
         12    1    3    3    0    0 -0.31250965340E+02  0.12192659784E+02  0.18426791121E+02  0.38273103066E+02  0.00000000000E+00 0. -1.
</event>
<event>
 7    1  0.6830263E-012  0.5930194E+02  0.7816164E-02  0.1266605E+00
        -11   -1    0    0    0    0  0.00000000000E+00  0.00000000000E+00  0.45593999997E+02  0.45594000000E+02  0.51100000000E-03 0.  1.
         11   -1    0    0    0    0 -0.00000000000E+00 -0.00000000000E+00 -0.45593999997E+02  0.45594000000E+02  0.51100000000E-03 0. -1.
    9900012    2    1    2    0    0  0.24123357401E+02  0.18727638836E+02 -0.91684136491E+01  0.59301942898E+02  0.49999997940E+02 0.  0.
        -12    1    1    2    0    0 -0.24123357401E+02 -0.18727638836E+02  0.91684136491E+01  0.31886057102E+02  0.00000000000E+00 0.  1.
         11    1    3    3    0    0  0.49874010770E+01 -0.86926005619E+01  0.22709537354E+01  0.10275831118E+02  0.51100000000E-03 0. -1.
        -11    1    3    3    0    0  0.87678148011E+01  0.11522816800E+02  0.12042685219E+02  0.18832847658E+02  0.51100000000E-03 0.  1.
         12    1    3    3    0    0  0.10368141523E+02  0.15897422598E+02 -0.23482052603E+02  0.30193264122E+02  0.00000000000E+00 0. -1.
</event>
<event>
 7    1  0.6830263E-012  0.5930194E+02  0.7816164E-02  0.1266605E+00
        -11   -1    0    0    0    0  0.00000000000E+00  0.00000000000E+00  0.45593999997E+02  0.45594000000E+02  0.51100000000E-03 0. -1.
         11   -1    0    0    0    0 -0.00000000000E+00 -0.00000000000E+00 -0.45593999997E+02  0.45594000000E+02  0.51100000000E-03 0.  1.
    9900012    2    1    2    0    0 -0.23266736051E+02 -0.18560822133E+02 -0.11440097942E+02  0.59301937752E+02  0.49999988555E+02 0.  0.
        -12    1    1    2    0    0  0.23266736051E+02  0.18560822133E+02  0.11440097942E+02  0.31886062248E+02  0.00000000000E+00 0.  1.
         11    1    3    3    0    0 -0.16816404108E+02 -0.10171629638E+02 -0.60924919990E+01  0.20576004365E+02  0.51100000000E-03 0. -1.
        -11    1    3    3    0    0 -0.66381093830E+01  0.26505006290E+01 -0.19504211768E+02  0.20772672594E+02  0.51100000000E-03 0.  1.
        -12    1    3    3    0    0  0.18777743982E+00 -0.11039693124E+02  0.14156605824E+02  0.17953260793E+02  0.00000000000E+00 0.  1.
</event>
<event>
 7    1  0.6830263E-012  0.5930195E+02  0.7816164E-02  0.1266605E+00
        -11   -1    0    0    0    0  0.00000000000E+00  0.00000000000E+00  0.45593999997E+02  0.45594000000E+02  0.51100000000E-03 0. -1.
         11   -1    0    0    0    0 -0.00000000000E+00 -0.00000000000E+00 -0.45593999997E+02  0.45594000000E+02  0.51100000000E-03 0.  1.
    9900012    2    1    2    0    0 -0.43091495323E+01  0.22086074334E+02 -0.22591073421E+02  0.59301952150E+02  0.50000014813E+02 0.  0.
        -12    1    1    2    0    0  0.43091495323E+01 -0.22086074334E+02  0.22591073421E+02  0.31886047850E+02  0.00000000000E+00 0.  1.
         11    1    3    3    0    0  0.80849083916E+01  0.22896556733E+01 -0.96780613573E+01  0.12816908313E+02  0.51100000000E-03 0.  1.
        -11    1    3    3    0    0  0.12358874128E+02 -0.24137788473E+00 -0.66204359014E+01  0.14022489250E+02  0.51100000000E-03 0. -1.
         12    1    3    3    0    0 -0.24752932051E+02  0.20037796546E+02 -0.62925761625E+01  0.32462554587E+02  0.00000000000E+00 0. -1.
</event>
<event>
 7    1  0.6830263E-012  0.5930194E+02  0.7816164E-02  0.1266605E+00
        -11   -1    0    0    0    0  0.00000000000E+00  0.00000000000E+00  0.45593999997E+02  0.45594000000E+02  0.51100000000E-03 0.  1.
         11   -1    0    0    0    0 -0.00000000000E+00 -0.00000000000E+00 -0.45593999997E+02  0.45594000000E+02  0.51100000000E-03 0. -1.
    9900012    2    1    2    0    0 -0.22700972910E+02 -0.90384292838E+01 -0.20486419672E+02  0.59301940884E+02  0.49999994267E+02 0.  0.
        -12    1    1    2    0    0  0.22700972910E+02  0.90384292838E+01  0.20486419672E+02  0.31886059116E+02  0.00000000000E+00 0.  1.
         11    1    3    3    0    0 -0.52439927480E+01 -0.36627020912E+01 -0.14490574098E+02  0.15839557586E+02  0.51100000000E-03 0. -1.
        -11    1    3    3    0    0  0.37104805458E+00 -0.19662285136E+02 -0.61851143592E+01  0.20615498377E+02  0.51100000000E-03 0.  1.
        -12    1    3    3    0    0 -0.17828028216E+02  0.14286557943E+02  0.18926878520E+00  0.22846884922E+02  0.00000000000E+00 0.  1.
</event>
<event>
 7    1  0.6830263E-012  0.5930194E+02  0.7816164E-02  0.1266605E+00
        -11   -1    0    0    0    0  0.00000000000E+00  0.00000000000E+00  0.45593999997E+02  0.45594000000E+02  0.51100000000E-03 0.  1.
         11   -1    0    0    0    0 -0.00000000000E+00 -0.00000000000E+00 -0.45593999997E+02  0.45594000000E+02  0.51100000000E-03 0. -1.
    9900012    2    1    2    0    0 -0.14978408605E+02  0.11405619228E+02 -0.25734794404E+02  0.59301944783E+02  0.50000001377E+02 0.  0.
        -12    1    1    2    0    0  0.14978408605E+02 -0.11405619228E+02  0.25734794404E+02  0.31886055217E+02  0.00000000000E+00 0.  1.
         11    1    3    3    0    0  0.30566209905E+01  0.81026207231E+01 -0.27056919160E+02  0.28409017391E+02  0.51100000000E-03 0. -1.
        -11    1    3    3    0    0  0.37385932278E+01 -0.57975676942E+01  0.23053862180E+01  0.72734913464E+01  0.51100000000E-03 0.  1.
        -12    1    3    3    0    0 -0.21773622824E+02  0.91005661986E+01 -0.98326146204E+00  0.23619436045E+02  0.00000000000E+00 0.  1.
</event>
<event>
 7    1  0.6830263E-012  0.5930195E+02  0.7816164E-02  0.1266605E+00
        -11   -1    0    0    0    0  0.00000000000E+00  0.00000000000E+00  0.45593999997E+02  0.45594000000E+02  0.51100000000E-03 0.  1.
         11   -1    0    0    0    0 -0.00000000000E+00 -0.00000000000E+00 -0.45593999997E+02  0.45594000000E+02  0.51100000000E-03 0. -1.
    9900012    2    1    2    0    0 -0.25498610390E+02  0.12660617418E+02  0.14361390135E+02  0.59301954591E+02  0.50000019264E+02 0.  0.
        -12    1    1    2    0    0  0.25498610390E+02 -0.12660617418E+02 -0.14361390135E+02  0.31886045409E+02  0.00000000000E+00 0.  1.
         11    1    3    3    0    0 -0.27283464693E+02 -0.60283446643E+01 -0.25292620831E+00  0.27942661952E+02  0.51100000000E-03 0. -1.
        -11    1    3    3    0    0 -0.65733246378E+01  0.85570873419E+00 -0.32923356193E+00  0.66369593362E+01  0.51100000000E-03 0.  1.
        -12    1    3    3    0    0  0.83581789401E+01  0.17833253348E+02  0.14943549905E+02  0.24722333303E+02  0.00000000000E+00 0.  1.
</event>
<event>
 7    1  0.6830263E-012  0.5930187E+02  0.7816164E-02  0.1266605E+00
        -11   -1    0    0    0    0  0.00000000000E+00  0.00000000000E+00  0.45593999997E+02  0.45594000000E+02  0.51100000000E-03 0.  1.
         11   -1    0    0    0    0 -0.00000000000E+00 -0.00000000000E+00 -0.45593999997E+02  0.45594000000E+02  0.51100000000E-03 0. -1.
    9900012    2    1    2    0    0 -0.65424612950E+01  0.30103772115E+02  0.82270334059E+01  0.59301874898E+02  0.49999873924E+02 0.  0.
        -12    1    1    2    0    0  0.65424612950E+01 -0.30103772115E+02 -0.82270334059E+01  0.31886125102E+02  0.00000000000E+00 0.  1.
         11    1    3    3    0    0  0.80677353027E-01  0.59458125839E+01  0.82053716966E+01  0.10133475271E+02  0.51100000000E-03 0. -1.
        -11    1    3    3    0    0 -0.22149441575E+02  0.24237780350E+02 -0.41397652242E+01  0.33093887876E+02  0.51100000000E-03 0.  1.
         12    1    3    3    0    0  0.15526302927E+02 -0.79820819376E-01  0.41614269335E+01  0.16074511752E+02  0.00000000000E+00 0. -1.
</event>
<event>
 7    1  0.6830263E-012  0.5930195E+02  0.7816164E-02  0.1266605E+00
        -11   -1    0    0    0    0  0.00000000000E+00  0.00000000000E+00  0.45593999997E+02  0.45594000000E+02  0.51100000000E-03 0. -1.
         11   -1    0    0    0    0 -0.00000000000E+00 -0.00000000000E+00 -0.45593999997E+02  0.45594000000E+02  0.51100000000E-03 0.  1.
    9900012    2    1    2    0    0 -0.19378517357E+02 -0.24528628161E+02  0.62880511542E+01  0.59301950986E+02  0.50000012690E+02 0.  0.
        -12    1    1    2    0    0  0.19378517357E+02  0.24528628161E+02 -0.62880511542E+01  0.31886049014E+02  0.00000000000E+00 0.  1.
         11    1    3    3    0    0 -0.24219540972E+02 -0.25942943615E+01  0.12013161787E+02  0.27159392197E+02  0.51100000000E-03 0. -1.
        -11    1    3    3    0    0 -0.22554611808E+01 -0.20691368840E+00 -0.87935483480E+01  0.90805512620E+01  0.51100000000E-03 0.  1.
        -12    1    3    3    0    0  0.70964847960E+01 -0.21727420111E+02  0.30684377152E+01  0.23062007527E+02  0.00000000000E+00 0.  1.
</event>
<event>
 7    1  0.6830263E-012  0.5930195E+02  0.7816164E-02  0.1266605E+00
        -11   -1    0    0    0    0  0.00000000000E+00  0.00000000000E+00  0.45593999997E+02  0.45594000000E+02  0.51100000000E-03 0.  1.
         11   -1    0    0    0    0 -0.00000000000E+00 -0.00000000000E+00 -0.45593999997E+02  0.45594000000E+02  0.51100000000E-03 0. -1.
    9900012    2    1    2    0    0 -0.21774566905E+02 -0.43248772131E+01 -0.22888515490E+02  0.59301945554E+02  0.50000002783E+02 0.  0.
        -12    1    1    2    0    0  0.21774566905E+02  0.43248772131E+01  0.22888515490E+02  0.31886054446E+02  0.00000000000E+00 0.  1.
         11    1    3    3    0    0 -0.14150699546E+02 -0.25984021468E+01  0.21486976502E+01  0.14546851660E+02  0.51100000000E-03 0.  1.
        -11    1    3    3    0    0 -0.12330585613E+02 -0.14993051214E+01  0.56942936539E+01  0.13664415022E+02  0.51100000000E-03 0. -1.
        -12    1    3    3    0    0  0.47067182539E+01 -0.22716994495E+00 -0.30731506794E+02  0.31090678872E+02  0.00000000000E+00 0.  1.
</event>
<event>
 7    1  0.6830263E-012  0.5930199E+02  0.7816164E-02  0.1266605E+00
        -11   -1    0    0    0    0  0.00000000000E+00  0.00000000000E+00  0.45593999997E+02  0.45594000000E+02  0.51100000000E-03 0.  1.
         11   -1    0    0    0    0 -0.00000000000E+00 -0.00000000000E+00 -0.45593999997E+02  0.45594000000E+02  0.51100000000E-03 0. -1.
    9900012    2    1    2    0    0 -0.23174272481E+02  0.21681713385E+02  0.30942144425E+01  0.59301987967E+02  0.50000080135E+02 0.  0.
        -12    1    1    2    0    0  0.23174272481E+02 -0.21681713385E+02 -0.30942144425E+01  0.31886012033E+02  0.00000000000E+00 0.  1.
         11    1    3    3    0    0  0.65377838497E+01 -0.40741566753E+01 -0.45637627618E+01  0.89537311266E+01  0.51100000000E-03 0.  1.
        -11    1    3    3    0    0 -0.12453871092E+02  0.25483083220E+02  0.14410237640E+02  0.31814169558E+02  0.51100000000E-03 0. -1.
         12    1    3    3    0    0 -0.17258185239E+02  0.27278683995E+00 -0.67522604353E+01  0.18534087282E+02  0.00000000000E+00 0. -1.
</event>
<event>
 7    1  0.6830263E-012  0.5930192E+02  0.7816164E-02  0.1266605E+00
        -11   -1    0    0    0    0  0.00000000000E+00  0.00000000000E+00  0.45593999997E+02  0.45594000000E+02  0.51100000000E-03 0. -1.
         11   -1    0    0    0    0 -0.00000000000E+00 -0.00000000000E+00 -0.45593999997E+02  0.45594000000E+02  0.51100000000E-03 0.  1.
    9900012    2    1    2    0    0 -0.30913489263E+02 -0.74734147155E+01 -0.22861532654E+01  0.59301917728E+02  0.49999952035E+02 0.  0.
        -12    1    1    2    0    0  0.30913489263E+02  0.74734147155E+01  0.22861532654E+01  0.31886082272E+02  0.00000000000E+00 0.  1.
         11    1    3    3    0    0 -0.80839364877E+00 -0.14673265787E+02 -0.67224451049E+01  0.16160120593E+02  0.51100000000E-03 0. -1.
        -11    1    3    3    0    0  0.42235187423E+01  0.40627815218E+01  0.63196695486E+01  0.86187312132E+01  0.51100000000E-03 0.  1.
         12    1    3    3    0    0 -0.34328614357E+02  0.31370695494E+01 -0.18833777090E+01  0.34523065921E+02  0.00000000000E+00 0. -1.
</event>
<event>
 7    1  0.6830263E-012  0.5930194E+02  0.7816164E-02  0.1266605E+00
        -11   -1    0    0    0    0  0.00000000000E+00  0.00000000000E+00  0.45593999997E+02  0.45594000000E+02  0.51100000000E-03 0. -1.
         11   -1    0    0    0    0 -0.00000000000E+00 -0.00000000000E+00 -0.45593999997E+02  0.45594000000E+02  0.51100000000E-03 0.  1.
    9900012    2    1    2    0    0  0.24224600430E+02  0.54369061793E+01  0.20008239285E+02  0.59301939502E+02  0.49999991746E+02 0.  0.
        -12    1    1    2    0    0 -0.24224600430E+02 -0.54369061793E+01 -0.20008239285E+02  0.31886060498E+02  0.00000000000E+00 0.  1.
         11    1    3    3    0    0  0.14063145778E+02  0.96599790172E+01  0.14291869278E+02  0.22256342725E+02  0.51100000000E-03 0. -1.
        -11    1    3    3    0    0  0.10914202137E+02  0.13369415083E+02  0.84665896838E+01  0.19223532690E+02  0.51100000000E-03 0.  1.
        -12    1    3    3    0    0 -0.75274748530E+00 -0.17592487921E+02 -0.27502196762E+01  0.17822064087E+02  0.00000000000E+00 0.  1.
</event>
<event>
 7    1  0.6830263E-012  0.5930185E+02  0.7816164E-02  0.1266605E+00
        -11   -1    0    0    0    0  0.00000000000E+00  0.00000000000E+00  0.45593999997E+02  0.45594000000E+02  0.51100000000E-03 0.  1.
         11   -1    0    0    0    0 -0.00000000000E+00 -0.00000000000E+00 -0.45593999997E+02  0.45594000000E+02  0.51100000000E-03 0. -1.
    9900012    2    1    2    0    0  0.91000995682E+01 -0.16296843899E+02 -0.25852035091E+02  0.59301848593E+02  0.49999825950E+02 0.  0.
        -12    1    1    2    0    0 -0.91000995682E+01  0.16296843899E+02  0.25852035091E+02  0.31886151407E+02  0.00000000000E+00 0.  1.
         11    1    3    3    0    0  0.56903591492E+00 -0.19422825267E+02 -0.11577455854E+02  0.22618740626E+02  0.51100000000E-03 0. -1.
        -11    1    3    3    0    0 -0.10041064341E+02 -0.68572784987E+01 -0.21113990156E+01  0.12341120191E+02  0.51100000000E-03 0.  1.
         12    1    3    3    0    0  0.18572127994E+02  0.99832598663E+01 -0.12163180221E+02  0.24341987776E+02  0.00000000000E+00 0. -1.
</event>
<event>
 7    1  0.6830263E-012  0.5930193E+02  0.7816164E-02  0.1266605E+00
        -11   -1    0    0    0    0  0.00000000000E+00  0.00000000000E+00  0.45593999997E+02  0.45594000000E+02  0.51100000000E-03 0.  1.
         11   -1    0    0    0    0 -0.00000000000E+00 -0.00000000000E+00 -0.45593999997E+02  0.45594000000E+02  0.51100000000E-03 0. -1.
    9900012    2    1    2    0    0 -0.14377667178E+02  0.14229927471E+02 -0.24647784603E+02  0.59301930391E+02  0.49999975129E+02 0.  0.
        -12    1    1    2    0    0  0.14377667178E+02 -0.14229927471E+02  0.24647784603E+02  0.31886069609E+02  0.00000000000E+00 0.  1.
         11    1    3    3    0    0  0.38813252872E+01  0.29348729240E+01  0.17166360742E+01  0.51599423192E+01  0.51100000000E-03 0. -1.
        -11    1    3    3    0    0 -0.10670235865E+02  0.24110247597E+02 -0.28804987279E+02  0.39049779321E+02  0.51100000000E-03 0.  1.
         12    1    3    3    0    0 -0.75887565996E+01 -0.12815193050E+02  0.24405666018E+01  0.15092208751E+02  0.00000000000E+00 0. -1.
</event>
<event>
 7    1  0.6830263E-012  0.5930194E+02  0.7816164E-02  0.1266605E+00
        -11   -1    0    0    0    0  0.00000000000E+00  0.00000000000E+00  0.45593999997E+02  0.45594000000E+02  0.51100000000E-03 0.  1.
         11   -1    0    0    0    0 -0.00000000000E+00 -0.00000000000E+00 -0.45593999997E+02  0.45594000000E+02  0.51100000000E-03 0. -1.
    9900012    2    1    2    0    0 -0.15017530386E+02 -0.27258576177E+02  0.69400719784E+01  0.59301940458E+02  0.49999993489E+02 0.  0.
        -12    1    1    2    0    0  0.15017530386E+02  0.27258576177E+02 -0.69400719784E+01  0.31886059542E+02  0.00000000000E+00 0.  1.
         11    1    3    3    0    0  0.91843201849E-01 -0.37119092539E+01  0.15735683740E+02  0.16167821390E+02  0.51100000000E-03 0. -1.
        -11    1    3    3    0    0  0.13026328320E+01  0.39217306895E+01  0.64732682439E+01  0.76798454356E+01  0.51100000000E-03 0.  1.
         12    1    3    3    0    0 -0.16412006420E+02 -0.27468397612E+02 -0.15268880006E+02  0.35454273632E+02  0.00000000000E+00 0. -1.
</event>
<event>
 7    1  0.6830263E-012  0.5930195E+02  0.7816164E-02  0.1266605E+00
        -11   -1    0    0    0    0  0.00000000000E+00  0.00000000000E+00  0.45593999997E+02  0.45594000000E+02  0.51100000000E-03 0.  1.
         11   -1    0    0    0    0 -0.00000000000E+00 -0.00000000000E+00 -0.45593999997E+02  0.45594000000E+02  0.51100000000E-03 0. -1.
    9900012    2    1    2    0    0 -0.15346887645E+02 -0.27412826132E+02 -0.54525379557E+01  0.59301950274E+02  0.50000011392E+02 0.  0.
        -12    1    1    2    0    0  0.15346887645E+02  0.27412826132E+02  0.54525379557E+01  0.31886049726E+02  0.00000000000E+00 0.  1.
         11    1    3    3    0    0 -0.16956296475E+02 -0.20346246534E+02 -0.51212408106E+01  0.26976153282E+02  0.51100000000E-03 0. -1.
        -11    1    3    3    0    0 -0.41770737768E+01  0.46064103448E+01 -0.12838766922E+02  0.14265374091E+02  0.51100000000E-03 0.  1.
         12    1    3    3    0    0  0.57864826071E+01 -0.11672989943E+02  0.12507469777E+02  0.18060422902E+02  0.00000000000E+00 0. -1.
</event>
<event>
 7    1  0.6830263E-012  0.5930210E+02  0.7816164E-02  0.1266604E+00
        -11   -1    0    0    0    0  0.00000000000E+00  0.00000000000E+00  0.45593999997E+02  0.45594000000E+02  0.51100000000E-03 0.  1.
         11   -1    0    0    0    0 -0.00000000000E+00 -0.00000000000E+00 -0.45593999997E+02  0.45594000000E+02  0.51100000000E-03 0. -1.
    9900012    2    1    2    0    0 -0.31196558151E+02 -0.22430312221E+01 -0.62011652676E+01  0.59302095901E+02  0.50000276979E+02 0.  0.
        -12    1    1    2    0    0  0.31196558151E+02  0.22430312221E+01  0.62011652676E+01  0.31885904099E+02  0.00000000000E+00 0.  1.
         11    1    3    3    0    0 -0.41599215918E+01  0.65678923267E+01 -0.12627230345E+02  0.14828658190E+02  0.51100000000E-03 0. -1.
        -11    1    3    3    0    0 -0.32893735274E+01  0.85623998929E+01  0.11400142504E+02  0.14632085275E+02  0.51100000000E-03 0.  1.
         12    1    3    3    0    0 -0.23747263032E+02 -0.17373323442E+02 -0.49740774262E+01  0.29841352435E+02  0.00000000000E+00 0. -1.
</event>
<event>
 7    1  0.6830263E-012  0.5930201E+02  0.7816164E-02  0.1266605E+00
        -11   -1    0    0    0    0  0.00000000000E+00  0.00000000000E+00  0.45593999997E+02  0.45594000000E+02  0.51100000000E-03 0. -1.
         11   -1    0    0    0    0 -0.00000000000E+00 -0.00000000000E+00 -0.45593999997E+02  0.45594000000E+02  0.51100000000E-03 0.  1.
    9900012    2    1    2    0    0  0.13504440833E+02  0.28667466505E+02  0.35387838660E+01  0.59302007005E+02  0.50000114856E+02 0.  0.
        -12    1    1    2    0    0 -0.13504440833E+02 -0.28667466505E+02 -0.35387838660E+01  0.31885992995E+02  0.00000000000E+00 0.  1.
         11    1    3    3    0    0  0.28703465104E+01 -0.24123069431E+01  0.14901743023E+02  0.15366198595E+02  0.51100000000E-03 0. -1.
        -11    1    3    3    0    0  0.10387962307E+01 -0.30893468467E+01  0.40873671026E+01  0.52277845825E+01  0.51100000000E-03 0.  1.
        -12    1    3    3    0    0  0.95952980919E+01  0.34169120294E+02 -0.15450326259E+02  0.38708023828E+02  0.00000000000E+00 0.  1.
</event>
<event>
 7    1  0.6830263E-012  0.5930196E+02  0.7816164E-02  0.1266605E+00
        -11   -1    0    0    0    0  0.00000000000E+00  0.00000000000E+00  0.45593999997E+02  0.45594000000E+02  0.51100000000E-03 0. -1.
         11   -1    0    0    0    0 -0.00000000000E+00 -0.00000000000E+00 -0.45593999997E+02  0.45594000000E+02  0.51100000000E-03 0.  1.
    9900012    2    1    2    0    0  0.12916667072E+02  0.21969769381E+02 -0.19162691330E+02  0.59301956126E+02  0.50000022065E+02 0.  0.
        -12    1    1    2    0    0 -0.12916667072E+02 -0.21969769381E+02  0.19162691330E+02  0.31886043874E+02  0.00000000000E+00 0.  1.
         11    1    3    3    0    0  0.74214496845E+01  0.45764668737E+00  0.51606936439E+01  0.90509731553E+01  0.51100000000E-03 0. -1.
        -11    1    3    3    0    0 -0.80375735669E+01  0.79133355211E+01  0.71763732654E+01  0.13368762150E+02  0.51100000000E-03 0.  1.
        -12    1    3    3    0    0  0.13532790955E+02  0.13598787173E+02 -0.31499758239E+02  0.36882220821E+02  0.00000000000E+00 0.  1.
</event>
<event>
 7    1  0.6830263E-012  0.5930195E+02  0.7816164E-02  0.1266605E+00
        -11   -1    0    0    0    0  0.00000000000E+00  0.00000000000E+00  0.45593999997E+02  0.45594000000E+02  0.51100000000E-03 0.  1.
         11   -1    0    0    0    0 -0.00000000000E+00 -0.00000000000E+00 -0.45593999997E+02  0.45594000000E+02  0.51100000000E-03 0. -1.
    9900012    2    1    2    0    0  0.29912581952E+02 -0.29531779437E+01 -0.10641247414E+02  0.59301953435E+02  0.50000017157E+02 0.  0.
        -12    1    1    2    0    0 -0.29912581952E+02  0.29531779437E+01  0.10641247414E+02  0.31886046565E+02  0.00000000000E+00 0.  1.
         11    1    3    3    0    0  0.32141350786E+02 -0.26959989404E+01 -0.24394334041E+02  0.40440306307E+02  0.51100000000E-03 0. -1.
        -11    1    3    3    0    0 -0.17465334570E+00  0.52721709263E+00 -0.24489261164E+01  0.25111154969E+01  0.51100000000E-03 0.  1.
        -12    1    3    3    0    0 -0.20541154885E+01 -0.78439609598E+00  0.16202012744E+02  0.16350531631E+02  0.00000000000E+00 0.  1.
</event>
<event>
 7    1  0.6830263E-012  0.5930195E+02  0.7816164E-02  0.1266605E+00
        -11   -1    0    0    0    0  0.00000000000E+00  0.00000000000E+00  0.45593999997E+02  0.45594000000E+02  0.51100000000E-03 0. -1.
         11   -1    0    0    0    0 -0.00000000000E+00 -0.00000000000E+00 -0.45593999997E+02  0.45594000000E+02  0.51100000000E-03 0.  1.
    9900012    2    1    2    0    0 -0.20752322716E+02  0.25043444151E+01 -0.24078818214E+02  0.59301950924E+02  0.50000012578E+02 0.  0.
        -12    1    1    2    0    0  0.20752322716E+02 -0.25043444151E+01  0.24078818214E+02  0.31886049076E+02  0.00000000000E+00 0.  1.
         11    1    3    3    0    0 -0.20938811827E+02 -0.10605955995E+02 -0.16923827471E+02  0.28936760009E+02  0.51100000000E-03 0. -1.
        -11    1    3    3    0    0 -0.61356892616E+01 -0.62359343993E+01 -0.45055959633E+01  0.98404245738E+01  0.51100000000E-03 0.  1.
        -12    1    3    3    0    0  0.63221783723E+01  0.19346234809E+02 -0.26493947800E+01  0.20524766341E+02  0.00000000000E+00 0.  1.
</event>
<event>
 7    1  0.6830263E-012  0.5930193E+02  0.7816164E-02  0.1266605E+00
        -11   -1    0    0    0    0  0.00000000000E+00  0.00000000000E+00  0.45593999997E+02  0.45594000000E+02  0.51100000000E-03 0. -1.
         11   -1    0    0    0    0 -0.00000000000E+00 -0.00000000000E+00 -0.45593999997E+02  0.45594000000E+02  0.51100000000E-03 0.  1.
    9900012    2    1    2    0    0  0.29563564441E+02  0.11766254685E+02 -0.20670340343E+01  0.59301925901E+02  0.49999966941E+02 0.  0.
        -12    1    1    2    0    0 -0.29563564441E+02 -0.11766254685E+02  0.20670340343E+01  0.31886074099E+02  0.00000000000E+00 0.  1.
         11    1    3    3    0    0  0.13987445260E+02  0.14179080803E+02 -0.23136964645E+01  0.20051138344E+02  0.51100000000E-03 0. -1.
        -11    1    3    3    0    0  0.19997559895E+01  0.83335767040E+01 -0.14276670031E+02  0.16651451352E+02  0.51100000000E-03 0.  1.
        -12    1    3    3    0    0  0.13576363191E+02 -0.10746402822E+02  0.14523332461E+02  0.22599336204E+02  0.00000000000E+00 0.  1.
</event>
<event>
 7    1  0.6830263E-012  0.5930202E+02  0.7816164E-02  0.1266604E+00
        -11   -1    0    0    0    0  0.00000000000E+00  0.00000000000E+00  0.45593999997E+02  0.45594000000E+02  0.51100000000E-03 0.  1.
         11   -1    0    0    0    0 -0.00000000000E+00 -0.00000000000E+00 -0.45593999997E+02  0.45594000000E+02  0.51100000000E-03 0. -1.
    9900012    2    1    2    0    0 -0.28046006218E+01 -0.16910408752E+02 -0.26886574226E+02  0.59302022166E+02  0.50000142506E+02 0.  0.
        -12    1    1    2    0    0  0.28046006218E+01  0.16910408752E+02  0.26886574226E+02  0.31885977834E+02  0.00000000000E+00 0.  1.
         11    1    3    3    0    0  0.51697133727E+01  0.74379738573E+01 -0.10420550628E+02  0.13807145509E+02  0.51100000000E-03 0. -1.
        -11    1    3    3    0    0 -0.15297492239E+01  0.86335188702E+01 -0.26464353063E+01  0.91586789911E+01  0.51100000000E-03 0.  1.
         12    1    3    3    0    0 -0.64445647707E+01 -0.32981901479E+02 -0.13819588292E+02  0.36336197666E+02  0.00000000000E+00 0. -1.
</event>
<event>
 7    1  0.6830263E-012  0.5930194E+02  0.7816164E-02  0.1266605E+00
        -11   -1    0    0    0    0  0.00000000000E+00  0.00000000000E+00  0.45593999997E+02  0.45594000000E+02  0.51100000000E-03 0.  1.
         11   -1    0    0    0    0 -0.00000000000E+00 -0.00000000000E+00 -0.45593999997E+02  0.45594000000E+02  0.51100000000E-03 0. -1.
    9900012    2    1    2    0    0 -0.18605979228E+02 -0.22569397127E+02 -0.12694917633E+02  0.59301935906E+02  0.49999985188E+02 0.  0.
        -12    1    1    2    0    0  0.18605979228E+02  0.22569397127E+02  0.12694917633E+02  0.31886064094E+02  0.00000000000E+00 0.  1.
         11    1    3    3    0    0 -0.23035243993E+02 -0.32462378187E+01 -0.52092849054E+01  0.23838984360E+02  0.51100000000E-03 0. -1.
        -11    1    3    3    0    0 -0.62624529530E+01 -0.56221128464E+01  0.84195180226E+01  0.11904400608E+02  0.51100000000E-03 0.  1.
         12    1    3    3    0    0  0.10691717719E+02 -0.13701046462E+02 -0.15905150750E+02  0.23558550938E+02  0.00000000000E+00 0. -1.
</event>
<event>
 7    1  0.6830263E-012  0.5930191E+02  0.7816164E-02  0.1266605E+00
        -11   -1    0    0    0    0  0.00000000000E+00  0.00000000000E+00  0.45593999997E+02  0.45594000000E+02  0.51100000000E-03 0.  1.
         11   -1    0    0    0    0 -0.00000000000E+00 -0.00000000000E+00 -0.45593999997E+02  0.45594000000E+02  0.51100000000E-03 0. -1.
    9900012    2    1    2    0    0  0.26703374213E+02 -0.74933574427E+01 -0.15732209920E+02  0.59301905396E+02  0.49999929545E+02 0.  0.
        -12    1    1    2    0    0 -0.26703374213E+02  0.74933574427E+01  0.15732209920E+02  0.31886094604E+02  0.00000000000E+00 0.  1.
         11    1    3    3    0    0  0.43952115343E+01  0.95856720088E+01 -0.44088911959E+01  0.11429843137E+02  0.51100000000E-03 0. -1.
        -11    1    3    3    0    0  0.23168016282E+02 -0.23689887486E+02  0.17662362286E+01  0.33182636095E+02  0.51100000000E-03 0.  1.
         12    1    3    3    0    0 -0.85985360359E+00  0.66108580347E+01 -0.13089554953E+02  0.14689426164E+02  0.00000000000E+00 0. -1.
</event>
<event>
 7    1  0.6830263E-012  0.5930199E+02  0.7816164E-02  0.1266605E+00
        -11   -1    0    0    0    0  0.00000000000E+00  0.00000000000E+00  0.45593999997E+02  0.45594000000E+02  0.51100000000E-03 0. -1.
         11   -1    0    0    0    0 -0.00000000000E+00 -0.00000000000E+00 -0.45593999997E+02  0.45594000000E+02  0.51100000000E-03 0.  1.
    9900012    2    1    2    0    0  0.12058660128E+02 -0.10900487204E+02  0.27431469193E+02  0.59301993549E+02  0.50000090314E+02 0.  0.
        -12    1    1    2    0    0 -0.12058660128E+02  0.10900487204E+02 -0.27431469193E+02  0.31886006451E+02  0.00000000000E+00 0.  1.
         11    1    3    3    0    0  0.11251307795E+02 -0.19950726789E+02  0.24290739305E+01  0.23033102851E+02  0.51100000000E-03 0. -1.
        -11    1    3    3    0    0  0.18973532913E+01 -0.83524937410E+01  0.58753552942E+01  0.10386717542E+02  0.51100000000E-03 0.  1.
        -12    1    3    3    0    0 -0.10900009585E+01  0.17402733326E+02  0.19127039968E+02  0.25882173156E+02  0.00000000000E+00 0.  1.
</event>
<event>
 7    1  0.6830263E-012  0.5930190E+02  0.7816164E-02  0.1266605E+00
        -11   -1    0    0    0    0  0.00000000000E+00  0.00000000000E+00  0.45593999997E+02  0.45594000000E+02  0.51100000000E-03 0. -1.
         11   -1    0    0    0    0 -0.00000000000E+00 -0.00000000000E+00 -0.45593999997E+02  0.45594000000E+02  0.51100000000E-03 0.  1.
    9900012    2    1    2    0    0  0.30455056492E+02 -0.65935932536E+01  0.67629346004E+01  0.59301902366E+02  0.49999924020E+02 0.  0.
        -12    1    1    2    0    0 -0.30455056492E+02  0.65935932536E+01 -0.67629346004E+01  0.31886097634E+02  0.00000000000E+00 0.  1.
         11    1    3    3    0    0 -0.26138842453E+01  0.90860127556E+01 -0.76129502685E+01  0.12138576140E+02  0.51100000000E-03 0. -1.
        -11    1    3    3    0    0  0.11544515026E+02  0.51517460681E+00  0.16498891448E+02  0.20143352535E+02  0.51100000000E-03 0.  1.
        -12    1    3    3    0    0  0.21524425711E+02 -0.16194780616E+02 -0.21230065792E+01  0.27019973692E+02  0.00000000000E+00 0.  1.
</event>
<event>
 7    1  0.6830263E-012  0.5930193E+02  0.7816164E-02  0.1266605E+00
        -11   -1    0    0    0    0  0.00000000000E+00  0.00000000000E+00  0.45593999997E+02  0.45594000000E+02  0.51100000000E-03 0. -1.
         11   -1    0    0    0    0 -0.00000000000E+00 -0.00000000000E+00 -0.45593999997E+02  0.45594000000E+02  0.51100000000E-03 0.  1.
    9900012    2    1    2    0    0  0.27793112508E+02  0.13312655598E+02  0.81876277079E+01  0.59301934870E+02  0.49999983299E+02 0.  0.
        -12    1    1    2    0    0 -0.27793112508E+02 -0.13312655598E+02 -0.81876277079E+01  0.31886065130E+02  0.00000000000E+00 0.  1.
         11    1    3    3    0    0  0.41834441929E+01 -0.55358312860E+01 -0.57423418573E+01  0.90067265757E+01  0.51100000000E-03 0. -1.
        -11    1    3    3    0    0 -0.52498070858E+01  0.14420289391E+02 -0.42207711734E+01  0.15916033744E+02  0.51100000000E-03 0.  1.
        -12    1    3    3    0    0  0.28859475401E+02  0.44281974925E+01  0.18150740739E+02  0.34379174551E+02  0.00000000000E+00 0.  1.
</event>
<event>
 7    1  0.6830263E-012  0.5930202E+02  0.7816164E-02  0.1266605E+00
        -11   -1    0    0    0    0  0.00000000000E+00  0.00000000000E+00  0.45593999997E+02  0.45594000000E+02  0.51100000000E-03 0.  1.
         11   -1    0    0    0    0 -0.00000000000E+00 -0.00000000000E+00 -0.45593999997E+02  0.45594000000E+02  0.51100000000E-03 0. -1.
    9900012    2    1    2    0    0  0.15746845979E+02  0.43552193469E+00 -0.27722971989E+02  0.59302015406E+02  0.50000130177E+02 0.  0.
        -12    1    1    2    0    0 -0.15746845979E+02 -0.43552193469E+00  0.27722971989E+02  0.31885984594E+02  0.00000000000E+00 0.  1.
         11    1    3    3    0    0 -0.37176113977E+01 -0.46306814512E+01 -0.10375383449E+02  0.11954598579E+02  0.51100000000E-03 0. -1.
        -11    1    3    3    0    0 -0.10428828022E+02  0.20089560785E+01 -0.13310259937E+02  0.17028193630E+02  0.51100000000E-03 0.  1.
         12    1    3    3    0    0  0.29893285399E+02  0.30572473074E+01 -0.40373286023E+01  0.30319223197E+02  0.00000000000E+00 0. -1.
</event>
<event>
 7    1  0.6830263E-012  0.5930201E+02  0.7816164E-02  0.1266605E+00
        -11   -1    0    0    0    0  0.00000000000E+00  0.00000000000E+00  0.45593999997E+02  0.45594000000E+02  0.51100000000E-03 0.  1.
         11   -1    0    0    0    0 -0.00000000000E+00 -0.00000000000E+00 -0.45593999997E+02  0.45594000000E+02  0.51100000000E-03 0. -1.
    9900012    2    1    2    0    0  0.54541660256E+01  0.85107268518E+01 -0.30241291297E+02  0.59302014083E+02  0.50000127764E+02 0.  0.
        -12    1    1    2    0    0 -0.54541660256E+01 -0.85107268518E+01  0.30241291297E+02  0.31885985917E+02  0.00000000000E+00 0.  1.
         11    1    3    3    0    0 -0.48945445015E+01  0.19391176617E+01 -0.22571351968E+02  0.23177201580E+02  0.51100000000E-03 0. -1.
        -11    1    3    3    0    0 -0.60378203326E+01  0.86383310825E+01  0.80973305453E+01  0.13290703536E+02  0.51100000000E-03 0.  1.
         12    1    3    3    0    0  0.16386530860E+02 -0.20667218924E+01 -0.15767269875E+02  0.22834108967E+02  0.00000000000E+00 0. -1.
</event>
<event>
 7    1  0.6830263E-012  0.5930198E+02  0.7816164E-02  0.1266605E+00
        -11   -1    0    0    0    0  0.00000000000E+00  0.00000000000E+00  0.45593999997E+02  0.45594000000E+02  0.51100000000E-03 0.  1.
         11   -1    0    0    0    0 -0.00000000000E+00 -0.00000000000E+00 -0.45593999997E+02  0.45594000000E+02  0.51100000000E-03 0. -1.
    9900012    2    1    2    0    0  0.18863150208E+02 -0.15541944003E+02 -0.20477987511E+02  0.59301977487E+02  0.50000061022E+02 0.  0.
        -12    1    1    2    0    0 -0.18863150208E+02  0.15541944003E+02  0.20477987511E+02  0.31886022513E+02  0.00000000000E+00 0.  1.
         11    1    3    3    0    0  0.84231038204E+01  0.63096862792E+01 -0.13353690567E+02  0.17002407798E+02  0.51100000000E-03 0. -1.
        -11    1    3    3    0    0  0.87305366874E+01 -0.12243115075E+02 -0.20696716491E+02  0.25582615412E+02  0.51100000000E-03 0.  1.
        -12    1    3    3    0    0  0.17095097005E+01 -0.96085152081E+01  0.13572419547E+02  0.16716954276E+02  0.00000000000E+00 0.  1.
</event>
<event>
 7    1  0.6830263E-012  0.5930187E+02  0.7816164E-02  0.1266605E+00
        -11   -1    0    0    0    0  0.00000000000E+00  0.00000000000E+00  0.45593999997E+02  0.45594000000E+02  0.51100000000E-03 0.  1.
         11   -1    0    0    0    0 -0.00000000000E+00 -0.00000000000E+00 -0.45593999997E+02  0.45594000000E+02  0.51100000000E-03 0. -1.
    9900012    2    1    2    0    0  0.36001752141E+01 -0.81388550995E+01 -0.30618999324E+02  0.59301869104E+02  0.49999863357E+02 0.  0.
        -12    1    1    2    0    0 -0.36001752141E+01  0.81388550995E+01  0.30618999324E+02  0.31886130896E+02  0.00000000000E+00 0.  1.
         11    1    3    3    0    0 -0.68016979755E+01 -0.15016037269E+02 -0.25469655522E+02  0.30338883026E+02  0.51100000000E-03 0. -1.
        -11    1    3    3    0    0 -0.66988091719E+01 -0.24447623963E+01 -0.62124305659E+01  0.94575473191E+01  0.51100000000E-03 0.  1.
        -12    1    3    3    0    0  0.17100682362E+02  0.93219445654E+01  0.10630867630E+01  0.19505438759E+02  0.00000000000E+00 0.  1.
</event>
<event>
 7    1  0.6830263E-012  0.5930195E+02  0.7816164E-02  0.1266605E+00
        -11   -1    0    0    0    0  0.00000000000E+00  0.00000000000E+00  0.45593999997E+02  0.45594000000E+02  0.51100000000E-03 0.  1.
         11   -1    0    0    0    0 -0.00000000000E+00 -0.00000000000E+00 -0.45593999997E+02  0.45594000000E+02  0.51100000000E-03 0. -1.
    9900012    2    1    2    0    0  0.30159083877E+02  0.10273059788E+02 -0.12703418147E+01  0.59301954996E+02  0.50000020003E+02 0.  0.
        -12    1    1    2    0    0 -0.30159083877E+02 -0.10273059788E+02  0.12703418147E+01  0.31886045004E+02  0.00000000000E+00 0.  1.
         11    1    3    3    0    0 -0.47481588787E+01  0.10275225073E+02 -0.90558426379E+01  0.14495983898E+02  0.51100000000E-03 0. -1.
        -11    1    3    3    0    0  0.22939785564E+02  0.10486872800E+02  0.12579507476E+02  0.28186029721E+02  0.51100000000E-03 0.  1.
         12    1    3    3    0    0  0.11967457191E+02 -0.10489038085E+02 -0.47940066525E+01  0.16619941376E+02  0.00000000000E+00 0. -1.
</event>
<event>
 7    1  0.6830263E-012  0.5930222E+02  0.7816164E-02  0.1266604E+00
        -11   -1    0    0    0    0  0.00000000000E+00  0.00000000000E+00  0.45593999997E+02  0.45594000000E+02  0.51100000000E-03 0. -1.
         11   -1    0    0    0    0 -0.00000000000E+00 -0.00000000000E+00 -0.45593999997E+02  0.45594000000E+02  0.51100000000E-03 0.  1.
    9900012    2    1    2    0    0 -0.12363873498E+02 -0.28911497989E+02 -0.52879920113E+01  0.59302220358E+02  0.50000503958E+02 0.  0.
        -12    1    1    2    0    0  0.12363873498E+02  0.28911497989E+02  0.52879920113E+01  0.31885779642E+02  0.00000000000E+00 0.  1.
         11    1    3    3    0    0 -0.11640032159E+02 -0.15432687709E+02  0.76703387592E+01  0.20796449109E+02  0.51100000000E-03 0. -1.
        -11    1    3    3    0    0 -0.61150427174E+01  0.24229423025E+01 -0.19428323386E+02  0.20511561293E+02  0.51100000000E-03 0.  1.
         12    1    3    3    0    0  0.53912013791E+01 -0.15901752582E+02  0.64699926156E+01  0.17994209956E+02  0.00000000000E+00 0. -1.
</event>
<event>
 7    1  0.6830263E-012  0.5930195E+02  0.7816164E-02  0.1266605E+00
        -11   -1    0    0    0    0  0.00000000000E+00  0.00000000000E+00  0.45593999997E+02  0.45594000000E+02  0.51100000000E-03 0. -1.
         11   -1    0    0    0    0 -0.00000000000E+00 -0.00000000000E+00 -0.45593999997E+02  0.45594000000E+02  0.51100000000E-03 0.  1.
    9900012    2    1    2    0    0  0.11908336490E+02  0.24321539084E+02  0.16833736402E+02  0.59301946268E+02  0.50000004085E+02 0.  0.
        -12    1    1    2    0    0 -0.11908336490E+02 -0.24321539084E+02 -0.16833736402E+02  0.31886053732E+02  0.00000000000E+00 0.  1.
         11    1    3    3    0    0  0.48084289874E+01  0.84337580613E+01  0.17289829272E+02  0.19828955113E+02  0.51100000000E-03 0. -1.
        -11    1    3    3    0    0  0.13291089248E+02 -0.49579928130E+01  0.78286402750E+01  0.16202541620E+02  0.51100000000E-03 0.  1.
        -12    1    3    3    0    0 -0.61911817459E+01  0.20845773836E+02 -0.82847331454E+01  0.23270449534E+02  0.00000000000E+00 0.  1.
</event>
<event>
 7    1  0.6830263E-012  0.5930193E+02  0.7816164E-02  0.1266605E+00
        -11   -1    0    0    0    0  0.00000000000E+00  0.00000000000E+00  0.45593999997E+02  0.45594000000E+02  0.51100000000E-03 0.  1.
         11   -1    0    0    0    0 -0.00000000000E+00 -0.00000000000E+00 -0.45593999997E+02  0.45594000000E+02  0.51100000000E-03 0. -1.
    9900012    2    1    2    0    0 -0.11490846217E+02 -0.12075122065E+02 -0.27182225446E+02  0.59301929376E+02  0.49999973278E+02 0.  0.
        -12    1    1    2    0    0  0.11490846217E+02  0.12075122065E+02  0.27182225446E+02  0.31886070624E+02  0.00000000000E+00 0.  1.
         11    1    3    3    0    0  0.27616819471E+01  0.31285273339E+01 -0.15250206843E+02  0.15810862705E+02  0.51100000000E-03 0. -1.
        -11    1    3    3    0    0 -0.28993334865E+00 -0.11404739493E+02 -0.22732498979E+02  0.25434595619E+02  0.51100000000E-03 0.  1.
         12    1    3    3    0    0 -0.13962594816E+02 -0.37989099061E+01  0.10800480376E+02  0.18056471051E+02  0.00000000000E+00 0. -1.
</event>
<event>
 7    1  0.6830263E-012  0.5930194E+02  0.7816164E-02  0.1266605E+00
        -11   -1    0    0    0    0  0.00000000000E+00  0.00000000000E+00  0.45593999997E+02  0.45594000000E+02  0.51100000000E-03 0.  1.
         11   -1    0    0    0    0 -0.00000000000E+00 -0.00000000000E+00 -0.45593999997E+02  0.45594000000E+02  0.51100000000E-03 0. -1.
    9900012    2    1    2    0    0 -0.97505786760E+00  0.11550059176E+02 -0.29704650093E+02  0.59301939692E+02  0.49999992092E+02 0.  0.
        -12    1    1    2    0    0  0.97505786760E+00 -0.11550059176E+02  0.29704650093E+02  0.31886060308E+02  0.00000000000E+00 0.  1.
         11    1    3    3    0    0 -0.47820995657E+01  0.23760959778E+02 -0.24159367360E+01  0.24357512935E+02  0.51100000000E-03 0. -1.
        -11    1    3    3    0    0  0.69946601960E+01 -0.30299442544E+01 -0.20416153412E+01  0.78913894153E+01  0.51100000000E-03 0.  1.
        -12    1    3    3    0    0 -0.31876184979E+01 -0.91809563473E+01 -0.25247098016E+02  0.27053037341E+02  0.00000000000E+00 0.  1.
</event>
<event>
 7    1  0.6830263E-012  0.5930194E+02  0.7816164E-02  0.1266605E+00
        -11   -1    0    0    0    0  0.00000000000E+00  0.00000000000E+00  0.45593999997E+02  0.45594000000E+02  0.51100000000E-03 0.  1.
         11   -1    0    0    0    0 -0.00000000000E+00 -0.00000000000E+00 -0.45593999997E+02  0.45594000000E+02  0.51100000000E-03 0. -1.
    9900012    2    1    2    0    0 -0.22400492594E+02  0.76861862240E+00 -0.22679241481E+02  0.59301939767E+02  0.49999992230E+02 0.  0.
        -12    1    1    2    0    0  0.22400492594E+02 -0.76861862240E+00  0.22679241481E+02  0.31886060233E+02  0.00000000000E+00 0.  1.
         11    1    3    3    0    0 -0.19486403837E+02  0.80017263239E+01 -0.17701152573E+02  0.27515056993E+02  0.51100000000E-03 0. -1.
        -11    1    3    3    0    0 -0.25155160790E+01  0.11947721510E+02 -0.19164484818E+01  0.12359152296E+02  0.51100000000E-03 0.  1.
        -12    1    3    3    0    0 -0.39857267753E+00 -0.19180829212E+02 -0.30616404258E+01  0.19427730478E+02  0.00000000000E+00 0.  1.
</event>
<event>
 7    1  0.6830263E-012  0.5930195E+02  0.7816164E-02  0.1266605E+00
        -11   -1    0    0    0    0  0.00000000000E+00  0.00000000000E+00  0.45593999997E+02  0.45594000000E+02  0.51100000000E-03 0.  1.
         11   -1    0    0    0    0 -0.00000000000E+00 -0.00000000000E+00 -0.45593999997E+02  0.45594000000E+02  0.51100000000E-03 0. -1.
    9900012    2    1    2    0    0  0.20345691106E+02  0.14448998463E+02 -0.19849425216E+02  0.59301946864E+02  0.50000005173E+02 0.  0.
        -12    1    1    2    0    0 -0.20345691106E+02 -0.14448998463E+02  0.19849425216E+02  0.31886053136E+02  0.00000000000E+00 0.  1.
         11    1    3    3    0    0  0.66454367878E+01  0.18413347570E+01 -0.72845347902E+01  0.10030792150E+02  0.51100000000E-03 0. -1.
        -11    1    3    3    0    0  0.20612966884E+02  0.25508585528E+02 -0.65315152761E+01  0.33440141020E+02  0.51100000000E-03 0.  1.
         12    1    3    3    0    0 -0.69127125659E+01 -0.12900921822E+02 -0.60333751502E+01  0.15831013694E+02  0.00000000000E+00 0. -1.
</event>
<event>
 7    1  0.6830263E-012  0.5930227E+02  0.7816164E-02  0.1266604E+00
        -11   -1    0    0    0    0  0.00000000000E+00  0.00000000000E+00  0.45593999997E+02  0.45594000000E+02  0.51100000000E-03 0. -1.
         11   -1    0    0    0    0 -0.00000000000E+00 -0.00000000000E+00 -0.45593999997E+02  0.45594000000E+02  0.51100000000E-03 0.  1.
    9900012    2    1    2    0    0 -0.29904878498E+02  0.10253592692E+02 -0.41547285976E+01  0.59302271361E+02  0.50000596975E+02 0.  0.
        -12    1    1    2    0    0  0.29904878498E+02 -0.10253592692E+02  0.41547285976E+01  0.31885728639E+02  0.00000000000E+00 0.  1.
         11    1    3    3    0    0 -0.18831244221E+02  0.11522842233E+02 -0.19346946286E+02  0.29354658623E+02  0.51100000000E-03 0. -1.
        -11    1    3    3    0    0 -0.85422133428E+01 -0.81610186250E+01 -0.13093990999E+01  0.11886385492E+02  0.51100000000E-03 0.  1.
        -12    1    3    3    0    0 -0.25314209351E+01  0.68917690838E+01  0.16501616788E+02  0.18061227247E+02  0.00000000000E+00 0.  1.
</event>
<event>
 7    1  0.6830263E-012  0.5930233E+02  0.7816164E-02  0.1266603E+00
        -11   -1    0    0    0    0  0.00000000000E+00  0.00000000000E+00  0.45593999997E+02  0.45594000000E+02  0.51100000000E-03 0.  1.
         11   -1    0    0    0    0 -0.00000000000E+00 -0.00000000000E+00 -0.45593999997E+02  0.45594000000E+02  0.51100000000E-03 0. -1.
    9900012    2    1    2    0    0  0.23631253211E+02 -0.18790591354E+02  0.10255420753E+02  0.59302327566E+02  0.50000699477E+02 0.  0.
        -12    1    1    2    0    0 -0.23631253211E+02  0.18790591354E+02 -0.10255420753E+02  0.31885672434E+02  0.00000000000E+00 0.  1.
         11    1    3    3    0    0 -0.29639465479E+01 -0.69289511893E-01 -0.19632490625E+01  0.35558581689E+01  0.51100000000E-03 0. -1.
        -11    1    3    3    0    0 -0.11854898063E-01 -0.10497040505E+02 -0.13999432012E+02  0.17497774053E+02  0.51100000000E-03 0.  1.
         12    1    3    3    0    0  0.26607054657E+02 -0.82242613368E+01  0.26218101827E+02  0.38248695344E+02  0.00000000000E+00 0. -1.
</event>
<event>
 7    1  0.6830263E-012  0.5930193E+02  0.7816164E-02  0.1266605E+00
        -11   -1    0    0    0    0  0.00000000000E+00  0.00000000000E+00  0.45593999997E+02  0.45594000000E+02  0.51100000000E-03 0. -1.
         11   -1    0    0    0    0 -0.00000000000E+00 -0.00000000000E+00 -0.45593999997E+02  0.45594000000E+02  0.51100000000E-03 0.  1.
    9900012    2    1    2    0    0 -0.91366338597E+01  0.30432751661E+01  0.30397070028E+02  0.59301929871E+02  0.49999974181E+02 0.  0.
        -12    1    1    2    0    0  0.91366338597E+01 -0.30432751661E+01 -0.30397070028E+02  0.31886070129E+02  0.00000000000E+00 0.  1.
         11    1    3    3    0    0  0.12683158943E+02  0.76427264818E+01  0.17047420296E+02  0.22580706983E+02  0.51100000000E-03 0. -1.
        -11    1    3    3    0    0 -0.18548252981E+02 -0.24864466405E+01  0.21004867735E+02  0.28132269271E+02  0.51100000000E-03 0.  1.
        -12    1    3    3    0    0 -0.32715398217E+01 -0.21130046753E+01 -0.76552180027E+01  0.85889536168E+01  0.00000000000E+00 0.  1.
</event>
<event>
 7    1  0.6830263E-012  0.5930195E+02  0.7816164E-02  0.1266605E+00
        -11   -1    0    0    0    0  0.00000000000E+00  0.00000000000E+00  0.45593999997E+02  0.45594000000E+02  0.51100000000E-03 0. -1.
         11   -1    0    0    0    0 -0.00000000000E+00 -0.00000000000E+00 -0.45593999997E+02  0.45594000000E+02  0.51100000000E-03 0.  1.
    9900012    2    1    2    0    0  0.17795421475E+02 -0.33889634546E+01 -0.26240390341E+02  0.59301950009E+02  0.50000010908E+02 0.  0.
        -12    1    1    2    0    0 -0.17795421475E+02  0.33889634546E+01  0.26240390341E+02  0.31886049991E+02  0.00000000000E+00 0.  1.
         11    1    3    3    0    0  0.10678233316E+02 -0.10972709362E+02 -0.14073310357E+02  0.20796227594E+02  0.51100000000E-03 0. -1.
        -11    1    3    3    0    0  0.18245875378E+02 -0.45447762327E+01 -0.14401657799E+01  0.18858447366E+02  0.51100000000E-03 0.  1.
        -12    1    3    3    0    0 -0.11128687219E+02  0.12128522140E+02 -0.10726914204E+02  0.19647275049E+02  0.00000000000E+00 0.  1.
</event>
<event>
 7    1  0.6830263E-012  0.5930195E+02  0.7816164E-02  0.1266605E+00
        -11   -1    0    0    0    0  0.00000000000E+00  0.00000000000E+00  0.45593999997E+02  0.45594000000E+02  0.51100000000E-03 0.  1.
         11   -1    0    0    0    0 -0.00000000000E+00 -0.00000000000E+00 -0.45593999997E+02  0.45594000000E+02  0.51100000000E-03 0. -1.
    9900012    2    1    2    0    0  0.13337477203E+02  0.22817352443E+02  0.17838172955E+02  0.59301948426E+02  0.50000008021E+02 0.  0.
        -12    1    1    2    0    0 -0.13337477203E+02 -0.22817352443E+02 -0.17838172955E+02  0.31886051574E+02  0.00000000000E+00 0.  1.
         11    1    3    3    0    0 -0.24378821598E+01 -0.84320748494E+01  0.23391417152E+01  0.90837624317E+01  0.51100000000E-03 0. -1.
        -11    1    3    3    0    0  0.68591606497E+00  0.26439002847E+02  0.20660051831E+02  0.33560826782E+02  0.51100000000E-03 0.  1.
         12    1    3    3    0    0  0.15089443297E+02  0.48104244448E+01 -0.51610205916E+01  0.16657359212E+02  0.00000000000E+00 0. -1.
</event>
<event>
 7    1  0.6830263E-012  0.5930198E+02  0.7816164E-02  0.1266605E+00
        -11   -1    0    0    0    0  0.00000000000E+00  0.00000000000E+00  0.45593999997E+02  0.45594000000E+02  0.51100000000E-03 0.  1.
         11   -1    0    0    0    0 -0.00000000000E+00 -0.00000000000E+00 -0.45593999997E+02  0.45594000000E+02  0.51100000000E-03 0. -1.
    9900012    2    1    2    0    0  0.99874223271E+01  0.18686217257E+02 -0.23828452843E+02  0.59301976651E+02  0.50000059497E+02 0.  0.
        -12    1    1    2    0    0 -0.99874223271E+01 -0.18686217257E+02  0.23828452843E+02  0.31886023349E+02  0.00000000000E+00 0.  1.
         11    1    3    3    0    0 -0.46191201034E+01 -0.83367050659E+00  0.50670831961E+01  0.69069971349E+01  0.51100000000E-03 0. -1.
        -11    1    3    3    0    0  0.36676199161E+01 -0.43430497806E+01  0.63016063700E+01  0.84866813507E+01  0.51100000000E-03 0.  1.
         12    1    3    3    0    0  0.10938922514E+02  0.23862937544E+02 -0.35197142409E+02  0.43908298165E+02  0.00000000000E+00 0. -1.
</event>
<event>
 7    1  0.6830263E-012  0.5930192E+02  0.7816164E-02  0.1266605E+00
        -11   -1    0    0    0    0  0.00000000000E+00  0.00000000000E+00  0.45593999997E+02  0.45594000000E+02  0.51100000000E-03 0. -1.
         11   -1    0    0    0    0 -0.00000000000E+00 -0.00000000000E+00 -0.45593999997E+02  0.45594000000E+02  0.51100000000E-03 0.  1.
    9900012    2    1    2    0    0  0.38626506207E+01 -0.19378781067E+02  0.25025278775E+02  0.59301924619E+02  0.49999964603E+02 0.  0.
        -12    1    1    2    0    0 -0.38626506207E+01  0.19378781067E+02 -0.25025278775E+02  0.31886075381E+02  0.00000000000E+00 0.  1.
         11    1    3    3    0    0 -0.46904881248E+01  0.10647124373E+01 -0.89174163828E+01  0.10131860966E+02  0.51100000000E-03 0. -1.
        -11    1    3    3    0    0  0.10424100938E+02 -0.16121183564E+02  0.49885134732E+01  0.19835314638E+02  0.51100000000E-03 0.  1.
         12    1    3    3    0    0 -0.18709621925E+01 -0.43223099406E+01  0.28954181684E+02  0.29334749015E+02  0.00000000000E+00 0. -1.
</event>
<event>
 7    1  0.6830263E-012  0.5930196E+02  0.7816164E-02  0.1266605E+00
        -11   -1    0    0    0    0  0.00000000000E+00  0.00000000000E+00  0.45593999997E+02  0.45594000000E+02  0.51100000000E-03 0. -1.
         11   -1    0    0    0    0 -0.00000000000E+00 -0.00000000000E+00 -0.45593999997E+02  0.45594000000E+02  0.51100000000E-03 0.  1.
    9900012    2    1    2    0    0  0.15949758493E+02 -0.26319438609E+02  0.83433616317E+01  0.59301963433E+02  0.50000035390E+02 0.  0.
        -12    1    1    2    0    0 -0.15949758493E+02  0.26319438609E+02 -0.83433616317E+01  0.31886036567E+02  0.00000000000E+00 0.  1.
         11    1    3    3    0    0  0.30283117458E+01  0.80491765489E+01  0.10622565175E+02  0.13667435982E+02  0.51100000000E-03 0. -1.
        -11    1    3    3    0    0  0.41810631126E+01  0.38839958984E+01  0.22526398309E+01  0.61352342546E+01  0.51100000000E-03 0.  1.
        -12    1    3    3    0    0  0.87403836346E+01 -0.38252611056E+02 -0.45318433745E+01  0.39499293197E+02  0.00000000000E+00 0.  1.
</event>
<event>
 7    1  0.6830263E-012  0.5930195E+02  0.7816164E-02  0.1266605E+00
        -11   -1    0    0    0    0  0.00000000000E+00  0.00000000000E+00  0.45593999997E+02  0.45594000000E+02  0.51100000000E-03 0.  1.
         11   -1    0    0    0    0 -0.00000000000E+00 -0.00000000000E+00 -0.45593999997E+02  0.45594000000E+02  0.51100000000E-03 0. -1.
    9900012    2    1    2    0    0 -0.77917894146E+01 -0.83150006077E+01 -0.29780350578E+02  0.59301945087E+02  0.50000001931E+02 0.  0.
        -12    1    1    2    0    0  0.77917894146E+01  0.83150006077E+01  0.29780350578E+02  0.31886054913E+02  0.00000000000E+00 0.  1.
         11    1    3    3    0    0 -0.61508302526E+01 -0.91435920888E+01 -0.54648395396E+01  0.12300506515E+02  0.51100000000E-03 0. -1.
        -11    1    3    3    0    0 -0.84881181728E+00  0.11456229848E+02  0.73183219147E+01  0.13620701881E+02  0.51100000000E-03 0.  1.
         12    1    3    3    0    0 -0.79214734478E+00 -0.10627638367E+02 -0.31633832953E+02  0.33380736690E+02  0.00000000000E+00 0. -1.
</event>
<event>
 7    1  0.6830263E-012  0.5930193E+02  0.7816164E-02  0.1266605E+00
        -11   -1    0    0    0    0  0.00000000000E+00  0.00000000000E+00  0.45593999997E+02  0.45594000000E+02  0.51100000000E-03 0.  1.
         11   -1    0    0    0    0 -0.00000000000E+00 -0.00000000000E+00 -0.45593999997E+02  0.45594000000E+02  0.51100000000E-03 0. -1.
    9900012    2    1    2    0    0 -0.11295310800E+02 -0.28356740218E+02  0.92213008152E+01  0.59301934852E+02  0.49999983266E+02 0.  0.
        -12    1    1    2    0    0  0.11295310800E+02  0.28356740218E+02 -0.92213008152E+01  0.31886065148E+02  0.00000000000E+00 0.  1.
         11    1    3    3    0    0  0.16099111074E+01  0.21373859568E+01 -0.14547986690E+01  0.30457629472E+01  0.51100000000E-03 0. -1.
        -11    1    3    3    0    0 -0.19757316673E+02 -0.27243790865E+01 -0.86470904193E+01  0.21738122654E+02  0.51100000000E-03 0.  1.
        -12    1    3    3    0    0  0.68520947663E+01 -0.27769747089E+02  0.19323189904E+02  0.34518049251E+02  0.00000000000E+00 0.  1.
</event>
<event>
 7    1  0.6830263E-012  0.5930194E+02  0.7816164E-02  0.1266605E+00
        -11   -1    0    0    0    0  0.00000000000E+00  0.00000000000E+00  0.45593999997E+02  0.45594000000E+02  0.51100000000E-03 0.  1.
         11   -1    0    0    0    0 -0.00000000000E+00 -0.00000000000E+00 -0.45593999997E+02  0.45594000000E+02  0.51100000000E-03 0. -1.
    9900012    2    1    2    0    0 -0.19115592172E+02  0.40458478041E+01 -0.25198134264E+02  0.59301941621E+02  0.49999995612E+02 0.  0.
        -12    1    1    2    0    0  0.19115592172E+02 -0.40458478041E+01  0.25198134264E+02  0.31886058379E+02  0.00000000000E+00 0.  1.
         11    1    3    3    0    0 -0.81144775000E+00  0.80355842737E+01 -0.10500610634E+02  0.13247335054E+02  0.51100000000E-03 0. -1.
        -11    1    3    3    0    0 -0.11202011731E+02  0.78564938640E+01 -0.25218986506E+02  0.28691581401E+02  0.51100000000E-03 0.  1.
        -12    1    3    3    0    0 -0.71021326914E+01 -0.11846230334E+02  0.10521462876E+02  0.17363025167E+02  0.00000000000E+00 0.  1.
</event>
<event>
 7    1  0.6830263E-012  0.5930195E+02  0.7816164E-02  0.1266605E+00
        -11   -1    0    0    0    0  0.00000000000E+00  0.00000000000E+00  0.45593999997E+02  0.45594000000E+02  0.51100000000E-03 0.  1.
         11   -1    0    0    0    0 -0.00000000000E+00 -0.00000000000E+00 -0.45593999997E+02  0.45594000000E+02  0.51100000000E-03 0. -1.
    9900012    2    1    2    0    0  0.10377501490E+02 -0.13716766989E+01 -0.30118866364E+02  0.59301950618E+02  0.50000012019E+02 0.  0.
        -12    1    1    2    0    0 -0.10377501490E+02  0.13716766989E+01  0.30118866364E+02  0.31886049382E+02  0.00000000000E+00 0.  1.
         11    1    3    3    0    0  0.83550889826E+01 -0.15658432318E+01 -0.35797641986E+01  0.92235616176E+01  0.51100000000E-03 0. -1.
        -11    1    3    3    0    0  0.18883044047E+02 -0.82501377163E+00 -0.33760700152E+00  0.18904073078E+02  0.51100000000E-03 0.  1.
         12    1    3    3    0    0 -0.16860631540E+02  0.10191803046E+01 -0.26201495164E+02  0.31174315922E+02  0.00000000000E+00 0. -1.
</event>
<event>
 7    1  0.6830263E-012  0.5930195E+02  0.7816164E-02  0.1266605E+00
        -11   -1    0    0    0    0  0.00000000000E+00  0.00000000000E+00  0.45593999997E+02  0.45594000000E+02  0.51100000000E-03 0.  1.
         11   -1    0    0    0    0 -0.00000000000E+00 -0.00000000000E+00 -0.45593999997E+02  0.45594000000E+02  0.51100000000E-03 0. -1.
    9900012    2    1    2    0    0 -0.12668679117E+02  0.19177215662E+02 -0.22101113984E+02  0.59301948654E+02  0.50000008438E+02 0.  0.
        -12    1    1    2    0    0  0.12668679117E+02 -0.19177215662E+02  0.22101113984E+02  0.31886051346E+02  0.00000000000E+00 0.  1.
         11    1    3    3    0    0  0.17108880120E+01 -0.44852885584E+01 -0.60713525934E+01  0.77399143287E+01  0.51100000000E-03 0. -1.
        -11    1    3    3    0    0 -0.19080672087E+02 -0.20853270215E+01  0.26917800822E+01  0.19382113310E+02  0.51100000000E-03 0.  1.
         12    1    3    3    0    0  0.47011049582E+01  0.25747831242E+02 -0.18721541473E+02  0.32179921016E+02  0.00000000000E+00 0. -1.
</event>
<event>
 7    1  0.6830263E-012  0.5930196E+02  0.7816164E-02  0.1266605E+00
        -11   -1    0    0    0    0  0.00000000000E+00  0.00000000000E+00  0.45593999997E+02  0.45594000000E+02  0.51100000000E-03 0.  1.
         11   -1    0    0    0    0 -0.00000000000E+00 -0.00000000000E+00 -0.45593999997E+02  0.45594000000E+02  0.51100000000E-03 0. -1.
    9900012    2    1    2    0    0 -0.97599692100E+01 -0.15215183812E+02 -0.26267102991E+02  0.59301960469E+02  0.50000029985E+02 0.  0.
        -12    1    1    2    0    0  0.97599692100E+01  0.15215183812E+02  0.26267102991E+02  0.31886039531E+02  0.00000000000E+00 0.  1.
         11    1    3    3    0    0  0.21389159257E+01 -0.12303190061E+02 -0.22977904219E+02  0.26152008137E+02  0.51100000000E-03 0. -1.
        -11    1    3    3    0    0  0.32861866313E+01 -0.11843556803E+02  0.54961260421E+01  0.13463887331E+02  0.51100000000E-03 0.  1.
         12    1    3    3    0    0 -0.15185071767E+02  0.89315630529E+01 -0.87853248141E+01  0.19686065001E+02  0.00000000000E+00 0. -1.
</event>
<event>
 7    1  0.6830263E-012  0.5930201E+02  0.7816164E-02  0.1266605E+00
        -11   -1    0    0    0    0  0.00000000000E+00  0.00000000000E+00  0.45593999997E+02  0.45594000000E+02  0.51100000000E-03 0.  1.
         11   -1    0    0    0    0 -0.00000000000E+00 -0.00000000000E+00 -0.45593999997E+02  0.45594000000E+02  0.51100000000E-03 0. -1.
    9900012    2    1    2    0    0  0.28416576051E+02 -0.95617137277E+01 -0.10853025632E+02  0.59302010455E+02  0.50000121147E+02 0.  0.
        -12    1    1    2    0    0 -0.28416576051E+02  0.95617137277E+01  0.10853025632E+02  0.31885989545E+02  0.00000000000E+00 0.  1.
         11    1    3    3    0    0 -0.15517071790E+01 -0.65963925130E+01 -0.15482032001E+01  0.69510519179E+01  0.51100000000E-03 0. -1.
        -11    1    3    3    0    0  0.14229691745E+02  0.86092418415E+01 -0.23078815224E+02  0.28447054059E+02  0.51100000000E-03 0.  1.
         12    1    3    3    0    0  0.15738591485E+02 -0.11574563056E+02  0.13773992792E+02  0.23903904478E+02  0.00000000000E+00 0. -1.
</event>
<event>
 7    1  0.6830263E-012  0.5930192E+02  0.7816164E-02  0.1266605E+00
        -11   -1    0    0    0    0  0.00000000000E+00  0.00000000000E+00  0.45593999997E+02  0.45594000000E+02  0.51100000000E-03 0.  1.
         11   -1    0    0    0    0 -0.00000000000E+00 -0.00000000000E+00 -0.45593999997E+02  0.45594000000E+02  0.51100000000E-03 0. -1.
    9900012    2    1    2    0    0 -0.17906098640E+02  0.18356019568E+02 -0.18951268041E+02  0.59301915524E+02  0.49999948016E+02 0.  0.
        -12    1    1    2    0    0  0.17906098640E+02 -0.18356019568E+02  0.18951268041E+02  0.31886084476E+02  0.00000000000E+00 0.  1.
         11    1    3    3    0    0 -0.10755357167E+02  0.21186288063E+02 -0.18227964508E+02  0.29946539032E+02  0.51100000000E-03 0. -1.
        -11    1    3    3    0    0  0.99560617894E+01  0.34733749542E+01  0.25111314672E+01  0.10839431786E+02  0.51100000000E-03 0.  1.
         12    1    3    3    0    0 -0.17106803262E+02 -0.63036434491E+01 -0.32344350003E+01  0.18515944706E+02  0.00000000000E+00 0. -1.
</event>
<event>
 7    1  0.6830263E-012  0.5930196E+02  0.7816164E-02  0.1266605E+00
        -11   -1    0    0    0    0  0.00000000000E+00  0.00000000000E+00  0.45593999997E+02  0.45594000000E+02  0.51100000000E-03 0.  1.
         11   -1    0    0    0    0 -0.00000000000E+00 -0.00000000000E+00 -0.45593999997E+02  0.45594000000E+02  0.51100000000E-03 0. -1.
    9900012    2    1    2    0    0  0.28043482689E+02 -0.13807706963E+02  0.62952483653E+01  0.59301955327E+02  0.50000020607E+02 0.  0.
        -12    1    1    2    0    0 -0.28043482689E+02  0.13807706963E+02 -0.62952483653E+01  0.31886044673E+02  0.00000000000E+00 0.  1.
         11    1    3    3    0    0  0.63611313627E+01 -0.33236378635E+01 -0.90184077539E+01  0.11525720782E+02  0.51100000000E-03 0. -1.
        -11    1    3    3    0    0  0.21863965847E+02 -0.21305957228E+02  0.19656834489E+01  0.30591513980E+02  0.51100000000E-03 0.  1.
         12    1    3    3    0    0 -0.18161452045E+00  0.10821888128E+02  0.13347972670E+02  0.17184720565E+02  0.00000000000E+00 0. -1.
</event>
<event>
 7    1  0.6830263E-012  0.5930196E+02  0.7816164E-02  0.1266605E+00
        -11   -1    0    0    0    0  0.00000000000E+00  0.00000000000E+00  0.45593999997E+02  0.45594000000E+02  0.51100000000E-03 0. -1.
         11   -1    0    0    0    0 -0.00000000000E+00 -0.00000000000E+00 -0.45593999997E+02  0.45594000000E+02  0.51100000000E-03 0.  1.
    9900012    2    1    2    0    0  0.17212944922E+02 -0.16747902056E+01  0.26788596554E+02  0.59301963864E+02  0.50000036177E+02 0.  0.
        -12    1    1    2    0    0 -0.17212944922E+02  0.16747902056E+01 -0.26788596554E+02  0.31886036136E+02  0.00000000000E+00 0.  1.
         11    1    3    3    0    0  0.14471809881E+02 -0.11152814328E+02  0.32494976380E+02  0.37279244075E+02  0.51100000000E-03 0. -1.
        -11    1    3    3    0    0  0.73551999504E+01 -0.29902096798E+01 -0.15148284776E+01  0.80830084632E+01  0.51100000000E-03 0.  1.
        -12    1    3    3    0    0 -0.46140649092E+01  0.12468233802E+02 -0.41915513480E+01  0.13939711325E+02  0.00000000000E+00 0.  1.
</event>
<event>
 7    1  0.6830263E-012  0.5930193E+02  0.7816164E-02  0.1266605E+00
        -11   -1    0    0    0    0  0.00000000000E+00  0.00000000000E+00  0.45593999997E+02  0.45594000000E+02  0.51100000000E-03 0.  1.
         11   -1    0    0    0    0 -0.00000000000E+00 -0.00000000000E+00 -0.45593999997E+02  0.45594000000E+02  0.51100000000E-03 0. -1.
    9900012    2    1    2    0    0 -0.28976817356E+02  0.11428413490E+01 -0.13257430769E+02  0.59301929358E+02  0.49999973245E+02 0.  0.
        -12    1    1    2    0    0  0.28976817356E+02 -0.11428413490E+01  0.13257430769E+02  0.31886070642E+02  0.00000000000E+00 0.  1.
         11    1    3    3    0    0 -0.12391342707E+02  0.16568527042E+02 -0.25333434665E+02  0.32708475577E+02  0.51100000000E-03 0. -1.
        -11    1    3    3    0    0  0.61269123497E+00 -0.12992346065E+01  0.67558776619E+00  0.15873941549E+01  0.51100000000E-03 0.  1.
        -12    1    3    3    0    0 -0.17198165884E+02 -0.14126451086E+02  0.11400416129E+02  0.25006059626E+02  0.00000000000E+00 0.  1.
</event>
<event>
 7    1  0.6830263E-012  0.5930193E+02  0.7816164E-02  0.1266605E+00
        -11   -1    0    0    0    0  0.00000000000E+00  0.00000000000E+00  0.45593999997E+02  0.45594000000E+02  0.51100000000E-03 0. -1.
         11   -1    0    0    0    0 -0.00000000000E+00 -0.00000000000E+00 -0.45593999997E+02  0.45594000000E+02  0.51100000000E-03 0.  1.
    9900012    2    1    2    0    0 -0.25133120349E+02  0.20319476684E+01  0.19517145729E+02  0.59301928946E+02  0.49999972495E+02 0.  0.
        -12    1    1    2    0    0  0.25133120349E+02 -0.20319476684E+01 -0.19517145729E+02  0.31886071054E+02  0.00000000000E+00 0.  1.
         11    1    3    3    0    0 -0.84874162804E+01 -0.44588291765E+00  0.14608423834E+02  0.16900919912E+02  0.51100000000E-03 0. -1.
        -11    1    3    3    0    0 -0.26922541538E+02  0.22427591775E+01 -0.57198751946E+01  0.27614673348E+02  0.51100000000E-03 0.  1.
         12    1    3    3    0    0  0.10276837469E+02  0.23507140859E+00  0.10628597089E+02  0.14786335686E+02  0.00000000000E+00 0. -1.
</event>
<event>
 7    1  0.6830263E-012  0.5930194E+02  0.7816164E-02  0.1266605E+00
        -11   -1    0    0    0    0  0.00000000000E+00  0.00000000000E+00  0.45593999997E+02  0.45594000000E+02  0.51100000000E-03 0. -1.
         11   -1    0    0    0    0 -0.00000000000E+00 -0.00000000000E+00 -0.45593999997E+02  0.45594000000E+02  0.51100000000E-03 0.  1.
    9900012    2    1    2    0    0  0.16147697978E+02  0.13361619600E+02  0.24029980581E+02  0.59301937292E+02  0.49999987715E+02 0.  0.
        -12    1    1    2    0    0 -0.16147697978E+02 -0.13361619600E+02 -0.24029980581E+02  0.31886062708E+02  0.00000000000E+00 0.  1.
         11    1    3    3    0    0 -0.57145150418E+01  0.56253535959E+01 -0.73470864053E+01  0.10875659251E+02  0.51100000000E-03 0. -1.
        -11    1    3    3    0    0  0.20579405675E+02  0.12587969594E+02  0.94117627513E+01  0.25894983969E+02  0.51100000000E-03 0.  1.
         12    1    3    3    0    0  0.12828073451E+01 -0.48517035900E+01  0.21965304235E+02  0.22531294071E+02  0.00000000000E+00 0. -1.
</event>
<event>
 7    1  0.6830263E-012  0.5930196E+02  0.7816164E-02  0.1266605E+00
        -11   -1    0    0    0    0  0.00000000000E+00  0.00000000000E+00  0.45593999997E+02  0.45594000000E+02  0.51100000000E-03 0.  1.
         11   -1    0    0    0    0 -0.00000000000E+00 -0.00000000000E+00 -0.45593999997E+02  0.45594000000E+02  0.51100000000E-03 0. -1.
    9900012    2    1    2    0    0  0.44360737612E+01 -0.23033871857E+02 -0.21598189069E+02  0.59301956436E+02  0.50000022629E+02 0.  0.
        -12    1    1    2    0    0 -0.44360737612E+01  0.23033871857E+02  0.21598189069E+02  0.31886043564E+02  0.00000000000E+00 0.  1.
         11    1    3    3    0    0  0.70457656771E+01  0.32548811156E+01 -0.59657581252E+01  0.97891437482E+01  0.51100000000E-03 0. -1.
        -11    1    3    3    0    0 -0.11497705978E+02 -0.40030636862E+01 -0.21594906699E+02  0.24790356134E+02  0.51100000000E-03 0.  1.
         12    1    3    3    0    0  0.88880140620E+01 -0.22285689286E+02  0.59624757557E+01  0.24722456554E+02  0.00000000000E+00 0. -1.
</event>
<event>
 7    1  0.6830263E-012  0.5930193E+02  0.7816164E-02  0.1266605E+00
        -11   -1    0    0    0    0  0.00000000000E+00  0.00000000000E+00  0.45593999997E+02  0.45594000000E+02  0.51100000000E-03 0.  1.
         11   -1    0    0    0    0 -0.00000000000E+00 -0.00000000000E+00 -0.45593999997E+02  0.45594000000E+02  0.51100000000E-03 0. -1.
    9900012    2    1    2    0    0 -0.15483572951E+02 -0.19606665285E+01 -0.27805321684E+02  0.59301934728E+02  0.49999983040E+02 0.  0.
        -12    1    1    2    0    0  0.15483572951E+02  0.19606665285E+01  0.27805321684E+02  0.31886065272E+02  0.00000000000E+00 0.  1.
         11    1    3    3    0    0 -0.10603862249E+02 -0.11996178364E+01 -0.40424568573E+02  0.41809409492E+02  0.51100000000E-03 0. -1.
        -11    1    3    3    0    0  0.34325767994E+01 -0.60688657581E+00  0.20449783577E+01  0.40413898035E+01  0.51100000000E-03 0.  1.
        -12    1    3    3    0    0 -0.83122875014E+01 -0.15416211625E+00  0.10574268531E+02  0.13451135432E+02  0.00000000000E+00 0.  1.
</event>
<event>
 7    1  0.6830263E-012  0.5930193E+02  0.7816164E-02  0.1266605E+00
        -11   -1    0    0    0    0  0.00000000000E+00  0.00000000000E+00  0.45593999997E+02  0.45594000000E+02  0.51100000000E-03 0.  1.
         11   -1    0    0    0    0 -0.00000000000E+00 -0.00000000000E+00 -0.45593999997E+02  0.45594000000E+02  0.51100000000E-03 0. -1.
    9900012    2    1    2    0    0 -0.28743733009E+02 -0.13666772232E+02  0.19334722490E+01  0.59301934620E+02  0.49999982842E+02 0.  0.
        -12    1    1    2    0    0  0.28743733009E+02  0.13666772232E+02 -0.19334722490E+01  0.31886065380E+02  0.00000000000E+00 0.  1.
         11    1    3    3    0    0 -0.24373137752E+02 -0.21099952059E+01  0.18214403626E+02  0.30500269234E+02  0.51100000000E-03 0. -1.
        -11    1    3    3    0    0 -0.10008225535E+02 -0.64488776243E+01 -0.12705876954E+01  0.11973595714E+02  0.51100000000E-03 0.  1.
         12    1    3    3    0    0  0.56376302781E+01 -0.51078994013E+01 -0.15010343681E+02  0.16828069672E+02  0.00000000000E+00 0. -1.
</event>
<event>
 7    1  0.6830263E-012  0.5930195E+02  0.7816164E-02  0.1266605E+00
        -11   -1    0    0    0    0  0.00000000000E+00  0.00000000000E+00  0.45593999997E+02  0.45594000000E+02  0.51100000000E-03 0. -1.
         11   -1    0    0    0    0 -0.00000000000E+00 -0.00000000000E+00 -0.45593999997E+02  0.45594000000E+02  0.51100000000E-03 0.  1.
    9900012    2    1    2    0    0 -0.20659710332E+02 -0.62317677343E+01  0.23474697039E+02  0.59301953504E+02  0.50000017282E+02 0.  0.
        -12    1    1    2    0    0  0.20659710332E+02  0.62317677343E+01 -0.23474697039E+02  0.31886046496E+02  0.00000000000E+00 0.  1.
         11    1    3    3    0    0  0.45401847418E+01 -0.85072231261E+01  0.41951024114E+01  0.10515940629E+02  0.51100000000E-03 0. -1.
        -11    1    3    3    0    0 -0.34481133721E+02  0.40616437030E+01  0.11594430759E+02  0.36604321564E+02  0.51100000000E-03 0.  1.
         12    1    3    3    0    0  0.92812386474E+01 -0.17861883111E+01  0.76851638680E+01  0.12181691311E+02  0.00000000000E+00 0. -1.
</event>
<event>
 7    1  0.6830263E-012  0.5930194E+02  0.7816164E-02  0.1266605E+00
        -11   -1    0    0    0    0  0.00000000000E+00  0.00000000000E+00  0.45593999997E+02  0.45594000000E+02  0.51100000000E-03 0.  1.
         11   -1    0    0    0    0 -0.00000000000E+00 -0.00000000000E+00 -0.45593999997E+02  0.45594000000E+02  0.51100000000E-03 0. -1.
    9900012    2    1    2    0    0 -0.18849206101E+02  0.24233965282E+02 -0.86106275671E+01  0.59301944254E+02  0.50000000413E+02 0.  0.
        -12    1    1    2    0    0  0.18849206101E+02 -0.24233965282E+02  0.86106275671E+01  0.31886055746E+02  0.00000000000E+00 0.  1.
         11    1    3    3    0    0  0.11193496162E+01  0.22740199875E+01  0.67472970071E+01  0.72076436947E+01  0.51100000000E-03 0. -1.
        -11    1    3    3    0    0  0.49150119213E+01  0.21533536436E+02  0.13342658290E+01  0.22127602654E+02  0.51100000000E-03 0.  1.
         12    1    3    3    0    0 -0.24883567638E+02  0.42640885797E+00 -0.16692190403E+02  0.29966697906E+02  0.00000000000E+00 0. -1.
</event>
<event>
 7    1  0.6830263E-012  0.5930194E+02  0.7816164E-02  0.1266605E+00
        -11   -1    0    0    0    0  0.00000000000E+00  0.00000000000E+00  0.45593999997E+02  0.45594000000E+02  0.51100000000E-03 0.  1.
         11   -1    0    0    0    0 -0.00000000000E+00 -0.00000000000E+00 -0.45593999997E+02  0.45594000000E+02  0.51100000000E-03 0. -1.
    9900012    2    1    2    0    0 -0.29950989975E+02  0.82011957885E+01 -0.72387542671E+01  0.59301937587E+02  0.49999988254E+02 0.  0.
        -12    1    1    2    0    0  0.29950989975E+02 -0.82011957885E+01  0.72387542671E+01  0.31886062413E+02  0.00000000000E+00 0.  1.
         11    1    3    3    0    0  0.86885085713E+00  0.16418020165E+02 -0.14360630023E+01  0.16503592492E+02  0.51100000000E-03 0. -1.
        -11    1    3    3    0    0  0.48179490980E+01 -0.33383240530E+01  0.15965828655E+01  0.60750405843E+01  0.51100000000E-03 0.  1.
        -12    1    3    3    0    0 -0.35637789930E+02 -0.48785003233E+01 -0.73992741303E+01  0.36723304511E+02  0.00000000000E+00 0.  1.
</event>
<event>
 7    1  0.6830263E-012  0.5930195E+02  0.7816164E-02  0.1266605E+00
        -11   -1    0    0    0    0  0.00000000000E+00  0.00000000000E+00  0.45593999997E+02  0.45594000000E+02  0.51100000000E-03 0.  1.
         11   -1    0    0    0    0 -0.00000000000E+00 -0.00000000000E+00 -0.45593999997E+02  0.45594000000E+02  0.51100000000E-03 0. -1.
    9900012    2    1    2    0    0 -0.22063525445E+02 -0.22687510562E+02  0.38984144445E+01  0.59301954059E+02  0.50000018295E+02 0.  0.
        -12    1    1    2    0    0  0.22063525445E+02  0.22687510562E+02 -0.38984144445E+01  0.31886045941E+02  0.00000000000E+00 0.  1.
         11    1    3    3    0    0 -0.10204797790E+01 -0.64559142160E+00 -0.32308519276E+01  0.34491407194E+01  0.51100000000E-03 0. -1.
        -11    1    3    3    0    0 -0.22655489289E+02 -0.27685365018E+02 -0.10491449081E+02  0.37280304923E+02  0.51100000000E-03 0.  1.
        -12    1    3    3    0    0  0.16124436229E+01  0.56434458777E+01  0.17620715453E+02  0.18572508417E+02  0.00000000000E+00 0.  1.
</event>
<event>
 7    1  0.6830263E-012  0.5930195E+02  0.7816164E-02  0.1266605E+00
        -11   -1    0    0    0    0  0.00000000000E+00  0.00000000000E+00  0.45593999997E+02  0.45594000000E+02  0.51100000000E-03 0.  1.
         11   -1    0    0    0    0 -0.00000000000E+00 -0.00000000000E+00 -0.45593999997E+02  0.45594000000E+02  0.51100000000E-03 0. -1.
    9900012    2    1    2    0    0 -0.16309747744E+02 -0.24886996212E+02 -0.11460791838E+02  0.59301949735E+02  0.50000010409E+02 0.  0.
        -12    1    1    2    0    0  0.16309747744E+02  0.24886996212E+02  0.11460791838E+02  0.31886050265E+02  0.00000000000E+00 0.  1.
         11    1    3    3    0    0  0.24789051225E+01  0.17384196654E+01 -0.67353484997E+01  0.73845780660E+01  0.51100000000E-03 0. -1.
        -11    1    3    3    0    0  0.65569938192E+01 -0.22605431218E+02  0.57008324733E+01  0.24217745140E+02  0.51100000000E-03 0.  1.
         12    1    3    3    0    0 -0.25345646686E+02 -0.40199846592E+01 -0.10426275812E+02  0.27699626530E+02  0.00000000000E+00 0. -1.
</event>
<event>
 7    1  0.6830263E-012  0.5930194E+02  0.7816164E-02  0.1266605E+00
        -11   -1    0    0    0    0  0.00000000000E+00  0.00000000000E+00  0.45593999997E+02  0.45594000000E+02  0.51100000000E-03 0.  1.
         11   -1    0    0    0    0 -0.00000000000E+00 -0.00000000000E+00 -0.45593999997E+02  0.45594000000E+02  0.51100000000E-03 0. -1.
    9900012    2    1    2    0    0  0.94210466933E+01  0.28069709573E+02  0.11834542872E+02  0.59301935311E+02  0.49999984104E+02 0.  0.
        -12    1    1    2    0    0 -0.94210466933E+01 -0.28069709573E+02 -0.11834542872E+02  0.31886064689E+02  0.00000000000E+00 0.  1.
         11    1    3    3    0    0  0.78956421682E+01  0.28773432708E+02 -0.46029776537E+01  0.30190048005E+02  0.51100000000E-03 0. -1.
        -11    1    3    3    0    0 -0.35155887603E+00  0.85485055028E+00 -0.62376922910E+01  0.63058043488E+01  0.51100000000E-03 0.  1.
        -12    1    3    3    0    0  0.18769634011E+01 -0.15585736847E+01  0.22675212817E+02  0.22806082957E+02  0.00000000000E+00 0.  1.
</event>
<event>
 7    1  0.6830263E-012  0.5930194E+02  0.7816164E-02  0.1266605E+00
        -11   -1    0    0    0    0  0.00000000000E+00  0.00000000000E+00  0.45593999997E+02  0.45594000000E+02  0.51100000000E-03 0. -1.
         11   -1    0    0    0    0 -0.00000000000E+00 -0.00000000000E+00 -0.45593999997E+02  0.45594000000E+02  0.51100000000E-03 0.  1.
    9900012    2    1    2    0    0 -0.30625039812E+02  0.74110063060E+01 -0.48892333260E+01  0.59301942224E+02  0.49999996711E+02 0.  0.
        -12    1    1    2    0    0  0.30625039812E+02 -0.74110063060E+01  0.48892333260E+01  0.31886057776E+02  0.00000000000E+00 0.  1.
         11    1    3    3    0    0 -0.11034388709E+02  0.13273718294E+02 -0.80255686876E+01  0.19035731784E+02  0.51100000000E-03 0. -1.
        -11    1    3    3    0    0 -0.37499367269E+01  0.62734855268E+01 -0.12792396785E+02  0.14733094104E+02  0.51100000000E-03 0.  1.
         12    1    3    3    0    0 -0.15840714376E+02 -0.12136197515E+02  0.15928732146E+02  0.25533116336E+02  0.00000000000E+00 0. -1.
</event>
<event>
 7    1  0.6830263E-012  0.5930195E+02  0.7816164E-02  0.1266605E+00
        -11   -1    0    0    0    0  0.00000000000E+00  0.00000000000E+00  0.45593999997E+02  0.45594000000E+02  0.51100000000E-03 0. -1.
         11   -1    0    0    0    0 -0.00000000000E+00 -0.00000000000E+00 -0.45593999997E+02  0.45594000000E+02  0.51100000000E-03 0.  1.
    9900012    2    1    2    0    0  0.41594806143E+01  0.30908403748E+02 -0.66400028429E+01  0.59301947579E+02  0.50000006477E+02 0.  0.
        -12    1    1    2    0    0 -0.41594806143E+01 -0.30908403748E+02  0.66400028429E+01  0.31886052421E+02  0.00000000000E+00 0.  1.
         11    1    3    3    0    0  0.39834231877E+01  0.22299193224E+01  0.79289558763E+01  0.91492372374E+01  0.51100000000E-03 0. -1.
        -11    1    3    3    0    0  0.16952354524E+02  0.19696802178E+02 -0.16872752254E+02  0.30984449468E+02  0.51100000000E-03 0.  1.
         12    1    3    3    0    0 -0.16776297097E+02  0.89816822475E+01  0.23037935343E+01  0.19168260874E+02  0.00000000000E+00 0. -1.
</event>
<event>
 7    1  0.6830263E-012  0.5930194E+02  0.7816164E-02  0.1266605E+00
        -11   -1    0    0    0    0  0.00000000000E+00  0.00000000000E+00  0.45593999997E+02  0.45594000000E+02  0.51100000000E-03 0.  1.
         11   -1    0    0    0    0 -0.00000000000E+00 -0.00000000000E+00 -0.45593999997E+02  0.45594000000E+02  0.51100000000E-03 0. -1.
    9900012    2    1    2    0    0 -0.20788122408E+02  0.86498422698E+01 -0.22577758547E+02  0.59301937441E+02  0.49999987987E+02 0.  0.
        -12    1    1    2    0    0  0.20788122408E+02 -0.86498422698E+01  0.22577758547E+02  0.31886062559E+02  0.00000000000E+00 0.  1.
         11    1    3    3    0    0 -0.37057498407E+01 -0.40993617838E+01 -0.19689382834E+02  0.20450162482E+02  0.51100000000E-03 0. -1.
        -11    1    3    3    0    0 -0.59703210487E+01 -0.60973495371E+01  0.10245399046E+02  0.13333814408E+02  0.51100000000E-03 0.  1.
         12    1    3    3    0    0 -0.11112051519E+02  0.18846553591E+02 -0.13133774759E+02  0.25517960550E+02  0.00000000000E+00 0. -1.
</event>
<event>
 7    1  0.6830263E-012  0.5930193E+02  0.7816164E-02  0.1266605E+00
        -11   -1    0    0    0    0  0.00000000000E+00  0.00000000000E+00  0.45593999997E+02  0.45594000000E+02  0.51100000000E-03 0. -1.
         11   -1    0    0    0    0 -0.00000000000E+00 -0.00000000000E+00 -0.45593999997E+02  0.45594000000E+02  0.51100000000E-03 0.  1.
    9900012    2    1    2    0    0  0.21434828045E+02 -0.26808617434E+01  0.23453843802E+02  0.59301926832E+02  0.49999968638E+02 0.  0.
        -12    1    1    2    0    0 -0.21434828045E+02  0.26808617434E+01 -0.23453843802E+02  0.31886073168E+02  0.00000000000E+00 0.  1.
         11    1    3    3    0    0  0.15657136267E+02 -0.54091697128E+01  0.85002592981E+01  0.18618792696E+02  0.51100000000E-03 0. -1.
        -11    1    3    3    0    0  0.66781339954E+01 -0.16876015401E+02  0.83391232783E+01  0.19973441035E+02  0.51100000000E-03 0.  1.
         12    1    3    3    0    0 -0.90044221692E+00  0.19604323371E+02  0.66144612256E+01  0.20709693100E+02  0.00000000000E+00 0. -1.
</event>
<event>
 7    1  0.6830263E-012  0.5930188E+02  0.7816164E-02  0.1266605E+00
        -11   -1    0    0    0    0  0.00000000000E+00  0.00000000000E+00  0.45593999997E+02  0.45594000000E+02  0.51100000000E-03 0.  1.
         11   -1    0    0    0    0 -0.00000000000E+00 -0.00000000000E+00 -0.45593999997E+02  0.45594000000E+02  0.51100000000E-03 0. -1.
    9900012    2    1    2    0    0  0.10587528236E+02  0.46818918674E+01 -0.29710415840E+02  0.59301879587E+02  0.49999882475E+02 0.  0.
        -12    1    1    2    0    0 -0.10587528236E+02 -0.46818918674E+01  0.29710415840E+02  0.31886120413E+02  0.00000000000E+00 0.  1.
         11    1    3    3    0    0  0.13402375048E+02  0.10814635112E+01  0.44837231266E+00  0.13453410655E+02  0.51100000000E-03 0. -1.
        -11    1    3    3    0    0 -0.13004136638E+02 -0.66021991347E+01 -0.26971477888E+01  0.14831426417E+02  0.51100000000E-03 0.  1.
         12    1    3    3    0    0  0.10189289826E+02  0.10202627491E+02 -0.27461640364E+02  0.31017042515E+02  0.00000000000E+00 0. -1.
</event>
<event>
 7    1  0.6830263E-012  0.5930199E+02  0.7816164E-02  0.1266605E+00
        -11   -1    0    0    0    0  0.00000000000E+00  0.00000000000E+00  0.45593999997E+02  0.45594000000E+02  0.51100000000E-03 0.  1.
         11   -1    0    0    0    0 -0.00000000000E+00 -0.00000000000E+00 -0.45593999997E+02  0.45594000000E+02  0.51100000000E-03 0. -1.
    9900012    2    1    2    0    0 -0.19942338891E+02 -0.22359607889E+02 -0.10911864156E+02  0.59301988572E+02  0.50000081238E+02 0.  0.
        -12    1    1    2    0    0  0.19942338891E+02  0.22359607889E+02  0.10911864156E+02  0.31886011428E+02  0.00000000000E+00 0.  1.
         11    1    3    3    0    0  0.11564076122E+01 -0.24731608576E+02  0.59886194232E+00  0.24765871218E+02  0.51100000000E-03 0. -1.
        -11    1    3    3    0    0 -0.38026653175E+01 -0.78980935820E+01  0.34984845680E+01  0.94381958171E+01  0.51100000000E-03 0.  1.
         12    1    3    3    0    0 -0.17296081186E+02  0.10270094268E+02 -0.15009210666E+02  0.25097921537E+02  0.00000000000E+00 0. -1.
</event>
<event>
 7    1  0.6830263E-012  0.5930193E+02  0.7816164E-02  0.1266605E+00
        -11   -1    0    0    0    0  0.00000000000E+00  0.00000000000E+00  0.45593999997E+02  0.45594000000E+02  0.51100000000E-03 0. -1.
         11   -1    0    0    0    0 -0.00000000000E+00 -0.00000000000E+00 -0.45593999997E+02  0.45594000000E+02  0.51100000000E-03 0.  1.
    9900012    2    1    2    0    0  0.15910261995E+01  0.10262604875E+02  0.30147457800E+02  0.59301927257E+02  0.49999969414E+02 0.  0.
        -12    1    1    2    0    0 -0.15910261995E+01 -0.10262604875E+02 -0.30147457800E+02  0.31886072743E+02  0.00000000000E+00 0.  1.
         11    1    3    3    0    0  0.89998502462E+01  0.57794314846E+00  0.15479395893E+02  0.17914882646E+02  0.51100000000E-03 0. -1.
        -11    1    3    3    0    0 -0.83507427515E+01  0.20502063036E+02  0.19500899279E+02  0.29501772255E+02  0.51100000000E-03 0.  1.
        -12    1    3    3    0    0  0.94191870482E+00 -0.10817401309E+02 -0.48328373718E+01  0.11885272357E+02  0.00000000000E+00 0.  1.
</event>
<event>
 7    1  0.6830263E-012  0.5930191E+02  0.7816164E-02  0.1266605E+00
        -11   -1    0    0    0    0  0.00000000000E+00  0.00000000000E+00  0.45593999997E+02  0.45594000000E+02  0.51100000000E-03 0. -1.
         11   -1    0    0    0    0 -0.00000000000E+00 -0.00000000000E+00 -0.45593999997E+02  0.45594000000E+02  0.51100000000E-03 0.  1.
    9900012    2    1    2    0    0  0.11177631520E+02 -0.10507144287E+02  0.27953228201E+02  0.59301913781E+02  0.49999944838E+02 0.  0.
        -12    1    1    2    0    0 -0.11177631520E+02  0.10507144287E+02 -0.27953228201E+02  0.31886086219E+02  0.00000000000E+00 0.  1.
         11    1    3    3    0    0 -0.41805579691E+00 -0.89145855536E+01  0.86393268285E+01  0.12421053681E+02  0.51100000000E-03 0. -1.
        -11    1    3    3    0    0 -0.14036622098E+02  0.13039657110E+01 -0.87505919321E+00  0.14124192556E+02  0.51100000000E-03 0.  1.
        -12    1    3    3    0    0  0.25632309416E+02 -0.28965244445E+01  0.20188960566E+02  0.32756667544E+02  0.00000000000E+00 0.  1.
</event>
<event>
 7    1  0.6830263E-012  0.5930193E+02  0.7816164E-02  0.1266605E+00
        -11   -1    0    0    0    0  0.00000000000E+00  0.00000000000E+00  0.45593999997E+02  0.45594000000E+02  0.51100000000E-03 0. -1.
         11   -1    0    0    0    0 -0.00000000000E+00 -0.00000000000E+00 -0.45593999997E+02  0.45594000000E+02  0.51100000000E-03 0.  1.
    9900012    2    1    2    0    0 -0.13639140125E+02  0.12313691097E+02  0.26058938336E+02  0.59301930958E+02  0.49999976163E+02 0.  0.
        -12    1    1    2    0    0  0.13639140125E+02 -0.12313691097E+02 -0.26058938336E+02  0.31886069042E+02  0.00000000000E+00 0.  1.
         11    1    3    3    0    0  0.82461059004E+01  0.50182779256E+01  0.17838570203E+02  0.20282898289E+02  0.51100000000E-03 0. -1.
        -11    1    3    3    0    0  0.27390938240E+01  0.57994763833E+01 -0.74210465760E+01  0.98085928573E+01  0.51100000000E-03 0.  1.
        -12    1    3    3    0    0 -0.24624339849E+02  0.14959367883E+01  0.15641414709E+02  0.29210439811E+02  0.00000000000E+00 0.  1.
</event>
<event>
 7    1  0.6830263E-012  0.5930192E+02  0.7816164E-02  0.1266605E+00
        -11   -1    0    0    0    0  0.00000000000E+00  0.00000000000E+00  0.45593999997E+02  0.45594000000E+02  0.51100000000E-03 0.  1.
         11   -1    0    0    0    0 -0.00000000000E+00 -0.00000000000E+00 -0.45593999997E+02  0.45594000000E+02  0.51100000000E-03 0. -1.
    9900012    2    1    2    0    0 -0.88917394122E+01 -0.16843650141E+02 -0.25572451864E+02  0.59301923505E+02  0.49999962572E+02 0.  0.
        -12    1    1    2    0    0  0.88917394122E+01  0.16843650141E+02  0.25572451864E+02  0.31886076495E+02  0.00000000000E+00 0.  1.
         11    1    3    3    0    0 -0.11495935193E+02 -0.46511451055E+01  0.92109754824E+00  0.12435356758E+02  0.51100000000E-03 0. -1.
        -11    1    3    3    0    0 -0.16848554623E+02 -0.38328049538E+01 -0.95064375472E+01  0.19721474129E+02  0.51100000000E-03 0.  1.
        -12    1    3    3    0    0  0.19452750404E+02 -0.83597000820E+01 -0.16987111866E+02  0.27145092619E+02  0.00000000000E+00 0.  1.
</event>
<event>
 7    1  0.6830263E-012  0.5930192E+02  0.7816164E-02  0.1266605E+00
        -11   -1    0    0    0    0  0.00000000000E+00  0.00000000000E+00  0.45593999997E+02  0.45594000000E+02  0.51100000000E-03 0.  1.
         11   -1    0    0    0    0 -0.00000000000E+00 -0.00000000000E+00 -0.45593999997E+02  0.45594000000E+02  0.51100000000E-03 0. -1.
    9900012    2    1    2    0    0 -0.21500100082E+00 -0.55810064751E+01 -0.31393124141E+02  0.59301919933E+02  0.49999956057E+02 0.  0.
        -12    1    1    2    0    0  0.21500100082E+00  0.55810064751E+01  0.31393124141E+02  0.31886080067E+02  0.00000000000E+00 0.  1.
         11    1    3    3    0    0  0.30999125608E+01 -0.84882161643E+01 -0.19108793806E+02  0.21137768863E+02  0.51100000000E-03 0. -1.
        -11    1    3    3    0    0 -0.18652909673E+02  0.34068057432E+01 -0.12684128030E+02  0.22812813697E+02  0.51100000000E-03 0.  1.
         12    1    3    3    0    0  0.15337996111E+02 -0.49959605400E+00  0.39979769516E+00  0.15351337372E+02  0.00000000000E+00 0. -1.
</event>
<event>
 7    1  0.6830263E-012  0.5930196E+02  0.7816164E-02  0.1266605E+00
        -11   -1    0    0    0    0  0.00000000000E+00  0.00000000000E+00  0.45593999997E+02  0.45594000000E+02  0.51100000000E-03 0.  1.
         11   -1    0    0    0    0 -0.00000000000E+00 -0.00000000000E+00 -0.45593999997E+02  0.45594000000E+02  0.51100000000E-03 0. -1.
    9900012    2    1    2    0    0  0.11806564549E+02  0.27057110422E+02  0.12051441739E+02  0.59301961694E+02  0.50000032219E+02 0.  0.
        -12    1    1    2    0    0 -0.11806564549E+02 -0.27057110422E+02 -0.12051441739E+02  0.31886038306E+02  0.00000000000E+00 0.  1.
         11    1    3    3    0    0 -0.13578831319E+02  0.13817030854E+01  0.12107263858E+02  0.18244988402E+02  0.51100000000E-03 0. -1.
        -11    1    3    3    0    0  0.32959771067E+01 -0.31120678508E+01  0.13929715239E+01  0.47422358992E+01  0.51100000000E-03 0.  1.
        -12    1    3    3    0    0  0.22089418762E+02  0.28787475187E+02 -0.14487936422E+01  0.36314737393E+02  0.00000000000E+00 0.  1.
</event>
<event>
 7    1  0.6830263E-012  0.5930195E+02  0.7816164E-02  0.1266605E+00
        -11   -1    0    0    0    0  0.00000000000E+00  0.00000000000E+00  0.45593999997E+02  0.45594000000E+02  0.51100000000E-03 0. -1.
         11   -1    0    0    0    0 -0.00000000000E+00 -0.00000000000E+00 -0.45593999997E+02  0.45594000000E+02  0.51100000000E-03 0.  1.
    9900012    2    1    2    0    0  0.22443562738E+02  0.17450274444E+02  0.14439339269E+02  0.59301951248E+02  0.50000013167E+02 0.  0.
        -12    1    1    2    0    0 -0.22443562738E+02 -0.17450274444E+02 -0.14439339269E+02  0.31886048752E+02  0.00000000000E+00 0.  1.
         11    1    3    3    0    0 -0.11262146587E+02  0.25200385170E+01  0.10877449686E+02  0.15858923413E+02  0.51100000000E-03 0. -1.
        -11    1    3    3    0    0 -0.29282842003E+01  0.41505244251E+01 -0.10234621074E+00  0.50805685084E+01  0.51100000000E-03 0.  1.
         12    1    3    3    0    0  0.36633993525E+02  0.10779711501E+02  0.36642357933E+01  0.38362459327E+02  0.00000000000E+00 0. -1.
</event>
<event>
 7    1  0.6830263E-012  0.5930193E+02  0.7816164E-02  0.1266605E+00
        -11   -1    0    0    0    0  0.00000000000E+00  0.00000000000E+00  0.45593999997E+02  0.45594000000E+02  0.51100000000E-03 0. -1.
         11   -1    0    0    0    0 -0.00000000000E+00 -0.00000000000E+00 -0.45593999997E+02  0.45594000000E+02  0.51100000000E-03 0.  1.
    9900012    2    1    2    0    0  0.95905823182E+01  0.28476460848E+02  0.10669257640E+02  0.59301934858E+02  0.49999983277E+02 0.  0.
        -12    1    1    2    0    0 -0.95905823182E+01 -0.28476460848E+02 -0.10669257640E+02  0.31886065142E+02  0.00000000000E+00 0.  1.
         11    1    3    3    0    0  0.15380815006E+02  0.21327727616E+02  0.10897850818E+02  0.28464092963E+02  0.51100000000E-03 0. -1.
        -11    1    3    3    0    0 -0.94197346565E+01  0.12270880895E+02  0.10296400610E+02  0.18582835756E+02  0.51100000000E-03 0.  1.
         12    1    3    3    0    0  0.36295019688E+01 -0.51221476628E+01 -0.10524993788E+02  0.12255006139E+02  0.00000000000E+00 0. -1.
</event>
<event>
 7    1  0.6830263E-012  0.5930192E+02  0.7816164E-02  0.1266605E+00
        -11   -1    0    0    0    0  0.00000000000E+00  0.00000000000E+00  0.45593999997E+02  0.45594000000E+02  0.51100000000E-03 0.  1.
         11   -1    0    0    0    0 -0.00000000000E+00 -0.00000000000E+00 -0.45593999997E+02  0.45594000000E+02  0.51100000000E-03 0. -1.
    9900012    2    1    2    0    0 -0.46898933537E+01 -0.23315351999E+01 -0.31453000407E+02  0.59301915407E+02  0.49999947804E+02 0.  0.
        -12    1    1    2    0    0  0.46898933537E+01  0.23315351999E+01  0.31453000407E+02  0.31886084593E+02  0.00000000000E+00 0.  1.
         11    1    3    3    0    0 -0.45451274836E+01  0.35883039903E+01 -0.15182663299E+02  0.16249534593E+02  0.51100000000E-03 0. -1.
        -11    1    3    3    0    0  0.15654376196E+02  0.36138464331E+01 -0.18457612225E+02  0.24470448084E+02  0.51100000000E-03 0.  1.
         12    1    3    3    0    0 -0.15799142066E+02 -0.95336856233E+01  0.21872751169E+01  0.18581932731E+02  0.00000000000E+00 0. -1.
</event>
<event>
 7    1  0.6830263E-012  0.5930182E+02  0.7816164E-02  0.1266605E+00
        -11   -1    0    0    0    0  0.00000000000E+00  0.00000000000E+00  0.45593999997E+02  0.45594000000E+02  0.51100000000E-03 0. -1.
         11   -1    0    0    0    0 -0.00000000000E+00 -0.00000000000E+00 -0.45593999997E+02  0.45594000000E+02  0.51100000000E-03 0.  1.
    9900012    2    1    2    0    0 -0.30924583811E+02  0.40419868825E+01  0.66378232641E+01  0.59301823692E+02  0.49999780536E+02 0.  0.
        -12    1    1    2    0    0  0.30924583811E+02 -0.40419868825E+01 -0.66378232641E+01  0.31886176308E+02  0.00000000000E+00 0.  1.
         11    1    3    3    0    0 -0.67964695712E+00  0.28155494576E+01  0.12330998795E+02  0.12666600581E+02  0.51100000000E-03 0. -1.
        -11    1    3    3    0    0 -0.17742400908E+02  0.17906489065E+02 -0.54398531463E+01  0.25788120194E+02  0.51100000000E-03 0.  1.
        -12    1    3    3    0    0 -0.12502535946E+02 -0.16680051640E+02 -0.25332238438E+00  0.20847102917E+02  0.00000000000E+00 0.  1.
</event>
<event>
 7    1  0.6830263E-012  0.5930201E+02  0.7816164E-02  0.1266605E+00
        -11   -1    0    0    0    0  0.00000000000E+00  0.00000000000E+00  0.45593999997E+02  0.45594000000E+02  0.51100000000E-03 0. -1.
         11   -1    0    0    0    0 -0.00000000000E+00 -0.00000000000E+00 -0.45593999997E+02  0.45594000000E+02  0.51100000000E-03 0.  1.
    9900012    2    1    2    0    0  0.58985000882E+01  0.25055777874E+02  0.18818399808E+02  0.59302008099E+02  0.50000116851E+02 0.  0.
        -12    1    1    2    0    0 -0.58985000882E+01 -0.25055777874E+02 -0.18818399808E+02  0.31885991901E+02  0.00000000000E+00 0.  1.
         11    1    3    3    0    0 -0.14304349269E+01  0.41445972956E+01  0.56383539680E+01  0.71424692196E+01  0.51100000000E-03 0. -1.
        -11    1    3    3    0    0 -0.15417661933E+02  0.15759925481E+02  0.17858155692E+02  0.28372403416E+02  0.51100000000E-03 0.  1.
        -12    1    3    3    0    0  0.22746596948E+02  0.51512550966E+01 -0.46781098512E+01  0.23787135463E+02  0.00000000000E+00 0.  1.
</event>
<event>
 7    1  0.6830263E-012  0.5930194E+02  0.7816164E-02  0.1266605E+00
        -11   -1    0    0    0    0  0.00000000000E+00  0.00000000000E+00  0.45593999997E+02  0.45594000000E+02  0.51100000000E-03 0. -1.
         11   -1    0    0    0    0 -0.00000000000E+00 -0.00000000000E+00 -0.45593999997E+02  0.45594000000E+02  0.51100000000E-03 0.  1.
    9900012    2    1    2    0    0  0.15265029043E+02  0.99282499654E+01  0.26174978398E+02  0.59301941084E+02  0.49999994631E+02 0.  0.
        -12    1    1    2    0    0 -0.15265029043E+02 -0.99282499654E+01 -0.26174978398E+02  0.31886058916E+02  0.00000000000E+00 0.  1.
         11    1    3    3    0    0  0.17010468338E+02  0.19880042341E+01  0.31166034436E+02  0.35561635180E+02  0.51100000000E-03 0. -1.
        -11    1    3    3    0    0  0.94213985541E+01  0.62894859717E+01  0.16788637010E+00  0.11329102815E+02  0.51100000000E-03 0.  1.
        -12    1    3    3    0    0 -0.11166837849E+02  0.16507597596E+01 -0.51589424081E+01  0.12411203088E+02  0.00000000000E+00 0.  1.
</event>
<event>
 7    1  0.7704755E-012  0.5930194E+02  0.7816164E-02  0.1266605E+00
        -11   -1    0    0    0    0  0.00000000000E+00  0.00000000000E+00  0.45593999997E+02  0.45594000000E+02  0.51100000000E-03 0. -1.
         11   -1    0    0    0    0 -0.00000000000E+00 -0.00000000000E+00 -0.45593999997E+02  0.45594000000E+02  0.51100000000E-03 0.  1.
    9900012    2    1    2    0    0  0.12670052305E+02 -0.56820492053E+01  0.28703742123E+02  0.59301941597E+02  0.49999995568E+02 0.  0.
        -12    1    1    2    0    0 -0.12670052305E+02  0.56820492053E+01 -0.28703742123E+02  0.31886058403E+02  0.00000000000E+00 0.  1.
         11    1    3    3    0    0 -0.71553762345E+01  0.80265433975E+01  0.93326436470E+01  0.14238084340E+02  0.51100000000E-03 0. -1.
        -11    1    3    3    0    0 -0.58876805388E+01  0.41360151490E+01 -0.16234713308E+01  0.73761143472E+01  0.51100000000E-03 0.  1.
         12    1    3    3    0    0  0.25713109078E+02 -0.17844607752E+02  0.20994569807E+02  0.37687742910E+02  0.00000000000E+00 0. -1.
</event>
<event>
 7    1  0.6830263E-012  0.5930194E+02  0.7816164E-02  0.1266605E+00
        -11   -1    0    0    0    0  0.00000000000E+00  0.00000000000E+00  0.45593999997E+02  0.45594000000E+02  0.51100000000E-03 0.  1.
         11   -1    0    0    0    0 -0.00000000000E+00 -0.00000000000E+00 -0.45593999997E+02  0.45594000000E+02  0.51100000000E-03 0. -1.
    9900012    2    1    2    0    0 -0.30604212376E+02  0.88536824537E+01 -0.13096882688E+01  0.59301940483E+02  0.49999993535E+02 0.  0.
        -12    1    1    2    0    0  0.30604212376E+02 -0.88536824537E+01  0.13096882688E+01  0.31886059517E+02  0.00000000000E+00 0.  1.
         11    1    3    3    0    0 -0.10205026818E+02 -0.11114091218E+02 -0.95532124646E+01  0.17858596378E+02  0.51100000000E-03 0. -1.
        -11    1    3    3    0    0 -0.56224117537E+01 -0.12366942744E-01 -0.94091116374E+01  0.10960978466E+02  0.51100000000E-03 0.  1.
        -12    1    3    3    0    0 -0.14776773805E+02  0.19980140614E+02  0.17652635833E+02  0.30482365638E+02  0.00000000000E+00 0.  1.
</event>
<event>
 7    1  0.6830263E-012  0.5930195E+02  0.7816164E-02  0.1266605E+00
        -11   -1    0    0    0    0  0.00000000000E+00  0.00000000000E+00  0.45593999997E+02  0.45594000000E+02  0.51100000000E-03 0. -1.
         11   -1    0    0    0    0 -0.00000000000E+00 -0.00000000000E+00 -0.45593999997E+02  0.45594000000E+02  0.51100000000E-03 0.  1.
    9900012    2    1    2    0    0  0.17893810001E+02  0.51517882008E+01  0.25884181121E+02  0.59301949910E+02  0.50000010728E+02 0.  0.
        -12    1    1    2    0    0 -0.17893810001E+02 -0.51517882008E+01 -0.25884181121E+02  0.31886050090E+02  0.00000000000E+00 0.  1.
         11    1    3    3    0    0  0.31118158440E+00  0.17042250748E+01  0.15598313916E+02  0.15694222324E+02  0.51100000000E-03 0. -1.
        -11    1    3    3    0    0 -0.23745973902E+01 -0.15002884325E+02  0.41053023663E+01  0.15734635637E+02  0.51100000000E-03 0.  1.
         12    1    3    3    0    0  0.19957225807E+02  0.18450447451E+02  0.61805648394E+01  0.27873091949E+02  0.00000000000E+00 0. -1.
</event>
<event>
 7    1  0.6830263E-012  0.5930196E+02  0.7816164E-02  0.1266605E+00
        -11   -1    0    0    0    0  0.00000000000E+00  0.00000000000E+00  0.45593999997E+02  0.45594000000E+02  0.51100000000E-03 0. -1.
         11   -1    0    0    0    0 -0.00000000000E+00 -0.00000000000E+00 -0.45593999997E+02  0.45594000000E+02  0.51100000000E-03 0.  1.
    9900012    2    1    2    0    0 -0.23895424247E+02 -0.21080346421E+02 -0.11608445451E+01  0.59301955008E+02  0.50000020025E+02 0.  0.
        -12    1    1    2    0    0  0.23895424247E+02  0.21080346421E+02  0.11608445451E+01  0.31886044992E+02  0.00000000000E+00 0.  1.
         11    1    3    3    0    0 -0.21771498860E+02 -0.12133360046E+02 -0.18434439047E+01  0.24992296299E+02  0.51100000000E-03 0. -1.
        -11    1    3    3    0    0  0.19189593079E+01 -0.82328129770E+01 -0.15477828661E+02  0.17635895063E+02  0.51100000000E-03 0.  1.
         12    1    3    3    0    0 -0.40428846950E+01 -0.71417339840E+00  0.16160428021E+02  0.16673763646E+02  0.00000000000E+00 0. -1.
</event>
<event>
 7    1  0.6830263E-012  0.5930193E+02  0.7816164E-02  0.1266605E+00
        -11   -1    0    0    0    0  0.00000000000E+00  0.00000000000E+00  0.45593999997E+02  0.45594000000E+02  0.51100000000E-03 0. -1.
         11   -1    0    0    0    0 -0.00000000000E+00 -0.00000000000E+00 -0.45593999997E+02  0.45594000000E+02  0.51100000000E-03 0.  1.
    9900012    2    1    2    0    0  0.12614799069E+02 -0.29046681377E+02  0.37253917601E+01  0.59301930968E+02  0.49999976182E+02 0.  0.
        -12    1    1    2    0    0 -0.12614799069E+02  0.29046681377E+02 -0.37253917601E+01  0.31886069032E+02  0.00000000000E+00 0.  1.
         11    1    3    3    0    0 -0.39307371766E+01 -0.26966747970E+02  0.19149486938E+02  0.33307041914E+02  0.51100000000E-03 0. -1.
        -11    1    3    3    0    0  0.94848487801E+01 -0.66383959356E+01 -0.12641910670E+02  0.17142011627E+02  0.51100000000E-03 0.  1.
        -12    1    3    3    0    0  0.70606874653E+01  0.45584625280E+01 -0.27821845081E+01  0.88528774271E+01  0.00000000000E+00 0.  1.
</event>
<event>
 7    1  0.6830263E-012  0.5930194E+02  0.7816164E-02  0.1266605E+00
        -11   -1    0    0    0    0  0.00000000000E+00  0.00000000000E+00  0.45593999997E+02  0.45594000000E+02  0.51100000000E-03 0.  1.
         11   -1    0    0    0    0 -0.00000000000E+00 -0.00000000000E+00 -0.45593999997E+02  0.45594000000E+02  0.51100000000E-03 0. -1.
    9900012    2    1    2    0    0  0.29343429620E+02 -0.12432467702E+02 -0.10572478009E+01  0.59301938972E+02  0.49999990779E+02 0.  0.
        -12    1    1    2    0    0 -0.29343429620E+02  0.12432467702E+02  0.10572478009E+01  0.31886061028E+02  0.00000000000E+00 0.  1.
         11    1    3    3    0    0  0.13511102871E+02 -0.11516588885E+02 -0.16056519840E+02  0.23937283680E+02  0.51100000000E-03 0. -1.
        -11    1    3    3    0    0  0.15848877181E+02 -0.93348170130E+01  0.26592274122E+00  0.18395554673E+02  0.51100000000E-03 0.  1.
        -12    1    3    3    0    0 -0.16550432723E-01  0.84189381963E+01  0.14733349298E+02  0.16969100618E+02  0.00000000000E+00 0.  1.
</event>
<event>
 7    1  0.6830263E-012  0.5930191E+02  0.7816164E-02  0.1266605E+00
        -11   -1    0    0    0    0  0.00000000000E+00  0.00000000000E+00  0.45593999997E+02  0.45594000000E+02  0.51100000000E-03 0.  1.
         11   -1    0    0    0    0 -0.00000000000E+00 -0.00000000000E+00 -0.45593999997E+02  0.45594000000E+02  0.51100000000E-03 0. -1.
    9900012    2    1    2    0    0  0.18310591845E+02 -0.25868782042E+02 -0.35001978553E+01  0.59301905177E+02  0.49999929146E+02 0.  0.
        -12    1    1    2    0    0 -0.18310591845E+02  0.25868782042E+02  0.35001978553E+01  0.31886094823E+02  0.00000000000E+00 0.  1.
         11    1    3    3    0    0  0.92858110558E+01 -0.14562255809E+02 -0.12756907745E+02  0.21471475885E+02  0.51100000000E-03 0. -1.
        -11    1    3    3    0    0 -0.15764927251E+01  0.11412699703E+02  0.17027008963E+01  0.11646211162E+02  0.51100000000E-03 0.  1.
         12    1    3    3    0    0  0.10601273514E+02 -0.22719225936E+02  0.75540089930E+01  0.26184218131E+02  0.00000000000E+00 0. -1.
</event>
<event>
 7    1  0.6830263E-012  0.5930192E+02  0.7816164E-02  0.1266605E+00
        -11   -1    0    0    0    0  0.00000000000E+00  0.00000000000E+00  0.45593999997E+02  0.45594000000E+02  0.51100000000E-03 0. -1.
         11   -1    0    0    0    0 -0.00000000000E+00 -0.00000000000E+00 -0.45593999997E+02  0.45594000000E+02  0.51100000000E-03 0.  1.
    9900012    2    1    2    0    0  0.49728839764E+01  0.25507616175E+02  0.18475774254E+02  0.59301916950E+02  0.49999950617E+02 0.  0.
        -12    1    1    2    0    0 -0.49728839764E+01 -0.25507616175E+02 -0.18475774254E+02  0.31886083050E+02  0.00000000000E+00 0.  1.
         11    1    3    3    0    0 -0.55125090616E+00  0.32828541713E+00 -0.48550874508E+00  0.80459174699E+00  0.51100000000E-03 0. -1.
        -11    1    3    3    0    0  0.18889070175E+02  0.22252244238E+02 -0.62158687628E+01  0.29842861298E+02  0.51100000000E-03 0.  1.
         12    1    3    3    0    0 -0.13364935292E+02  0.29270865199E+01  0.25177151762E+02  0.28654463905E+02  0.00000000000E+00 0. -1.
</event>
<event>
 7    1  0.6830263E-012  0.5930193E+02  0.7816164E-02  0.1266605E+00
        -11   -1    0    0    0    0  0.00000000000E+00  0.00000000000E+00  0.45593999997E+02  0.45594000000E+02  0.51100000000E-03 0.  1.
         11   -1    0    0    0    0 -0.00000000000E+00 -0.00000000000E+00 -0.45593999997E+02  0.45594000000E+02  0.51100000000E-03 0. -1.
    9900012    2    1    2    0    0 -0.16118019822E+02  0.24939131954E+02 -0.11617697411E+02  0.59301925316E+02  0.49999965874E+02 0.  0.
        -12    1    1    2    0    0  0.16118019822E+02 -0.24939131954E+02  0.11617697411E+02  0.31886074684E+02  0.00000000000E+00 0.  1.
         11    1    3    3    0    0  0.53295173837E+01  0.50571622257E+01  0.66328040670E+01  0.98981177692E+01  0.51100000000E-03 0. -1.
        -11    1    3    3    0    0 -0.70756398686E+00  0.67214986269E+01  0.99357088545E+01  0.12016551140E+02  0.51100000000E-03 0.  1.
         12    1    3    3    0    0 -0.20739973219E+02  0.13160471102E+02 -0.28186210332E+02  0.37387256407E+02  0.00000000000E+00 0. -1.
</event>
<event>
 7    1  0.6830263E-012  0.5930197E+02  0.7816164E-02  0.1266605E+00
        -11   -1    0    0    0    0  0.00000000000E+00  0.00000000000E+00  0.45593999997E+02  0.45594000000E+02  0.51100000000E-03 0. -1.
         11   -1    0    0    0    0 -0.00000000000E+00 -0.00000000000E+00 -0.45593999997E+02  0.45594000000E+02  0.51100000000E-03 0.  1.
    9900012    2    1    2    0    0 -0.84698954971E+01 -0.16523094851E+02 -0.25922323067E+02  0.59301974434E+02  0.50000055453E+02 0.  0.
        -12    1    1    2    0    0  0.84698954971E+01  0.16523094851E+02  0.25922323067E+02  0.31886025566E+02  0.00000000000E+00 0.  1.
         11    1    3    3    0    0 -0.64189504564E+01 -0.79842202898E+01  0.73344434217E+01  0.12599395190E+02  0.51100000000E-03 0. -1.
        -11    1    3    3    0    0 -0.12157771927E+02  0.62760023170E+01 -0.84117352750E+01  0.16061037137E+02  0.51100000000E-03 0.  1.
        -12    1    3    3    0    0  0.10106826886E+02 -0.14814876878E+02 -0.24845031214E+02  0.30641542106E+02  0.00000000000E+00 0.  1.
</event>
<event>
 7    1  0.6830263E-012  0.5930191E+02  0.7816164E-02  0.1266605E+00
        -11   -1    0    0    0    0  0.00000000000E+00  0.00000000000E+00  0.45593999997E+02  0.45594000000E+02  0.51100000000E-03 0. -1.
         11   -1    0    0    0    0 -0.00000000000E+00 -0.00000000000E+00 -0.45593999997E+02  0.45594000000E+02  0.51100000000E-03 0.  1.
    9900012    2    1    2    0    0 -0.22582485564E+02 -0.11065168900E+02  0.19603975852E+02  0.59301913909E+02  0.49999945070E+02 0.  0.
        -12    1    1    2    0    0  0.22582485564E+02  0.11065168900E+02 -0.19603975852E+02  0.31886086091E+02  0.00000000000E+00 0.  1.
         11    1    3    3    0    0 -0.61992854895E+01  0.79792144188E+00 -0.90194024887E+01  0.10973488084E+02  0.51100000000E-03 0. -1.
        -11    1    3    3    0    0 -0.53657418139E+01 -0.14078591874E+02 -0.24690240600E+01  0.15267416757E+02  0.51100000000E-03 0.  1.
         12    1    3    3    0    0 -0.11017458261E+02  0.22155015323E+01  0.31092402400E+02  0.33061009068E+02  0.00000000000E+00 0. -1.
</event>
<event>
 7    1  0.6830263E-012  0.5930195E+02  0.7816164E-02  0.1266605E+00
        -11   -1    0    0    0    0  0.00000000000E+00  0.00000000000E+00  0.45593999997E+02  0.45594000000E+02  0.51100000000E-03 0.  1.
         11   -1    0    0    0    0 -0.00000000000E+00 -0.00000000000E+00 -0.45593999997E+02  0.45594000000E+02  0.51100000000E-03 0. -1.
    9900012    2    1    2    0    0  0.16156661738E+02  0.25756576622E+02 -0.96063074493E+01  0.59301951317E+02  0.50000013294E+02 0.  0.
        -12    1    1    2    0    0 -0.16156661738E+02 -0.25756576622E+02  0.96063074493E+01  0.31886048683E+02  0.00000000000E+00 0.  1.
         11    1    3    3    0    0  0.88487962258E+01  0.35223163530E+01 -0.35331027224E+01  0.10158283430E+02  0.51100000000E-03 0. -1.
        -11    1    3    3    0    0  0.78362100571E+01  0.70532279220E+01  0.17893531098E+02  0.20768549964E+02  0.51100000000E-03 0.  1.
         12    1    3    3    0    0 -0.52834454483E+00  0.15181032347E+02 -0.23966735825E+02  0.28375117923E+02  0.00000000000E+00 0. -1.
</event>
<event>
 7    1  0.6830263E-012  0.5930174E+02  0.7816164E-02  0.1266605E+00
        -11   -1    0    0    0    0  0.00000000000E+00  0.00000000000E+00  0.45593999997E+02  0.45594000000E+02  0.51100000000E-03 0. -1.
         11   -1    0    0    0    0 -0.00000000000E+00 -0.00000000000E+00 -0.45593999997E+02  0.45594000000E+02  0.51100000000E-03 0.  1.
    9900012    2    1    2    0    0  0.10821219103E+02 -0.19601388192E+02 -0.22702868922E+02  0.59301741844E+02  0.49999631264E+02 0.  0.
        -12    1    1    2    0    0 -0.10821219103E+02  0.19601388192E+02  0.22702868922E+02  0.31886258156E+02  0.00000000000E+00 0.  1.
         11    1    3    3    0    0  0.17400006946E+02 -0.10127997610E+01 -0.14956981383E+02  0.22967309321E+02  0.51100000000E-03 0. -1.
        -11    1    3    3    0    0  0.93794322056E+01  0.11866355147E+01 -0.52162245614E+01  0.10797724357E+02  0.51100000000E-03 0.  1.
        -12    1    3    3    0    0 -0.15958220049E+02 -0.19775223945E+02 -0.25296629770E+01  0.25536708167E+02  0.00000000000E+00 0.  1.
</event>
<event>
 7    1  0.6830263E-012  0.5930192E+02  0.7816164E-02  0.1266605E+00
        -11   -1    0    0    0    0  0.00000000000E+00  0.00000000000E+00  0.45593999997E+02  0.45594000000E+02  0.51100000000E-03 0.  1.
         11   -1    0    0    0    0 -0.00000000000E+00 -0.00000000000E+00 -0.45593999997E+02  0.45594000000E+02  0.51100000000E-03 0. -1.
    9900012    2    1    2    0    0  0.24132891610E+02 -0.20807008244E+02 -0.11805821473E+01  0.59301924297E+02  0.49999964016E+02 0.  0.
        -12    1    1    2    0    0 -0.24132891610E+02  0.20807008244E+02  0.11805821473E+01  0.31886075703E+02  0.00000000000E+00 0.  1.
         11    1    3    3    0    0  0.28918309407E+02 -0.17396969328E+02 -0.18079216041E+02  0.38285522246E+02  0.51100000000E-03 0. -1.
        -11    1    3    3    0    0  0.33180195189E+01 -0.28254901691E+01  0.54575367171E+01  0.69840787154E+01  0.51100000000E-03 0.  1.
        -12    1    3    3    0    0 -0.81034373155E+01 -0.58454874672E+00  0.11441097177E+02  0.14032323335E+02  0.00000000000E+00 0.  1.
</event>
<event>
 7    1  0.6830263E-012  0.5930211E+02  0.7816164E-02  0.1266604E+00
        -11   -1    0    0    0    0  0.00000000000E+00  0.00000000000E+00  0.45593999997E+02  0.45594000000E+02  0.51100000000E-03 0. -1.
         11   -1    0    0    0    0 -0.00000000000E+00 -0.00000000000E+00 -0.45593999997E+02  0.45594000000E+02  0.51100000000E-03 0.  1.
    9900012    2    1    2    0    0  0.26168416824E+02 -0.11298718122E+02 -0.14292048794E+02  0.59302113953E+02  0.50000309901E+02 0.  0.
        -12    1    1    2    0    0 -0.26168416824E+02  0.11298718122E+02  0.14292048794E+02  0.31885886047E+02  0.00000000000E+00 0.  1.
         11    1    3    3    0    0  0.60481577358E+01  0.23593128114E+01 -0.90502431347E+01  0.11137929341E+02  0.51100000000E-03 0. -1.
        -11    1    3    3    0    0 -0.91611129272E+01 -0.12785216519E+02 -0.97787293634E+01  0.18520564239E+02  0.51100000000E-03 0.  1.
         12    1    3    3    0    0  0.29281372016E+02 -0.87281441419E+00  0.45369237042E+01  0.29643620373E+02  0.00000000000E+00 0. -1.
</event>
<event>
 7    1  0.6830263E-012  0.5930198E+02  0.7816164E-02  0.1266605E+00
        -11   -1    0    0    0    0  0.00000000000E+00  0.00000000000E+00  0.45593999997E+02  0.45594000000E+02  0.51100000000E-03 0.  1.
         11   -1    0    0    0    0 -0.00000000000E+00 -0.00000000000E+00 -0.45593999997E+02  0.45594000000E+02  0.51100000000E-03 0. -1.
    9900012    2    1    2    0    0  0.12549956097E+02  0.29263816938E+02 -0.16869032937E+01  0.59301983903E+02  0.50000072723E+02 0.  0.
        -12    1    1    2    0    0 -0.12549956097E+02 -0.29263816938E+02  0.16869032937E+01  0.31886016097E+02  0.00000000000E+00 0.  1.
         11    1    3    3    0    0  0.16688874217E+02  0.21609687982E+02 -0.58116987350E+01  0.27915461303E+02  0.51100000000E-03 0. -1.
        -11    1    3    3    0    0  0.64725976868E+01 -0.48379378664E+01 -0.77106590079E+01  0.11169352094E+02  0.51100000000E-03 0.  1.
        -12    1    3    3    0    0 -0.10611515807E+02  0.12492066823E+02  0.11835454449E+02  0.20217170506E+02  0.00000000000E+00 0.  1.
</event>
<event>
 7    1  0.6830263E-012  0.5930192E+02  0.7816164E-02  0.1266605E+00
        -11   -1    0    0    0    0  0.00000000000E+00  0.00000000000E+00  0.45593999997E+02  0.45594000000E+02  0.51100000000E-03 0.  1.
         11   -1    0    0    0    0 -0.00000000000E+00 -0.00000000000E+00 -0.45593999997E+02  0.45594000000E+02  0.51100000000E-03 0. -1.
    9900012    2    1    2    0    0  0.97305305735E+01  0.30307279757E+02 -0.18727951054E+01  0.59301924778E+02  0.49999964894E+02 0.  0.
        -12    1    1    2    0    0 -0.97305305735E+01 -0.30307279757E+02  0.18727951054E+01  0.31886075222E+02  0.00000000000E+00 0.  1.
         11    1    3    3    0    0  0.78896962835E+01 -0.33767864557E+01 -0.13350635455E+02  0.15871025850E+02  0.51100000000E-03 0. -1.
        -11    1    3    3    0    0  0.10661570660E+02  0.62738019428E+01  0.72196534484E+01  0.14323165709E+02  0.51100000000E-03 0.  1.
        -12    1    3    3    0    0 -0.88207363697E+01  0.27410264270E+02  0.42581869015E+01  0.29107733219E+02  0.00000000000E+00 0.  1.
</event>
<event>
 7    1  0.6830263E-012  0.5930196E+02  0.7816164E-02  0.1266605E+00
        -11   -1    0    0    0    0  0.00000000000E+00  0.00000000000E+00  0.45593999997E+02  0.45594000000E+02  0.51100000000E-03 0.  1.
         11   -1    0    0    0    0 -0.00000000000E+00 -0.00000000000E+00 -0.45593999997E+02  0.45594000000E+02  0.51100000000E-03 0. -1.
    9900012    2    1    2    0    0  0.12120590483E+02  0.14404983818E+02 -0.25735330602E+02  0.59301960521E+02  0.50000030080E+02 0.  0.
        -12    1    1    2    0    0 -0.12120590483E+02 -0.14404983818E+02  0.25735330602E+02  0.31886039479E+02  0.00000000000E+00 0.  1.
         11    1    3    3    0    0  0.15523352371E+02 -0.65062600817E+01 -0.37051818380E+01  0.17234681947E+02  0.51100000000E-03 0.  1.
        -11    1    3    3    0    0 -0.11377362505E+02 -0.20191924028E+01 -0.74281659690E+01  0.13736781481E+02  0.51100000000E-03 0. -1.
        -12    1    3    3    0    0  0.79746006165E+01  0.22930436302E+02 -0.14601982795E+02  0.28330497093E+02  0.00000000000E+00 0.  1.
</event>
<event>
 7    1  0.6830263E-012  0.5930189E+02  0.7816164E-02  0.1266605E+00
        -11   -1    0    0    0    0  0.00000000000E+00  0.00000000000E+00  0.45593999997E+02  0.45594000000E+02  0.51100000000E-03 0.  1.
         11   -1    0    0    0    0 -0.00000000000E+00 -0.00000000000E+00 -0.45593999997E+02  0.45594000000E+02  0.51100000000E-03 0. -1.
    9900012    2    1    2    0    0  0.13183957675E+02 -0.12373947090E+02 -0.26263902001E+02  0.59301892447E+02  0.49999905929E+02 0.  0.
        -12    1    1    2    0    0 -0.13183957675E+02  0.12373947090E+02  0.26263902001E+02  0.31886107553E+02  0.00000000000E+00 0.  1.
         11    1    3    3    0    0 -0.52158792718E+01  0.71672887968E+01 -0.13064201994E+02  0.15787615377E+02  0.51100000000E-03 0. -1.
        -11    1    3    3    0    0 -0.14891910567E+01 -0.20151878007E+02 -0.12171281003E+02  0.23589318742E+02  0.51100000000E-03 0.  1.
        -12    1    3    3    0    0  0.19889028003E+02  0.61064211995E+00 -0.10284190029E+01  0.19924958328E+02  0.00000000000E+00 0.  1.
</event>
<event>
 7    1  0.6830263E-012  0.5930194E+02  0.7816164E-02  0.1266605E+00
        -11   -1    0    0    0    0  0.00000000000E+00  0.00000000000E+00  0.45593999997E+02  0.45594000000E+02  0.51100000000E-03 0. -1.
         11   -1    0    0    0    0 -0.00000000000E+00 -0.00000000000E+00 -0.45593999997E+02  0.45594000000E+02  0.51100000000E-03 0.  1.
    9900012    2    1    2    0    0 -0.23624009646E+02 -0.21087747220E+02 -0.37328432394E+01  0.59301936693E+02  0.49999986624E+02 0.  0.
        -12    1    1    2    0    0  0.23624009646E+02  0.21087747220E+02  0.37328432394E+01  0.31886063307E+02  0.00000000000E+00 0.  1.
         11    1    3    3    0    0 -0.43565972792E+01 -0.46216669193E+01  0.39309385815E+00  0.63635106669E+01  0.51100000000E-03 0. -1.
        -11    1    3    3    0    0 -0.27803408204E+02  0.41306757795E-01 -0.14810482157E+02  0.31502088756E+02  0.51100000000E-03 0.  1.
        -12    1    3    3    0    0  0.85359958374E+01 -0.16507387058E+02  0.10684545060E+02  0.21436337270E+02  0.00000000000E+00 0.  1.
</event>
<event>
 7    1  0.6830263E-012  0.5930189E+02  0.7816164E-02  0.1266605E+00
        -11   -1    0    0    0    0  0.00000000000E+00  0.00000000000E+00  0.45593999997E+02  0.45594000000E+02  0.51100000000E-03 0.  1.
         11   -1    0    0    0    0 -0.00000000000E+00 -0.00000000000E+00 -0.45593999997E+02  0.45594000000E+02  0.51100000000E-03 0. -1.
    9900012    2    1    2    0    0 -0.17402057587E+02 -0.15025393848E+02 -0.22093656548E+02  0.59301894433E+02  0.49999909551E+02 0.  0.
        -12    1    1    2    0    0  0.17402057587E+02  0.15025393848E+02  0.22093656548E+02  0.31886105567E+02  0.00000000000E+00 0.  1.
         11    1    3    3    0    0 -0.72048776439E+01 -0.14075748441E+01 -0.10507960341E+01  0.74159086680E+01  0.51100000000E-03 0. -1.
        -11    1    3    3    0    0 -0.13164015798E+02 -0.37329071702E+01  0.11419710993E+02  0.17822337313E+02  0.51100000000E-03 0.  1.
        -12    1    3    3    0    0  0.29668358545E+01 -0.98849118338E+01 -0.32462571508E+02  0.34063648452E+02  0.00000000000E+00 0.  1.
</event>
<event>
 7    1  0.6830263E-012  0.5930193E+02  0.7816164E-02  0.1266605E+00
        -11   -1    0    0    0    0  0.00000000000E+00  0.00000000000E+00  0.45593999997E+02  0.45594000000E+02  0.51100000000E-03 0. -1.
         11   -1    0    0    0    0 -0.00000000000E+00 -0.00000000000E+00 -0.45593999997E+02  0.45594000000E+02  0.51100000000E-03 0.  1.
    9900012    2    1    2    0    0  0.22519576105E+01 -0.25734625600E+02  0.18691679982E+02  0.59301934573E+02  0.49999982757E+02 0.  0.
        -12    1    1    2    0    0 -0.22519576105E+01  0.25734625600E+02 -0.18691679982E+02  0.31886065427E+02  0.00000000000E+00 0.  1.
         11    1    3    3    0    0  0.47220747212E+00 -0.26099428104E+01 -0.58255053841E+01  0.64008823307E+01  0.51100000000E-03 0.  1.
        -11    1    3    3    0    0 -0.17468157400E+02 -0.20760463174E+02  0.17460031970E+02  0.32264315750E+02  0.51100000000E-03 0. -1.
         12    1    3    3    0    0  0.19247907538E+02 -0.23642196160E+01  0.70571533961E+01  0.20636736492E+02  0.00000000000E+00 0. -1.
</event>
<event>
 7    1  0.6830263E-012  0.5930195E+02  0.7816164E-02  0.1266605E+00
        -11   -1    0    0    0    0  0.00000000000E+00  0.00000000000E+00  0.45593999997E+02  0.45594000000E+02  0.51100000000E-03 0.  1.
         11   -1    0    0    0    0 -0.00000000000E+00 -0.00000000000E+00 -0.45593999997E+02  0.45594000000E+02  0.51100000000E-03 0. -1.
    9900012    2    1    2    0    0  0.15919123690E+02  0.29002332533E+01 -0.27475270611E+02  0.59301947452E+02  0.50000006244E+02 0.  0.
        -12    1    1    2    0    0 -0.15919123690E+02 -0.29002332533E+01  0.27475270611E+02  0.31886052548E+02  0.00000000000E+00 0.  1.
         11    1    3    3    0    0  0.14911263295E+02 -0.46871751503E+01 -0.66729696311E+01  0.16995408436E+02  0.51100000000E-03 0. -1.
        -11    1    3    3    0    0  0.15567855622E+02  0.27091894112E+01  0.77768199327E+00  0.15820955264E+02  0.51100000000E-03 0.  1.
         12    1    3    3    0    0 -0.14559995227E+02  0.48782189924E+01 -0.21579982973E+02  0.26485583752E+02  0.00000000000E+00 0. -1.
</event>
<event>
 7    1  0.6830263E-012  0.5930196E+02  0.7816164E-02  0.1266605E+00
        -11   -1    0    0    0    0  0.00000000000E+00  0.00000000000E+00  0.45593999997E+02  0.45594000000E+02  0.51100000000E-03 0.  1.
         11   -1    0    0    0    0 -0.00000000000E+00 -0.00000000000E+00 -0.45593999997E+02  0.45594000000E+02  0.51100000000E-03 0. -1.
    9900012    2    1    2    0    0 -0.17741142308E+02  0.88953018996E+01 -0.24956869408E+02  0.59301955138E+02  0.50000020263E+02 0.  0.
        -12    1    1    2    0    0  0.17741142308E+02 -0.88953018996E+01  0.24956869408E+02  0.31886044862E+02  0.00000000000E+00 0.  1.
         11    1    3    3    0    0  0.99882469034E+00 -0.36901566127E+00 -0.34454948811E+01  0.36062804324E+01  0.51100000000E-03 0. -1.
        -11    1    3    3    0    0 -0.52566864241E+01 -0.18007189127E+02 -0.16256306544E+02  0.24822552551E+02  0.51100000000E-03 0.  1.
         12    1    3    3    0    0 -0.13483280574E+02  0.27271506688E+02 -0.52550679826E+01  0.30873122155E+02  0.00000000000E+00 0. -1.
</event>
<event>
 7    1  0.6830263E-012  0.5930194E+02  0.7816164E-02  0.1266605E+00
        -11   -1    0    0    0    0  0.00000000000E+00  0.00000000000E+00  0.45593999997E+02  0.45594000000E+02  0.51100000000E-03 0.  1.
         11   -1    0    0    0    0 -0.00000000000E+00 -0.00000000000E+00 -0.45593999997E+02  0.45594000000E+02  0.51100000000E-03 0. -1.
    9900012    2    1    2    0    0 -0.22973722034E+00  0.20885607273E+02 -0.24092720819E+02  0.59301944006E+02  0.49999999961E+02 0.  0.
        -12    1    1    2    0    0  0.22973722034E+00 -0.20885607273E+02  0.24092720819E+02  0.31886055994E+02  0.00000000000E+00 0.  1.
         11    1    3    3    0    0  0.26387973390E+01 -0.56042234939E+01  0.42427173600E+01  0.75080771988E+01  0.51100000000E-03 0.  1.
        -11    1    3    3    0    0 -0.71640860215E+01  0.28162577562E+02 -0.68987888775E+01  0.29867175824E+02  0.51100000000E-03 0. -1.
         12    1    3    3    0    0  0.42955514621E+01 -0.16727467948E+01 -0.21436649302E+02  0.21926690983E+02  0.00000000000E+00 0. -1.
</event>
<event>
 7    1  0.6830263E-012  0.5930191E+02  0.7816164E-02  0.1266605E+00
        -11   -1    0    0    0    0  0.00000000000E+00  0.00000000000E+00  0.45593999997E+02  0.45594000000E+02  0.51100000000E-03 0. -1.
         11   -1    0    0    0    0 -0.00000000000E+00 -0.00000000000E+00 -0.45593999997E+02  0.45594000000E+02  0.51100000000E-03 0.  1.
    9900012    2    1    2    0    0  0.50479471686E+00  0.31831728014E+02  0.17914059569E+01  0.59301908026E+02  0.49999934341E+02 0.  0.
        -12    1    1    2    0    0 -0.50479471686E+00 -0.31831728014E+02 -0.17914059569E+01  0.31886091974E+02  0.00000000000E+00 0.  1.
         11    1    3    3    0    0  0.91804033957E+01  0.32093392207E+02 -0.37255271474E+01  0.33587872554E+02  0.51100000000E-03 0. -1.
        -11    1    3    3    0    0 -0.60684752129E+01  0.84378421203E+01  0.10977387410E+02  0.15117096469E+02  0.51100000000E-03 0.  1.
        -12    1    3    3    0    0 -0.26071334660E+01 -0.86995063136E+01 -0.54604543057E+01  0.10596939003E+02  0.00000000000E+00 0.  1.
</event>
<event>
 7    1  0.6830263E-012  0.5930198E+02  0.7816164E-02  0.1266605E+00
        -11   -1    0    0    0    0  0.00000000000E+00  0.00000000000E+00  0.45593999997E+02  0.45594000000E+02  0.51100000000E-03 0.  1.
         11   -1    0    0    0    0 -0.00000000000E+00 -0.00000000000E+00 -0.45593999997E+02  0.45594000000E+02  0.51100000000E-03 0. -1.
    9900012    2    1    2    0    0 -0.48325165901E+01 -0.29460976795E+02  0.11198937047E+02  0.59301975455E+02  0.50000057316E+02 0.  0.
        -12    1    1    2    0    0  0.48325165901E+01  0.29460976795E+02 -0.11198937047E+02  0.31886024545E+02  0.00000000000E+00 0.  1.
         11    1    3    3    0    0 -0.60512883807E+01 -0.87125187247E+01  0.16950466822E+02  0.19996109605E+02  0.51100000000E-03 0. -1.
        -11    1    3    3    0    0 -0.43342261249E+01 -0.10087916391E+02  0.13010140099E+02  0.17023963078E+02  0.51100000000E-03 0.  1.
         12    1    3    3    0    0  0.55529979155E+01 -0.10660541679E+02 -0.18761669874E+02  0.22281902773E+02  0.00000000000E+00 0. -1.
</event>
<event>
 7    1  0.6830263E-012  0.5930195E+02  0.7816164E-02  0.1266605E+00
        -11   -1    0    0    0    0  0.00000000000E+00  0.00000000000E+00  0.45593999997E+02  0.45594000000E+02  0.51100000000E-03 0. -1.
         11   -1    0    0    0    0 -0.00000000000E+00 -0.00000000000E+00 -0.45593999997E+02  0.45594000000E+02  0.51100000000E-03 0.  1.
    9900012    2    1    2    0    0  0.10942833042E+02 -0.16207528448E+02  0.25185126098E+02  0.59301950544E+02  0.50000011883E+02 0.  0.
        -12    1    1    2    0    0 -0.10942833042E+02  0.16207528448E+02 -0.25185126098E+02  0.31886049456E+02  0.00000000000E+00 0.  1.
         11    1    3    3    0    0  0.11919539915E+02  0.50503336564E+01  0.13360013607E+02  0.18602990772E+02  0.51100000000E-03 0. -1.
        -11    1    3    3    0    0  0.44698044851E+01  0.72896700313E+01  0.73865187936E+01  0.11299517753E+02  0.51100000000E-03 0.  1.
         12    1    3    3    0    0 -0.54465113581E+01 -0.28547532136E+02  0.44385936974E+01  0.29399442019E+02  0.00000000000E+00 0. -1.
</event>
<event>
 7    1  0.6830263E-012  0.5930219E+02  0.7816164E-02  0.1266604E+00
        -11   -1    0    0    0    0  0.00000000000E+00  0.00000000000E+00  0.45593999997E+02  0.45594000000E+02  0.51100000000E-03 0.  1.
         11   -1    0    0    0    0 -0.00000000000E+00 -0.00000000000E+00 -0.45593999997E+02  0.45594000000E+02  0.51100000000E-03 0. -1.
    9900012    2    1    2    0    0 -0.27039235645E+02 -0.13620265919E+02 -0.10003652480E+02  0.59302188565E+02  0.50000445975E+02 0.  0.
        -12    1    1    2    0    0  0.27039235645E+02  0.13620265919E+02  0.10003652480E+02  0.31885811435E+02  0.00000000000E+00 0.  1.
         11    1    3    3    0    0 -0.74999014081E+01  0.44948389866E+01 -0.24058342539E+01  0.90686348126E+01  0.51100000000E-03 0. -1.
        -11    1    3    3    0    0 -0.81690912826E+01  0.73152327282E+01  0.11937695261E+02  0.16209727039E+02  0.51100000000E-03 0.  1.
         12    1    3    3    0    0 -0.11370242954E+02 -0.25430337634E+02 -0.19535513488E+02  0.34023826713E+02  0.00000000000E+00 0. -1.
</event>
<event>
 7    1  0.6830263E-012  0.5930198E+02  0.7816164E-02  0.1266605E+00
        -11   -1    0    0    0    0  0.00000000000E+00  0.00000000000E+00  0.45593999997E+02  0.45594000000E+02  0.51100000000E-03 0. -1.
         11   -1    0    0    0    0 -0.00000000000E+00 -0.00000000000E+00 -0.45593999997E+02  0.45594000000E+02  0.51100000000E-03 0.  1.
    9900012    2    1    2    0    0 -0.20514161419E+02 -0.15293521211E+02  0.19026179037E+02  0.59301982712E+02  0.50000070550E+02 0.  0.
        -12    1    1    2    0    0  0.20514161419E+02  0.15293521211E+02 -0.19026179037E+02  0.31886017288E+02  0.00000000000E+00 0.  1.
         11    1    3    3    0    0  0.31289227061E+01 -0.34209150830E+01  0.20253257413E+02  0.20777084815E+02  0.51100000000E-03 0. -1.
        -11    1    3    3    0    0  0.63471271788E+01 -0.39878922763E+01 -0.22312078174E+00  0.74992727231E+01  0.51100000000E-03 0.  1.
        -12    1    3    3    0    0 -0.29990211304E+02 -0.78847138522E+01 -0.10039575940E+01  0.31025625174E+02  0.00000000000E+00 0.  1.
</event>
<event>
 7    1  0.6830263E-012  0.5930194E+02  0.7816164E-02  0.1266605E+00
        -11   -1    0    0    0    0  0.00000000000E+00  0.00000000000E+00  0.45593999997E+02  0.45594000000E+02  0.51100000000E-03 0. -1.
         11   -1    0    0    0    0 -0.00000000000E+00 -0.00000000000E+00 -0.45593999997E+02  0.45594000000E+02  0.51100000000E-03 0.  1.
    9900012    2    1    2    0    0  0.16738843113E+02  0.25282878294E+02  0.98644778576E+01  0.59301941494E+02  0.49999995380E+02 0.  0.
        -12    1    1    2    0    0 -0.16738843113E+02 -0.25282878294E+02 -0.98644778576E+01  0.31886058506E+02  0.00000000000E+00 0.  1.
         11    1    3    3    0    0  0.75833711097E+01  0.15013021901E+02  0.12232385649E+02  0.20797346054E+02  0.51100000000E-03 0. -1.
        -11    1    3    3    0    0  0.32875529319E+01 -0.57056791912E+01  0.13635999086E+02  0.15142762319E+02  0.51100000000E-03 0.  1.
         12    1    3    3    0    0  0.58679190715E+01  0.15975535585E+02 -0.16003906877E+02  0.23361833121E+02  0.00000000000E+00 0. -1.
</event>
<event>
 7    1  0.6830263E-012  0.5930198E+02  0.7816164E-02  0.1266605E+00
        -11   -1    0    0    0    0  0.00000000000E+00  0.00000000000E+00  0.45593999997E+02  0.45594000000E+02  0.51100000000E-03 0.  1.
         11   -1    0    0    0    0 -0.00000000000E+00 -0.00000000000E+00 -0.45593999997E+02  0.45594000000E+02  0.51100000000E-03 0. -1.
    9900012    2    1    2    0    0 -0.29774601446E+02  0.67187508556E+01  0.92222524819E+01  0.59301977275E+02  0.50000060636E+02 0.  0.
        -12    1    1    2    0    0  0.29774601446E+02 -0.67187508556E+01 -0.92222524819E+01  0.31886022725E+02  0.00000000000E+00 0.  1.
         11    1    3    3    0    0 -0.32359405434E+01  0.22221453057E+01 -0.67039207225E+01  0.77686417265E+01  0.51100000000E-03 0. -1.
        -11    1    3    3    0    0  0.84229740528E+01 -0.36678527019E+01  0.12436619625E+02  0.15461860926E+02  0.51100000000E-03 0.  1.
         12    1    3    3    0    0 -0.34961634956E+02  0.81644582518E+01  0.34895535798E+01  0.36071474623E+02  0.00000000000E+00 0. -1.
</event>
<event>
 7    1  0.6830263E-012  0.5930194E+02  0.7816164E-02  0.1266605E+00
        -11   -1    0    0    0    0  0.00000000000E+00  0.00000000000E+00  0.45593999997E+02  0.45594000000E+02  0.51100000000E-03 0. -1.
         11   -1    0    0    0    0 -0.00000000000E+00 -0.00000000000E+00 -0.45593999997E+02  0.45594000000E+02  0.51100000000E-03 0.  1.
    9900012    2    1    2    0    0 -0.16508561597E+02 -0.27264035697E+02  0.92760565540E+00  0.59301941907E+02  0.49999996132E+02 0.  0.
        -12    1    1    2    0    0  0.16508561597E+02  0.27264035697E+02 -0.92760565540E+00  0.31886058093E+02  0.00000000000E+00 0.  1.
         11    1    3    3    0    0  0.47576286393E+01 -0.23242101163E+02  0.77957870972E+01  0.24972076275E+02  0.51100000000E-03 0. -1.
        -11    1    3    3    0    0 -0.75939751212E+01 -0.79321883536E+01  0.81289584347E+01  0.13662651123E+02  0.51100000000E-03 0.  1.
        -12    1    3    3    0    0 -0.13672215115E+02  0.39102538200E+01 -0.14997139876E+02  0.20667214509E+02  0.00000000000E+00 0.  1.
</event>
<event>
 7    1  0.6830263E-012  0.5930198E+02  0.7816164E-02  0.1266605E+00
        -11   -1    0    0    0    0  0.00000000000E+00  0.00000000000E+00  0.45593999997E+02  0.45594000000E+02  0.51100000000E-03 0. -1.
         11   -1    0    0    0    0 -0.00000000000E+00 -0.00000000000E+00 -0.45593999997E+02  0.45594000000E+02  0.51100000000E-03 0.  1.
    9900012    2    1    2    0    0  0.61501314194E+01 -0.21312402173E+02  0.22905795089E+02  0.59301983448E+02  0.50000071893E+02 0.  0.
        -12    1    1    2    0    0 -0.61501314194E+01  0.21312402173E+02 -0.22905795089E+02  0.31886016552E+02  0.00000000000E+00 0.  1.
         11    1    3    3    0    0  0.57436824746E+01 -0.11591838935E+02  0.14772822716E+02  0.19636621642E+02  0.51100000000E-03 0. -1.
        -11    1    3    3    0    0  0.57288056540E+00 -0.18399349661E+02  0.18531118921E+02  0.26120234088E+02  0.51100000000E-03 0.  1.
        -12    1    3    3    0    0 -0.16643162065E+00  0.86787864221E+01 -0.10398146548E+02  0.13545127718E+02  0.00000000000E+00 0.  1.
</event>
<event>
 7    1  0.6830263E-012  0.5930194E+02  0.7816164E-02  0.1266605E+00
        -11   -1    0    0    0    0  0.00000000000E+00  0.00000000000E+00  0.45593999997E+02  0.45594000000E+02  0.51100000000E-03 0.  1.
         11   -1    0    0    0    0 -0.00000000000E+00 -0.00000000000E+00 -0.45593999997E+02  0.45594000000E+02  0.51100000000E-03 0. -1.
    9900012    2    1    2    0    0 -0.23218417754E+02 -0.59686751913E+01 -0.21023818866E+02  0.59301937743E+02  0.49999988538E+02 0.  0.
        -12    1    1    2    0    0  0.23218417754E+02  0.59686751913E+01  0.21023818866E+02  0.31886062257E+02  0.00000000000E+00 0.  1.
         11    1    3    3    0    0 -0.89934245620E+01  0.66433251178E+01 -0.32410177260E+01  0.11641290742E+02  0.51100000000E-03 0. -1.
        -11    1    3    3    0    0 -0.17285349184E+02  0.10504174040E+02 -0.41437962336E+01  0.20646840343E+02  0.51100000000E-03 0.  1.
         12    1    3    3    0    0  0.30603559918E+01 -0.23116174349E+02 -0.13639004906E+02  0.27013806658E+02  0.00000000000E+00 0. -1.
</event>
<event>
 7    1  0.6830263E-012  0.5930197E+02  0.7816164E-02  0.1266605E+00
        -11   -1    0    0    0    0  0.00000000000E+00  0.00000000000E+00  0.45593999997E+02  0.45594000000E+02  0.51100000000E-03 0.  1.
         11   -1    0    0    0    0 -0.00000000000E+00 -0.00000000000E+00 -0.45593999997E+02  0.45594000000E+02  0.51100000000E-03 0. -1.
    9900012    2    1    2    0    0  0.31692791586E+02 -0.11113116583E+01 -0.33242613761E+01  0.59301972248E+02  0.50000051467E+02 0.  0.
        -12    1    1    2    0    0 -0.31692791586E+02  0.11113116583E+01  0.33242613761E+01  0.31886027752E+02  0.00000000000E+00 0.  1.
         11    1    3    3    0    0  0.25756275538E+02 -0.10842161260E+01  0.73083510179E+01  0.26795022841E+02  0.51100000000E-03 0. -1.
        -11    1    3    3    0    0 -0.89097362665E+01 -0.11896853313E+01  0.55110856613E+01  0.10543757250E+02  0.51100000000E-03 0.  1.
         12    1    3    3    0    0  0.14846252314E+02  0.11625897990E+01 -0.16143698055E+02  0.21963192157E+02  0.00000000000E+00 0. -1.
</event>
<event>
 7    1  0.6830263E-012  0.5930195E+02  0.7816164E-02  0.1266605E+00
        -11   -1    0    0    0    0  0.00000000000E+00  0.00000000000E+00  0.45593999997E+02  0.45594000000E+02  0.51100000000E-03 0.  1.
         11   -1    0    0    0    0 -0.00000000000E+00 -0.00000000000E+00 -0.45593999997E+02  0.45594000000E+02  0.51100000000E-03 0. -1.
    9900012    2    1    2    0    0  0.92197188101E+01 -0.29972019449E+01 -0.30376534746E+02  0.59301948228E+02  0.50000007660E+02 0.  0.
        -12    1    1    2    0    0 -0.92197188101E+01  0.29972019449E+01  0.30376534746E+02  0.31886051772E+02  0.00000000000E+00 0.  1.
         11    1    3    3    0    0 -0.12809800553E+01  0.86204217038E+01  0.59264128361E+01  0.10539210104E+02  0.51100000000E-03 0. -1.
        -11    1    3    3    0    0 -0.38273121126E+01  0.76388094635E+01 -0.10067321883E+02  0.13204192447E+02  0.51100000000E-03 0.  1.
         12    1    3    3    0    0  0.14328010978E+02 -0.19256433112E+02 -0.26235625700E+02  0.35558545677E+02  0.00000000000E+00 0. -1.
</event>
<event>
 7    1  0.6830263E-012  0.5930191E+02  0.7816164E-02  0.1266605E+00
        -11   -1    0    0    0    0  0.00000000000E+00  0.00000000000E+00  0.45593999997E+02  0.45594000000E+02  0.51100000000E-03 0.  1.
         11   -1    0    0    0    0 -0.00000000000E+00 -0.00000000000E+00 -0.45593999997E+02  0.45594000000E+02  0.51100000000E-03 0. -1.
    9900012    2    1    2    0    0 -0.16665099476E+01  0.25558604742E+02 -0.18992186813E+02  0.59301910687E+02  0.49999939194E+02 0.  0.
        -12    1    1    2    0    0  0.16665099476E+01 -0.25558604742E+02  0.18992186813E+02  0.31886089313E+02  0.00000000000E+00 0.  1.
         11    1    3    3    0    0  0.82724501042E+01 -0.46706565563E+01 -0.88759236621E+01  0.13001172428E+02  0.51100000000E-03 0. -1.
        -11    1    3    3    0    0 -0.18629748771E+01 -0.49606925011E+01  0.48816239699E+01  0.72048177165E+01  0.51100000000E-03 0.  1.
         12    1    3    3    0    0 -0.80759851746E+01  0.35189953799E+02 -0.14997887121E+02  0.39095920542E+02  0.00000000000E+00 0. -1.
</event>
<event>
 7    1  0.6830263E-012  0.5930194E+02  0.7816164E-02  0.1266605E+00
        -11   -1    0    0    0    0  0.00000000000E+00  0.00000000000E+00  0.45593999997E+02  0.45594000000E+02  0.51100000000E-03 0.  1.
         11   -1    0    0    0    0 -0.00000000000E+00 -0.00000000000E+00 -0.45593999997E+02  0.45594000000E+02  0.51100000000E-03 0. -1.
    9900012    2    1    2    0    0  0.27854744787E+02 -0.13318276832E+02  0.79660388461E+01  0.59301935962E+02  0.49999985290E+02 0.  0.
        -12    1    1    2    0    0 -0.27854744787E+02  0.13318276832E+02 -0.79660388461E+01  0.31886064038E+02  0.00000000000E+00 0.  1.
         11    1    3    3    0    0  0.16282276723E+02  0.94008095963E+01 -0.54418977801E+01  0.19572991802E+02  0.51100000000E-03 0. -1.
        -11    1    3    3    0    0  0.11453974481E+02  0.60869752923E+00 -0.21755442009E+01  0.11674632196E+02  0.51100000000E-03 0.  1.
         12    1    3    3    0    0  0.11849358333E+00 -0.23327783957E+02  0.15583480827E+02  0.28054311964E+02  0.00000000000E+00 0. -1.
</event>
<event>
 7    1  0.6830263E-012  0.5930193E+02  0.7816164E-02  0.1266605E+00
        -11   -1    0    0    0    0  0.00000000000E+00  0.00000000000E+00  0.45593999997E+02  0.45594000000E+02  0.51100000000E-03 0.  1.
         11   -1    0    0    0    0 -0.00000000000E+00 -0.00000000000E+00 -0.45593999997E+02  0.45594000000E+02  0.51100000000E-03 0. -1.
    9900012    2    1    2    0    0 -0.18851997312E+02  0.24225574965E+02 -0.86281745203E+01  0.59301926542E+02  0.49999968110E+02 0.  0.
        -12    1    1    2    0    0  0.18851997312E+02 -0.24225574965E+02  0.86281745203E+01  0.31886073458E+02  0.00000000000E+00 0.  1.
         11    1    3    3    0    0 -0.28110467615E+01 -0.47127856664E+01 -0.48029394151E+01  0.72925002516E+01  0.51100000000E-03 0. -1.
        -11    1    3    3    0    0  0.55189566891E+01 -0.53998438663E+01 -0.81585739105E+01  0.11232966003E+02  0.51100000000E-03 0.  1.
         12    1    3    3    0    0 -0.21559907240E+02  0.34338204498E+02  0.43333388054E+01  0.40776460287E+02  0.00000000000E+00 0. -1.
</event>
<event>
 7    1  0.6830263E-012  0.5930196E+02  0.7816164E-02  0.1266605E+00
        -11   -1    0    0    0    0  0.00000000000E+00  0.00000000000E+00  0.45593999997E+02  0.45594000000E+02  0.51100000000E-03 0.  1.
         11   -1    0    0    0    0 -0.00000000000E+00 -0.00000000000E+00 -0.45593999997E+02  0.45594000000E+02  0.51100000000E-03 0. -1.
    9900012    2    1    2    0    0  0.51269633839E+01  0.28650609508E+02 -0.13022159588E+02  0.59301955733E+02  0.50000021347E+02 0.  0.
        -12    1    1    2    0    0 -0.51269633839E+01 -0.28650609508E+02  0.13022159588E+02  0.31886044267E+02  0.00000000000E+00 0.  1.
         11    1    3    3    0    0 -0.71971852851E+01 -0.37928238086E+00  0.65163586439E+01  0.97162884575E+01  0.51100000000E-03 0. -1.
        -11    1    3    3    0    0 -0.77093103020E+00 -0.88249192110E+00  0.72536100753E+01  0.73476517357E+01  0.51100000000E-03 0.  1.
         12    1    3    3    0    0  0.13095079699E+02  0.29912383810E+02 -0.26792128307E+02  0.42238015539E+02  0.00000000000E+00 0. -1.
</event>
<event>
 7    1  0.6830263E-012  0.5930194E+02  0.7816164E-02  0.1266605E+00
        -11   -1    0    0    0    0  0.00000000000E+00  0.00000000000E+00  0.45593999997E+02  0.45594000000E+02  0.51100000000E-03 0.  1.
         11   -1    0    0    0    0 -0.00000000000E+00 -0.00000000000E+00 -0.45593999997E+02  0.45594000000E+02  0.51100000000E-03 0. -1.
    9900012    2    1    2    0    0 -0.20349375724E+02 -0.14276300080E+02 -0.19970249313E+02  0.59301942013E+02  0.49999996325E+02 0.  0.
        -12    1    1    2    0    0  0.20349375724E+02  0.14276300080E+02  0.19970249313E+02  0.31886057987E+02  0.00000000000E+00 0.  1.
         11    1    3    3    0    0 -0.22239578375E+02  0.31584016128E+00 -0.65472607395E+01  0.23185452869E+02  0.51100000000E-03 0. -1.
        -11    1    3    3    0    0  0.23300610142E+01  0.50084944923E+01  0.62507192725E+01  0.83418039472E+01  0.51100000000E-03 0.  1.
        -12    1    3    3    0    0 -0.43985836298E+00 -0.19600634733E+02 -0.19673707846E+02  0.27774685196E+02  0.00000000000E+00 0.  1.
</event>
<event>
 7    1  0.6830263E-012  0.5930195E+02  0.7816164E-02  0.1266605E+00
        -11   -1    0    0    0    0  0.00000000000E+00  0.00000000000E+00  0.45593999997E+02  0.45594000000E+02  0.51100000000E-03 0.  1.
         11   -1    0    0    0    0 -0.00000000000E+00 -0.00000000000E+00 -0.45593999997E+02  0.45594000000E+02  0.51100000000E-03 0. -1.
    9900012    2    1    2    0    0  0.16692558590E+02  0.17045280219E+02 -0.21155067050E+02  0.59301953649E+02  0.50000017547E+02 0.  0.
        -12    1    1    2    0    0 -0.16692558590E+02 -0.17045280219E+02  0.21155067050E+02  0.31886046351E+02  0.00000000000E+00 0.  1.
         11    1    3    3    0    0  0.14424060610E+02  0.20874725124E+02 -0.88367013011E+01  0.26868103090E+02  0.51100000000E-03 0. -1.
        -11    1    3    3    0    0  0.62865475049E+01 -0.15487476185E+02 -0.30092293688E+01  0.16983464304E+02  0.51100000000E-03 0.  1.
         12    1    3    3    0    0 -0.40180495248E+01  0.11658031279E+02 -0.93091363805E+01  0.15450386255E+02  0.00000000000E+00 0. -1.
</event>
<event>
 7    1  0.6830263E-012  0.5930197E+02  0.7816164E-02  0.1266605E+00
        -11   -1    0    0    0    0  0.00000000000E+00  0.00000000000E+00  0.45593999997E+02  0.45594000000E+02  0.51100000000E-03 0.  1.
         11   -1    0    0    0    0 -0.00000000000E+00 -0.00000000000E+00 -0.45593999997E+02  0.45594000000E+02  0.51100000000E-03 0. -1.
    9900012    2    1    2    0    0  0.76421817178E+01  0.22057647646E+02 -0.21720406502E+02  0.59301971403E+02  0.50000049927E+02 0.  0.
        -12    1    1    2    0    0 -0.76421817178E+01 -0.22057647646E+02  0.21720406502E+02  0.31886028597E+02  0.00000000000E+00 0.  1.
         11    1    3    3    0    0  0.54092950278E+01 -0.14734010439E+02 -0.12927467070E+02  0.20333984888E+02  0.51100000000E-03 0. -1.
        -11    1    3    3    0    0  0.42984842098E+01  0.17691885905E+02 -0.99256264552E+00  0.18233622082E+02  0.51100000000E-03 0.  1.
        -12    1    3    3    0    0 -0.20655975198E+01  0.19099772180E+02 -0.78003767862E+01  0.20734364433E+02  0.00000000000E+00 0.  1.
</event>
<event>
 7    1  0.6830263E-012  0.5930193E+02  0.7816164E-02  0.1266605E+00
        -11   -1    0    0    0    0  0.00000000000E+00  0.00000000000E+00  0.45593999997E+02  0.45594000000E+02  0.51100000000E-03 0. -1.
         11   -1    0    0    0    0 -0.00000000000E+00 -0.00000000000E+00 -0.45593999997E+02  0.45594000000E+02  0.51100000000E-03 0.  1.
    9900012    2    1    2    0    0  0.19550789904E+02  0.19628757417E+02  0.15786070213E+02  0.59301929116E+02  0.49999972805E+02 0.  0.
        -12    1    1    2    0    0 -0.19550789904E+02 -0.19628757417E+02 -0.15786070213E+02  0.31886070884E+02  0.00000000000E+00 0.  1.
         11    1    3    3    0    0  0.75914842060E+01 -0.72888487012E+01 -0.31348871180E+01  0.10981141350E+02  0.51100000000E-03 0. -1.
        -11    1    3    3    0    0 -0.74338839330E+00 -0.61546448413E+01 -0.27592475199E+01  0.67857001528E+01  0.51100000000E-03 0.  1.
         12    1    3    3    0    0  0.12702694092E+02  0.33072250959E+02  0.21680204851E+02  0.41535087614E+02  0.00000000000E+00 0. -1.
</event>
<event>
 7    1  0.6830263E-012  0.5930196E+02  0.7816164E-02  0.1266605E+00
        -11   -1    0    0    0    0  0.00000000000E+00  0.00000000000E+00  0.45593999997E+02  0.45594000000E+02  0.51100000000E-03 0.  1.
         11   -1    0    0    0    0 -0.00000000000E+00 -0.00000000000E+00 -0.45593999997E+02  0.45594000000E+02  0.51100000000E-03 0. -1.
    9900012    2    1    2    0    0  0.12074299930E+01  0.14098954206E+02 -0.28574133863E+02  0.59301960376E+02  0.50000029815E+02 0.  0.
        -12    1    1    2    0    0 -0.12074299930E+01 -0.14098954206E+02  0.28574133863E+02  0.31886039624E+02  0.00000000000E+00 0.  1.
         11    1    3    3    0    0 -0.29029782098E+01 -0.11917724774E+02 -0.16510736765E+02  0.20568516598E+02  0.51100000000E-03 0. -1.
        -11    1    3    3    0    0  0.26115176608E+01 -0.48957084478E+01 -0.37183945195E+01  0.66794044467E+01  0.51100000000E-03 0.  1.
        -12    1    3    3    0    0  0.14988905421E+01  0.30912387428E+02 -0.83450025789E+01  0.32054039331E+02  0.00000000000E+00 0.  1.
</event>
<event>
 7    1  0.6830263E-012  0.5930196E+02  0.7816164E-02  0.1266605E+00
        -11   -1    0    0    0    0  0.00000000000E+00  0.00000000000E+00  0.45593999997E+02  0.45594000000E+02  0.51100000000E-03 0.  1.
         11   -1    0    0    0    0 -0.00000000000E+00 -0.00000000000E+00 -0.45593999997E+02  0.45594000000E+02  0.51100000000E-03 0. -1.
    9900012    2    1    2    0    0 -0.15980000265E+02 -0.23798471239E+02 -0.13963949643E+02  0.59301960243E+02  0.50000029572E+02 0.  0.
        -12    1    1    2    0    0  0.15980000265E+02  0.23798471239E+02  0.13963949643E+02  0.31886039757E+02  0.00000000000E+00 0.  1.
         11    1    3    3    0    0  0.46494670426E+01 -0.14059680902E+02 -0.19103962067E+02  0.24171337112E+02  0.51100000000E-03 0. -1.
        -11    1    3    3    0    0 -0.20138697293E+02 -0.15265291380E+02 -0.28205094220E+01  0.25427377435E+02  0.51100000000E-03 0.  1.
        -12    1    3    3    0    0 -0.49077001452E+00  0.55265010428E+01  0.79605218460E+01  0.97032456964E+01  0.00000000000E+00 0.  1.
</event>
<event>
 7    1  0.6830263E-012  0.5930195E+02  0.7816164E-02  0.1266605E+00
        -11   -1    0    0    0    0  0.00000000000E+00  0.00000000000E+00  0.45593999997E+02  0.45594000000E+02  0.51100000000E-03 0.  1.
         11   -1    0    0    0    0 -0.00000000000E+00 -0.00000000000E+00 -0.45593999997E+02  0.45594000000E+02  0.51100000000E-03 0. -1.
    9900012    2    1    2    0    0  0.94802464059E+00  0.31563371498E+02 -0.44243846142E+01  0.59301947403E+02  0.50000006155E+02 0.  0.
        -12    1    1    2    0    0 -0.94802464059E+00 -0.31563371498E+02  0.44243846142E+01  0.31886052597E+02  0.00000000000E+00 0.  1.
         11    1    3    3    0    0  0.55093101561E+01  0.53734143186E+01  0.11602166474E+02  0.13922512237E+02  0.51100000000E-03 0. -1.
        -11    1    3    3    0    0 -0.60788914681E+00 -0.72355793727E+00 -0.18075372922E+02  0.18100059995E+02  0.51100000000E-03 0.  1.
         12    1    3    3    0    0 -0.39533963687E+01  0.26913515117E+02  0.20488218335E+01  0.27279375170E+02  0.00000000000E+00 0. -1.
</event>
<event>
 7    1  0.6830263E-012  0.5930192E+02  0.7816164E-02  0.1266605E+00
        -11   -1    0    0    0    0  0.00000000000E+00  0.00000000000E+00  0.45593999997E+02  0.45594000000E+02  0.51100000000E-03 0.  1.
         11   -1    0    0    0    0 -0.00000000000E+00 -0.00000000000E+00 -0.45593999997E+02  0.45594000000E+02  0.51100000000E-03 0. -1.
    9900012    2    1    2    0    0  0.86506547904E+01  0.16521489380E+02 -0.25863654133E+02  0.59301920832E+02  0.49999957696E+02 0.  0.
        -12    1    1    2    0    0 -0.86506547904E+01 -0.16521489380E+02  0.25863654133E+02  0.31886079168E+02  0.00000000000E+00 0.  1.
         11    1    3    3    0    0 -0.80901446432E+01  0.48279804322E+01 -0.24587297296E+02  0.26330496083E+02  0.51100000000E-03 0. -1.
        -11    1    3    3    0    0  0.12204252581E+02  0.16586904843E+02 -0.92492066326E+01  0.22574698601E+02  0.51100000000E-03 0.  1.
        -12    1    3    3    0    0  0.45365468528E+01 -0.48933958952E+01  0.79728497957E+01  0.10396726148E+02  0.00000000000E+00 0.  1.
</event>
<event>
 7    1  0.6830263E-012  0.5930191E+02  0.7816164E-02  0.1266605E+00
        -11   -1    0    0    0    0  0.00000000000E+00  0.00000000000E+00  0.45593999997E+02  0.45594000000E+02  0.51100000000E-03 0.  1.
         11   -1    0    0    0    0 -0.00000000000E+00 -0.00000000000E+00 -0.45593999997E+02  0.45594000000E+02  0.51100000000E-03 0. -1.
    9900012    2    1    2    0    0  0.25095559228E+02 -0.81742840131E+01  0.17891802731E+02  0.59301911857E+02  0.49999941328E+02 0.  0.
        -12    1    1    2    0    0 -0.25095559228E+02  0.81742840131E+01 -0.17891802731E+02  0.31886088143E+02  0.00000000000E+00 0.  1.
         11    1    3    3    0    0  0.91065081554E+01 -0.81066328662E+01 -0.10162474997E+02  0.15872047301E+02  0.51100000000E-03 0. -1.
        -11    1    3    3    0    0  0.20900927077E+02  0.19460528264E+01  0.76428667195E+01  0.22339411054E+02  0.51100000000E-03 0.  1.
        -12    1    3    3    0    0 -0.49118760039E+01 -0.20137039733E+01  0.20411411008E+02  0.21090453502E+02  0.00000000000E+00 0.  1.
</event>
<event>
 7    1  0.6830263E-012  0.5930195E+02  0.7816164E-02  0.1266605E+00
        -11   -1    0    0    0    0  0.00000000000E+00  0.00000000000E+00  0.45593999997E+02  0.45594000000E+02  0.51100000000E-03 0.  1.
         11   -1    0    0    0    0 -0.00000000000E+00 -0.00000000000E+00 -0.45593999997E+02  0.45594000000E+02  0.51100000000E-03 0. -1.
    9900012    2    1    2    0    0 -0.87156855982E+01  0.23294776163E+02 -0.19952696883E+02  0.59301954701E+02  0.50000019465E+02 0.  0.
        -12    1    1    2    0    0  0.87156855982E+01 -0.23294776163E+02  0.19952696883E+02  0.31886045299E+02  0.00000000000E+00 0.  1.
         11    1    3    3    0    0 -0.24169272482E+01  0.14778577628E+01  0.17911310908E+01  0.33516789428E+01  0.51100000000E-03 0. -1.
        -11    1    3    3    0    0 -0.26497538668E+01  0.24502850869E+02  0.79627697745E+01  0.25900127393E+02  0.51100000000E-03 0.  1.
         12    1    3    3    0    0 -0.36490044832E+01 -0.26859324685E+01 -0.29706597748E+02  0.30050148365E+02  0.00000000000E+00 0. -1.
</event>
<event>
 7    1  0.6830263E-012  0.5930193E+02  0.7816164E-02  0.1266605E+00
        -11   -1    0    0    0    0  0.00000000000E+00  0.00000000000E+00  0.45593999997E+02  0.45594000000E+02  0.51100000000E-03 0.  1.
         11   -1    0    0    0    0 -0.00000000000E+00 -0.00000000000E+00 -0.45593999997E+02  0.45594000000E+02  0.51100000000E-03 0. -1.
    9900012    2    1    2    0    0  0.38020228279E+01  0.10316652300E+02 -0.29930462238E+02  0.59301933105E+02  0.49999980079E+02 0.  0.
        -12    1    1    2    0    0 -0.38020228279E+01 -0.10316652300E+02  0.29930462238E+02  0.31886066895E+02  0.00000000000E+00 0.  1.
         11    1    3    3    0    0  0.16812822143E+01  0.19836020614E+02 -0.20673744144E+02  0.28700141479E+02  0.51100000000E-03 0. -1.
        -11    1    3    3    0    0 -0.78855052251E+01  0.25467826797E+01 -0.12105119078E+02  0.14669737654E+02  0.51100000000E-03 0.  1.
        -12    1    3    3    0    0  0.10006245839E+02 -0.12066150994E+02  0.28484009841E+01  0.15932053972E+02  0.00000000000E+00 0.  1.
</event>
<event>
 7    1  0.6830263E-012  0.5930194E+02  0.7816164E-02  0.1266605E+00
        -11   -1    0    0    0    0  0.00000000000E+00  0.00000000000E+00  0.45593999997E+02  0.45594000000E+02  0.51100000000E-03 0.  1.
         11   -1    0    0    0    0 -0.00000000000E+00 -0.00000000000E+00 -0.45593999997E+02  0.45594000000E+02  0.51100000000E-03 0. -1.
    9900012    2    1    2    0    0  0.18343863255E+02 -0.19004600821E+02 -0.17861925393E+02  0.59301944267E+02  0.50000000437E+02 0.  0.
        -12    1    1    2    0    0 -0.18343863255E+02  0.19004600821E+02  0.17861925393E+02  0.31886055733E+02  0.00000000000E+00 0.  1.
         11    1    3    3    0    0  0.10929210051E+02 -0.16629915173E+02 -0.31176856859E+02  0.36986458534E+02  0.51100000000E-03 0. -1.
        -11    1    3    3    0    0 -0.49453419390E+01 -0.90945620194E+00  0.17463881948E+01  0.53229117469E+01  0.51100000000E-03 0.  1.
        -12    1    3    3    0    0  0.12359995143E+02 -0.14652294457E+01  0.11568543271E+02  0.16992573986E+02  0.00000000000E+00 0.  1.
</event>
<event>
 7    1  0.6830263E-012  0.5930195E+02  0.7816164E-02  0.1266605E+00
        -11   -1    0    0    0    0  0.00000000000E+00  0.00000000000E+00  0.45593999997E+02  0.45594000000E+02  0.51100000000E-03 0. -1.
         11   -1    0    0    0    0 -0.00000000000E+00 -0.00000000000E+00 -0.45593999997E+02  0.45594000000E+02  0.51100000000E-03 0.  1.
    9900012    2    1    2    0    0  0.25744762508E+02  0.10684733791E+02  0.15484313428E+02  0.59301948267E+02  0.50000007731E+02 0.  0.
        -12    1    1    2    0    0 -0.25744762508E+02 -0.10684733791E+02 -0.15484313428E+02  0.31886051733E+02  0.00000000000E+00 0.  1.
         11    1    3    3    0    0 -0.41821879443E+01  0.35612384657E+01  0.14526861693E+02  0.15530705918E+02  0.51100000000E-03 0. -1.
        -11    1    3    3    0    0  0.55273185175E+01  0.34983225860E+00 -0.13514369123E+02  0.14605197899E+02  0.51100000000E-03 0.  1.
        -12    1    3    3    0    0  0.24399631935E+02  0.67736630670E+01  0.14471820858E+02  0.29166044450E+02  0.00000000000E+00 0.  1.
</event>
<event>
 7    1  0.6830263E-012  0.5930194E+02  0.7816164E-02  0.1266605E+00
        -11   -1    0    0    0    0  0.00000000000E+00  0.00000000000E+00  0.45593999997E+02  0.45594000000E+02  0.51100000000E-03 0. -1.
         11   -1    0    0    0    0 -0.00000000000E+00 -0.00000000000E+00 -0.45593999997E+02  0.45594000000E+02  0.51100000000E-03 0.  1.
    9900012    2    1    2    0    0  0.27831097198E+02  0.60427396028E+01  0.14340010436E+02  0.59301943918E+02  0.49999999800E+02 0.  0.
        -12    1    1    2    0    0 -0.27831097198E+02 -0.60427396028E+01 -0.14340010436E+02  0.31886056082E+02  0.00000000000E+00 0.  1.
         11    1    3    3    0    0  0.73599133773E+01 -0.19985575911E+02  0.16802341513E+01  0.21363865673E+02  0.51100000000E-03 0. -1.
        -11    1    3    3    0    0  0.39999006982E+01 -0.86245593984E+00  0.25562324983E+01  0.48246617177E+01  0.51100000000E-03 0.  1.
        -12    1    3    3    0    0  0.16471283123E+02  0.26890771454E+02  0.10103543786E+02  0.33113416528E+02  0.00000000000E+00 0.  1.
</event>
<event>
 7    1  0.6830263E-012  0.5930195E+02  0.7816164E-02  0.1266605E+00
        -11   -1    0    0    0    0  0.00000000000E+00  0.00000000000E+00  0.45593999997E+02  0.45594000000E+02  0.51100000000E-03 0. -1.
         11   -1    0    0    0    0 -0.00000000000E+00 -0.00000000000E+00 -0.45593999997E+02  0.45594000000E+02  0.51100000000E-03 0.  1.
    9900012    2    1    2    0    0 -0.27675235767E+01 -0.72648803958E-01  0.31765640525E+02  0.59301946896E+02  0.50000005231E+02 0.  0.
        -12    1    1    2    0    0  0.27675235767E+01  0.72648803958E-01 -0.31765640525E+02  0.31886053104E+02  0.00000000000E+00 0.  1.
         11    1    3    3    0    0  0.35936100063E+01  0.12056768488E+01  0.28059304721E+02  0.28314170855E+02  0.51100000000E-03 0. -1.
        -11    1    3    3    0    0 -0.13198728695E+01 -0.82380108610E+00  0.16840391959E+02  0.16912111465E+02  0.51100000000E-03 0.  1.
        -12    1    3    3    0    0 -0.50412607135E+01 -0.45452456670E+00 -0.13134056155E+02  0.14075664576E+02  0.00000000000E+00 0.  1.
</event>
<event>
 7    1  0.6830263E-012  0.5930197E+02  0.7816164E-02  0.1266605E+00
        -11   -1    0    0    0    0  0.00000000000E+00  0.00000000000E+00  0.45593999997E+02  0.45594000000E+02  0.51100000000E-03 0.  1.
         11   -1    0    0    0    0 -0.00000000000E+00 -0.00000000000E+00 -0.45593999997E+02  0.45594000000E+02  0.51100000000E-03 0. -1.
    9900012    2    1    2    0    0 -0.31812055560E+02  0.71852486923E+00  0.20483613760E+01  0.59301969497E+02  0.50000046449E+02 0.  0.
        -12    1    1    2    0    0  0.31812055560E+02 -0.71852486923E+00 -0.20483613760E+01  0.31886030503E+02  0.00000000000E+00 0.  1.
         11    1    3    3    0    0 -0.47386586650E+01  0.83247666130E+01 -0.11300615631E+01  0.96453960262E+01  0.51100000000E-03 0. -1.
        -11    1    3    3    0    0 -0.85329193715E+01 -0.19020965095E+02 -0.11101508808E+02  0.23618876439E+02  0.51100000000E-03 0.  1.
         12    1    3    3    0    0 -0.18540477523E+02  0.11414723352E+02  0.14279931747E+02  0.26037697031E+02  0.00000000000E+00 0. -1.
</event>
<event>
 7    1  0.6830263E-012  0.5930189E+02  0.7816164E-02  0.1266605E+00
        -11   -1    0    0    0    0  0.00000000000E+00  0.00000000000E+00  0.45593999997E+02  0.45594000000E+02  0.51100000000E-03 0. -1.
         11   -1    0    0    0    0 -0.00000000000E+00 -0.00000000000E+00 -0.45593999997E+02  0.45594000000E+02  0.51100000000E-03 0.  1.
    9900012    2    1    2    0    0 -0.22772466265E+01  0.24946649986E+02  0.19728223482E+02  0.59301890180E+02  0.49999901795E+02 0.  0.
        -12    1    1    2    0    0  0.22772466265E+01 -0.24946649986E+02 -0.19728223482E+02  0.31886109820E+02  0.00000000000E+00 0.  1.
         11    1    3    3    0    0  0.13613526122E+02  0.27249365864E+02  0.16360264859E+02  0.34576210029E+02  0.51100000000E-03 0. -1.
        -11    1    3    3    0    0  0.30207897952E+01  0.32169611173E+01 -0.10491963288E+01  0.45359478629E+01  0.51100000000E-03 0.  1.
        -12    1    3    3    0    0 -0.18911562544E+02 -0.55196769961E+01  0.44171549519E+01  0.20189732288E+02  0.00000000000E+00 0.  1.
</event>
<event>
 7    1  0.6830263E-012  0.5930197E+02  0.7816164E-02  0.1266605E+00
        -11   -1    0    0    0    0  0.00000000000E+00  0.00000000000E+00  0.45593999997E+02  0.45594000000E+02  0.51100000000E-03 0. -1.
         11   -1    0    0    0    0 -0.00000000000E+00 -0.00000000000E+00 -0.45593999997E+02  0.45594000000E+02  0.51100000000E-03 0.  1.
    9900012    2    1    2    0    0  0.21038914294E+02  0.18201741752E+02  0.15581389502E+02  0.59301968320E+02  0.50000044303E+02 0.  0.
        -12    1    1    2    0    0 -0.21038914294E+02 -0.18201741752E+02 -0.15581389502E+02  0.31886031680E+02  0.00000000000E+00 0.  1.
         11    1    3    3    0    0  0.16313920037E+02 -0.42256631935E+01 -0.73536952787E+01  0.18386871700E+02  0.51100000000E-03 0. -1.
        -11    1    3    3    0    0 -0.52431753135E+01 -0.12473086772E+01 -0.13597796503E+01  0.55583871098E+01  0.51100000000E-03 0.  1.
         12    1    3    3    0    0  0.99681695714E+01  0.23674713622E+02  0.24294864431E+02  0.35356709511E+02  0.00000000000E+00 0. -1.
</event>
<event>
 7    1  0.6830263E-012  0.5930202E+02  0.7816164E-02  0.1266605E+00
        -11   -1    0    0    0    0  0.00000000000E+00  0.00000000000E+00  0.45593999997E+02  0.45594000000E+02  0.51100000000E-03 0. -1.
         11   -1    0    0    0    0 -0.00000000000E+00 -0.00000000000E+00 -0.45593999997E+02  0.45594000000E+02  0.51100000000E-03 0.  1.
    9900012    2    1    2    0    0  0.12156262510E+02 -0.29375704400E+02  0.24513758203E+01  0.59302016079E+02  0.50000131404E+02 0.  0.
        -12    1    1    2    0    0 -0.12156262510E+02  0.29375704400E+02 -0.24513758203E+01  0.31885983921E+02  0.00000000000E+00 0.  1.
         11    1    3    3    0    0  0.21394657347E+02 -0.20842759496E+02  0.91660083804E+01  0.31243682502E+02  0.51100000000E-03 0. -1.
        -11    1    3    3    0    0 -0.83894561776E+00 -0.74544529649E+01  0.80713156262E+01  0.11019021506E+02  0.51100000000E-03 0.  1.
        -12    1    3    3    0    0 -0.83994492201E+01 -0.10784919396E+01 -0.14785948186E+02  0.17039312070E+02  0.00000000000E+00 0.  1.
</event>
<event>
 7    1  0.6830263E-012  0.5930194E+02  0.7816164E-02  0.1266605E+00
        -11   -1    0    0    0    0  0.00000000000E+00  0.00000000000E+00  0.45593999997E+02  0.45594000000E+02  0.51100000000E-03 0.  1.
         11   -1    0    0    0    0 -0.00000000000E+00 -0.00000000000E+00 -0.45593999997E+02  0.45594000000E+02  0.51100000000E-03 0. -1.
    9900012    2    1    2    0    0  0.23032843086E+02  0.15542440222E+02  0.15641011742E+02  0.59301944160E+02  0.50000000242E+02 0.  0.
        -12    1    1    2    0    0 -0.23032843086E+02 -0.15542440222E+02 -0.15641011742E+02  0.31886055840E+02  0.00000000000E+00 0.  1.
         11    1    3    3    0    0  0.15150663687E+02  0.23557741892E+02  0.10824353576E+02  0.30027927731E+02  0.51100000000E-03 0. -1.
        -11    1    3    3    0    0 -0.94704093543E+01 -0.25812520328E+01  0.51553038507E+01  0.11087320391E+02  0.51100000000E-03 0.  1.
         12    1    3    3    0    0  0.17352588753E+02 -0.54340496369E+01 -0.33864568460E+00  0.18186696039E+02  0.00000000000E+00 0. -1.
</event>
<event>
 7    1  0.6830263E-012  0.5930193E+02  0.7816164E-02  0.1266605E+00
        -11   -1    0    0    0    0  0.00000000000E+00  0.00000000000E+00  0.45593999997E+02  0.45594000000E+02  0.51100000000E-03 0. -1.
         11   -1    0    0    0    0 -0.00000000000E+00 -0.00000000000E+00 -0.45593999997E+02  0.45594000000E+02  0.51100000000E-03 0.  1.
    9900012    2    1    2    0    0  0.20198303717E+02  0.96123793782E+01  0.22723382797E+02  0.59301930376E+02  0.49999975102E+02 0.  0.
        -12    1    1    2    0    0 -0.20198303717E+02 -0.96123793782E+01 -0.22723382797E+02  0.31886069624E+02  0.00000000000E+00 0.  1.
         11    1    3    3    0    0  0.75883589887E+01 -0.53956611887E+01  0.12018579480E+02  0.15203374783E+02  0.51100000000E-03 0. -1.
        -11    1    3    3    0    0 -0.38401808621E+01  0.16852240232E+02  0.18913686322E+02  0.25621719701E+02  0.51100000000E-03 0.  1.
        -12    1    3    3    0    0  0.16450125591E+02 -0.18441996651E+01 -0.82088830057E+01  0.18476835891E+02  0.00000000000E+00 0.  1.
</event>
<event>
 7    1  0.6830263E-012  0.5930193E+02  0.7816164E-02  0.1266605E+00
        -11   -1    0    0    0    0  0.00000000000E+00  0.00000000000E+00  0.45593999997E+02  0.45594000000E+02  0.51100000000E-03 0. -1.
         11   -1    0    0    0    0 -0.00000000000E+00 -0.00000000000E+00 -0.45593999997E+02  0.45594000000E+02  0.51100000000E-03 0.  1.
    9900012    2    1    2    0    0  0.74848471673E+01 -0.71942613818E+00  0.30986785410E+02  0.59301931238E+02  0.49999976674E+02 0.  0.
        -12    1    1    2    0    0 -0.74848471673E+01  0.71942613818E+00 -0.30986785410E+02  0.31886068762E+02  0.00000000000E+00 0.  1.
         11    1    3    3    0    0  0.12744633618E+02  0.12552770438E+02  0.21720319058E+02  0.28138407773E+02  0.51100000000E-03 0. -1.
        -11    1    3    3    0    0  0.69149182720E+01 -0.51547562850E+01  0.13420160812E+02  0.15952690167E+02  0.51100000000E-03 0.  1.
         12    1    3    3    0    0 -0.12174704722E+02 -0.81174402910E+01 -0.41536944611E+01  0.15210833298E+02  0.00000000000E+00 0. -1.
</event>
<event>
 7    1  0.6830263E-012  0.5930193E+02  0.7816164E-02  0.1266605E+00
        -11   -1    0    0    0    0  0.00000000000E+00  0.00000000000E+00  0.45593999997E+02  0.45594000000E+02  0.51100000000E-03 0. -1.
         11   -1    0    0    0    0 -0.00000000000E+00 -0.00000000000E+00 -0.45593999997E+02  0.45594000000E+02  0.51100000000E-03 0.  1.
    9900012    2    1    2    0    0 -0.28994607668E+02 -0.12997956819E+02  0.26621736687E+01  0.59301932134E+02  0.49999978309E+02 0.  0.
        -12    1    1    2    0    0  0.28994607668E+02  0.12997956819E+02 -0.26621736687E+01  0.31886067866E+02  0.00000000000E+00 0.  1.
         11    1    3    3    0    0 -0.28907610719E+02 -0.15453170152E+02  0.10093291662E+02  0.34297594115E+02  0.51100000000E-03 0. -1.
        -11    1    3    3    0    0 -0.44743548803E+01 -0.98181571047E+01 -0.25541089574E+01  0.11087810124E+02  0.51100000000E-03 0.  1.
         12    1    3    3    0    0  0.43873579307E+01  0.12273370438E+02 -0.48770090359E+01  0.13916527895E+02  0.00000000000E+00 0. -1.
</event>
<event>
 7    1  0.6830263E-012  0.5930193E+02  0.7816164E-02  0.1266605E+00
        -11   -1    0    0    0    0  0.00000000000E+00  0.00000000000E+00  0.45593999997E+02  0.45594000000E+02  0.51100000000E-03 0.  1.
         11   -1    0    0    0    0 -0.00000000000E+00 -0.00000000000E+00 -0.45593999997E+02  0.45594000000E+02  0.51100000000E-03 0. -1.
    9900012    2    1    2    0    0 -0.16881047827E+02  0.77854309362E+01 -0.25906343978E+02  0.59301931429E+02  0.49999977023E+02 0.  0.
        -12    1    1    2    0    0  0.16881047827E+02 -0.77854309362E+01  0.25906343978E+02  0.31886068571E+02  0.00000000000E+00 0.  1.
         11    1    3    3    0    0  0.10036844339E+02 -0.99818730607E+00 -0.14091128151E+01  0.10184312513E+02  0.51100000000E-03 0. -1.
        -11    1    3    3    0    0 -0.14291825216E+01 -0.38837489364E+01  0.60725719082E+01  0.73486188037E+01  0.51100000000E-03 0.  1.
         12    1    3    3    0    0 -0.25488709644E+02  0.12667367179E+02 -0.30569803071E+02  0.41769000112E+02  0.00000000000E+00 0. -1.
</event>
<event>
 7    1  0.6830263E-012  0.5930195E+02  0.7816164E-02  0.1266605E+00
        -11   -1    0    0    0    0  0.00000000000E+00  0.00000000000E+00  0.45593999997E+02  0.45594000000E+02  0.51100000000E-03 0. -1.
         11   -1    0    0    0    0 -0.00000000000E+00 -0.00000000000E+00 -0.45593999997E+02  0.45594000000E+02  0.51100000000E-03 0.  1.
    9900012    2    1    2    0    0 -0.53590011585E+01 -0.10487327222E+02  0.29631361363E+02  0.59301945024E+02  0.50000001818E+02 0.  0.
        -12    1    1    2    0    0  0.53590011585E+01  0.10487327222E+02 -0.29631361363E+02  0.31886054976E+02  0.00000000000E+00 0.  1.
         11    1    3    3    0    0  0.53339263207E+01  0.99771927441E+01  0.20712059942E+02  0.23600520595E+02  0.51100000000E-03 0. -1.
        -11    1    3    3    0    0  0.40634014143E+01 -0.18752912780E+02  0.80876585059E+01  0.20822900594E+02  0.51100000000E-03 0.  1.
         12    1    3    3    0    0 -0.14756328893E+02 -0.17116071863E+01  0.83164291498E+00  0.14878523835E+02  0.00000000000E+00 0. -1.
</event>
<event>
 7    1  0.6830263E-012  0.5930191E+02  0.7816164E-02  0.1266605E+00
        -11   -1    0    0    0    0  0.00000000000E+00  0.00000000000E+00  0.45593999997E+02  0.45594000000E+02  0.51100000000E-03 0.  1.
         11   -1    0    0    0    0 -0.00000000000E+00 -0.00000000000E+00 -0.45593999997E+02  0.45594000000E+02  0.51100000000E-03 0. -1.
    9900012    2    1    2    0    0  0.10712014809E+02 -0.17099404801E+02 -0.24689786333E+02  0.59301914398E+02  0.49999945962E+02 0.  0.
        -12    1    1    2    0    0 -0.10712014809E+02  0.17099404801E+02  0.24689786333E+02  0.31886085602E+02  0.00000000000E+00 0.  1.
         11    1    3    3    0    0  0.15528571099E+02  0.12679284712E+02 -0.16340675712E+02  0.25863458086E+02  0.51100000000E-03 0. -1.
        -11    1    3    3    0    0  0.10100580001E+01  0.85394605435E-01 -0.21630904193E+01  0.23888218488E+01  0.51100000000E-03 0.  1.
        -12    1    3    3    0    0 -0.58266142903E+01 -0.29864084119E+02 -0.61860202023E+01  0.31049634463E+02  0.00000000000E+00 0.  1.
</event>
<event>
 7    1  0.6830263E-012  0.5930194E+02  0.7816164E-02  0.1266605E+00
        -11   -1    0    0    0    0  0.00000000000E+00  0.00000000000E+00  0.45593999997E+02  0.45594000000E+02  0.51100000000E-03 0.  1.
         11   -1    0    0    0    0 -0.00000000000E+00 -0.00000000000E+00 -0.45593999997E+02  0.45594000000E+02  0.51100000000E-03 0. -1.
    9900012    2    1    2    0    0  0.16826245492E+02  0.20467693237E+02 -0.17738991894E+02  0.59301939766E+02  0.49999992228E+02 0.  0.
        -12    1    1    2    0    0 -0.16826245492E+02 -0.20467693237E+02  0.17738991894E+02  0.31886060234E+02  0.00000000000E+00 0.  1.
         11    1    3    3    0    0  0.32117359106E+01  0.15936523026E+02 -0.92440765210E+01  0.18701362643E+02  0.51100000000E-03 0. -1.
        -11    1    3    3    0    0  0.60130655328E+01  0.14853886576E+02 -0.18400247638E+02  0.24400082314E+02  0.51100000000E-03 0.  1.
        -12    1    3    3    0    0  0.76014440489E+01 -0.10322716365E+02  0.99053322648E+01  0.16200494809E+02  0.00000000000E+00 0.  1.
</event>
<event>
 7    1  0.6830263E-012  0.5930186E+02  0.7816164E-02  0.1266605E+00
        -11   -1    0    0    0    0  0.00000000000E+00  0.00000000000E+00  0.45593999997E+02  0.45594000000E+02  0.51100000000E-03 0.  1.
         11   -1    0    0    0    0 -0.00000000000E+00 -0.00000000000E+00 -0.45593999997E+02  0.45594000000E+02  0.51100000000E-03 0. -1.
    9900012    2    1    2    0    0 -0.20063979961E+01 -0.22357683906E+01 -0.31744320657E+02  0.59301855875E+02  0.49999839230E+02 0.  0.
        -12    1    1    2    0    0  0.20063979961E+01  0.22357683906E+01  0.31744320657E+02  0.31886144125E+02  0.00000000000E+00 0.  1.
         11    1    3    3    0    0  0.26989267527E+01  0.56940616805E+01 -0.45058570359E+01  0.77465664605E+01  0.51100000000E-03 0. -1.
        -11    1    3    3    0    0 -0.32209622009E+01  0.39778873967E+00  0.11476728016E+02  0.11926781611E+02  0.51100000000E-03 0.  1.
         12    1    3    3    0    0 -0.14843625479E+01 -0.83276188108E+01 -0.38715191637E+02  0.39628507803E+02  0.00000000000E+00 0. -1.
</event>
<event>
 7    1  0.6830263E-012  0.5930195E+02  0.7816164E-02  0.1266605E+00
        -11   -1    0    0    0    0  0.00000000000E+00  0.00000000000E+00  0.45593999997E+02  0.45594000000E+02  0.51100000000E-03 0.  1.
         11   -1    0    0    0    0 -0.00000000000E+00 -0.00000000000E+00 -0.45593999997E+02  0.45594000000E+02  0.51100000000E-03 0. -1.
    9900012    2    1    2    0    0  0.12516007049E+02  0.29250613656E+02 -0.21145425361E+01  0.59301950984E+02  0.50000012687E+02 0.  0.
        -12    1    1    2    0    0 -0.12516007049E+02 -0.29250613656E+02  0.21145425361E+01  0.31886049016E+02  0.00000000000E+00 0.  1.
         11    1    3    3    0    0 -0.62089769450E+01  0.22774713178E+02  0.54761236013E+01  0.24232764700E+02  0.51100000000E-03 0. -1.
        -11    1    3    3    0    0  0.56079700435E+01  0.16691613227E+02 -0.36518536331E+01  0.17983195360E+02  0.51100000000E-03 0.  1.
        -12    1    3    3    0    0  0.13117013950E+02 -0.10215712749E+02 -0.39388125044E+01  0.17085990925E+02  0.00000000000E+00 0.  1.
</event>
<event>
 7    1  0.6830263E-012  0.5930195E+02  0.7816164E-02  0.1266605E+00
        -11   -1    0    0    0    0  0.00000000000E+00  0.00000000000E+00  0.45593999997E+02  0.45594000000E+02  0.51100000000E-03 0.  1.
         11   -1    0    0    0    0 -0.00000000000E+00 -0.00000000000E+00 -0.45593999997E+02  0.45594000000E+02  0.51100000000E-03 0. -1.
    9900012    2    1    2    0    0 -0.21877448751E+02 -0.18393638955E+02 -0.14134044850E+02  0.59301953809E+02  0.50000017839E+02 0.  0.
        -12    1    1    2    0    0  0.21877448751E+02  0.18393638955E+02  0.14134044850E+02  0.31886046191E+02  0.00000000000E+00 0.  1.
         11    1    3    3    0    0 -0.54594775516E+01  0.52177547288E+01  0.70313200014E+01  0.10318445657E+02  0.51100000000E-03 0. -1.
        -11    1    3    3    0    0 -0.21546670219E+02 -0.24150385304E+01 -0.62559222787E+01  0.22566080131E+02  0.51100000000E-03 0.  1.
         12    1    3    3    0    0  0.51286990202E+01 -0.21196355154E+02 -0.14909442573E+02  0.26417428022E+02  0.00000000000E+00 0. -1.
</event>
<event>
 7    1  0.6830263E-012  0.5930195E+02  0.7816164E-02  0.1266605E+00
        -11   -1    0    0    0    0  0.00000000000E+00  0.00000000000E+00  0.45593999997E+02  0.45594000000E+02  0.51100000000E-03 0. -1.
         11   -1    0    0    0    0 -0.00000000000E+00 -0.00000000000E+00 -0.45593999997E+02  0.45594000000E+02  0.51100000000E-03 0.  1.
    9900012    2    1    2    0    0 -0.30698212439E+02 -0.43229973620E+01  0.74599860403E+01  0.59301953759E+02  0.50000017748E+02 0.  0.
        -12    1    1    2    0    0  0.30698212439E+02  0.43229973620E+01 -0.74599860403E+01  0.31886046241E+02  0.00000000000E+00 0.  1.
         11    1    3    3    0    0 -0.19720562239E+01  0.14285442651E+02  0.13320470037E+02  0.19631551129E+02  0.51100000000E-03 0. -1.
        -11    1    3    3    0    0 -0.53448164571E+01  0.31402064136E+01  0.24636986845E+01  0.66706649406E+01  0.51100000000E-03 0.  1.
        -12    1    3    3    0    0 -0.23381339758E+02 -0.21748646426E+02 -0.83241826810E+01  0.32999737689E+02  0.00000000000E+00 0.  1.
</event>
<event>
 7    1  0.6830263E-012  0.5930178E+02  0.7816164E-02  0.1266605E+00
        -11   -1    0    0    0    0  0.00000000000E+00  0.00000000000E+00  0.45593999997E+02  0.45594000000E+02  0.51100000000E-03 0.  1.
         11   -1    0    0    0    0 -0.00000000000E+00 -0.00000000000E+00 -0.45593999997E+02  0.45594000000E+02  0.51100000000E-03 0. -1.
    9900012    2    1    2    0    0 -0.57103847495E+01 -0.15028387954E+02 -0.27536703149E+02  0.59301781052E+02  0.49999702770E+02 0.  0.
        -12    1    1    2    0    0  0.57103847495E+01  0.15028387954E+02  0.27536703149E+02  0.31886218948E+02  0.00000000000E+00 0.  1.
         11    1    3    3    0    0 -0.11968518179E+02  0.67570764466E+01 -0.14651943898E+01  0.13822094789E+02  0.51100000000E-03 0. -1.
        -11    1    3    3    0    0 -0.61616378844E+01 -0.21049515464E+02 -0.76066943456E+01  0.23214428311E+02  0.51100000000E-03 0.  1.
        -12    1    3    3    0    0  0.12419771314E+02 -0.73594893724E+00 -0.18464814414E+02  0.22265257952E+02  0.00000000000E+00 0.  1.
</event>
<event>
 7    1  0.6830263E-012  0.5930194E+02  0.7816164E-02  0.1266605E+00
        -11   -1    0    0    0    0  0.00000000000E+00  0.00000000000E+00  0.45593999997E+02  0.45594000000E+02  0.51100000000E-03 0. -1.
         11   -1    0    0    0    0 -0.00000000000E+00 -0.00000000000E+00 -0.45593999997E+02  0.45594000000E+02  0.51100000000E-03 0.  1.
    9900012    2    1    2    0    0  0.17565752628E+02 -0.26355037931E+02  0.36847146580E+01  0.59301940164E+02  0.49999992954E+02 0.  0.
        -12    1    1    2    0    0 -0.17565752628E+02  0.26355037931E+02 -0.36847146580E+01  0.31886059836E+02  0.00000000000E+00 0.  1.
         11    1    3    3    0    0  0.10511102499E+01  0.33397899909E+01 -0.10251463609E+02  0.10832891411E+02  0.51100000000E-03 0.  1.
        -11    1    3    3    0    0  0.13592220507E+02 -0.14868247866E+02  0.23214313956E+02  0.30736259136E+02  0.51100000000E-03 0. -1.
         12    1    3    3    0    0  0.29224218706E+01 -0.14826580056E+02 -0.92781356892E+01  0.17732789617E+02  0.00000000000E+00 0. -1.
</event>
<event>
 7    1  0.6830263E-012  0.5930191E+02  0.7816164E-02  0.1266605E+00
        -11   -1    0    0    0    0  0.00000000000E+00  0.00000000000E+00  0.45593999997E+02  0.45594000000E+02  0.51100000000E-03 0.  1.
         11   -1    0    0    0    0 -0.00000000000E+00 -0.00000000000E+00 -0.45593999997E+02  0.45594000000E+02  0.51100000000E-03 0. -1.
    9900012    2    1    2    0    0 -0.25444115100E+02  0.29741264075E+01 -0.18986157861E+02  0.59301911945E+02  0.49999941489E+02 0.  0.
        -12    1    1    2    0    0  0.25444115100E+02 -0.29741264075E+01  0.18986157861E+02  0.31886088055E+02  0.00000000000E+00 0.  1.
         11    1    3    3    0    0  0.11861795335E+02 -0.80610373313E+00 -0.77929907431E-01  0.11889409789E+02  0.51100000000E-03 0. -1.
        -11    1    3    3    0    0  0.12415976550E+01  0.46463593698E+00  0.27645648444E+01  0.30659860291E+01  0.51100000000E-03 0.  1.
         12    1    3    3    0    0 -0.38547508090E+02  0.33155942037E+01 -0.21672792798E+02  0.44346516127E+02  0.00000000000E+00 0. -1.
</event>
<event>
 7    1  0.6830263E-012  0.5930191E+02  0.7816164E-02  0.1266605E+00
        -11   -1    0    0    0    0  0.00000000000E+00  0.00000000000E+00  0.45593999997E+02  0.45594000000E+02  0.51100000000E-03 0.  1.
         11   -1    0    0    0    0 -0.00000000000E+00 -0.00000000000E+00 -0.45593999997E+02  0.45594000000E+02  0.51100000000E-03 0. -1.
    9900012    2    1    2    0    0  0.15255388274E+02 -0.18365760795E+02 -0.21135149563E+02  0.59301912313E+02  0.49999942159E+02 0.  0.
        -12    1    1    2    0    0 -0.15255388274E+02  0.18365760795E+02  0.21135149563E+02  0.31886087687E+02  0.00000000000E+00 0.  1.
         11    1    3    3    0    0  0.13134444518E+02  0.25720547772E+01 -0.24045845073E+00  0.13386071833E+02  0.51100000000E-03 0.  1.
        -11    1    3    3    0    0  0.13197149226E+02 -0.12697793948E+02 -0.25471462692E+02  0.31371868462E+02  0.51100000000E-03 0. -1.
        -12    1    3    3    0    0 -0.11076205470E+02 -0.82400216241E+01  0.45767715804E+01  0.14543972018E+02  0.00000000000E+00 0.  1.
</event>
<event>
 7    1  0.6830263E-012  0.5930194E+02  0.7816164E-02  0.1266605E+00
        -11   -1    0    0    0    0  0.00000000000E+00  0.00000000000E+00  0.45593999997E+02  0.45594000000E+02  0.51100000000E-03 0.  1.
         11   -1    0    0    0    0 -0.00000000000E+00 -0.00000000000E+00 -0.45593999997E+02  0.45594000000E+02  0.51100000000E-03 0. -1.
    9900012    2    1    2    0    0 -0.25839714806E+02 -0.16275438070E+02  0.91727726881E+01  0.59301944985E+02  0.50000001746E+02 0.  0.
        -12    1    1    2    0    0  0.25839714806E+02  0.16275438070E+02 -0.91727726881E+01  0.31886055015E+02  0.00000000000E+00 0.  1.
         11    1    3    3    0    0 -0.64138370592E+01  0.15829742084E+02  0.25613012055E+01  0.17270735491E+02  0.51100000000E-03 0. -1.
        -11    1    3    3    0    0 -0.95056448829E+01 -0.26509858368E+01 -0.13172329050E+01  0.99559084635E+01  0.51100000000E-03 0.  1.
        -12    1    3    3    0    0 -0.99202328639E+01 -0.29454194317E+02  0.79287043876E+01  0.32075301031E+02  0.00000000000E+00 0.  1.
</event>
<event>
 7    1  0.6830263E-012  0.5930185E+02  0.7816164E-02  0.1266605E+00
        -11   -1    0    0    0    0  0.00000000000E+00  0.00000000000E+00  0.45593999997E+02  0.45594000000E+02  0.51100000000E-03 0.  1.
         11   -1    0    0    0    0 -0.00000000000E+00 -0.00000000000E+00 -0.45593999997E+02  0.45594000000E+02  0.51100000000E-03 0. -1.
    9900012    2    1    2    0    0 -0.28305624851E+02 -0.13694169878E+02  0.52903759076E+01  0.59301846828E+02  0.49999822731E+02 0.  0.
        -12    1    1    2    0    0  0.28305624851E+02  0.13694169878E+02 -0.52903759076E+01  0.31886153172E+02  0.00000000000E+00 0.  1.
         11    1    3    3    0    0 -0.52534038062E+01  0.70728937985E+01  0.29986008338E+01  0.93067548295E+01  0.51100000000E-03 0. -1.
        -11    1    3    3    0    0  0.26025216688E+01  0.85685866423E+01  0.61046454179E+01  0.10837919174E+02  0.51100000000E-03 0.  1.
        -12    1    3    3    0    0 -0.25654742714E+02 -0.29335650319E+02 -0.38128703441E+01  0.39157172824E+02  0.00000000000E+00 0.  1.
</event>
<event>
 7    1  0.6830263E-012  0.5930194E+02  0.7816164E-02  0.1266605E+00
        -11   -1    0    0    0    0  0.00000000000E+00  0.00000000000E+00  0.45593999997E+02  0.45594000000E+02  0.51100000000E-03 0.  1.
         11   -1    0    0    0    0 -0.00000000000E+00 -0.00000000000E+00 -0.45593999997E+02  0.45594000000E+02  0.51100000000E-03 0. -1.
    9900012    2    1    2    0    0 -0.21521824157E+02  0.14114859399E+02 -0.18822935896E+02  0.59301935855E+02  0.49999985095E+02 0.  0.
        -12    1    1    2    0    0  0.21521824157E+02 -0.14114859399E+02  0.18822935896E+02  0.31886064145E+02  0.00000000000E+00 0.  1.
         11    1    3    3    0    0  0.58094207099E-01 -0.73757706764E+01 -0.73190533549E+01  0.10391049527E+02  0.51100000000E-03 0. -1.
        -11    1    3    3    0    0  0.46033672109E+01  0.12285253288E+02 -0.16110771719E+02  0.20776799650E+02  0.51100000000E-03 0.  1.
        -12    1    3    3    0    0 -0.26183285575E+02  0.92053767875E+01  0.46068891787E+01  0.28134086678E+02  0.00000000000E+00 0.  1.
</event>
<event>
 7    1  0.6830263E-012  0.5930193E+02  0.7816164E-02  0.1266605E+00
        -11   -1    0    0    0    0  0.00000000000E+00  0.00000000000E+00  0.45593999997E+02  0.45594000000E+02  0.51100000000E-03 0. -1.
         11   -1    0    0    0    0 -0.00000000000E+00 -0.00000000000E+00 -0.45593999997E+02  0.45594000000E+02  0.51100000000E-03 0.  1.
    9900012    2    1    2    0    0  0.12826255899E+02 -0.29170346923E+02  0.11399052487E+01  0.59301931507E+02  0.49999977165E+02 0.  0.
        -12    1    1    2    0    0 -0.12826255899E+02  0.29170346923E+02 -0.11399052487E+01  0.31886068493E+02  0.00000000000E+00 0.  1.
         11    1    3    3    0    0 -0.18417274221E+01 -0.19385864923E+02  0.18861867660E+02  0.27110399676E+02  0.51100000000E-03 0. -1.
        -11    1    3    3    0    0 -0.14817106909E+01  0.30647538848E+01 -0.92965609722E+01  0.99002135894E+01  0.51100000000E-03 0.  1.
        -12    1    3    3    0    0  0.16149694012E+02 -0.12849235884E+02 -0.84254014395E+01  0.22291318241E+02  0.00000000000E+00 0.  1.
</event>
<event>
 7    1  0.6830263E-012  0.5930194E+02  0.7816164E-02  0.1266605E+00
        -11   -1    0    0    0    0  0.00000000000E+00  0.00000000000E+00  0.45593999997E+02  0.45594000000E+02  0.51100000000E-03 0.  1.
         11   -1    0    0    0    0 -0.00000000000E+00 -0.00000000000E+00 -0.45593999997E+02  0.45594000000E+02  0.51100000000E-03 0. -1.
    9900012    2    1    2    0    0 -0.22034683769E+02  0.20958117121E+02 -0.95890915070E+01  0.59301942890E+02  0.49999997926E+02 0.  0.
        -12    1    1    2    0    0  0.22034683769E+02 -0.20958117121E+02  0.95890915070E+01  0.31886057110E+02  0.00000000000E+00 0.  1.
         11    1    3    3    0    0 -0.35308972369E+01  0.30661581156E+01 -0.54692702087E+01  0.71959348082E+01  0.51100000000E-03 0.  1.
        -11    1    3    3    0    0 -0.28293449350E+02  0.91837063844E+00 -0.12309663679E+02  0.30868924518E+02  0.51100000000E-03 0. -1.
        -12    1    3    3    0    0  0.97896628171E+01  0.16973588367E+02  0.81898423804E+01  0.21237083565E+02  0.00000000000E+00 0.  1.
</event>
<event>
 7    1  0.6830263E-012  0.5930195E+02  0.7816164E-02  0.1266605E+00
        -11   -1    0    0    0    0  0.00000000000E+00  0.00000000000E+00  0.45593999997E+02  0.45594000000E+02  0.51100000000E-03 0.  1.
         11   -1    0    0    0    0 -0.00000000000E+00 -0.00000000000E+00 -0.45593999997E+02  0.45594000000E+02  0.51100000000E-03 0. -1.
    9900012    2    1    2    0    0  0.92106884507E+01  0.27597000663E+02 -0.13049479693E+02  0.59301950580E+02  0.50000011950E+02 0.  0.
        -12    1    1    2    0    0 -0.92106884507E+01 -0.27597000663E+02  0.13049479693E+02  0.31886049420E+02  0.00000000000E+00 0.  1.
         11    1    3    3    0    0  0.12937214072E+02  0.46759251209E+01  0.10639031643E+00  0.13756711193E+02  0.51100000000E-03 0. -1.
        -11    1    3    3    0    0  0.92664816370E+01 -0.53091475335E+01  0.21653634652E+01  0.10896950429E+02  0.51100000000E-03 0.  1.
         12    1    3    3    0    0 -0.12993007258E+02  0.28230223076E+02 -0.15321233475E+02  0.34648288958E+02  0.00000000000E+00 0. -1.
</event>
<event>
 7    1  0.6830263E-012  0.5930195E+02  0.7816164E-02  0.1266605E+00
        -11   -1    0    0    0    0  0.00000000000E+00  0.00000000000E+00  0.45593999997E+02  0.45594000000E+02  0.51100000000E-03 0.  1.
         11   -1    0    0    0    0 -0.00000000000E+00 -0.00000000000E+00 -0.45593999997E+02  0.45594000000E+02  0.51100000000E-03 0. -1.
    9900012    2    1    2    0    0  0.29551418203E+02 -0.40480492244E+01 -0.11271532615E+02  0.59301945559E+02  0.50000002793E+02 0.  0.
        -12    1    1    2    0    0 -0.29551418203E+02  0.40480492244E+01  0.11271532615E+02  0.31886054441E+02  0.00000000000E+00 0.  1.
         11    1    3    3    0    0  0.26753316096E+02  0.67801111847E+01 -0.11797752539E+02  0.30014942862E+02  0.51100000000E-03 0. -1.
        -11    1    3    3    0    0  0.33505419074E+01  0.79395159929E+01  0.50306292782E+01  0.99784405831E+01  0.51100000000E-03 0.  1.
        -12    1    3    3    0    0 -0.55243980039E+00 -0.18767676402E+02 -0.45044093548E+01  0.19308562114E+02  0.00000000000E+00 0.  1.
</event>
<event>
 7    1  0.6830263E-012  0.5930194E+02  0.7816164E-02  0.1266605E+00
        -11   -1    0    0    0    0  0.00000000000E+00  0.00000000000E+00  0.45593999997E+02  0.45594000000E+02  0.51100000000E-03 0.  1.
         11   -1    0    0    0    0 -0.00000000000E+00 -0.00000000000E+00 -0.45593999997E+02  0.45594000000E+02  0.51100000000E-03 0. -1.
    9900012    2    1    2    0    0 -0.24421812749E+01  0.27450170794E+01 -0.31673668315E+02  0.59301942974E+02  0.49999998078E+02 0.  0.
        -12    1    1    2    0    0  0.24421812749E+01 -0.27450170794E+01  0.31673668315E+02  0.31886057026E+02  0.00000000000E+00 0.  1.
         11    1    3    3    0    0  0.12319017994E+02 -0.38762653272E+01 -0.26998011855E+01  0.13193656200E+02  0.51100000000E-03 0.  1.
        -11    1    3    3    0    0 -0.23222054687E+02 -0.17485422158E+01 -0.23231375939E+02  0.32894042805E+02  0.51100000000E-03 0. -1.
         12    1    3    3    0    0  0.84608554182E+01  0.83698246224E+01 -0.57424911904E+01  0.13214243970E+02  0.00000000000E+00 0. -1.
</event>
<event>
 7    1  0.6830263E-012  0.5930194E+02  0.7816164E-02  0.1266605E+00
        -11   -1    0    0    0    0  0.00000000000E+00  0.00000000000E+00  0.45593999997E+02  0.45594000000E+02  0.51100000000E-03 0. -1.
         11   -1    0    0    0    0 -0.00000000000E+00 -0.00000000000E+00 -0.45593999997E+02  0.45594000000E+02  0.51100000000E-03 0.  1.
    9900012    2    1    2    0    0  0.21730910179E+02  0.19476157886E+02  0.12851764486E+02  0.59301936686E+02  0.49999986611E+02 0.  0.
        -12    1    1    2    0    0 -0.21730910179E+02 -0.19476157886E+02 -0.12851764486E+02  0.31886063314E+02  0.00000000000E+00 0.  1.
         11    1    3    3    0    0 -0.66796304097E+00  0.57690637892E+01  0.16903374237E+02  0.17873229492E+02  0.51100000000E-03 0. -1.
        -11    1    3    3    0    0  0.12336716793E+02  0.23725017341E+02 -0.29937557574E+00  0.26742487825E+02  0.51100000000E-03 0.  1.
         12    1    3    3    0    0  0.10062156427E+02 -0.10017923244E+02 -0.37522341748E+01  0.14686219370E+02  0.00000000000E+00 0. -1.
</event>
<event>
 7    1  0.6830263E-012  0.5930201E+02  0.7816164E-02  0.1266605E+00
        -11   -1    0    0    0    0  0.00000000000E+00  0.00000000000E+00  0.45593999997E+02  0.45594000000E+02  0.51100000000E-03 0.  1.
         11   -1    0    0    0    0 -0.00000000000E+00 -0.00000000000E+00 -0.45593999997E+02  0.45594000000E+02  0.51100000000E-03 0. -1.
    9900012    2    1    2    0    0 -0.26899860485E+02  0.17056252973E+02 -0.14826011986E+01  0.59302009880E+02  0.50000120099E+02 0.  0.
        -12    1    1    2    0    0  0.26899860485E+02 -0.17056252973E+02  0.14826011986E+01  0.31885990120E+02  0.00000000000E+00 0.  1.
         11    1    3    3    0    0 -0.20619345800E+02  0.26345686716E+00 -0.12932552693E+02  0.24340865847E+02  0.51100000000E-03 0. -1.
        -11    1    3    3    0    0  0.60790399305E+00  0.18419752192E+02 -0.31864121737E+01  0.18703209374E+02  0.51100000000E-03 0.  1.
         12    1    3    3    0    0 -0.68884186775E+01 -0.16269560861E+01  0.14636363668E+02  0.16257934660E+02  0.00000000000E+00 0. -1.
</event>
<event>
 7    1  0.6830263E-012  0.5930194E+02  0.7816164E-02  0.1266605E+00
        -11   -1    0    0    0    0  0.00000000000E+00  0.00000000000E+00  0.45593999997E+02  0.45594000000E+02  0.51100000000E-03 0.  1.
         11   -1    0    0    0    0 -0.00000000000E+00 -0.00000000000E+00 -0.45593999997E+02  0.45594000000E+02  0.51100000000E-03 0. -1.
    9900012    2    1    2    0    0  0.71787752316E+01  0.65610932228E+01 -0.30366727397E+02  0.59301938924E+02  0.49999990692E+02 0.  0.
        -12    1    1    2    0    0 -0.71787752316E+01 -0.65610932228E+01  0.30366727397E+02  0.31886061076E+02  0.00000000000E+00 0.  1.
         11    1    3    3    0    0 -0.13796982481E+02  0.32866555445E+00 -0.13281910462E+02  0.19153952397E+02  0.51100000000E-03 0. -1.
        -11    1    3    3    0    0  0.60305251951E+00  0.11659555187E+02  0.18371752744E+01  0.11818803355E+02  0.51100000000E-03 0.  1.
         12    1    3    3    0    0  0.20372705194E+02 -0.54271275186E+01 -0.18921992209E+02  0.28329183172E+02  0.00000000000E+00 0. -1.
</event>
<event>
 7    1  0.6830263E-012  0.5930197E+02  0.7816164E-02  0.1266605E+00
        -11   -1    0    0    0    0  0.00000000000E+00  0.00000000000E+00  0.45593999997E+02  0.45594000000E+02  0.51100000000E-03 0.  1.
         11   -1    0    0    0    0 -0.00000000000E+00 -0.00000000000E+00 -0.45593999997E+02  0.45594000000E+02  0.51100000000E-03 0. -1.
    9900012    2    1    2    0    0 -0.26508247704E+02 -0.85650965784E+01 -0.15513575462E+02  0.59301967018E+02  0.50000041929E+02 0.  0.
        -12    1    1    2    0    0  0.26508247704E+02  0.85650965784E+01  0.15513575462E+02  0.31886032982E+02  0.00000000000E+00 0.  1.
         11    1    3    3    0    0 -0.83473561595E+01  0.40366800710E+01  0.72674867720E+01  0.11780895768E+02  0.51100000000E-03 0. -1.
        -11    1    3    3    0    0 -0.53916110863E+00 -0.64380831914E+01  0.87507147740E+01  0.10877252374E+02  0.51100000000E-03 0.  1.
         12    1    3    3    0    0 -0.17621730436E+02 -0.61636934580E+01 -0.31531777008E+02  0.36643818877E+02  0.00000000000E+00 0. -1.
</event>
<event>
 7    1  0.6830263E-012  0.5930194E+02  0.7816164E-02  0.1266605E+00
        -11   -1    0    0    0    0  0.00000000000E+00  0.00000000000E+00  0.45593999997E+02  0.45594000000E+02  0.51100000000E-03 0.  1.
         11   -1    0    0    0    0 -0.00000000000E+00 -0.00000000000E+00 -0.45593999997E+02  0.45594000000E+02  0.51100000000E-03 0. -1.
    9900012    2    1    2    0    0  0.27350468230E+01  0.24434212527E+02 -0.20302949250E+02  0.59301937666E+02  0.49999988397E+02 0.  0.
        -12    1    1    2    0    0 -0.27350468230E+01 -0.24434212527E+02  0.20302949250E+02  0.31886062334E+02  0.00000000000E+00 0.  1.
         11    1    3    3    0    0 -0.52406793797E+01  0.89952794893E+01  0.43177245867E+00  0.10419510601E+02  0.51100000000E-03 0. -1.
        -11    1    3    3    0    0 -0.60548809679E+00  0.17508752304E+02 -0.30837474629E+02  0.35466503420E+02  0.51100000000E-03 0.  1.
         12    1    3    3    0    0  0.85812142994E+01 -0.20698192659E+01  0.10102752921E+02  0.13415923644E+02  0.00000000000E+00 0. -1.
</event>
<event>
 7    1  0.6830263E-012  0.5930193E+02  0.7816164E-02  0.1266605E+00
        -11   -1    0    0    0    0  0.00000000000E+00  0.00000000000E+00  0.45593999997E+02  0.45594000000E+02  0.51100000000E-03 0.  1.
         11   -1    0    0    0    0 -0.00000000000E+00 -0.00000000000E+00 -0.45593999997E+02  0.45594000000E+02  0.51100000000E-03 0. -1.
    9900012    2    1    2    0    0 -0.25004814282E+02 -0.10555166362E+02 -0.16735260478E+02  0.59301933804E+02  0.49999981354E+02 0.  0.
        -12    1    1    2    0    0  0.25004814282E+02  0.10555166362E+02  0.16735260478E+02  0.31886066196E+02  0.00000000000E+00 0.  1.
         11    1    3    3    0    0 -0.76511782196E+00  0.43917629263E+01 -0.54177634859E+01  0.70160635924E+01  0.51100000000E-03 0. -1.
        -11    1    3    3    0    0 -0.26526509341E+01  0.13172008542E+02  0.34674068555E+01  0.13876645004E+02  0.51100000000E-03 0.  1.
         12    1    3    3    0    0 -0.21587045526E+02 -0.28118937831E+02 -0.14784903847E+02  0.38409225207E+02  0.00000000000E+00 0. -1.
</event>
<event>
 7    1  0.6830263E-012  0.5930193E+02  0.7816164E-02  0.1266605E+00
        -11   -1    0    0    0    0  0.00000000000E+00  0.00000000000E+00  0.45593999997E+02  0.45594000000E+02  0.51100000000E-03 0.  1.
         11   -1    0    0    0    0 -0.00000000000E+00 -0.00000000000E+00 -0.45593999997E+02  0.45594000000E+02  0.51100000000E-03 0. -1.
    9900012    2    1    2    0    0  0.20705038274E+02 -0.58645969037E+01 -0.23529329783E+02  0.59301929894E+02  0.49999974223E+02 0.  0.
        -12    1    1    2    0    0 -0.20705038274E+02  0.58645969037E+01  0.23529329783E+02  0.31886070106E+02  0.00000000000E+00 0.  1.
         11    1    3    3    0    0  0.89905664695E+01 -0.83161165645E+01  0.53860767998E+01  0.13379009818E+02  0.51100000000E-03 0. -1.
        -11    1    3    3    0    0  0.11767989417E+02 -0.12550739534E+02 -0.25121544670E+02  0.30448294610E+02  0.51100000000E-03 0.  1.
        -12    1    3    3    0    0 -0.53517613090E-01  0.15002259195E+02 -0.37938619127E+01  0.15474625466E+02  0.00000000000E+00 0.  1.
</event>
<event>
 7    1  0.6830263E-012  0.5930199E+02  0.7816164E-02  0.1266605E+00
        -11   -1    0    0    0    0  0.00000000000E+00  0.00000000000E+00  0.45593999997E+02  0.45594000000E+02  0.51100000000E-03 0.  1.
         11   -1    0    0    0    0 -0.00000000000E+00 -0.00000000000E+00 -0.45593999997E+02  0.45594000000E+02  0.51100000000E-03 0. -1.
    9900012    2    1    2    0    0 -0.33152815984E+01 -0.21136428547E+02  0.23642717629E+02  0.59301987382E+02  0.50000079068E+02 0.  0.
        -12    1    1    2    0    0  0.33152815984E+01  0.21136428547E+02 -0.23642717629E+02  0.31886012618E+02  0.00000000000E+00 0.  1.
         11    1    3    3    0    0  0.20780195535E+01  0.54322042499E+01  0.83685304539E+01  0.10191138822E+02  0.51100000000E-03 0. -1.
        -11    1    3    3    0    0 -0.18167972320E+02 -0.59851137759E+01  0.15905227266E+02  0.24877159400E+02  0.51100000000E-03 0.  1.
         12    1    3    3    0    0  0.12774671169E+02 -0.20583519020E+02 -0.63104009108E+00  0.24233689161E+02  0.00000000000E+00 0. -1.
</event>
<event>
 7    1  0.6830263E-012  0.5930195E+02  0.7816164E-02  0.1266605E+00
        -11   -1    0    0    0    0  0.00000000000E+00  0.00000000000E+00  0.45593999997E+02  0.45594000000E+02  0.51100000000E-03 0.  1.
         11   -1    0    0    0    0 -0.00000000000E+00 -0.00000000000E+00 -0.45593999997E+02  0.45594000000E+02  0.51100000000E-03 0. -1.
    9900012    2    1    2    0    0  0.24996502782E+02 -0.74194183325E+01 -0.18353402842E+02  0.59301947946E+02  0.50000007146E+02 0.  0.
        -12    1    1    2    0    0 -0.24996502782E+02  0.74194183325E+01  0.18353402842E+02  0.31886052054E+02  0.00000000000E+00 0.  1.
         11    1    3    3    0    0  0.12537358298E+00  0.58149061680E+01 -0.94955172892E+01  0.11135245894E+02  0.51100000000E-03 0. -1.
        -11    1    3    3    0    0  0.22290153547E+02  0.96028699999E+01 -0.60488872189E+01  0.25013098453E+02  0.51100000000E-03 0.  1.
         12    1    3    3    0    0  0.25809756522E+01 -0.22837194500E+02 -0.28089983341E+01  0.23153603599E+02  0.00000000000E+00 0. -1.
</event>
<event>
 7    1  0.6830263E-012  0.5930195E+02  0.7816164E-02  0.1266605E+00
        -11   -1    0    0    0    0  0.00000000000E+00  0.00000000000E+00  0.45593999997E+02  0.45594000000E+02  0.51100000000E-03 0. -1.
         11   -1    0    0    0    0 -0.00000000000E+00 -0.00000000000E+00 -0.45593999997E+02  0.45594000000E+02  0.51100000000E-03 0.  1.
    9900012    2    1    2    0    0 -0.82245330809E+01 -0.22796189259E+02  0.20722232176E+02  0.59301951397E+02  0.50000013440E+02 0.  0.
        -12    1    1    2    0    0  0.82245330809E+01  0.22796189259E+02 -0.20722232176E+02  0.31886048603E+02  0.00000000000E+00 0.  1.
         11    1    3    3    0    0 -0.23625339901E+01 -0.11462856650E+02  0.13952724883E+02  0.18211457420E+02  0.51100000000E-03 0. -1.
        -11    1    3    3    0    0 -0.11032127396E+02  0.51328411584E+01  0.17091705900E+02  0.20980474353E+02  0.51100000000E-03 0.  1.
        -12    1    3    3    0    0  0.51701283053E+01 -0.16466173768E+02 -0.10322198607E+02  0.20110019625E+02  0.00000000000E+00 0.  1.
</event>
<event>
 7    1  0.6830263E-012  0.5930195E+02  0.7816164E-02  0.1266605E+00
        -11   -1    0    0    0    0  0.00000000000E+00  0.00000000000E+00  0.45593999997E+02  0.45594000000E+02  0.51100000000E-03 0. -1.
         11   -1    0    0    0    0 -0.00000000000E+00 -0.00000000000E+00 -0.45593999997E+02  0.45594000000E+02  0.51100000000E-03 0.  1.
    9900012    2    1    2    0    0  0.90797938897E+01  0.40797117757E+01  0.30292465579E+02  0.59301950134E+02  0.50000011136E+02 0.  0.
        -12    1    1    2    0    0 -0.90797938897E+01 -0.40797117757E+01 -0.30292465579E+02  0.31886049866E+02  0.00000000000E+00 0.  1.
         11    1    3    3    0    0  0.15762637349E+02 -0.41827641799E+00 -0.39463913797E+01  0.16254528493E+02  0.51100000000E-03 0. -1.
        -11    1    3    3    0    0  0.72033419863E+01  0.89643423924E+01  0.15516939059E+02  0.19313802534E+02  0.51100000000E-03 0.  1.
         12    1    3    3    0    0 -0.13886185446E+02 -0.44663541987E+01  0.18721917900E+02  0.23733619107E+02  0.00000000000E+00 0. -1.
</event>
<event>
 7    1  0.6830263E-012  0.5930186E+02  0.7816164E-02  0.1266605E+00
        -11   -1    0    0    0    0  0.00000000000E+00  0.00000000000E+00  0.45593999997E+02  0.45594000000E+02  0.51100000000E-03 0. -1.
         11   -1    0    0    0    0 -0.00000000000E+00 -0.00000000000E+00 -0.45593999997E+02  0.45594000000E+02  0.51100000000E-03 0.  1.
    9900012    2    1    2    0    0  0.13840470853E+02  0.22892626361E+02  0.17352086629E+02  0.59301860605E+02  0.49999847857E+02 0.  0.
        -12    1    1    2    0    0 -0.13840470853E+02 -0.22892626361E+02 -0.17352086629E+02  0.31886139395E+02  0.00000000000E+00 0.  1.
         11    1    3    3    0    0  0.77336064961E+01  0.12259162422E+02  0.24206904005E+01  0.14695423607E+02  0.51100000000E-03 0. -1.
        -11    1    3    3    0    0  0.65852255191E+01  0.18715477732E+02 -0.71487001974E+01  0.21088817336E+02  0.51100000000E-03 0.  1.
         12    1    3    3    0    0 -0.47836116253E+00 -0.80820137928E+01  0.22080096426E+02  0.23517619661E+02  0.00000000000E+00 0. -1.
</event>
<event>
 7    1  0.6830263E-012  0.5930195E+02  0.7816164E-02  0.1266605E+00
        -11   -1    0    0    0    0  0.00000000000E+00  0.00000000000E+00  0.45593999997E+02  0.45594000000E+02  0.51100000000E-03 0. -1.
         11   -1    0    0    0    0 -0.00000000000E+00 -0.00000000000E+00 -0.45593999997E+02  0.45594000000E+02  0.51100000000E-03 0.  1.
    9900012    2    1    2    0    0 -0.15641245424E+02 -0.27762786532E+02  0.11398285614E+01  0.59301951584E+02  0.50000013780E+02 0.  0.
        -12    1    1    2    0    0  0.15641245424E+02  0.27762786532E+02 -0.11398285614E+01  0.31886048416E+02  0.00000000000E+00 0.  1.
         11    1    3    3    0    0  0.39444298296E+01 -0.45899690464E+01  0.98842398830E+00  0.61321549857E+01  0.51100000000E-03 0. -1.
        -11    1    3    3    0    0  0.66307070083E+01 -0.19748994592E+02 -0.12033411863E+02  0.24058097684E+02  0.51100000000E-03 0.  1.
        -12    1    3    3    0    0 -0.26216382262E+02 -0.34238228936E+01  0.12184816436E+02  0.29111698914E+02  0.00000000000E+00 0.  1.
</event>
<event>
 7    1  0.6830263E-012  0.5930192E+02  0.7816164E-02  0.1266605E+00
        -11   -1    0    0    0    0  0.00000000000E+00  0.00000000000E+00  0.45593999997E+02  0.45594000000E+02  0.51100000000E-03 0.  1.
         11   -1    0    0    0    0 -0.00000000000E+00 -0.00000000000E+00 -0.45593999997E+02  0.45594000000E+02  0.51100000000E-03 0. -1.
    9900012    2    1    2    0    0  0.22955874740E+02 -0.38422313033E+01 -0.21794207534E+02  0.59301915128E+02  0.49999947293E+02 0.  0.
        -12    1    1    2    0    0 -0.22955874740E+02  0.38422313033E+01  0.21794207534E+02  0.31886084872E+02  0.00000000000E+00 0.  1.
         11    1    3    3    0    0  0.60731617682E+01 -0.15484362311E+02 -0.19007343016E+02  0.25257233792E+02  0.51100000000E-03 0. -1.
        -11    1    3    3    0    0 -0.12480311210E+01  0.18952439642E+01 -0.11478254656E+02  0.11700421427E+02  0.51100000000E-03 0.  1.
        -12    1    3    3    0    0  0.18130744092E+02  0.97468870430E+01  0.86913901373E+01  0.22344259909E+02  0.00000000000E+00 0.  1.
</event>
<event>
 7    1  0.6830263E-012  0.5930194E+02  0.7816164E-02  0.1266605E+00
        -11   -1    0    0    0    0  0.00000000000E+00  0.00000000000E+00  0.45593999997E+02  0.45594000000E+02  0.51100000000E-03 0.  1.
         11   -1    0    0    0    0 -0.00000000000E+00 -0.00000000000E+00 -0.45593999997E+02  0.45594000000E+02  0.51100000000E-03 0. -1.
    9900012    2    1    2    0    0  0.48777683956E+01  0.95032277737E+00 -0.31496429484E+02  0.59301940223E+02  0.49999993060E+02 0.  0.
        -12    1    1    2    0    0 -0.48777683956E+01 -0.95032277737E+00  0.31496429484E+02  0.31886059777E+02  0.00000000000E+00 0.  1.
         11    1    3    3    0    0  0.15511259791E+02  0.13529632157E+02 -0.18122070483E+02  0.27423704444E+02  0.51100000000E-03 0. -1.
        -11    1    3    3    0    0 -0.80993815509E+01  0.29768821413E+01  0.30143414955E+01  0.91404629917E+01  0.51100000000E-03 0.  1.
        -12    1    3    3    0    0 -0.25341098442E+01 -0.15556191521E+02 -0.16388700496E+02  0.22737772787E+02  0.00000000000E+00 0.  1.
</event>
<event>
 7    1  0.6830263E-012  0.5930195E+02  0.7816164E-02  0.1266605E+00
        -11   -1    0    0    0    0  0.00000000000E+00  0.00000000000E+00  0.45593999997E+02  0.45594000000E+02  0.51100000000E-03 0.  1.
         11   -1    0    0    0    0 -0.00000000000E+00 -0.00000000000E+00 -0.45593999997E+02  0.45594000000E+02  0.51100000000E-03 0. -1.
    9900012    2    1    2    0    0  0.31314962285E+02  0.15111336513E+01 -0.58146258625E+01  0.59301948790E+02  0.50000008685E+02 0.  0.
        -12    1    1    2    0    0 -0.31314962285E+02 -0.15111336513E+01  0.58146258625E+01  0.31886051210E+02  0.00000000000E+00 0.  1.
         11    1    3    3    0    0 -0.39936903485E+01  0.90480565632E+01  0.17818807038E+01  0.10049477065E+02  0.51100000000E-03 0. -1.
        -11    1    3    3    0    0 -0.15161389027E+01  0.26428437112E+01 -0.10503133907E+02  0.10936138358E+02  0.51100000000E-03 0.  1.
         12    1    3    3    0    0  0.36824791536E+02 -0.10179766623E+02  0.29066273408E+01  0.38316333367E+02  0.00000000000E+00 0. -1.
</event>
<event>
 7    1  0.6830263E-012  0.5930183E+02  0.7816164E-02  0.1266605E+00
        -11   -1    0    0    0    0  0.00000000000E+00  0.00000000000E+00  0.45593999997E+02  0.45594000000E+02  0.51100000000E-03 0.  1.
         11   -1    0    0    0    0 -0.00000000000E+00 -0.00000000000E+00 -0.45593999997E+02  0.45594000000E+02  0.51100000000E-03 0. -1.
    9900012    2    1    2    0    0 -0.12018578702E+02 -0.19237555574E+02 -0.22409780982E+02  0.59301826474E+02  0.49999785609E+02 0.  0.
        -12    1    1    2    0    0  0.12018578702E+02  0.19237555574E+02  0.22409780982E+02  0.31886173526E+02  0.00000000000E+00 0.  1.
         11    1    3    3    0    0  0.62377239221E+01 -0.13735741387E+01  0.29695037960E+01  0.70437105774E+01  0.51100000000E-03 0. -1.
        -11    1    3    3    0    0  0.10180270425E+02  0.88067485414E+00 -0.11754952383E+02  0.15575378002E+02  0.51100000000E-03 0.  1.
         12    1    3    3    0    0 -0.28436573049E+02 -0.18744656290E+02 -0.13624332395E+02  0.36682737894E+02  0.00000000000E+00 0. -1.
</event>
<event>
 7    1  0.6830263E-012  0.5930197E+02  0.7816164E-02  0.1266605E+00
        -11   -1    0    0    0    0  0.00000000000E+00  0.00000000000E+00  0.45593999997E+02  0.45594000000E+02  0.51100000000E-03 0.  1.
         11   -1    0    0    0    0 -0.00000000000E+00 -0.00000000000E+00 -0.45593999997E+02  0.45594000000E+02  0.51100000000E-03 0. -1.
    9900012    2    1    2    0    0 -0.68231907190E+00 -0.30643908899E+02 -0.87865837531E+01  0.59301972245E+02  0.50000051461E+02 0.  0.
        -12    1    1    2    0    0  0.68231907190E+00  0.30643908899E+02  0.87865837531E+01  0.31886027755E+02  0.00000000000E+00 0.  1.
         11    1    3    3    0    0  0.77768371641E+01 -0.22141833398E+02  0.98197524922E+00  0.23488385602E+02  0.51100000000E-03 0. -1.
        -11    1    3    3    0    0  0.83529377851E+01  0.66670372566E+01  0.10102947826E+01  0.10735066429E+02  0.51100000000E-03 0.  1.
         12    1    3    3    0    0 -0.16812094021E+02 -0.15169112758E+02 -0.10778853785E+02  0.25078520214E+02  0.00000000000E+00 0. -1.
</event>
<event>
 7    1  0.6830263E-012  0.5930192E+02  0.7816164E-02  0.1266605E+00
        -11   -1    0    0    0    0  0.00000000000E+00  0.00000000000E+00  0.45593999997E+02  0.45594000000E+02  0.51100000000E-03 0.  1.
         11   -1    0    0    0    0 -0.00000000000E+00 -0.00000000000E+00 -0.45593999997E+02  0.45594000000E+02  0.51100000000E-03 0. -1.
    9900012    2    1    2    0    0  0.10033643171E+02 -0.26835041971E+02 -0.13997448480E+02  0.59301920955E+02  0.49999957922E+02 0.  0.
        -12    1    1    2    0    0 -0.10033643171E+02  0.26835041971E+02  0.13997448480E+02  0.31886079045E+02  0.00000000000E+00 0.  1.
         11    1    3    3    0    0 -0.28964914910E+01  0.20341626238E+01 -0.70936412130E+01  0.79276242632E+01  0.51100000000E-03 0. -1.
        -11    1    3    3    0    0 -0.70590170813E+01 -0.15360758453E+02  0.11994557188E+02  0.20728049228E+02  0.51100000000E-03 0.  1.
         12    1    3    3    0    0  0.19989151743E+02 -0.13508446142E+02 -0.18898364455E+02  0.30646247465E+02  0.00000000000E+00 0. -1.
</event>
<event>
 7    1  0.6830263E-012  0.5930194E+02  0.7816164E-02  0.1266605E+00
        -11   -1    0    0    0    0  0.00000000000E+00  0.00000000000E+00  0.45593999997E+02  0.45594000000E+02  0.51100000000E-03 0. -1.
         11   -1    0    0    0    0 -0.00000000000E+00 -0.00000000000E+00 -0.45593999997E+02  0.45594000000E+02  0.51100000000E-03 0.  1.
    9900012    2    1    2    0    0 -0.31399543832E+02 -0.46267244713E+01  0.30631347954E+01  0.59301941495E+02  0.49999995381E+02 0.  0.
        -12    1    1    2    0    0  0.31399543832E+02  0.46267244713E+01 -0.30631347954E+01  0.31886058505E+02  0.00000000000E+00 0.  1.
         11    1    3    3    0    0 -0.70476054506E+01 -0.12140219562E+02 -0.33696427679E+01  0.14436348785E+02  0.51100000000E-03 0. -1.
        -11    1    3    3    0    0 -0.16175598751E+02 -0.37141329044E+01 -0.12928358365E+02  0.21037757210E+02  0.51100000000E-03 0.  1.
         12    1    3    3    0    0 -0.81763396306E+01  0.11227627996E+02  0.19361135928E+02  0.23827835499E+02  0.00000000000E+00 0. -1.
</event>
<event>
 7    1  0.6830263E-012  0.5930191E+02  0.7816164E-02  0.1266605E+00
        -11   -1    0    0    0    0  0.00000000000E+00  0.00000000000E+00  0.45593999997E+02  0.45594000000E+02  0.51100000000E-03 0.  1.
         11   -1    0    0    0    0 -0.00000000000E+00 -0.00000000000E+00 -0.45593999997E+02  0.45594000000E+02  0.51100000000E-03 0. -1.
    9900012    2    1    2    0    0 -0.13162279364E+02 -0.25984820120E+02  0.12971759813E+02  0.59301905423E+02  0.49999929595E+02 0.  0.
        -12    1    1    2    0    0  0.13162279364E+02  0.25984820120E+02 -0.12971759813E+02  0.31886094577E+02  0.00000000000E+00 0.  1.
         11    1    3    3    0    0 -0.18783607362E+02  0.12622652798E+01  0.13897439603E+02  0.23399915533E+02  0.51100000000E-03 0. -1.
        -11    1    3    3    0    0  0.44231451213E+01 -0.92536097736E+01  0.10400391056E+02  0.14606903881E+02  0.51100000000E-03 0.  1.
        -12    1    3    3    0    0  0.11981828768E+01 -0.17993475626E+02 -0.11326070847E+02  0.21295086009E+02  0.00000000000E+00 0.  1.
</event>
<event>
 7    1  0.6830263E-012  0.5930195E+02  0.7816164E-02  0.1266605E+00
        -11   -1    0    0    0    0  0.00000000000E+00  0.00000000000E+00  0.45593999997E+02  0.45594000000E+02  0.51100000000E-03 0. -1.
         11   -1    0    0    0    0 -0.00000000000E+00 -0.00000000000E+00 -0.45593999997E+02  0.45594000000E+02  0.51100000000E-03 0.  1.
    9900012    2    1    2    0    0  0.27150236938E+02  0.68288486587E+01  0.15262757895E+02  0.59301947903E+02  0.50000007067E+02 0.  0.
        -12    1    1    2    0    0 -0.27150236938E+02 -0.68288486587E+01 -0.15262757895E+02  0.31886052097E+02  0.00000000000E+00 0.  1.
         11    1    3    3    0    0  0.21547596636E+02  0.19397877680E+02  0.19414831452E+02  0.34892868324E+02  0.51100000000E-03 0. -1.
        -11    1    3    3    0    0  0.28753789852E+01 -0.34347203459E+01  0.78764791976E+01  0.90611275774E+01  0.51100000000E-03 0.  1.
         12    1    3    3    0    0  0.27272613168E+01 -0.91343086755E+01 -0.12028552755E+02  0.15347952002E+02  0.00000000000E+00 0. -1.
</event>
<event>
 7    1  0.6830263E-012  0.5930195E+02  0.7816164E-02  0.1266605E+00
        -11   -1    0    0    0    0  0.00000000000E+00  0.00000000000E+00  0.45593999997E+02  0.45594000000E+02  0.51100000000E-03 0. -1.
         11   -1    0    0    0    0 -0.00000000000E+00 -0.00000000000E+00 -0.45593999997E+02  0.45594000000E+02  0.51100000000E-03 0.  1.
    9900012    2    1    2    0    0  0.74906686662E+01  0.15363731436E+02  0.26917755331E+02  0.59301954263E+02  0.50000018666E+02 0.  0.
        -12    1    1    2    0    0 -0.74906686662E+01 -0.15363731436E+02 -0.26917755331E+02  0.31886045737E+02  0.00000000000E+00 0.  1.
         11    1    3    3    0    0  0.65706942950E+01  0.20343507084E+02  0.20671487121E+02  0.29737899792E+02  0.51100000000E-03 0. -1.
        -11    1    3    3    0    0  0.15414186176E+01  0.11487547163E+02  0.60706913408E+01  0.13084074472E+02  0.51100000000E-03 0.  1.
        -12    1    3    3    0    0 -0.62144424632E+00 -0.16467322811E+02  0.17557686884E+00  0.16479979998E+02  0.00000000000E+00 0.  1.
</event>
<event>
 7    1  0.6830263E-012  0.5930193E+02  0.7816164E-02  0.1266605E+00
        -11   -1    0    0    0    0  0.00000000000E+00  0.00000000000E+00  0.45593999997E+02  0.45594000000E+02  0.51100000000E-03 0. -1.
         11   -1    0    0    0    0 -0.00000000000E+00 -0.00000000000E+00 -0.45593999997E+02  0.45594000000E+02  0.51100000000E-03 0.  1.
    9900012    2    1    2    0    0  0.87382591656E+01 -0.30661840002E+02  0.46426014030E+00  0.59301934971E+02  0.49999983483E+02 0.  0.
        -12    1    1    2    0    0 -0.87382591656E+01  0.30661840002E+02 -0.46426014030E+00  0.31886065029E+02  0.00000000000E+00 0.  1.
         11    1    3    3    0    0 -0.78301216046E+01 -0.23964445522E+02  0.51187515992E+01  0.25725611202E+02  0.51100000000E-03 0. -1.
        -11    1    3    3    0    0 -0.51288871237E+01 -0.46324649446E+01  0.61487268916E+01  0.92505165931E+01  0.51100000000E-03 0.  1.
        -12    1    3    3    0    0  0.21697267894E+02 -0.20649295352E+01 -0.10803218350E+02  0.24325807176E+02  0.00000000000E+00 0.  1.
</event>
<event>
 7    1  0.6830263E-012  0.5930202E+02  0.7816164E-02  0.1266604E+00
        -11   -1    0    0    0    0  0.00000000000E+00  0.00000000000E+00  0.45593999997E+02  0.45594000000E+02  0.51100000000E-03 0. -1.
         11   -1    0    0    0    0 -0.00000000000E+00 -0.00000000000E+00 -0.45593999997E+02  0.45594000000E+02  0.51100000000E-03 0.  1.
    9900012    2    1    2    0    0  0.31442112095E+02 -0.31933761900E+01  0.42322118704E+01  0.59302020608E+02  0.50000139664E+02 0.  0.
        -12    1    1    2    0    0 -0.31442112095E+02  0.31933761900E+01 -0.42322118704E+01  0.31885979392E+02  0.00000000000E+00 0.  1.
         11    1    3    3    0    0  0.37228318347E+02  0.10032910494E+02  0.71441202721E+01  0.39212822324E+02  0.51100000000E-03 0. -1.
        -11    1    3    3    0    0  0.29323817330E+01 -0.81211316832E+00  0.25459096417E+01  0.39673727568E+01  0.51100000000E-03 0.  1.
        -12    1    3    3    0    0 -0.87185879848E+01 -0.12414173516E+02 -0.54578180434E+01  0.16121825527E+02  0.00000000000E+00 0.  1.
</event>
<event>
 7    1  0.6830263E-012  0.5930195E+02  0.7816164E-02  0.1266605E+00
        -11   -1    0    0    0    0  0.00000000000E+00  0.00000000000E+00  0.45593999997E+02  0.45594000000E+02  0.51100000000E-03 0.  1.
         11   -1    0    0    0    0 -0.00000000000E+00 -0.00000000000E+00 -0.45593999997E+02  0.45594000000E+02  0.51100000000E-03 0. -1.
    9900012    2    1    2    0    0  0.13222270713E+02 -0.20975994229E+02 -0.20047428704E+02  0.59301950161E+02  0.50000011185E+02 0.  0.
        -12    1    1    2    0    0 -0.13222270713E+02  0.20975994229E+02  0.20047428704E+02  0.31886049839E+02  0.00000000000E+00 0.  1.
         11    1    3    3    0    0  0.24397428261E+01  0.82035086567E+01 -0.21198572933E+02  0.22861089082E+02  0.51100000000E-03 0. -1.
        -11    1    3    3    0    0 -0.16127943930E+01 -0.64470176061E+01 -0.66474169717E+01  0.93996433137E+01  0.51100000000E-03 0.  1.
         12    1    3    3    0    0  0.12395322280E+02 -0.22732485280E+02  0.77985612006E+01  0.27041217765E+02  0.00000000000E+00 0. -1.
</event>
<event>
 7    1  0.6830263E-012  0.5930199E+02  0.7816164E-02  0.1266605E+00
        -11   -1    0    0    0    0  0.00000000000E+00  0.00000000000E+00  0.45593999997E+02  0.45594000000E+02  0.51100000000E-03 0. -1.
         11   -1    0    0    0    0 -0.00000000000E+00 -0.00000000000E+00 -0.45593999997E+02  0.45594000000E+02  0.51100000000E-03 0.  1.
    9900012    2    1    2    0    0 -0.29371354591E+01 -0.25301459113E+02  0.19181422246E+02  0.59301991198E+02  0.50000086027E+02 0.  0.
        -12    1    1    2    0    0  0.29371354591E+01  0.25301459113E+02 -0.19181422246E+02  0.31886008802E+02  0.00000000000E+00 0.  1.
         11    1    3    3    0    0  0.98463578907E+01 -0.24664508642E+02  0.20316668476E+02  0.33437340930E+02  0.51100000000E-03 0. -1.
        -11    1    3    3    0    0 -0.11183037226E+02  0.81572480379E+01  0.53302128732E+01  0.14832807782E+02  0.51100000000E-03 0.  1.
        -12    1    3    3    0    0 -0.16004561238E+01 -0.87941985091E+01 -0.64654591034E+01  0.11031842486E+02  0.00000000000E+00 0.  1.
</event>
<event>
 7    1  0.6830263E-012  0.5930195E+02  0.7816164E-02  0.1266605E+00
        -11   -1    0    0    0    0  0.00000000000E+00  0.00000000000E+00  0.45593999997E+02  0.45594000000E+02  0.51100000000E-03 0. -1.
         11   -1    0    0    0    0 -0.00000000000E+00 -0.00000000000E+00 -0.45593999997E+02  0.45594000000E+02  0.51100000000E-03 0.  1.
    9900012    2    1    2    0    0 -0.22870967370E+00  0.19472582540E+02  0.25248496874E+02  0.59301947041E+02  0.50000005496E+02 0.  0.
        -12    1    1    2    0    0  0.22870967370E+00 -0.19472582540E+02 -0.25248496874E+02  0.31886052959E+02  0.00000000000E+00 0.  1.
         11    1    3    3    0    0 -0.14216141109E+02  0.12983621457E+02  0.21442539929E+02  0.28817626777E+02  0.51100000000E-03 0.  1.
        -11    1    3    3    0    0 -0.13615567502E+01  0.13359433189E+02  0.17898388624E+01  0.13547391458E+02  0.51100000000E-03 0. -1.
        -12    1    3    3    0    0  0.15348988186E+02 -0.68704721052E+01  0.20161180824E+01  0.16936928806E+02  0.00000000000E+00 0.  1.
</event>
<event>
 7    1  0.6830263E-012  0.5930195E+02  0.7816164E-02  0.1266605E+00
        -11   -1    0    0    0    0  0.00000000000E+00  0.00000000000E+00  0.45593999997E+02  0.45594000000E+02  0.51100000000E-03 0. -1.
         11   -1    0    0    0    0 -0.00000000000E+00 -0.00000000000E+00 -0.45593999997E+02  0.45594000000E+02  0.51100000000E-03 0.  1.
    9900012    2    1    2    0    0 -0.92649464038E+01  0.27608403087E+02  0.12986813227E+02  0.59301945515E+02  0.50000002712E+02 0.  0.
        -12    1    1    2    0    0  0.92649464038E+01 -0.27608403087E+02 -0.12986813227E+02  0.31886054485E+02  0.00000000000E+00 0.  1.
         11    1    3    3    0    0 -0.57486203610E+01 -0.28045189049E+01 -0.80479036354E+01  0.10280112622E+02  0.51100000000E-03 0. -1.
        -11    1    3    3    0    0 -0.65052117523E+01 -0.46490092498E+01 -0.56876202619E-01  0.79958928277E+01  0.51100000000E-03 0.  1.
         12    1    3    3    0    0  0.29888857096E+01  0.35061931242E+02  0.21091593065E+02  0.41025940064E+02  0.00000000000E+00 0. -1.
</event>
<event>
 7    1  0.6830263E-012  0.5930193E+02  0.7816164E-02  0.1266605E+00
        -11   -1    0    0    0    0  0.00000000000E+00  0.00000000000E+00  0.45593999997E+02  0.45594000000E+02  0.51100000000E-03 0.  1.
         11   -1    0    0    0    0 -0.00000000000E+00 -0.00000000000E+00 -0.45593999997E+02  0.45594000000E+02  0.51100000000E-03 0. -1.
    9900012    2    1    2    0    0  0.47607904217E+01 -0.30106299772E+02 -0.93630703806E+01  0.59301929399E+02  0.49999973321E+02 0.  0.
        -12    1    1    2    0    0 -0.47607904217E+01  0.30106299772E+02  0.93630703806E+01  0.31886070601E+02  0.00000000000E+00 0.  1.
         11    1    3    3    0    0  0.80332824648E+01 -0.12693142273E+02  0.12326672990E+02  0.19431838698E+02  0.51100000000E-03 0. -1.
        -11    1    3    3    0    0 -0.92114165243E+01  0.44247328647E+01 -0.33918665537E+01  0.10767228719E+02  0.51100000000E-03 0.  1.
        -12    1    3    3    0    0  0.59389244812E+01 -0.21837890364E+02 -0.18297876817E+02  0.29102861982E+02  0.00000000000E+00 0.  1.
</event>
<event>
 7    1  0.6830263E-012  0.5930193E+02  0.7816164E-02  0.1266605E+00
        -11   -1    0    0    0    0  0.00000000000E+00  0.00000000000E+00  0.45593999997E+02  0.45594000000E+02  0.51100000000E-03 0.  1.
         11   -1    0    0    0    0 -0.00000000000E+00 -0.00000000000E+00 -0.45593999997E+02  0.45594000000E+02  0.51100000000E-03 0. -1.
    9900012    2    1    2    0    0  0.23830890879E+02 -0.14061836195E+01 -0.21138422769E+02  0.59301927341E+02  0.49999969567E+02 0.  0.
        -12    1    1    2    0    0 -0.23830890879E+02  0.14061836195E+01  0.21138422769E+02  0.31886072659E+02  0.00000000000E+00 0.  1.
         11    1    3    3    0    0  0.11510992054E+02  0.11188168620E+02 -0.10254061578E+02  0.19047935170E+02  0.51100000000E-03 0. -1.
        -11    1    3    3    0    0  0.26097359841E+01  0.89996960362E+01 -0.13499794195E+02  0.16433188802E+02  0.51100000000E-03 0.  1.
         12    1    3    3    0    0  0.97101628401E+01 -0.21594048276E+02  0.26154330035E+01  0.23820803368E+02  0.00000000000E+00 0. -1.
</event>
<event>
 7    1  0.6830263E-012  0.5930196E+02  0.7816164E-02  0.1266605E+00
        -11   -1    0    0    0    0  0.00000000000E+00  0.00000000000E+00  0.45593999997E+02  0.45594000000E+02  0.51100000000E-03 0.  1.
         11   -1    0    0    0    0 -0.00000000000E+00 -0.00000000000E+00 -0.45593999997E+02  0.45594000000E+02  0.51100000000E-03 0. -1.
    9900012    2    1    2    0    0  0.16378841010E+02  0.13025889495E+02 -0.24057828577E+02  0.59301963153E+02  0.50000034880E+02 0.  0.
        -12    1    1    2    0    0 -0.16378841010E+02 -0.13025889495E+02  0.24057828577E+02  0.31886036847E+02  0.00000000000E+00 0.  1.
         11    1    3    3    0    0 -0.97487196405E+01 -0.54657760946E+01 -0.10103405134E+02  0.15066221773E+02  0.51100000000E-03 0. -1.
        -11    1    3    3    0    0 -0.46537528371E+01  0.77784728792E+01 -0.83757568280E+00  0.91029439791E+01  0.51100000000E-03 0.  1.
         12    1    3    3    0    0  0.30781313488E+02  0.10713192710E+02 -0.13116847760E+02  0.35132797401E+02  0.00000000000E+00 0. -1.
</event>
<event>
 7    1  0.6830263E-012  0.5930195E+02  0.7816164E-02  0.1266605E+00
        -11   -1    0    0    0    0  0.00000000000E+00  0.00000000000E+00  0.45593999997E+02  0.45594000000E+02  0.51100000000E-03 0.  1.
         11   -1    0    0    0    0 -0.00000000000E+00 -0.00000000000E+00 -0.45593999997E+02  0.45594000000E+02  0.51100000000E-03 0. -1.
    9900012    2    1    2    0    0 -0.75146708778E+01  0.27956657568E+02 -0.13366949336E+02  0.59301947950E+02  0.50000007154E+02 0.  0.
        -12    1    1    2    0    0  0.75146708778E+01 -0.27956657568E+02  0.13366949336E+02  0.31886052050E+02  0.00000000000E+00 0.  1.
         11    1    3    3    0    0 -0.75455875512E+01  0.16524873628E+01 -0.14394109983E+02  0.16335758582E+02  0.51100000000E-03 0. -1.
        -11    1    3    3    0    0 -0.10508280858E+02  0.29080261256E+02  0.50862328850E+01  0.31336166430E+02  0.51100000000E-03 0.  1.
         12    1    3    3    0    0  0.10539197531E+02 -0.27760910510E+01 -0.40590722378E+01  0.11630022939E+02  0.00000000000E+00 0. -1.
</event>
<event>
 7    1  0.6830263E-012  0.5930194E+02  0.7816164E-02  0.1266605E+00
        -11   -1    0    0    0    0  0.00000000000E+00  0.00000000000E+00  0.45593999997E+02  0.45594000000E+02  0.51100000000E-03 0.  1.
         11   -1    0    0    0    0 -0.00000000000E+00 -0.00000000000E+00 -0.45593999997E+02  0.45594000000E+02  0.51100000000E-03 0. -1.
    9900012    2    1    2    0    0 -0.12018734293E+02 -0.28579657145E+02 -0.74480738577E+01  0.59301943789E+02  0.49999999564E+02 0.  0.
        -12    1    1    2    0    0  0.12018734293E+02  0.28579657145E+02  0.74480738577E+01  0.31886056211E+02  0.00000000000E+00 0.  1.
         11    1    3    3    0    0 -0.32956021987E+01 -0.22934729285E+02 -0.23985180108E+02  0.33348938009E+02  0.51100000000E-03 0. -1.
        -11    1    3    3    0    0 -0.50622207699E+01 -0.75686874590E+01  0.20756810041E+00  0.91079192878E+01  0.51100000000E-03 0.  1.
         12    1    3    3    0    0 -0.36609113244E+01  0.19237595997E+01  0.16329538150E+02  0.16845086492E+02  0.00000000000E+00 0. -1.
</event>
<event>
 7    1  0.6830263E-012  0.5930193E+02  0.7816164E-02  0.1266605E+00
        -11   -1    0    0    0    0  0.00000000000E+00  0.00000000000E+00  0.45593999997E+02  0.45594000000E+02  0.51100000000E-03 0.  1.
         11   -1    0    0    0    0 -0.00000000000E+00 -0.00000000000E+00 -0.45593999997E+02  0.45594000000E+02  0.51100000000E-03 0. -1.
    9900012    2    1    2    0    0  0.20292189929E+02 -0.23050740355E+02  0.85797317809E+01  0.59301930934E+02  0.49999976120E+02 0.  0.
        -12    1    1    2    0    0 -0.20292189929E+02  0.23050740355E+02 -0.85797317809E+01  0.31886069066E+02  0.00000000000E+00 0.  1.
         11    1    3    3    0    0  0.11662255398E+02 -0.24370206818E+02 -0.11536943866E+02  0.29377138311E+02  0.51100000000E-03 0. -1.
        -11    1    3    3    0    0 -0.31737401047E+01  0.56777055423E+01  0.37641480565E+00  0.65154167053E+01  0.51100000000E-03 0.  1.
        -12    1    3    3    0    0  0.11803674637E+02 -0.43582390796E+01  0.19740260841E+02  0.23409375918E+02  0.00000000000E+00 0.  1.
</event>
<event>
 7    1  0.6830263E-012  0.5930191E+02  0.7816164E-02  0.1266605E+00
        -11   -1    0    0    0    0  0.00000000000E+00  0.00000000000E+00  0.45593999997E+02  0.45594000000E+02  0.51100000000E-03 0.  1.
         11   -1    0    0    0    0 -0.00000000000E+00 -0.00000000000E+00 -0.45593999997E+02  0.45594000000E+02  0.51100000000E-03 0. -1.
    9900012    2    1    2    0    0  0.10633646908E+02  0.12375635486E+02 -0.27395112672E+02  0.59301905874E+02  0.49999930417E+02 0.  0.
        -12    1    1    2    0    0 -0.10633646908E+02 -0.12375635486E+02  0.27395112672E+02  0.31886094126E+02  0.00000000000E+00 0.  1.
         11    1    3    3    0    0  0.99093001019E+01  0.78227188104E+01  0.46945945949E+01  0.13469535136E+02  0.51100000000E-03 0. -1.
        -11    1    3    3    0    0 -0.69939476600E+01  0.78265008169E+01  0.20360854080E+01  0.10691822247E+02  0.51100000000E-03 0.  1.
         12    1    3    3    0    0  0.77182944665E+01 -0.32735841411E+01 -0.34125792675E+02  0.35140548492E+02  0.00000000000E+00 0. -1.
</event>
<event>
 7    1  0.6830263E-012  0.5930176E+02  0.7816164E-02  0.1266605E+00
        -11   -1    0    0    0    0  0.00000000000E+00  0.00000000000E+00  0.45593999997E+02  0.45594000000E+02  0.51100000000E-03 0. -1.
         11   -1    0    0    0    0 -0.00000000000E+00 -0.00000000000E+00 -0.45593999997E+02  0.45594000000E+02  0.51100000000E-03 0.  1.
    9900012    2    1    2    0    0 -0.12062359442E+02 -0.27964861316E+02  0.94444803570E+01  0.59301761700E+02  0.49999667477E+02 0.  0.
        -12    1    1    2    0    0  0.12062359442E+02  0.27964861316E+02 -0.94444803570E+01  0.31886238300E+02  0.00000000000E+00 0.  1.
         11    1    3    3    0    0 -0.45436354350E+01 -0.67110662282E+01  0.33966478544E+01  0.87875053225E+01  0.51100000000E-03 0. -1.
        -11    1    3    3    0    0  0.71018329187E+01 -0.16127366820E+02 -0.15842214379E+02  0.23696070308E+02  0.51100000000E-03 0.  1.
         12    1    3    3    0    0 -0.14620556925E+02 -0.51264282678E+01  0.21890046881E+02  0.26818186070E+02  0.00000000000E+00 0. -1.
</event>
<event>
 7    1  0.6830263E-012  0.5930194E+02  0.7816164E-02  0.1266605E+00
        -11   -1    0    0    0    0  0.00000000000E+00  0.00000000000E+00  0.45593999997E+02  0.45594000000E+02  0.51100000000E-03 0.  1.
         11   -1    0    0    0    0 -0.00000000000E+00 -0.00000000000E+00 -0.45593999997E+02  0.45594000000E+02  0.51100000000E-03 0. -1.
    9900012    2    1    2    0    0 -0.26674965534E+02 -0.17075349024E+02 -0.36877077744E+01  0.59301944754E+02  0.50000001325E+02 0.  0.
        -12    1    1    2    0    0  0.26674965534E+02  0.17075349024E+02  0.36877077744E+01  0.31886055246E+02  0.00000000000E+00 0.  1.
         11    1    3    3    0    0  0.43108541931E+01 -0.20453657292E+01  0.36301308986E+01  0.59954011911E+01  0.51100000000E-03 0. -1.
        -11    1    3    3    0    0 -0.17093419590E+02 -0.11732881133E+02  0.15846543824E+02  0.26095180482E+02  0.51100000000E-03 0.  1.
        -12    1    3    3    0    0 -0.13892400137E+02 -0.32971021615E+01 -0.23164382497E+02  0.27211363081E+02  0.00000000000E+00 0.  1.
</event>
<event>
 7    1  0.6830263E-012  0.5930197E+02  0.7816164E-02  0.1266605E+00
        -11   -1    0    0    0    0  0.00000000000E+00  0.00000000000E+00  0.45593999997E+02  0.45594000000E+02  0.51100000000E-03 0.  1.
         11   -1    0    0    0    0 -0.00000000000E+00 -0.00000000000E+00 -0.45593999997E+02  0.45594000000E+02  0.51100000000E-03 0. -1.
    9900012    2    1    2    0    0 -0.13649348364E+02 -0.28775709032E+02 -0.15403013428E+01  0.59301973762E+02  0.50000054228E+02 0.  0.
        -12    1    1    2    0    0  0.13649348364E+02  0.28775709032E+02  0.15403013428E+01  0.31886026238E+02  0.00000000000E+00 0.  1.
         11    1    3    3    0    0 -0.14382844327E+02 -0.66281516314E+01 -0.13003921008E+02  0.20491475468E+02  0.51100000000E-03 0. -1.
        -11    1    3    3    0    0 -0.61243081936E+01  0.32583661401E+01 -0.42743285404E+01  0.81482504554E+01  0.51100000000E-03 0.  1.
        -12    1    3    3    0    0  0.68578041563E+01 -0.25405923540E+02  0.15737948206E+02  0.30662247839E+02  0.00000000000E+00 0.  1.
</event>
<event>
 7    1  0.6830263E-012  0.5930198E+02  0.7816164E-02  0.1266605E+00
        -11   -1    0    0    0    0  0.00000000000E+00  0.00000000000E+00  0.45593999997E+02  0.45594000000E+02  0.51100000000E-03 0.  1.
         11   -1    0    0    0    0 -0.00000000000E+00 -0.00000000000E+00 -0.45593999997E+02  0.45594000000E+02  0.51100000000E-03 0. -1.
    9900012    2    1    2    0    0 -0.11087653480E+01 -0.23724793229E+02 -0.21274934606E+02  0.59301983992E+02  0.50000072886E+02 0.  0.
        -12    1    1    2    0    0  0.11087653480E+01  0.23724793229E+02  0.21274934606E+02  0.31886016008E+02  0.00000000000E+00 0.  1.
         11    1    3    3    0    0 -0.12477926218E+01 -0.24621587672E+02 -0.30036474591E+01  0.24835488001E+02  0.51100000000E-03 0. -1.
        -11    1    3    3    0    0  0.58469777056E+01 -0.60714040622E+01  0.47994459227E+01  0.96996792216E+01  0.51100000000E-03 0.  1.
         12    1    3    3    0    0 -0.57079504317E+01  0.69681985052E+01 -0.23070733070E+02  0.24766816770E+02  0.00000000000E+00 0. -1.
</event>
<event>
 7    1  0.6830263E-012  0.5930194E+02  0.7816164E-02  0.1266605E+00
        -11   -1    0    0    0    0  0.00000000000E+00  0.00000000000E+00  0.45593999997E+02  0.45594000000E+02  0.51100000000E-03 0. -1.
         11   -1    0    0    0    0 -0.00000000000E+00 -0.00000000000E+00 -0.45593999997E+02  0.45594000000E+02  0.51100000000E-03 0.  1.
    9900012    2    1    2    0    0  0.10310429434E+02 -0.80773727441E+01  0.29071840733E+02  0.59301939893E+02  0.49999992459E+02 0.  0.
        -12    1    1    2    0    0 -0.10310429434E+02  0.80773727441E+01 -0.29071840733E+02  0.31886060107E+02  0.00000000000E+00 0.  1.
         11    1    3    3    0    0  0.73684704023E+01  0.12045291243E+01 -0.24974452156E+01  0.78728952328E+01  0.51100000000E-03 0. -1.
        -11    1    3    3    0    0  0.18518529450E+02  0.13443513773E+00  0.49276941988E+01  0.19163407217E+02  0.51100000000E-03 0.  1.
         12    1    3    3    0    0 -0.15576570418E+02 -0.94163370062E+01  0.26641591750E+02  0.32265637443E+02  0.00000000000E+00 0. -1.
</event>
<event>
 7    1  0.6830263E-012  0.5930192E+02  0.7816164E-02  0.1266605E+00
        -11   -1    0    0    0    0  0.00000000000E+00  0.00000000000E+00  0.45593999997E+02  0.45594000000E+02  0.51100000000E-03 0.  1.
         11   -1    0    0    0    0 -0.00000000000E+00 -0.00000000000E+00 -0.45593999997E+02  0.45594000000E+02  0.51100000000E-03 0. -1.
    9900012    2    1    2    0    0 -0.33853588338E+01  0.18688351644E+02  0.25612634406E+02  0.59301918666E+02  0.49999953746E+02 0.  0.
        -12    1    1    2    0    0  0.33853588338E+01 -0.18688351644E+02 -0.25612634406E+02  0.31886081334E+02  0.00000000000E+00 0.  1.
         11    1    3    3    0    0  0.37544965566E+01 -0.77666768519E+01  0.10601967599E+02  0.13668183162E+02  0.51100000000E-03 0.  1.
        -11    1    3    3    0    0 -0.13408866925E+02  0.10066533154E+02  0.21198579230E+02  0.27027995922E+02  0.51100000000E-03 0. -1.
         12    1    3    3    0    0  0.62690115344E+01  0.16388495343E+02 -0.61879124234E+01  0.18605739582E+02  0.00000000000E+00 0. -1.
</event>
<event>
 7    1  0.6830263E-012  0.5930194E+02  0.7816164E-02  0.1266605E+00
        -11   -1    0    0    0    0  0.00000000000E+00  0.00000000000E+00  0.45593999997E+02  0.45594000000E+02  0.51100000000E-03 0.  1.
         11   -1    0    0    0    0 -0.00000000000E+00 -0.00000000000E+00 -0.45593999997E+02  0.45594000000E+02  0.51100000000E-03 0. -1.
    9900012    2    1    2    0    0  0.10399453232E+02  0.15735675031E+02 -0.25709154142E+02  0.59301941872E+02  0.49999996069E+02 0.  0.
        -12    1    1    2    0    0 -0.10399453232E+02 -0.15735675031E+02  0.25709154142E+02  0.31886058128E+02  0.00000000000E+00 0.  1.
         11    1    3    3    0    0 -0.83029248957E+00  0.23042908511E+01 -0.10784011946E+02  0.11058664289E+02  0.51100000000E-03 0. -1.
        -11    1    3    3    0    0  0.68315345866E+01 -0.11328888500E+02 -0.18603623192E+02  0.22827798308E+02  0.51100000000E-03 0.  1.
         12    1    3    3    0    0  0.43982111353E+01  0.24760272680E+02  0.36784809958E+01  0.25415479276E+02  0.00000000000E+00 0. -1.
</event>
<event>
 7    1  0.6830263E-012  0.5930194E+02  0.7816164E-02  0.1266605E+00
        -11   -1    0    0    0    0  0.00000000000E+00  0.00000000000E+00  0.45593999997E+02  0.45594000000E+02  0.51100000000E-03 0.  1.
         11   -1    0    0    0    0 -0.00000000000E+00 -0.00000000000E+00 -0.45593999997E+02  0.45594000000E+02  0.51100000000E-03 0. -1.
    9900012    2    1    2    0    0 -0.18817353803E+02  0.24970116954E+02 -0.62546879088E+01  0.59301942456E+02  0.49999997134E+02 0.  0.
        -12    1    1    2    0    0  0.18817353803E+02 -0.24970116954E+02  0.62546879088E+01  0.31886057544E+02  0.00000000000E+00 0.  1.
         11    1    3    3    0    0 -0.12042300274E+02  0.23569318625E+02 -0.23504288092E+01  0.26571682148E+02  0.51100000000E-03 0. -1.
        -11    1    3    3    0    0 -0.62169378978E+01  0.16185171124E+02  0.33038538913E+00  0.17341258198E+02  0.51100000000E-03 0.  1.
        -12    1    3    3    0    0 -0.55811563183E+00 -0.14784372795E+02 -0.42346444888E+01  0.15389002110E+02  0.00000000000E+00 0.  1.
</event>
<event>
 7    1  0.6830263E-012  0.5930189E+02  0.7816164E-02  0.1266605E+00
        -11   -1    0    0    0    0  0.00000000000E+00  0.00000000000E+00  0.45593999997E+02  0.45594000000E+02  0.51100000000E-03 0.  1.
         11   -1    0    0    0    0 -0.00000000000E+00 -0.00000000000E+00 -0.45593999997E+02  0.45594000000E+02  0.51100000000E-03 0. -1.
    9900012    2    1    2    0    0  0.41858174098E+01 -0.22971117227E+02 -0.21714755683E+02  0.59301891607E+02  0.49999904398E+02 0.  0.
        -12    1    1    2    0    0 -0.41858174098E+01  0.22971117227E+02  0.21714755683E+02  0.31886108393E+02  0.00000000000E+00 0.  1.
         11    1    3    3    0    0  0.76788330340E+01 -0.18336976226E+02  0.29746296872E+01  0.20101183943E+02  0.51100000000E-03 0. -1.
        -11    1    3    3    0    0  0.99900812578E+01 -0.11549993091E+02 -0.11606723454E+02  0.19181243274E+02  0.51100000000E-03 0.  1.
        -12    1    3    3    0    0 -0.13483096882E+02  0.69158520895E+01 -0.13082661917E+02  0.20019464390E+02  0.00000000000E+00 0.  1.
</event>
<event>
 7    1  0.6830263E-012  0.5930194E+02  0.7816164E-02  0.1266605E+00
        -11   -1    0    0    0    0  0.00000000000E+00  0.00000000000E+00  0.45593999997E+02  0.45594000000E+02  0.51100000000E-03 0.  1.
         11   -1    0    0    0    0 -0.00000000000E+00 -0.00000000000E+00 -0.45593999997E+02  0.45594000000E+02  0.51100000000E-03 0. -1.
    9900012    2    1    2    0    0 -0.21732455216E+01 -0.30847536760E+02 -0.77734938942E+01  0.59301941486E+02  0.49999995364E+02 0.  0.
        -12    1    1    2    0    0  0.21732455216E+01  0.30847536760E+02  0.77734938942E+01  0.31886058514E+02  0.00000000000E+00 0.  1.
         11    1    3    3    0    0  0.25948114279E+01 -0.77785886493E+01  0.76577462220E+01  0.11219650849E+02  0.51100000000E-03 0. -1.
        -11    1    3    3    0    0 -0.16413614907E+02  0.24656842822E+01 -0.12681127723E+01  0.16646154618E+02  0.51100000000E-03 0.  1.
         12    1    3    3    0    0  0.11645557958E+02 -0.25534632393E+02 -0.14163127344E+02  0.31436136018E+02  0.00000000000E+00 0. -1.
</event>
<event>
 7    1  0.6830263E-012  0.5930195E+02  0.7816164E-02  0.1266605E+00
        -11   -1    0    0    0    0  0.00000000000E+00  0.00000000000E+00  0.45593999997E+02  0.45594000000E+02  0.51100000000E-03 0.  1.
         11   -1    0    0    0    0 -0.00000000000E+00 -0.00000000000E+00 -0.45593999997E+02  0.45594000000E+02  0.51100000000E-03 0. -1.
    9900012    2    1    2    0    0 -0.18376119146E+02 -0.25886643852E+02 -0.29866105399E+01  0.59301954035E+02  0.50000018250E+02 0.  0.
        -12    1    1    2    0    0  0.18376119146E+02  0.25886643852E+02  0.29866105399E+01  0.31886045965E+02  0.00000000000E+00 0.  1.
         11    1    3    3    0    0 -0.21303992812E+01 -0.13919577940E+02 -0.96048284379E+00  0.14114381980E+02  0.51100000000E-03 0. -1.
        -11    1    3    3    0    0 -0.27461926429E+02  0.14500235909E+01  0.58234953848E+00  0.27506346592E+02  0.51100000000E-03 0.  1.
         12    1    3    3    0    0  0.11216206563E+02 -0.13417089503E+02 -0.26084772346E+01  0.17681225463E+02  0.00000000000E+00 0. -1.
</event>
<event>
 7    1  0.6830263E-012  0.5930193E+02  0.7816164E-02  0.1266605E+00
        -11   -1    0    0    0    0  0.00000000000E+00  0.00000000000E+00  0.45593999997E+02  0.45594000000E+02  0.51100000000E-03 0. -1.
         11   -1    0    0    0    0 -0.00000000000E+00 -0.00000000000E+00 -0.45593999997E+02  0.45594000000E+02  0.51100000000E-03 0.  1.
    9900012    2    1    2    0    0  0.11730127039E+02 -0.28603480745E+02  0.78081137979E+01  0.59301927301E+02  0.49999969494E+02 0.  0.
        -12    1    1    2    0    0 -0.11730127039E+02  0.28603480745E+02 -0.78081137979E+01  0.31886072699E+02  0.00000000000E+00 0.  1.
         11    1    3    3    0    0 -0.29758248386E+01 -0.10280128352E+01 -0.37118046768E+01  0.48672207756E+01  0.51100000000E-03 0. -1.
        -11    1    3    3    0    0 -0.73865344958E+01  0.74213206968E+01 -0.24506142582E+01  0.10753715788E+02  0.51100000000E-03 0.  1.
         12    1    3    3    0    0  0.22092486374E+02 -0.34996788607E+02  0.13970532733E+02  0.43680990737E+02  0.00000000000E+00 0. -1.
</event>
<event>
 7    1  0.6830263E-012  0.5930198E+02  0.7816164E-02  0.1266605E+00
        -11   -1    0    0    0    0  0.00000000000E+00  0.00000000000E+00  0.45593999997E+02  0.45594000000E+02  0.51100000000E-03 0. -1.
         11   -1    0    0    0    0 -0.00000000000E+00 -0.00000000000E+00 -0.45593999997E+02  0.45594000000E+02  0.51100000000E-03 0.  1.
    9900012    2    1    2    0    0  0.15089140193E+02  0.15366443168E+01  0.28047723016E+02  0.59301981215E+02  0.50000067821E+02 0.  0.
        -12    1    1    2    0    0 -0.15089140193E+02 -0.15366443168E+01 -0.28047723016E+02  0.31886018785E+02  0.00000000000E+00 0.  1.
         11    1    3    3    0    0  0.82204028619E+01 -0.78673165578E+01  0.37736224226E+02  0.39414366824E+02  0.51100000000E-03 0. -1.
        -11    1    3    3    0    0  0.62699723469E+01 -0.67717224670E+00 -0.65917931408E+00  0.63407912055E+01  0.51100000000E-03 0.  1.
        -12    1    3    3    0    0  0.59876498465E+00  0.10081133121E+02 -0.90293218961E+01  0.13546823186E+02  0.00000000000E+00 0.  1.
</event>
<event>
 7    1  0.6830263E-012  0.5930195E+02  0.7816164E-02  0.1266605E+00
        -11   -1    0    0    0    0  0.00000000000E+00  0.00000000000E+00  0.45593999997E+02  0.45594000000E+02  0.51100000000E-03 0.  1.
         11   -1    0    0    0    0 -0.00000000000E+00 -0.00000000000E+00 -0.45593999997E+02  0.45594000000E+02  0.51100000000E-03 0. -1.
    9900012    2    1    2    0    0  0.12709508457E+02  0.23713213343E+02 -0.17113507199E+02  0.59301949430E+02  0.50000009853E+02 0.  0.
        -12    1    1    2    0    0 -0.12709508457E+02 -0.23713213343E+02  0.17113507199E+02  0.31886050570E+02  0.00000000000E+00 0.  1.
         11    1    3    3    0    0  0.20026970726E+02  0.11720577110E+02  0.12076108002E+02  0.26158820099E+02  0.51100000000E-03 0. -1.
        -11    1    3    3    0    0 -0.75097948709E+00 -0.18093985199E-01 -0.72132707704E+01  0.72522805414E+01  0.51100000000E-03 0.  1.
        -12    1    3    3    0    0 -0.65664827818E+01  0.12010730219E+02 -0.21976344431E+02  0.25890848790E+02  0.00000000000E+00 0.  1.
</event>
<event>
 7    1  0.6830263E-012  0.5930193E+02  0.7816164E-02  0.1266605E+00
        -11   -1    0    0    0    0  0.00000000000E+00  0.00000000000E+00  0.45593999997E+02  0.45594000000E+02  0.51100000000E-03 0. -1.
         11   -1    0    0    0    0 -0.00000000000E+00 -0.00000000000E+00 -0.45593999997E+02  0.45594000000E+02  0.51100000000E-03 0.  1.
    9900012    2    1    2    0    0  0.12857010085E+02 -0.19291360598E+02 -0.21892057226E+02  0.59301929818E+02  0.49999974085E+02 0.  0.
        -12    1    1    2    0    0 -0.12857010085E+02  0.19291360598E+02  0.21892057226E+02  0.31886070182E+02  0.00000000000E+00 0.  1.
         11    1    3    3    0    0  0.73694693399E+01 -0.39199580203E+01  0.33191179942E+01  0.89828555457E+01  0.51100000000E-03 0. -1.
        -11    1    3    3    0    0  0.21479412642E+02 -0.96267026255E+01 -0.52714345296E+01  0.24121081924E+02  0.51100000000E-03 0.  1.
        -12    1    3    3    0    0 -0.15991871897E+02 -0.57446999523E+01 -0.19939740690E+02  0.26197992349E+02  0.00000000000E+00 0.  1.
</event>
<event>
 7    1  0.6830263E-012  0.5930218E+02  0.7816164E-02  0.1266604E+00
        -11   -1    0    0    0    0  0.00000000000E+00  0.00000000000E+00  0.45593999997E+02  0.45594000000E+02  0.51100000000E-03 0.  1.
         11   -1    0    0    0    0 -0.00000000000E+00 -0.00000000000E+00 -0.45593999997E+02  0.45594000000E+02  0.51100000000E-03 0. -1.
    9900012    2    1    2    0    0  0.90157441460E+01  0.23855909350E+02 -0.19139417850E+02  0.59302182321E+02  0.50000434588E+02 0.  0.
        -12    1    1    2    0    0 -0.90157441460E+01 -0.23855909350E+02  0.19139417850E+02  0.31885817679E+02  0.00000000000E+00 0.  1.
         11    1    3    3    0    0 -0.48314184959E+00  0.22885644158E+02  0.11382649826E+01  0.22919026638E+02  0.51100000000E-03 0. -1.
        -11    1    3    3    0    0 -0.38834911998E+01 -0.52616551165E+01  0.42188527936E+01  0.77823670961E+01  0.51100000000E-03 0.  1.
        -12    1    3    3    0    0  0.13382377195E+02  0.62319203077E+01 -0.24496535626E+02  0.28600788587E+02  0.00000000000E+00 0.  1.
</event>
<event>
 7    1  0.6830263E-012  0.5930196E+02  0.7816164E-02  0.1266605E+00
        -11   -1    0    0    0    0  0.00000000000E+00  0.00000000000E+00  0.45593999997E+02  0.45594000000E+02  0.51100000000E-03 0. -1.
         11   -1    0    0    0    0 -0.00000000000E+00 -0.00000000000E+00 -0.45593999997E+02  0.45594000000E+02  0.51100000000E-03 0.  1.
    9900012    2    1    2    0    0  0.23281450247E+02  0.58015491736E+00  0.21779740582E+02  0.59301959086E+02  0.50000027464E+02 0.  0.
        -12    1    1    2    0    0 -0.23281450247E+02 -0.58015491736E+00 -0.21779740582E+02  0.31886040914E+02  0.00000000000E+00 0.  1.
         11    1    3    3    0    0  0.14179286401E+02  0.41368508485E+01 -0.74997199668E+01  0.16565370434E+02  0.51100000000E-03 0. -1.
        -11    1    3    3    0    0  0.16566834108E+02  0.10917836654E+01  0.56726711663E+01  0.17545118477E+02  0.51100000000E-03 0.  1.
         12    1    3    3    0    0 -0.74646702618E+01 -0.46484795965E+01  0.23606789382E+02  0.25191470176E+02  0.00000000000E+00 0. -1.
</event>
<event>
 7    1  0.6830263E-012  0.5930192E+02  0.7816164E-02  0.1266605E+00
        -11   -1    0    0    0    0  0.00000000000E+00  0.00000000000E+00  0.45593999997E+02  0.45594000000E+02  0.51100000000E-03 0.  1.
         11   -1    0    0    0    0 -0.00000000000E+00 -0.00000000000E+00 -0.45593999997E+02  0.45594000000E+02  0.51100000000E-03 0. -1.
    9900012    2    1    2    0    0  0.14629747967E+02  0.18472277508E+00 -0.28331228669E+02  0.59301918931E+02  0.49999954229E+02 0.  0.
        -12    1    1    2    0    0 -0.14629747967E+02 -0.18472277508E+00  0.28331228669E+02  0.31886081069E+02  0.00000000000E+00 0.  1.
         11    1    3    3    0    0  0.70429467272E+01 -0.45257795960E+01  0.28554921593E+01  0.88453160083E+01  0.51100000000E-03 0. -1.
        -11    1    3    3    0    0  0.33066095020E+01  0.20045993708E+02 -0.69786987541E+01  0.21482033580E+02  0.51100000000E-03 0.  1.
         12    1    3    3    0    0  0.42801917375E+01 -0.15335491337E+02 -0.24208022074E+02  0.28974569343E+02  0.00000000000E+00 0. -1.
</event>
<event>
 7    1  0.6830263E-012  0.5930198E+02  0.7816164E-02  0.1266605E+00
        -11   -1    0    0    0    0  0.00000000000E+00  0.00000000000E+00  0.45593999997E+02  0.45594000000E+02  0.51100000000E-03 0. -1.
         11   -1    0    0    0    0 -0.00000000000E+00 -0.00000000000E+00 -0.45593999997E+02  0.45594000000E+02  0.51100000000E-03 0.  1.
    9900012    2    1    2    0    0  0.31454367354E+02 -0.24923301219E+01 -0.45966937883E+01  0.59301975964E+02  0.50000058243E+02 0.  0.
        -12    1    1    2    0    0 -0.31454367354E+02  0.24923301219E+01  0.45966937883E+01  0.31886024036E+02  0.00000000000E+00 0.  1.
         11    1    3    3    0    0  0.56632531488E+01  0.14660044485E+01  0.10985760122E+02  0.12446225572E+02  0.51100000000E-03 0. -1.
        -11    1    3    3    0    0 -0.76798013873E+01  0.44956851233E+01 -0.68946239344E+01  0.11257280912E+02  0.51100000000E-03 0.  1.
         12    1    3    3    0    0  0.33470915592E+02 -0.84540196937E+01 -0.86878299761E+01  0.35598469479E+02  0.00000000000E+00 0. -1.
</event>
<event>
 7    1  0.6830263E-012  0.5930194E+02  0.7816164E-02  0.1266605E+00
        -11   -1    0    0    0    0  0.00000000000E+00  0.00000000000E+00  0.45593999997E+02  0.45594000000E+02  0.51100000000E-03 0. -1.
         11   -1    0    0    0    0 -0.00000000000E+00 -0.00000000000E+00 -0.45593999997E+02  0.45594000000E+02  0.51100000000E-03 0.  1.
    9900012    2    1    2    0    0  0.99621455392E+01 -0.24791369441E+02  0.17403003129E+02  0.59301939403E+02  0.49999991566E+02 0.  0.
        -12    1    1    2    0    0 -0.99621455392E+01  0.24791369441E+02 -0.17403003129E+02  0.31886060597E+02  0.00000000000E+00 0.  1.
         11    1    3    3    0    0  0.21044679133E+01 -0.10310382115E+02 -0.16759205875E+02  0.19788980428E+02  0.51100000000E-03 0. -1.
        -11    1    3    3    0    0 -0.15494294795E+01 -0.29045744442E+00  0.29030773359E+00  0.16029273471E+01  0.51100000000E-03 0.  1.
        -12    1    3    3    0    0  0.94071071054E+01 -0.14190529881E+02  0.33871901270E+02  0.37910031628E+02  0.00000000000E+00 0.  1.
</event>
<event>
 7    1  0.6830263E-012  0.5930192E+02  0.7816164E-02  0.1266605E+00
        -11   -1    0    0    0    0  0.00000000000E+00  0.00000000000E+00  0.45593999997E+02  0.45594000000E+02  0.51100000000E-03 0. -1.
         11   -1    0    0    0    0 -0.00000000000E+00 -0.00000000000E+00 -0.45593999997E+02  0.45594000000E+02  0.51100000000E-03 0.  1.
    9900012    2    1    2    0    0  0.15521504996E+02 -0.78683975337E+00  0.27842161653E+02  0.59301918402E+02  0.49999953265E+02 0.  0.
        -12    1    1    2    0    0 -0.15521504996E+02  0.78683975337E+00 -0.27842161653E+02  0.31886081598E+02  0.00000000000E+00 0.  1.
         11    1    3    3    0    0 -0.52988216598E+00 -0.48490208663E+01  0.78683884909E+01  0.92577165746E+01  0.51100000000E-03 0. -1.
        -11    1    3    3    0    0 -0.23927032150E+01 -0.88414073148E+01 -0.93421677135E+01  0.13083256851E+02  0.51100000000E-03 0.  1.
         12    1    3    3    0    0  0.18444090377E+02  0.12903588428E+02  0.29315940876E+02  0.36960944977E+02  0.00000000000E+00 0. -1.
</event>
<event>
 7    1  0.6830263E-012  0.5930196E+02  0.7816164E-02  0.1266605E+00
        -11   -1    0    0    0    0  0.00000000000E+00  0.00000000000E+00  0.45593999997E+02  0.45594000000E+02  0.51100000000E-03 0. -1.
         11   -1    0    0    0    0 -0.00000000000E+00 -0.00000000000E+00 -0.45593999997E+02  0.45594000000E+02  0.51100000000E-03 0.  1.
    9900012    2    1    2    0    0  0.16630271216E+02 -0.24354649786E+02  0.12124553118E+02  0.59301957987E+02  0.50000025459E+02 0.  0.
        -12    1    1    2    0    0 -0.16630271216E+02  0.24354649786E+02 -0.12124553118E+02  0.31886042013E+02  0.00000000000E+00 0.  1.
         11    1    3    3    0    0  0.36983212396E+01  0.37759405575E+01 -0.57624119947E+01  0.78192518403E+01  0.51100000000E-03 0. -1.
        -11    1    3    3    0    0 -0.71496465261E+01 -0.75314415437E+01 -0.77430653181E+01  0.12953575489E+02  0.51100000000E-03 0.  1.
        -12    1    3    3    0    0  0.20081596502E+02 -0.20599148800E+02  0.25630030431E+02  0.38529130658E+02  0.00000000000E+00 0.  1.
</event>
<event>
 7    1  0.6830263E-012  0.5930195E+02  0.7816164E-02  0.1266605E+00
        -11   -1    0    0    0    0  0.00000000000E+00  0.00000000000E+00  0.45593999997E+02  0.45594000000E+02  0.51100000000E-03 0. -1.
         11   -1    0    0    0    0 -0.00000000000E+00 -0.00000000000E+00 -0.45593999997E+02  0.45594000000E+02  0.51100000000E-03 0.  1.
    9900012    2    1    2    0    0  0.23442673941E+02  0.10123625284E+02  0.19096425857E+02  0.59301949273E+02  0.50000009567E+02 0.  0.
        -12    1    1    2    0    0 -0.23442673941E+02 -0.10123625284E+02 -0.19096425857E+02  0.31886050727E+02  0.00000000000E+00 0.  1.
         11    1    3    3    0    0  0.12486165022E+02 -0.12884762120E+01  0.35392985486E+01  0.13041898726E+02  0.51100000000E-03 0. -1.
        -11    1    3    3    0    0  0.26471376935E+02  0.82883685487E+01  0.10044557205E+02  0.29501253867E+02  0.51100000000E-03 0.  1.
        -12    1    3    3    0    0 -0.15514868015E+02  0.31237329472E+01  0.55125701036E+01  0.16758796681E+02  0.00000000000E+00 0.  1.
</event>
<event>
 7    1  0.6830263E-012  0.5930191E+02  0.7816164E-02  0.1266605E+00
        -11   -1    0    0    0    0  0.00000000000E+00  0.00000000000E+00  0.45593999997E+02  0.45594000000E+02  0.51100000000E-03 0.  1.
         11   -1    0    0    0    0 -0.00000000000E+00 -0.00000000000E+00 -0.45593999997E+02  0.45594000000E+02  0.51100000000E-03 0. -1.
    9900012    2    1    2    0    0 -0.60740039586E+01  0.22681729107E+01 -0.31219935348E+02  0.59301913762E+02  0.49999944802E+02 0.  0.
        -12    1    1    2    0    0  0.60740039586E+01 -0.22681729107E+01  0.31219935348E+02  0.31886086238E+02  0.00000000000E+00 0.  1.
         11    1    3    3    0    0 -0.26675627704E+01  0.89058240473E+01 -0.10659808478E+02  0.14144296029E+02  0.51100000000E-03 0. -1.
        -11    1    3    3    0    0  0.11986154354E+02  0.95485814850E+01 -0.81716938114E+00  0.15346369950E+02  0.51100000000E-03 0.  1.
        -12    1    3    3    0    0 -0.15392595542E+02 -0.16186232622E+02 -0.19742957489E+02  0.29811247784E+02  0.00000000000E+00 0.  1.
</event>
<event>
 7    1  0.6830263E-012  0.5930193E+02  0.7816164E-02  0.1266605E+00
        -11   -1    0    0    0    0  0.00000000000E+00  0.00000000000E+00  0.45593999997E+02  0.45594000000E+02  0.51100000000E-03 0.  1.
         11   -1    0    0    0    0 -0.00000000000E+00 -0.00000000000E+00 -0.45593999997E+02  0.45594000000E+02  0.51100000000E-03 0. -1.
    9900012    2    1    2    0    0 -0.18788783731E+02  0.99732821872E+01 -0.23753666271E+02  0.59301930738E+02  0.49999975763E+02 0.  0.
        -12    1    1    2    0    0  0.18788783731E+02 -0.99732821872E+01  0.23753666271E+02  0.31886069262E+02  0.00000000000E+00 0.  1.
         11    1    3    3    0    0  0.15642804832E+01  0.19751746689E+02  0.26149514871E+01  0.19985405731E+02  0.51100000000E-03 0. -1.
        -11    1    3    3    0    0 -0.13820228030E+02  0.25523911008E+01 -0.77507540285E+01  0.16049535551E+02  0.51100000000E-03 0.  1.
        -12    1    3    3    0    0 -0.65328361840E+01 -0.12330855603E+02 -0.18617863729E+02  0.23266989456E+02  0.00000000000E+00 0.  1.
</event>
<event>
 7    1  0.6830263E-012  0.5930192E+02  0.7816164E-02  0.1266605E+00
        -11   -1    0    0    0    0  0.00000000000E+00  0.00000000000E+00  0.45593999997E+02  0.45594000000E+02  0.51100000000E-03 0.  1.
         11   -1    0    0    0    0 -0.00000000000E+00 -0.00000000000E+00 -0.45593999997E+02  0.45594000000E+02  0.51100000000E-03 0. -1.
    9900012    2    1    2    0    0  0.14394053655E+01  0.26395202079E+02 -0.17830973249E+02  0.59301918591E+02  0.49999953610E+02 0.  0.
        -12    1    1    2    0    0 -0.14394053655E+01 -0.26395202079E+02  0.17830973249E+02  0.31886081409E+02  0.00000000000E+00 0.  1.
         11    1    3    3    0    0 -0.75738169077E+01  0.12834739755E+01  0.34320396153E+01  0.84136142163E+01  0.51100000000E-03 0.  1.
        -11    1    3    3    0    0  0.18011077014E+02  0.78446919937E+01  0.28983321556E+01  0.19857956019E+02  0.51100000000E-03 0. -1.
         12    1    3    3    0    0 -0.89978547410E+01  0.17267036110E+02 -0.24161345019E+02  0.31030348356E+02  0.00000000000E+00 0. -1.
</event>
<event>
 7    1  0.6830263E-012  0.5930194E+02  0.7816164E-02  0.1266605E+00
        -11   -1    0    0    0    0  0.00000000000E+00  0.00000000000E+00  0.45593999997E+02  0.45594000000E+02  0.51100000000E-03 0. -1.
         11   -1    0    0    0    0 -0.00000000000E+00 -0.00000000000E+00 -0.45593999997E+02  0.45594000000E+02  0.51100000000E-03 0.  1.
    9900012    2    1    2    0    0 -0.19138771642E+02  0.19312004760E+02  0.16657569021E+02  0.59301941706E+02  0.49999995766E+02 0.  0.
        -12    1    1    2    0    0  0.19138771642E+02 -0.19312004760E+02 -0.16657569021E+02  0.31886058294E+02  0.00000000000E+00 0.  1.
         11    1    3    3    0    0  0.87403880367E+01  0.90685059046E+01  0.96632725160E+01  0.15874854908E+02  0.51100000000E-03 0. -1.
        -11    1    3    3    0    0 -0.59697031242E+01  0.13377876799E+02  0.13948399729E+02  0.20227772945E+02  0.51100000000E-03 0.  1.
        -12    1    3    3    0    0 -0.21909456555E+02 -0.31343779434E+01 -0.69541032245E+01  0.23199313853E+02  0.00000000000E+00 0.  1.
</event>
<event>
 7    1  0.6830263E-012  0.5930198E+02  0.7816164E-02  0.1266605E+00
        -11   -1    0    0    0    0  0.00000000000E+00  0.00000000000E+00  0.45593999997E+02  0.45594000000E+02  0.51100000000E-03 0. -1.
         11   -1    0    0    0    0 -0.00000000000E+00 -0.00000000000E+00 -0.45593999997E+02  0.45594000000E+02  0.51100000000E-03 0.  1.
    9900012    2    1    2    0    0 -0.29222757762E+02 -0.11658954696E+01  0.12703906676E+02  0.59301982245E+02  0.50000069699E+02 0.  0.
        -12    1    1    2    0    0  0.29222757762E+02  0.11658954696E+01 -0.12703906676E+02  0.31886017755E+02  0.00000000000E+00 0.  1.
         11    1    3    3    0    0  0.25399434745E+01  0.84883813547E+01  0.32901725001E+00  0.88663511936E+01  0.51100000000E-03 0. -1.
        -11    1    3    3    0    0 -0.14435114266E+02  0.52680624564E+01 -0.10087268530E+02  0.18381457846E+02  0.51100000000E-03 0.  1.
        -12    1    3    3    0    0 -0.17327586970E+02 -0.14922339281E+02  0.22462157956E+02  0.32054173205E+02  0.00000000000E+00 0.  1.
</event>
<event>
 7    1  0.6830263E-012  0.5930188E+02  0.7816164E-02  0.1266605E+00
        -11   -1    0    0    0    0  0.00000000000E+00  0.00000000000E+00  0.45593999997E+02  0.45594000000E+02  0.51100000000E-03 0.  1.
         11   -1    0    0    0    0 -0.00000000000E+00 -0.00000000000E+00 -0.45593999997E+02  0.45594000000E+02  0.51100000000E-03 0. -1.
    9900012    2    1    2    0    0  0.33021220698E+00  0.29279204674E+01 -0.31749691575E+02  0.59301879611E+02  0.49999882519E+02 0.  0.
        -12    1    1    2    0    0 -0.33021220698E+00 -0.29279204674E+01  0.31749691575E+02  0.31886120389E+02  0.00000000000E+00 0.  1.
         11    1    3    3    0    0 -0.74433697646E+01  0.13226069672E+02 -0.13099099288E+02  0.20047919464E+02  0.51100000000E-03 0. -1.
        -11    1    3    3    0    0  0.32069109830E+00 -0.96302620458E+01  0.74004599368E+01  0.12149551325E+02  0.51100000000E-03 0.  1.
         12    1    3    3    0    0  0.74528908733E+01 -0.66788715905E+00 -0.26051052224E+02  0.27104408822E+02  0.00000000000E+00 0. -1.
</event>
<event>
 7    1  0.6830263E-012  0.5930195E+02  0.7816164E-02  0.1266605E+00
        -11   -1    0    0    0    0  0.00000000000E+00  0.00000000000E+00  0.45593999997E+02  0.45594000000E+02  0.51100000000E-03 0.  1.
         11   -1    0    0    0    0 -0.00000000000E+00 -0.00000000000E+00 -0.45593999997E+02  0.45594000000E+02  0.51100000000E-03 0. -1.
    9900012    2    1    2    0    0 -0.19635155956E+02  0.18979576866E+02 -0.16460762492E+02  0.59301946791E+02  0.50000005039E+02 0.  0.
        -12    1    1    2    0    0  0.19635155956E+02 -0.18979576866E+02  0.16460762492E+02  0.31886053209E+02  0.00000000000E+00 0.  1.
         11    1    3    3    0    0 -0.45597865154E+01  0.54958424690E+01 -0.25926730861E+02  0.26892216549E+02  0.51100000000E-03 0.  1.
        -11    1    3    3    0    0 -0.19133160866E+01  0.83123950748E+00 -0.73182871899E+01  0.76098006032E+01  0.51100000000E-03 0. -1.
        -12    1    3    3    0    0 -0.13162053354E+02  0.12652494890E+02  0.16784255558E+02  0.24799929639E+02  0.00000000000E+00 0.  1.
</event>
<event>
 7    1  0.6830263E-012  0.5930193E+02  0.7816164E-02  0.1266605E+00
        -11   -1    0    0    0    0  0.00000000000E+00  0.00000000000E+00  0.45593999997E+02  0.45594000000E+02  0.51100000000E-03 0. -1.
         11   -1    0    0    0    0 -0.00000000000E+00 -0.00000000000E+00 -0.45593999997E+02  0.45594000000E+02  0.51100000000E-03 0.  1.
    9900012    2    1    2    0    0 -0.26896132978E+02 -0.16949507645E+02  0.24563389159E+01  0.59301931264E+02  0.49999976722E+02 0.  0.
        -12    1    1    2    0    0  0.26896132978E+02  0.16949507645E+02 -0.24563389159E+01  0.31886068736E+02  0.00000000000E+00 0.  1.
         11    1    3    3    0    0  0.66241176178E+01 -0.16500223344E+02 -0.93564364070E+01  0.20091769636E+02  0.51100000000E-03 0. -1.
        -11    1    3    3    0    0 -0.17632558397E+02 -0.42651225600E+01 -0.14026894782E+01  0.18195217067E+02  0.51100000000E-03 0.  1.
        -12    1    3    3    0    0 -0.15887692198E+02  0.38158382585E+01  0.13215464801E+02  0.21014944561E+02  0.00000000000E+00 0.  1.
</event>
<event>
 7    1  0.6830263E-012  0.5930192E+02  0.7816164E-02  0.1266605E+00
        -11   -1    0    0    0    0  0.00000000000E+00  0.00000000000E+00  0.45593999997E+02  0.45594000000E+02  0.51100000000E-03 0.  1.
         11   -1    0    0    0    0 -0.00000000000E+00 -0.00000000000E+00 -0.45593999997E+02  0.45594000000E+02  0.51100000000E-03 0. -1.
    9900012    2    1    2    0    0  0.17828958677E+02 -0.22444224766E+02 -0.13968073016E+02  0.59301920645E+02  0.49999957355E+02 0.  0.
        -12    1    1    2    0    0 -0.17828958677E+02  0.22444224766E+02  0.13968073016E+02  0.31886079355E+02  0.00000000000E+00 0.  1.
         11    1    3    3    0    0 -0.24834946505E+01 -0.59852530118E+01 -0.26479394167E+01  0.70001844769E+01  0.51100000000E-03 0.  1.
        -11    1    3    3    0    0  0.31917730269E+02 -0.21189362678E+02 -0.10592289845E+02  0.39748298085E+02  0.51100000000E-03 0. -1.
         12    1    3    3    0    0 -0.11605276941E+02  0.47303909237E+01 -0.72784375519E+00  0.12553438083E+02  0.00000000000E+00 0. -1.
</event>
<event>
 7    1  0.6830263E-012  0.5930196E+02  0.7816164E-02  0.1266605E+00
        -11   -1    0    0    0    0  0.00000000000E+00  0.00000000000E+00  0.45593999997E+02  0.45594000000E+02  0.51100000000E-03 0.  1.
         11   -1    0    0    0    0 -0.00000000000E+00 -0.00000000000E+00 -0.45593999997E+02  0.45594000000E+02  0.51100000000E-03 0. -1.
    9900012    2    1    2    0    0 -0.13411684737E+02  0.10248392632E+02 -0.27052113839E+02  0.59301957565E+02  0.50000024688E+02 0.  0.
        -12    1    1    2    0    0  0.13411684737E+02 -0.10248392632E+02  0.27052113839E+02  0.31886042435E+02  0.00000000000E+00 0.  1.
         11    1    3    3    0    0  0.66201853284E+01  0.63762755085E+01 -0.30812950837E+01  0.96942314186E+01  0.51100000000E-03 0. -1.
        -11    1    3    3    0    0  0.10399984706E+02  0.68155801750E+01 -0.38882079088E+01  0.13028045748E+02  0.51100000000E-03 0.  1.
         12    1    3    3    0    0 -0.30431854772E+02 -0.29434630517E+01 -0.20082610847E+02  0.36579680398E+02  0.00000000000E+00 0. -1.
</event>
<event>
 7    1  0.6830263E-012  0.5930195E+02  0.7816164E-02  0.1266605E+00
        -11   -1    0    0    0    0  0.00000000000E+00  0.00000000000E+00  0.45593999997E+02  0.45594000000E+02  0.51100000000E-03 0.  1.
         11   -1    0    0    0    0 -0.00000000000E+00 -0.00000000000E+00 -0.45593999997E+02  0.45594000000E+02  0.51100000000E-03 0. -1.
    9900012    2    1    2    0    0 -0.19606272770E+02 -0.62605083390E+01 -0.24354059452E+02  0.59301951195E+02  0.50000013071E+02 0.  0.
        -12    1    1    2    0    0  0.19606272770E+02  0.62605083390E+01  0.24354059452E+02  0.31886048805E+02  0.00000000000E+00 0.  1.
         11    1    3    3    0    0  0.68705802068E+00 -0.19692387967E+02 -0.12733326952E+02  0.23460601188E+02  0.51100000000E-03 0. -1.
        -11    1    3    3    0    0 -0.12688800179E+02 -0.29429516389E+01 -0.12102790421E+02  0.17780442924E+02  0.51100000000E-03 0.  1.
        -12    1    3    3    0    0 -0.76045306114E+01  0.16374831267E+02  0.48205792024E+00  0.18060907083E+02  0.00000000000E+00 0.  1.
</event>
<event>
 7    1  0.6830263E-012  0.5930188E+02  0.7816164E-02  0.1266605E+00
        -11   -1    0    0    0    0  0.00000000000E+00  0.00000000000E+00  0.45593999997E+02  0.45594000000E+02  0.51100000000E-03 0. -1.
         11   -1    0    0    0    0 -0.00000000000E+00 -0.00000000000E+00 -0.45593999997E+02  0.45594000000E+02  0.51100000000E-03 0.  1.
    9900012    2    1    2    0    0  0.17584958532E+02 -0.65662477559E+00  0.26590655613E+02  0.59301876237E+02  0.49999876366E+02 0.  0.
        -12    1    1    2    0    0 -0.17584958532E+02  0.65662477559E+00 -0.26590655613E+02  0.31886123763E+02  0.00000000000E+00 0.  1.
         11    1    3    3    0    0 -0.64989623611E+01 -0.16561197831E+01  0.10491610065E+02  0.12452033028E+02  0.51100000000E-03 0. -1.
        -11    1    3    3    0    0  0.36221647481E+01  0.12065441710E+01  0.24451702135E+02  0.24747960802E+02  0.51100000000E-03 0.  1.
        -12    1    3    3    0    0  0.20461756145E+02 -0.20704916349E+00 -0.83526565867E+01  0.22101882407E+02  0.00000000000E+00 0.  1.
</event>
<event>
 7    1  0.6830263E-012  0.5930194E+02  0.7816164E-02  0.1266605E+00
        -11   -1    0    0    0    0  0.00000000000E+00  0.00000000000E+00  0.45593999997E+02  0.45594000000E+02  0.51100000000E-03 0. -1.
         11   -1    0    0    0    0 -0.00000000000E+00 -0.00000000000E+00 -0.45593999997E+02  0.45594000000E+02  0.51100000000E-03 0.  1.
    9900012    2    1    2    0    0 -0.59068665541E+01 -0.26229357583E+02 -0.17142063041E+02  0.59301943534E+02  0.49999999099E+02 0.  0.
        -12    1    1    2    0    0  0.59068665541E+01  0.26229357583E+02  0.17142063041E+02  0.31886056466E+02  0.00000000000E+00 0.  1.
         11    1    3    3    0    0 -0.20528604788E+02 -0.11290497101E+02 -0.13211515440E+02  0.26896897216E+02  0.51100000000E-03 0. -1.
        -11    1    3    3    0    0  0.70259788241E-01 -0.16943032860E+02  0.83148875797E+00  0.16963568986E+02  0.51100000000E-03 0.  1.
        -12    1    3    3    0    0  0.14551478446E+02  0.20041723786E+01 -0.47620363584E+01  0.15441477331E+02  0.00000000000E+00 0.  1.
</event>
<event>
 7    1  0.6830263E-012  0.5930193E+02  0.7816164E-02  0.1266605E+00
        -11   -1    0    0    0    0  0.00000000000E+00  0.00000000000E+00  0.45593999997E+02  0.45594000000E+02  0.51100000000E-03 0. -1.
         11   -1    0    0    0    0 -0.00000000000E+00 -0.00000000000E+00 -0.45593999997E+02  0.45594000000E+02  0.51100000000E-03 0.  1.
    9900012    2    1    2    0    0  0.10783440714E+02 -0.29732454887E+02 -0.40521921133E+01  0.59301925795E+02  0.49999966748E+02 0.  0.
        -12    1    1    2    0    0 -0.10783440714E+02  0.29732454887E+02  0.40521921133E+01  0.31886074205E+02  0.00000000000E+00 0.  1.
         11    1    3    3    0    0 -0.43961531058E+00  0.69602966580E+01 -0.66291880588E+01  0.96221164911E+01  0.51100000000E-03 0. -1.
        -11    1    3    3    0    0  0.60937734240E+01 -0.15903346613E+02 -0.14440063134E+02  0.22328590005E+02  0.51100000000E-03 0.  1.
         12    1    3    3    0    0  0.51292826006E+01 -0.20789404933E+02  0.17017059079E+02  0.27351219299E+02  0.00000000000E+00 0. -1.
</event>
<event>
 7    1  0.6830263E-012  0.5930195E+02  0.7816164E-02  0.1266605E+00
        -11   -1    0    0    0    0  0.00000000000E+00  0.00000000000E+00  0.45593999997E+02  0.45594000000E+02  0.51100000000E-03 0.  1.
         11   -1    0    0    0    0 -0.00000000000E+00 -0.00000000000E+00 -0.45593999997E+02  0.45594000000E+02  0.51100000000E-03 0. -1.
    9900012    2    1    2    0    0  0.27055863240E+02 -0.71406974983E+01 -0.15287604163E+02  0.59301950739E+02  0.50000012240E+02 0.  0.
        -12    1    1    2    0    0 -0.27055863240E+02  0.71406974983E+01  0.15287604163E+02  0.31886049261E+02  0.00000000000E+00 0.  1.
         11    1    3    3    0    0  0.11634067152E+02  0.17896124274E+02  0.35593785064E+00  0.21348289733E+02  0.51100000000E-03 0. -1.
        -11    1    3    3    0    0  0.14022732118E+02 -0.71366975463E+01 -0.30619282396E+01  0.16029500077E+02  0.51100000000E-03 0.  1.
        -12    1    3    3    0    0  0.13990639702E+01 -0.17900124226E+02 -0.12581613774E+02  0.21924160929E+02  0.00000000000E+00 0.  1.
</event>
<event>
 7    1  0.6830263E-012  0.5930195E+02  0.7816164E-02  0.1266605E+00
        -11   -1    0    0    0    0  0.00000000000E+00  0.00000000000E+00  0.45593999997E+02  0.45594000000E+02  0.51100000000E-03 0.  1.
         11   -1    0    0    0    0 -0.00000000000E+00 -0.00000000000E+00 -0.45593999997E+02  0.45594000000E+02  0.51100000000E-03 0. -1.
    9900012    2    1    2    0    0 -0.11399424124E+02  0.28436381511E+02 -0.88399783960E+01  0.59301954747E+02  0.50000019550E+02 0.  0.
        -12    1    1    2    0    0  0.11399424124E+02 -0.28436381511E+02  0.88399783960E+01  0.31886045253E+02  0.00000000000E+00 0.  1.
         11    1    3    3    0    0  0.88226667790E+00  0.15821693245E+02  0.76317047582E+01  0.17588271359E+02  0.51100000000E-03 0. -1.
        -11    1    3    3    0    0 -0.10909875503E+01  0.19799472287E+02  0.88353231846E+00  0.19849180998E+02  0.51100000000E-03 0.  1.
        -12    1    3    3    0    0 -0.11190703252E+02 -0.71847840200E+01 -0.17355215473E+02  0.21864502390E+02  0.00000000000E+00 0.  1.
</event>
<event>
 7    1  0.6830263E-012  0.5930197E+02  0.7816164E-02  0.1266605E+00
        -11   -1    0    0    0    0  0.00000000000E+00  0.00000000000E+00  0.45593999997E+02  0.45594000000E+02  0.51100000000E-03 0. -1.
         11   -1    0    0    0    0 -0.00000000000E+00 -0.00000000000E+00 -0.45593999997E+02  0.45594000000E+02  0.51100000000E-03 0.  1.
    9900012    2    1    2    0    0  0.28712359794E+02  0.82982793789E+01  0.11111164798E+02  0.59301968125E+02  0.50000043947E+02 0.  0.
        -12    1    1    2    0    0 -0.28712359794E+02 -0.82982793789E+01 -0.11111164798E+02  0.31886031875E+02  0.00000000000E+00 0.  1.
         11    1    3    3    0    0  0.78931115145E+00 -0.93070777333E+01  0.14901408486E+02  0.17586832664E+02  0.51100000000E-03 0. -1.
        -11    1    3    3    0    0  0.17148302458E+00  0.12826060501E+02  0.19538765408E+01  0.12975163514E+02  0.51100000000E-03 0.  1.
        -12    1    3    3    0    0  0.27751565618E+02  0.47792966110E+01 -0.57441202285E+01  0.28739971947E+02  0.00000000000E+00 0.  1.
</event>
<event>
 7    1  0.6830263E-012  0.5930193E+02  0.7816164E-02  0.1266605E+00
        -11   -1    0    0    0    0  0.00000000000E+00  0.00000000000E+00  0.45593999997E+02  0.45594000000E+02  0.51100000000E-03 0. -1.
         11   -1    0    0    0    0 -0.00000000000E+00 -0.00000000000E+00 -0.45593999997E+02  0.45594000000E+02  0.51100000000E-03 0.  1.
    9900012    2    1    2    0    0 -0.30862389181E+02 -0.79205940161E+01 -0.12241584751E+01  0.59301930322E+02  0.49999975004E+02 0.  0.
        -12    1    1    2    0    0  0.30862389181E+02  0.79205940161E+01  0.12241584751E+01  0.31886069678E+02  0.00000000000E+00 0.  1.
         11    1    3    3    0    0 -0.13537104718E+02 -0.13879181823E+02  0.14103323282E+02  0.23974749635E+02  0.51100000000E-03 0. -1.
        -11    1    3    3    0    0 -0.16821577835E+02 -0.51673996066E+01 -0.16506692470E+02  0.24127544345E+02  0.51100000000E-03 0.  1.
        -12    1    3    3    0    0 -0.50370662859E+00  0.11125987414E+02  0.11792107122E+01  0.11199636342E+02  0.00000000000E+00 0.  1.
</event>
<event>
 7    1  0.6830263E-012  0.5930194E+02  0.7816164E-02  0.1266605E+00
        -11   -1    0    0    0    0  0.00000000000E+00  0.00000000000E+00  0.45593999997E+02  0.45594000000E+02  0.51100000000E-03 0. -1.
         11   -1    0    0    0    0 -0.00000000000E+00 -0.00000000000E+00 -0.45593999997E+02  0.45594000000E+02  0.51100000000E-03 0.  1.
    9900012    2    1    2    0    0 -0.66063981802E+01  0.19056780495E+02  0.24696467647E+02  0.59301938876E+02  0.49999990605E+02 0.  0.
        -12    1    1    2    0    0  0.66063981802E+01 -0.19056780495E+02 -0.24696467647E+02  0.31886061124E+02  0.00000000000E+00 0.  1.
         11    1    3    3    0    0  0.62769901844E+01  0.84658056965E+01 -0.86510178735E+00  0.10574444346E+02  0.51100000000E-03 0.  1.
        -11    1    3    3    0    0 -0.86842378486E+01 -0.13806190749E+02  0.13584354592E+02  0.21226435875E+02  0.51100000000E-03 0. -1.
         12    1    3    3    0    0 -0.41991505160E+01  0.24397165547E+02  0.11977214842E+02  0.27501058656E+02  0.00000000000E+00 0. -1.
</event>
<event>
 7    1  0.7137939E-012  0.5930192E+02  0.7816164E-02  0.1266605E+00
        -11   -1    0    0    0    0  0.00000000000E+00  0.00000000000E+00  0.45593999997E+02  0.45594000000E+02  0.51100000000E-03 0. -1.
         11   -1    0    0    0    0 -0.00000000000E+00 -0.00000000000E+00 -0.45593999997E+02  0.45594000000E+02  0.51100000000E-03 0.  1.
    9900012    2    1    2    0    0 -0.10628048271E+02  0.56637751422E+01  0.29524370726E+02  0.59301917995E+02  0.49999952522E+02 0.  0.
        -12    1    1    2    0    0  0.10628048271E+02 -0.56637751422E+01 -0.29524370726E+02  0.31886082005E+02  0.00000000000E+00 0.  1.
         11    1    3    3    0    0  0.75013072051E+01  0.54012898361E+01  0.12170653453E+02  0.15282943022E+02  0.51100000000E-03 0. -1.
        -11    1    3    3    0    0 -0.34383476186E+01 -0.44816270790E+01 -0.10642331390E+02  0.12048503364E+02  0.51100000000E-03 0.  1.
         12    1    3    3    0    0 -0.14691007857E+02  0.47441123851E+01  0.27996048663E+02  0.31970471609E+02  0.00000000000E+00 0. -1.
</event>
<event>
 7    1  0.6830263E-012  0.5930194E+02  0.7816164E-02  0.1266605E+00
        -11   -1    0    0    0    0  0.00000000000E+00  0.00000000000E+00  0.45593999997E+02  0.45594000000E+02  0.51100000000E-03 0. -1.
         11   -1    0    0    0    0 -0.00000000000E+00 -0.00000000000E+00 -0.45593999997E+02  0.45594000000E+02  0.51100000000E-03 0.  1.
    9900012    2    1    2    0    0 -0.82596662553E+01  0.25903124446E+02  0.16659133101E+02  0.59301942571E+02  0.49999997342E+02 0.  0.
        -12    1    1    2    0    0  0.82596662553E+01 -0.25903124446E+02 -0.16659133101E+02  0.31886057429E+02  0.00000000000E+00 0.  1.
         11    1    3    3    0    0 -0.72023530753E+01  0.10777044948E+02  0.10554779187E+02  0.16715919106E+02  0.51100000000E-03 0. -1.
        -11    1    3    3    0    0  0.48665413009E+01  0.14615258567E+01  0.20949963699E+02  0.21557371391E+02  0.51100000000E-03 0.  1.
        -12    1    3    3    0    0 -0.59238544810E+01  0.13664553642E+02 -0.14845609784E+02  0.21028652073E+02  0.00000000000E+00 0.  1.
</event>
<event>
 7    1  0.6830263E-012  0.5930194E+02  0.7816164E-02  0.1266605E+00
        -11   -1    0    0    0    0  0.00000000000E+00  0.00000000000E+00  0.45593999997E+02  0.45594000000E+02  0.51100000000E-03 0.  1.
         11   -1    0    0    0    0 -0.00000000000E+00 -0.00000000000E+00 -0.45593999997E+02  0.45594000000E+02  0.51100000000E-03 0. -1.
    9900012    2    1    2    0    0  0.12876830718E+02 -0.13138828944E+02 -0.26043789031E+02  0.59301944389E+02  0.50000000658E+02 0.  0.
        -12    1    1    2    0    0 -0.12876830718E+02  0.13138828944E+02  0.26043789031E+02  0.31886055611E+02  0.00000000000E+00 0.  1.
         11    1    3    3    0    0  0.12161665033E+02 -0.86653967772E+00  0.88789880449E+01  0.15082884882E+02  0.51100000000E-03 0. -1.
        -11    1    3    3    0    0 -0.78362628165E+01 -0.36384397103E+01 -0.16490116010E+01  0.87957090662E+01  0.51100000000E-03 0.  1.
        -12    1    3    3    0    0  0.85514285010E+01 -0.86338495558E+01 -0.33273765475E+02  0.35423350441E+02  0.00000000000E+00 0.  1.
</event>
<event>
 7    1  0.6830263E-012  0.5930193E+02  0.7816164E-02  0.1266605E+00
        -11   -1    0    0    0    0  0.00000000000E+00  0.00000000000E+00  0.45593999997E+02  0.45594000000E+02  0.51100000000E-03 0.  1.
         11   -1    0    0    0    0 -0.00000000000E+00 -0.00000000000E+00 -0.45593999997E+02  0.45594000000E+02  0.51100000000E-03 0. -1.
    9900012    2    1    2    0    0  0.75496538095E+00  0.26099543625E+02 -0.18302061763E+02  0.59301927571E+02  0.49999969987E+02 0.  0.
        -12    1    1    2    0    0 -0.75496538095E+00 -0.26099543625E+02  0.18302061763E+02  0.31886072429E+02  0.00000000000E+00 0.  1.
         11    1    3    3    0    0  0.81927240737E+01  0.25059682462E+02 -0.16756436785E+02  0.31239183517E+02  0.51100000000E-03 0. -1.
        -11    1    3    3    0    0 -0.16649026898E+01  0.10870971790E+02 -0.91936607938E+01  0.14334340853E+02  0.51100000000E-03 0.  1.
        -12    1    3    3    0    0 -0.57728560029E+01 -0.98311106272E+01  0.76480358159E+01  0.13728403201E+02  0.00000000000E+00 0.  1.
</event>
<event>
 7    1  0.6830263E-012  0.5930196E+02  0.7816164E-02  0.1266605E+00
        -11   -1    0    0    0    0  0.00000000000E+00  0.00000000000E+00  0.45593999997E+02  0.45594000000E+02  0.51100000000E-03 0.  1.
         11   -1    0    0    0    0 -0.00000000000E+00 -0.00000000000E+00 -0.45593999997E+02  0.45594000000E+02  0.51100000000E-03 0. -1.
    9900012    2    1    2    0    0  0.26152597364E+02 -0.97583012761E+01  0.15412223995E+02  0.59301961658E+02  0.50000032154E+02 0.  0.
        -12    1    1    2    0    0 -0.26152597364E+02  0.97583012761E+01 -0.15412223995E+02  0.31886038342E+02  0.00000000000E+00 0.  1.
         11    1    3    3    0    0  0.41042573113E+01  0.41631269787E+01  0.32555284763E+01  0.66914139193E+01  0.51100000000E-03 0. -1.
        -11    1    3    3    0    0  0.11939001687E+02  0.11252596783E+02  0.18524618212E+02  0.24745144490E+02  0.51100000000E-03 0.  1.
         12    1    3    3    0    0  0.10109338365E+02 -0.25174025038E+02 -0.63679226939E+01  0.27865403249E+02  0.00000000000E+00 0. -1.
</event>
<event>
 7    1  0.6830263E-012  0.5930195E+02  0.7816164E-02  0.1266605E+00
        -11   -1    0    0    0    0  0.00000000000E+00  0.00000000000E+00  0.45593999997E+02  0.45594000000E+02  0.51100000000E-03 0. -1.
         11   -1    0    0    0    0 -0.00000000000E+00 -0.00000000000E+00 -0.45593999997E+02  0.45594000000E+02  0.51100000000E-03 0.  1.
    9900012    2    1    2    0    0  0.41781802348E+01 -0.25697962477E+02 -0.18408625217E+02  0.59301953711E+02  0.50000017660E+02 0.  0.
        -12    1    1    2    0    0 -0.41781802348E+01  0.25697962477E+02  0.18408625217E+02  0.31886046289E+02  0.00000000000E+00 0.  1.
         11    1    3    3    0    0  0.80970577580E+01 -0.32167508007E+02 -0.17729256962E+02  0.37611666652E+02  0.51100000000E-03 0. -1.
        -11    1    3    3    0    0 -0.90869711827E+01 -0.15165339210E+01  0.51295379782E+01  0.10544433628E+02  0.51100000000E-03 0.  1.
        -12    1    3    3    0    0  0.51680936595E+01  0.79860794502E+01 -0.58089062336E+01  0.11145853430E+02  0.00000000000E+00 0.  1.
</event>
<event>
 7    1  0.6830263E-012  0.5930195E+02  0.7816164E-02  0.1266605E+00
        -11   -1    0    0    0    0  0.00000000000E+00  0.00000000000E+00  0.45593999997E+02  0.45594000000E+02  0.51100000000E-03 0. -1.
         11   -1    0    0    0    0 -0.00000000000E+00 -0.00000000000E+00 -0.45593999997E+02  0.45594000000E+02  0.51100000000E-03 0.  1.
    9900012    2    1    2    0    0 -0.23439693136E+02 -0.75350518923E+01  0.20261389330E+02  0.59301951030E+02  0.50000012770E+02 0.  0.
        -12    1    1    2    0    0  0.23439693136E+02  0.75350518923E+01 -0.20261389330E+02  0.31886048970E+02  0.00000000000E+00 0.  1.
         11    1    3    3    0    0 -0.20447946703E+02 -0.10218144381E+02 -0.91016048005E+01  0.24604231530E+02  0.51100000000E-03 0. -1.
        -11    1    3    3    0    0  0.72370508583E+00  0.27644470975E+01 -0.17583610321E+01  0.33552571565E+01  0.51100000000E-03 0.  1.
        -12    1    3    3    0    0 -0.37154515192E+01 -0.81354608381E-01  0.31121355163E+02  0.31342462343E+02  0.00000000000E+00 0.  1.
</event>
<event>
 7    1  0.6830263E-012  0.5930200E+02  0.7816164E-02  0.1266605E+00
        -11   -1    0    0    0    0  0.00000000000E+00  0.00000000000E+00  0.45593999997E+02  0.45594000000E+02  0.51100000000E-03 0.  1.
         11   -1    0    0    0    0 -0.00000000000E+00 -0.00000000000E+00 -0.45593999997E+02  0.45594000000E+02  0.51100000000E-03 0. -1.
    9900012    2    1    2    0    0  0.10854611416E+01 -0.90912001336E+01 -0.30543225435E+02  0.59302003611E+02  0.50000108666E+02 0.  0.
        -12    1    1    2    0    0 -0.10854611416E+01  0.90912001336E+01  0.30543225435E+02  0.31885996389E+02  0.00000000000E+00 0.  1.
         11    1    3    3    0    0  0.60534557284E+01  0.68282545411E+01 -0.58457188001E+01  0.10837057483E+02  0.51100000000E-03 0. -1.
        -11    1    3    3    0    0  0.16731276390E+02 -0.62729463997E+01 -0.12138070962E+02  0.21601347947E+02  0.51100000000E-03 0.  1.
         12    1    3    3    0    0 -0.21699270977E+02 -0.96465082750E+01 -0.12559435672E+02  0.26863598181E+02  0.00000000000E+00 0. -1.
</event>
<event>
 7    1  0.6830263E-012  0.5930193E+02  0.7816164E-02  0.1266605E+00
        -11   -1    0    0    0    0  0.00000000000E+00  0.00000000000E+00  0.45593999997E+02  0.45594000000E+02  0.51100000000E-03 0.  1.
         11   -1    0    0    0    0 -0.00000000000E+00 -0.00000000000E+00 -0.45593999997E+02  0.45594000000E+02  0.51100000000E-03 0. -1.
    9900012    2    1    2    0    0  0.82426890316E+01  0.28723055461E+02 -0.11125001444E+02  0.59301929458E+02  0.49999973428E+02 0.  0.
        -12    1    1    2    0    0 -0.82426890316E+01 -0.28723055461E+02  0.11125001444E+02  0.31886070542E+02  0.00000000000E+00 0.  1.
         11    1    3    3    0    0  0.12763790983E+02  0.17209362090E+02  0.11475033562E+02  0.24305408849E+02  0.51100000000E-03 0. -1.
        -11    1    3    3    0    0  0.41574922575E+01  0.50128452025E+01  0.30182023498E+01  0.71779457075E+01  0.51100000000E-03 0.  1.
         12    1    3    3    0    0 -0.86785942086E+01  0.65008481686E+01 -0.25618237356E+02  0.27818574902E+02  0.00000000000E+00 0. -1.
</event>
<event>
 7    1  0.6830263E-012  0.5930194E+02  0.7816164E-02  0.1266605E+00
        -11   -1    0    0    0    0  0.00000000000E+00  0.00000000000E+00  0.45593999997E+02  0.45594000000E+02  0.51100000000E-03 0.  1.
         11   -1    0    0    0    0 -0.00000000000E+00 -0.00000000000E+00 -0.45593999997E+02  0.45594000000E+02  0.51100000000E-03 0. -1.
    9900012    2    1    2    0    0 -0.15138059897E+02  0.25428465281E+02  0.11872355535E+02  0.59301944585E+02  0.50000001016E+02 0.  0.
        -12    1    1    2    0    0  0.15138059897E+02 -0.25428465281E+02 -0.11872355535E+02  0.31886055415E+02  0.00000000000E+00 0.  1.
         11    1    3    3    0    0 -0.49991402655E+01 -0.22342469678E+01  0.23584907628E+01  0.59620249787E+01  0.51100000000E-03 0. -1.
        -11    1    3    3    0    0 -0.26885651248E+02  0.11624211642E+02  0.49241165924E+01  0.29701977439E+02  0.51100000000E-03 0.  1.
         12    1    3    3    0    0  0.16746731616E+02  0.16038500607E+02  0.45897481795E+01  0.23637942167E+02  0.00000000000E+00 0. -1.
</event>
<event>
 7    1  0.6830263E-012  0.5930195E+02  0.7816164E-02  0.1266605E+00
        -11   -1    0    0    0    0  0.00000000000E+00  0.00000000000E+00  0.45593999997E+02  0.45594000000E+02  0.51100000000E-03 0.  1.
         11   -1    0    0    0    0 -0.00000000000E+00 -0.00000000000E+00 -0.45593999997E+02  0.45594000000E+02  0.51100000000E-03 0. -1.
    9900012    2    1    2    0    0 -0.24155641443E+01  0.30968538637E+02 -0.71996553253E+01  0.59301947058E+02  0.50000005526E+02 0.  0.
        -12    1    1    2    0    0  0.24155641443E+01 -0.30968538637E+02  0.71996553253E+01  0.31886052942E+02  0.00000000000E+00 0.  1.
         11    1    3    3    0    0 -0.62438894824E+01  0.58126982619E+01 -0.46548926533E+01  0.97181090150E+01  0.51100000000E-03 0. -1.
        -11    1    3    3    0    0 -0.15318658096E+02  0.25982390220E+02  0.57099863735E+00  0.30167398415E+02  0.51100000000E-03 0.  1.
        -12    1    3    3    0    0  0.19146983434E+02 -0.82654984513E+00 -0.31157613093E+01  0.19416439628E+02  0.00000000000E+00 0.  1.
</event>
<event>
 7    1  0.6830263E-012  0.5930196E+02  0.7816164E-02  0.1266605E+00
        -11   -1    0    0    0    0  0.00000000000E+00  0.00000000000E+00  0.45593999997E+02  0.45594000000E+02  0.51100000000E-03 0. -1.
         11   -1    0    0    0    0 -0.00000000000E+00 -0.00000000000E+00 -0.45593999997E+02  0.45594000000E+02  0.51100000000E-03 0.  1.
    9900012    2    1    2    0    0 -0.21261414784E+02  0.22340923509E+02 -0.80965894662E+01  0.59301962572E+02  0.50000033820E+02 0.  0.
        -12    1    1    2    0    0  0.21261414784E+02 -0.22340923509E+02  0.80965894662E+01  0.31886037428E+02  0.00000000000E+00 0.  1.
         11    1    3    3    0    0 -0.97088638461E+01  0.37551469143E+01  0.17158879155E+02  0.20069636261E+02  0.51100000000E-03 0. -1.
        -11    1    3    3    0    0 -0.33631744769E+01 -0.42364111592E+01 -0.24226443402E+01  0.59268311881E+01  0.51100000000E-03 0.  1.
         12    1    3    3    0    0 -0.81893764612E+01  0.22822187754E+02 -0.22832824281E+02  0.33305495123E+02  0.00000000000E+00 0. -1.
</event>
<event>
 7    1  0.6830263E-012  0.5930196E+02  0.7816164E-02  0.1266605E+00
        -11   -1    0    0    0    0  0.00000000000E+00  0.00000000000E+00  0.45593999997E+02  0.45594000000E+02  0.51100000000E-03 0.  1.
         11   -1    0    0    0    0 -0.00000000000E+00 -0.00000000000E+00 -0.45593999997E+02  0.45594000000E+02  0.51100000000E-03 0. -1.
    9900012    2    1    2    0    0  0.25868270551E+02 -0.12290262685E+02 -0.14017898505E+02  0.59301961415E+02  0.50000031709E+02 0.  0.
        -12    1    1    2    0    0 -0.25868270551E+02  0.12290262685E+02  0.14017898505E+02  0.31886038585E+02  0.00000000000E+00 0.  1.
         11    1    3    3    0    0  0.41647563561E+01  0.33703680449E+01  0.28195363524E+00  0.53650791586E+01  0.51100000000E-03 0. -1.
        -11    1    3    3    0    0  0.35391282913E+02 -0.11479184846E+02 -0.69579431876E+01  0.37851387882E+02  0.51100000000E-03 0.  1.
        -12    1    3    3    0    0 -0.13687768718E+02 -0.41814458839E+01 -0.73419089530E+01  0.16085494373E+02  0.00000000000E+00 0.  1.
</event>
<event>
 7    1  0.6830263E-012  0.5930196E+02  0.7816164E-02  0.1266605E+00
        -11   -1    0    0    0    0  0.00000000000E+00  0.00000000000E+00  0.45593999997E+02  0.45594000000E+02  0.51100000000E-03 0.  1.
         11   -1    0    0    0    0 -0.00000000000E+00 -0.00000000000E+00 -0.45593999997E+02  0.45594000000E+02  0.51100000000E-03 0. -1.
    9900012    2    1    2    0    0  0.20535015646E+02 -0.12477324997E+02 -0.20960657831E+02  0.59301957860E+02  0.50000025227E+02 0.  0.
        -12    1    1    2    0    0 -0.20535015646E+02  0.12477324997E+02  0.20960657831E+02  0.31886042140E+02  0.00000000000E+00 0.  1.
         11    1    3    3    0    0  0.12700152337E+02 -0.15568116720E+02 -0.21487830506E+02  0.29417460593E+02  0.51100000000E-03 0. -1.
        -11    1    3    3    0    0  0.33715558911E+01 -0.71120829535E+01 -0.11214956471E+02  0.13701254030E+02  0.51100000000E-03 0.  1.
        -12    1    3    3    0    0  0.44633074180E+01  0.10202874677E+02  0.11742129147E+02  0.16183243238E+02  0.00000000000E+00 0.  1.
</event>
<event>
 7    1  0.6830263E-012  0.5930195E+02  0.7816164E-02  0.1266605E+00
        -11   -1    0    0    0    0  0.00000000000E+00  0.00000000000E+00  0.45593999997E+02  0.45594000000E+02  0.51100000000E-03 0.  1.
         11   -1    0    0    0    0 -0.00000000000E+00 -0.00000000000E+00 -0.45593999997E+02  0.45594000000E+02  0.51100000000E-03 0. -1.
    9900012    2    1    2    0    0 -0.58361805735E+01  0.31271306162E+02  0.21827307241E+01  0.59301954366E+02  0.50000018855E+02 0.  0.
        -12    1    1    2    0    0  0.58361805735E+01 -0.31271306162E+02 -0.21827307241E+01  0.31886045634E+02  0.00000000000E+00 0.  1.
         11    1    3    3    0    0  0.14583639367E+02  0.10047037631E+02  0.11274012152E+02  0.20993543117E+02  0.51100000000E-03 0. -1.
        -11    1    3    3    0    0  0.50388791471E+01  0.44321471671E+01 -0.18909791161E+01  0.69720896328E+01  0.51100000000E-03 0.  1.
        -12    1    3    3    0    0 -0.25458699087E+02  0.16792121363E+02 -0.72003023115E+01  0.31336321617E+02  0.00000000000E+00 0.  1.
</event>
<event>
 7    1  0.6830263E-012  0.5930188E+02  0.7816164E-02  0.1266605E+00
        -11   -1    0    0    0    0  0.00000000000E+00  0.00000000000E+00  0.45593999997E+02  0.45594000000E+02  0.51100000000E-03 0. -1.
         11   -1    0    0    0    0 -0.00000000000E+00 -0.00000000000E+00 -0.45593999997E+02  0.45594000000E+02  0.51100000000E-03 0.  1.
    9900012    2    1    2    0    0  0.21200644899E+02  0.93485206968E+01  0.21905760599E+02  0.59301881848E+02  0.49999886600E+02 0.  0.
        -12    1    1    2    0    0 -0.21200644899E+02 -0.93485206968E+01 -0.21905760599E+02  0.31886118152E+02  0.00000000000E+00 0.  1.
         11    1    3    3    0    0  0.18601439997E+02 -0.55175028537E+01  0.23736934576E+02  0.30657763634E+02  0.51100000000E-03 0. -1.
        -11    1    3    3    0    0  0.12713637605E+02  0.12855626158E+02  0.43519419957E+00  0.18085715339E+02  0.51100000000E-03 0.  1.
         12    1    3    3    0    0 -0.10114432703E+02  0.20103973928E+01 -0.22663681767E+01  0.10558402876E+02  0.00000000000E+00 0. -1.
</event>
<event>
 7    1  0.6830263E-012  0.5930196E+02  0.7816164E-02  0.1266605E+00
        -11   -1    0    0    0    0  0.00000000000E+00  0.00000000000E+00  0.45593999997E+02  0.45594000000E+02  0.51100000000E-03 0. -1.
         11   -1    0    0    0    0 -0.00000000000E+00 -0.00000000000E+00 -0.45593999997E+02  0.45594000000E+02  0.51100000000E-03 0.  1.
    9900012    2    1    2    0    0 -0.14419342889E+02  0.32024614233E+01  0.28258565027E+02  0.59301957506E+02  0.50000024581E+02 0.  0.
        -12    1    1    2    0    0  0.14419342889E+02 -0.32024614233E+01 -0.28258565027E+02  0.31886042494E+02  0.00000000000E+00 0.  1.
         11    1    3    3    0    0 -0.11674287413E+02  0.41514460882E+01  0.35973278585E+02  0.38047342399E+02  0.51100000000E-03 0. -1.
        -11    1    3    3    0    0 -0.65200788168E+01  0.77949247951E+01 -0.28193117267E+01  0.10546127214E+02  0.51100000000E-03 0.  1.
        -12    1    3    3    0    0  0.37750233409E+01 -0.87439094600E+01 -0.48954018309E+01  0.10708487893E+02  0.00000000000E+00 0.  1.
</event>
<event>
 7    1  0.6830263E-012  0.5930190E+02  0.7816164E-02  0.1266605E+00
        -11   -1    0    0    0    0  0.00000000000E+00  0.00000000000E+00  0.45593999997E+02  0.45594000000E+02  0.51100000000E-03 0.  1.
         11   -1    0    0    0    0 -0.00000000000E+00 -0.00000000000E+00 -0.45593999997E+02  0.45594000000E+02  0.51100000000E-03 0. -1.
    9900012    2    1    2    0    0  0.36199928514E+01  0.21614820692E+02 -0.23160712590E+02  0.59301899118E+02  0.49999918095E+02 0.  0.
        -12    1    1    2    0    0 -0.36199928514E+01 -0.21614820692E+02  0.23160712590E+02  0.31886100882E+02  0.00000000000E+00 0.  1.
         11    1    3    3    0    0  0.23606914030E+01 -0.10158495013E+01 -0.68144393542E+01  0.72829525662E+01  0.51100000000E-03 0. -1.
        -11    1    3    3    0    0 -0.58996966921E+00 -0.34093049610E+01 -0.24442946665E+02  0.24686617153E+02  0.51100000000E-03 0.  1.
         12    1    3    3    0    0  0.18492711176E+01  0.26039975154E+02  0.80966734296E+01  0.27332329398E+02  0.00000000000E+00 0. -1.
</event>
<event>
 7    1  0.6830263E-012  0.5930194E+02  0.7816164E-02  0.1266605E+00
        -11   -1    0    0    0    0  0.00000000000E+00  0.00000000000E+00  0.45593999997E+02  0.45594000000E+02  0.51100000000E-03 0. -1.
         11   -1    0    0    0    0 -0.00000000000E+00 -0.00000000000E+00 -0.45593999997E+02  0.45594000000E+02  0.51100000000E-03 0.  1.
    9900012    2    1    2    0    0  0.15656312411E+02 -0.22615210457E+02  0.16129261486E+02  0.59301938179E+02  0.49999989334E+02 0.  0.
        -12    1    1    2    0    0 -0.15656312411E+02  0.22615210457E+02 -0.16129261486E+02  0.31886061821E+02  0.00000000000E+00 0.  1.
         11    1    3    3    0    0  0.27292392199E+01 -0.13999975227E+02  0.95438715553E+01  0.17161979420E+02  0.51100000000E-03 0. -1.
        -11    1    3    3    0    0  0.16572347770E+02 -0.12620691387E+02 -0.11128162944E+02  0.23616955191E+02  0.51100000000E-03 0.  1.
         12    1    3    3    0    0 -0.36452745784E+01  0.40054561570E+01  0.17713552875E+02  0.18523003569E+02  0.00000000000E+00 0. -1.
</event>
<event>
 7    1  0.6830263E-012  0.5930194E+02  0.7816164E-02  0.1266605E+00
        -11   -1    0    0    0    0  0.00000000000E+00  0.00000000000E+00  0.45593999997E+02  0.45594000000E+02  0.51100000000E-03 0.  1.
         11   -1    0    0    0    0 -0.00000000000E+00 -0.00000000000E+00 -0.45593999997E+02  0.45594000000E+02  0.51100000000E-03 0. -1.
    9900012    2    1    2    0    0  0.19434376402E+02 -0.22828306253E+02 -0.10857922383E+02  0.59301936728E+02  0.49999986687E+02 0.  0.
        -12    1    1    2    0    0 -0.19434376402E+02  0.22828306253E+02  0.10857922383E+02  0.31886063272E+02  0.00000000000E+00 0.  1.
         11    1    3    3    0    0 -0.30606032683E+01 -0.25182327853E+01 -0.16287094858E+02  0.16762405791E+02  0.51100000000E-03 0. -1.
        -11    1    3    3    0    0  0.44799801250E+01 -0.49454068027E+01 -0.11594507675E+02  0.13377588679E+02  0.51100000000E-03 0.  1.
        -12    1    3    3    0    0  0.18014999546E+02 -0.15364666665E+02  0.17023680151E+02  0.29161942258E+02  0.00000000000E+00 0.  1.
</event>
<event>
 7    1  0.6830263E-012  0.5930194E+02  0.7816164E-02  0.1266605E+00
        -11   -1    0    0    0    0  0.00000000000E+00  0.00000000000E+00  0.45593999997E+02  0.45594000000E+02  0.51100000000E-03 0. -1.
         11   -1    0    0    0    0 -0.00000000000E+00 -0.00000000000E+00 -0.45593999997E+02  0.45594000000E+02  0.51100000000E-03 0.  1.
    9900012    2    1    2    0    0 -0.19366647569E+02 -0.22887629788E+02  0.10854043997E+02  0.59301938680E+02  0.49999990248E+02 0.  0.
        -12    1    1    2    0    0  0.19366647569E+02  0.22887629788E+02 -0.10854043997E+02  0.31886061320E+02  0.00000000000E+00 0.  1.
         11    1    3    3    0    0  0.50325737728E+01  0.10982861397E+02  0.21853691762E+01  0.12277046955E+02  0.51100000000E-03 0. -1.
        -11    1    3    3    0    0  0.31675884318E+00 -0.11751312255E+02  0.72805930631E+01  0.13827534541E+02  0.51100000000E-03 0.  1.
        -12    1    3    3    0    0 -0.24715980185E+02 -0.22119178930E+02  0.13880817579E+01  0.33197357184E+02  0.00000000000E+00 0.  1.
</event>
<event>
 7    1  0.6830263E-012  0.5930194E+02  0.7816164E-02  0.1266605E+00
        -11   -1    0    0    0    0  0.00000000000E+00  0.00000000000E+00  0.45593999997E+02  0.45594000000E+02  0.51100000000E-03 0.  1.
         11   -1    0    0    0    0 -0.00000000000E+00 -0.00000000000E+00 -0.45593999997E+02  0.45594000000E+02  0.51100000000E-03 0. -1.
    9900012    2    1    2    0    0  0.15407740307E+02 -0.10242813592E+02 -0.25969353042E+02  0.59301937385E+02  0.49999987886E+02 0.  0.
        -12    1    1    2    0    0 -0.15407740307E+02  0.10242813592E+02  0.25969353042E+02  0.31886062615E+02  0.00000000000E+00 0.  1.
         11    1    3    3    0    0 -0.64510808412E+01 -0.14162880797E+02 -0.86516816328E+01  0.17806044811E+02  0.51100000000E-03 0.  1.
        -11    1    3    3    0    0  0.13652616584E+02  0.48178217081E+01  0.68068238899E+01  0.15998068550E+02  0.51100000000E-03 0. -1.
         12    1    3    3    0    0  0.82062045638E+01 -0.89775450274E+00 -0.24124495299E+02  0.25497824024E+02  0.00000000000E+00 0. -1.
</event>
<event>
 7    1  0.6830263E-012  0.5930191E+02  0.7816164E-02  0.1266605E+00
        -11   -1    0    0    0    0  0.00000000000E+00  0.00000000000E+00  0.45593999997E+02  0.45594000000E+02  0.51100000000E-03 0.  1.
         11   -1    0    0    0    0 -0.00000000000E+00 -0.00000000000E+00 -0.45593999997E+02  0.45594000000E+02  0.51100000000E-03 0. -1.
    9900012    2    1    2    0    0  0.14460877992E+02  0.17821805598E+02 -0.22135701604E+02  0.59301905342E+02  0.49999929446E+02 0.  0.
        -12    1    1    2    0    0 -0.14460877992E+02 -0.17821805598E+02  0.22135701604E+02  0.31886094658E+02  0.00000000000E+00 0.  1.
         11    1    3    3    0    0  0.19856359167E+02  0.24422805573E+01  0.15155792514E+00  0.20006566516E+02  0.51100000000E-03 0. -1.
        -11    1    3    3    0    0  0.30048140564E+01 -0.70697685251E+01 -0.21163895209E+01  0.79680386154E+01  0.51100000000E-03 0.  1.
        -12    1    3    3    0    0 -0.84002952318E+01  0.22449293566E+02 -0.20170870008E+02  0.31327300210E+02  0.00000000000E+00 0.  1.
</event>
<event>
 7    1  0.6830263E-012  0.5930195E+02  0.7816164E-02  0.1266605E+00
        -11   -1    0    0    0    0  0.00000000000E+00  0.00000000000E+00  0.45593999997E+02  0.45594000000E+02  0.51100000000E-03 0. -1.
         11   -1    0    0    0    0 -0.00000000000E+00 -0.00000000000E+00 -0.45593999997E+02  0.45594000000E+02  0.51100000000E-03 0.  1.
    9900012    2    1    2    0    0  0.21994070939E+02 -0.96844739097E+01  0.20956914357E+02  0.59301945827E+02  0.50000003281E+02 0.  0.
        -12    1    1    2    0    0 -0.21994070939E+02  0.96844739097E+01 -0.20956914357E+02  0.31886054173E+02  0.00000000000E+00 0.  1.
         11    1    3    3    0    0 -0.30330126432E+01  0.13965357960E+02  0.92475051840E+01  0.17021948802E+02  0.51100000000E-03 0. -1.
        -11    1    3    3    0    0  0.14691674246E+01 -0.80581027638E+01  0.11388181961E+02  0.14027906534E+02  0.51100000000E-03 0.  1.
        -12    1    3    3    0    0  0.23557916157E+02 -0.15591729106E+02  0.32122721153E+00  0.28252090491E+02  0.00000000000E+00 0.  1.
</event>
<event>
 7    1  0.6830263E-012  0.5930193E+02  0.7816164E-02  0.1266605E+00
        -11   -1    0    0    0    0  0.00000000000E+00  0.00000000000E+00  0.45593999997E+02  0.45594000000E+02  0.51100000000E-03 0.  1.
         11   -1    0    0    0    0 -0.00000000000E+00 -0.00000000000E+00 -0.45593999997E+02  0.45594000000E+02  0.51100000000E-03 0. -1.
    9900012    2    1    2    0    0 -0.11763003068E+02  0.18932669498E+02 -0.22801472354E+02  0.59301931616E+02  0.49999977363E+02 0.  0.
        -12    1    1    2    0    0  0.11763003068E+02 -0.18932669498E+02  0.22801472354E+02  0.31886068384E+02  0.00000000000E+00 0.  1.
         11    1    3    3    0    0  0.47317756184E+01 -0.57990752115E+01 -0.15896463444E+02  0.17570330791E+02  0.51100000000E-03 0. -1.
        -11    1    3    3    0    0  0.28654068498E+00  0.40778370217E+01 -0.13674234065E+02  0.14272194571E+02  0.51100000000E-03 0.  1.
        -12    1    3    3    0    0 -0.16781319371E+02  0.20653907688E+02  0.67692251549E+01  0.27459406254E+02  0.00000000000E+00 0.  1.
</event>
<event>
 7    1  0.6830263E-012  0.5930199E+02  0.7816164E-02  0.1266605E+00
        -11   -1    0    0    0    0  0.00000000000E+00  0.00000000000E+00  0.45593999997E+02  0.45594000000E+02  0.51100000000E-03 0.  1.
         11   -1    0    0    0    0 -0.00000000000E+00 -0.00000000000E+00 -0.45593999997E+02  0.45594000000E+02  0.51100000000E-03 0. -1.
    9900012    2    1    2    0    0 -0.27723395134E+02 -0.14979624614E+02  0.48725861414E+01  0.59301986028E+02  0.50000076597E+02 0.  0.
        -12    1    1    2    0    0  0.27723395134E+02  0.14979624614E+02 -0.48725861414E+01  0.31886013972E+02  0.00000000000E+00 0.  1.
         11    1    3    3    0    0 -0.18530326629E+02  0.10434880921E+02 -0.11489555267E+01  0.21297414019E+02  0.51100000000E-03 0. -1.
        -11    1    3    3    0    0  0.61985077519E+01 -0.68951980549E+00  0.63194171687E+01  0.88787369330E+01  0.51100000000E-03 0.  1.
         12    1    3    3    0    0 -0.15391576257E+02 -0.24724985730E+02 -0.29787550061E+00  0.29125835076E+02  0.00000000000E+00 0. -1.
</event>
<event>
 7    1  0.6830263E-012  0.5930173E+02  0.7816164E-02  0.1266606E+00
        -11   -1    0    0    0    0  0.00000000000E+00  0.00000000000E+00  0.45593999997E+02  0.45594000000E+02  0.51100000000E-03 0. -1.
         11   -1    0    0    0    0 -0.00000000000E+00 -0.00000000000E+00 -0.45593999997E+02  0.45594000000E+02  0.51100000000E-03 0.  1.
    9900012    2    1    2    0    0  0.23309364362E+02  0.21727456443E+02 -0.11513219221E+01  0.59301727521E+02  0.49999605143E+02 0.  0.
        -12    1    1    2    0    0 -0.23309364362E+02 -0.21727456443E+02  0.11513219221E+01  0.31886272479E+02  0.00000000000E+00 0.  1.
         11    1    3    3    0    0  0.21717886639E+02  0.37642547306E+01  0.64944092679E+01  0.22978545771E+02  0.51100000000E-03 0. -1.
        -11    1    3    3    0    0  0.12412975485E+02 -0.14601100091E+00 -0.87666015409E+01  0.15197255754E+02  0.51100000000E-03 0.  1.
        -12    1    3    3    0    0 -0.10821497762E+02  0.18109212713E+02  0.11208703510E+01  0.21125925997E+02  0.00000000000E+00 0.  1.
</event>
<event>
 7    1  0.6830263E-012  0.5930185E+02  0.7816164E-02  0.1266605E+00
        -11   -1    0    0    0    0  0.00000000000E+00  0.00000000000E+00  0.45593999997E+02  0.45594000000E+02  0.51100000000E-03 0.  1.
         11   -1    0    0    0    0 -0.00000000000E+00 -0.00000000000E+00 -0.45593999997E+02  0.45594000000E+02  0.51100000000E-03 0. -1.
    9900012    2    1    2    0    0 -0.25948405031E+02  0.17121901379E+02 -0.70885255268E+01  0.59301852151E+02  0.49999832439E+02 0.  0.
        -12    1    1    2    0    0  0.25948405031E+02 -0.17121901379E+02  0.70885255268E+01  0.31886147849E+02  0.00000000000E+00 0.  1.
         11    1    3    3    0    0 -0.15261100193E+02  0.82305159805E+01  0.12737945672E+02  0.21515060600E+02  0.51100000000E-03 0.  1.
        -11    1    3    3    0    0 -0.59875024703E+01  0.17762381061E+02 -0.20434385497E+02  0.27729343261E+02  0.51100000000E-03 0. -1.
         12    1    3    3    0    0 -0.46998023675E+01 -0.88709956615E+01  0.60791429796E+00  0.10057448290E+02  0.00000000000E+00 0. -1.
</event>
<event>
 7    1  0.6830263E-012  0.5930194E+02  0.7816164E-02  0.1266605E+00
        -11   -1    0    0    0    0  0.00000000000E+00  0.00000000000E+00  0.45593999997E+02  0.45594000000E+02  0.51100000000E-03 0. -1.
         11   -1    0    0    0    0 -0.00000000000E+00 -0.00000000000E+00 -0.45593999997E+02  0.45594000000E+02  0.51100000000E-03 0.  1.
    9900012    2    1    2    0    0 -0.20018316011E+02  0.64224927634E+01  0.23973730400E+02  0.59301935042E+02  0.49999983613E+02 0.  0.
        -12    1    1    2    0    0  0.20018316011E+02 -0.64224927634E+01 -0.23973730400E+02  0.31886064958E+02  0.00000000000E+00 0.  1.
         11    1    3    3    0    0 -0.15550271132E+02  0.26442972788E+01  0.30221524351E+02  0.34090229901E+02  0.51100000000E-03 0. -1.
        -11    1    3    3    0    0  0.20258026196E+01  0.76428401534E+01  0.66046101119E+01  0.10302318033E+02  0.51100000000E-03 0.  1.
         12    1    3    3    0    0 -0.64938474987E+01 -0.38646446688E+01 -0.12852404063E+02  0.14909387108E+02  0.00000000000E+00 0. -1.
</event>
<event>
 7    1  0.6830263E-012  0.5930183E+02  0.7816164E-02  0.1266605E+00
        -11   -1    0    0    0    0  0.00000000000E+00  0.00000000000E+00  0.45593999997E+02  0.45594000000E+02  0.51100000000E-03 0.  1.
         11   -1    0    0    0    0 -0.00000000000E+00 -0.00000000000E+00 -0.45593999997E+02  0.45594000000E+02  0.51100000000E-03 0. -1.
    9900012    2    1    2    0    0  0.78765213254E+01 -0.30890043207E+02  0.70256699280E+00  0.59301828108E+02  0.49999788590E+02 0.  0.
        -12    1    1    2    0    0 -0.78765213254E+01  0.30890043207E+02 -0.70256699280E+00  0.31886171892E+02  0.00000000000E+00 0.  1.
         11    1    3    3    0    0 -0.59909919005E+01 -0.13744212141E+02  0.63653531810E+01  0.16288433710E+02  0.51100000000E-03 0. -1.
        -11    1    3    3    0    0  0.19643479830E+02 -0.95964781311E+01  0.10507445225E+02  0.24256238327E+02  0.51100000000E-03 0.  1.
         12    1    3    3    0    0 -0.57759666038E+01 -0.75493529349E+01 -0.16170231413E+02  0.18757156072E+02  0.00000000000E+00 0. -1.
</event>
<event>
 7    1  0.6830263E-012  0.5930211E+02  0.7816164E-02  0.1266604E+00
        -11   -1    0    0    0    0  0.00000000000E+00  0.00000000000E+00  0.45593999997E+02  0.45594000000E+02  0.51100000000E-03 0.  1.
         11   -1    0    0    0    0 -0.00000000000E+00 -0.00000000000E+00 -0.45593999997E+02  0.45594000000E+02  0.51100000000E-03 0. -1.
    9900012    2    1    2    0    0 -0.13423574585E+02  0.55116022305E+01 -0.28392600438E+02  0.59302111689E+02  0.50000305772E+02 0.  0.
        -12    1    1    2    0    0  0.13423574585E+02 -0.55116022305E+01  0.28392600438E+02  0.31885888311E+02  0.00000000000E+00 0.  1.
         11    1    3    3    0    0 -0.73192896345E+01 -0.41991434913E+01  0.12635545994E+02  0.15194138002E+02  0.51100000000E-03 0.  1.
        -11    1    3    3    0    0  0.34206025403E+01  0.28697968990E+01 -0.11503932891E+02  0.12340045713E+02  0.51100000000E-03 0. -1.
        -12    1    3    3    0    0 -0.95248874906E+01  0.68409488227E+01 -0.29524213541E+02  0.31767927973E+02  0.00000000000E+00 0.  1.
</event>
<event>
 7    1  0.6830263E-012  0.5930189E+02  0.7816164E-02  0.1266605E+00
        -11   -1    0    0    0    0  0.00000000000E+00  0.00000000000E+00  0.45593999997E+02  0.45594000000E+02  0.51100000000E-03 0.  1.
         11   -1    0    0    0    0 -0.00000000000E+00 -0.00000000000E+00 -0.45593999997E+02  0.45594000000E+02  0.51100000000E-03 0. -1.
    9900012    2    1    2    0    0 -0.24027606608E+02  0.96144273552E+01 -0.18626882912E+02  0.59301892372E+02  0.49999905792E+02 0.  0.
        -12    1    1    2    0    0  0.24027606608E+02 -0.96144273552E+01  0.18626882912E+02  0.31886107628E+02  0.00000000000E+00 0.  1.
         11    1    3    3    0    0 -0.20924550582E+02  0.90954594584E+01 -0.17404505732E+02  0.28696359000E+02  0.51100000000E-03 0. -1.
        -11    1    3    3    0    0 -0.21309686325E+01  0.14946886018E+02  0.32995655825E+01  0.15454370328E+02  0.51100000000E-03 0.  1.
        -12    1    3    3    0    0 -0.97208739364E+00 -0.14427918121E+02 -0.45219427619E+01  0.15151163043E+02  0.00000000000E+00 0.  1.
</event>
<event>
 7    1  0.6830263E-012  0.5930193E+02  0.7816164E-02  0.1266605E+00
        -11   -1    0    0    0    0  0.00000000000E+00  0.00000000000E+00  0.45593999997E+02  0.45594000000E+02  0.51100000000E-03 0. -1.
         11   -1    0    0    0    0 -0.00000000000E+00 -0.00000000000E+00 -0.45593999997E+02  0.45594000000E+02  0.51100000000E-03 0.  1.
    9900012    2    1    2    0    0 -0.31299461247E+02  0.53347795181E+01 -0.29335267019E+01  0.59301925834E+02  0.49999966818E+02 0.  0.
        -12    1    1    2    0    0  0.31299461247E+02 -0.53347795181E+01  0.29335267019E+01  0.31886074166E+02  0.00000000000E+00 0.  1.
         11    1    3    3    0    0 -0.35176744523E+01  0.13321336289E+02  0.14184297791E+02  0.19774385911E+02  0.51100000000E-03 0. -1.
        -11    1    3    3    0    0  0.14025943442E+01  0.22432875492E+01  0.18685280985E+01  0.32389824696E+01  0.51100000000E-03 0.  1.
        -12    1    3    3    0    0 -0.29184381139E+02 -0.10229844320E+02 -0.18986352592E+02  0.36288557453E+02  0.00000000000E+00 0.  1.
</event>
<event>
 7    1  0.6830263E-012  0.5930194E+02  0.7816164E-02  0.1266605E+00
        -11   -1    0    0    0    0  0.00000000000E+00  0.00000000000E+00  0.45593999997E+02  0.45594000000E+02  0.51100000000E-03 0.  1.
         11   -1    0    0    0    0 -0.00000000000E+00 -0.00000000000E+00 -0.45593999997E+02  0.45594000000E+02  0.51100000000E-03 0. -1.
    9900012    2    1    2    0    0  0.83722909387E+00 -0.31587736608E+02  0.42702370443E+01  0.59301937512E+02  0.49999988116E+02 0.  0.
        -12    1    1    2    0    0 -0.83722909387E+00  0.31587736608E+02 -0.42702370443E+01  0.31886062488E+02  0.00000000000E+00 0.  1.
         11    1    3    3    0    0  0.84727916639E+01 -0.33644457358E+02 -0.29837943229E+01  0.34822991519E+02  0.51100000000E-03 0. -1.
        -11    1    3    3    0    0 -0.97381620343E+00 -0.75633813525E+01 -0.36770372043E+01  0.84660296683E+01  0.51100000000E-03 0.  1.
        -12    1    3    3    0    0 -0.66617463666E+01  0.96201021020E+01  0.10931068572E+02  0.16012916325E+02  0.00000000000E+00 0.  1.
</event>
<event>
 7    1  0.6830263E-012  0.5930199E+02  0.7816164E-02  0.1266605E+00
        -11   -1    0    0    0    0  0.00000000000E+00  0.00000000000E+00  0.45593999997E+02  0.45594000000E+02  0.51100000000E-03 0.  1.
         11   -1    0    0    0    0 -0.00000000000E+00 -0.00000000000E+00 -0.45593999997E+02  0.45594000000E+02  0.51100000000E-03 0. -1.
    9900012    2    1    2    0    0 -0.13736682138E+02  0.15955896886E+02 -0.23946416379E+02  0.59301985213E+02  0.50000075111E+02 0.  0.
        -12    1    1    2    0    0  0.13736682138E+02 -0.15955896886E+02  0.23946416379E+02  0.31886014787E+02  0.00000000000E+00 0.  1.
         11    1    3    3    0    0 -0.52162700687E+01 -0.17519249965E+01 -0.25881765368E+02  0.26460243639E+02  0.51100000000E-03 0. -1.
        -11    1    3    3    0    0 -0.72030529791E+01 -0.21278974779E+01 -0.76946447090E+01  0.10752649783E+02  0.51100000000E-03 0.  1.
         12    1    3    3    0    0 -0.13173590902E+01  0.19835719361E+02  0.96299936974E+01  0.22089091791E+02  0.00000000000E+00 0. -1.
</event>
<event>
 7    1  0.6830263E-012  0.5930195E+02  0.7816164E-02  0.1266605E+00
        -11   -1    0    0    0    0  0.00000000000E+00  0.00000000000E+00  0.45593999997E+02  0.45594000000E+02  0.51100000000E-03 0.  1.
         11   -1    0    0    0    0 -0.00000000000E+00 -0.00000000000E+00 -0.45593999997E+02  0.45594000000E+02  0.51100000000E-03 0. -1.
    9900012    2    1    2    0    0  0.17363536255E+02 -0.26692430477E+02  0.16558411112E+01  0.59301952176E+02  0.50000014860E+02 0.  0.
        -12    1    1    2    0    0 -0.17363536255E+02  0.26692430477E+02 -0.16558411112E+01  0.31886047824E+02  0.00000000000E+00 0.  1.
         11    1    3    3    0    0 -0.66920522982E+01 -0.11607728327E+02 -0.75274074642E+01  0.15368304535E+02  0.51100000000E-03 0. -1.
        -11    1    3    3    0    0 -0.43123315220E+01 -0.13487321184E+02  0.58693473920E+01  0.15328185638E+02  0.51100000000E-03 0.  1.
        -12    1    3    3    0    0  0.28367920075E+02 -0.15973809661E+01  0.33139011834E+01  0.28605462003E+02  0.00000000000E+00 0.  1.
</event>
<event>
 7    1  0.6830263E-012  0.5930190E+02  0.7816164E-02  0.1266605E+00
        -11   -1    0    0    0    0  0.00000000000E+00  0.00000000000E+00  0.45593999997E+02  0.45594000000E+02  0.51100000000E-03 0. -1.
         11   -1    0    0    0    0 -0.00000000000E+00 -0.00000000000E+00 -0.45593999997E+02  0.45594000000E+02  0.51100000000E-03 0.  1.
    9900012    2    1    2    0    0 -0.56314915868E+01 -0.11609207117E+02  0.29158808590E+02  0.59301897921E+02  0.49999915913E+02 0.  0.
        -12    1    1    2    0    0  0.56314915868E+01  0.11609207117E+02 -0.29158808590E+02  0.31886102079E+02  0.00000000000E+00 0.  1.
         11    1    3    3    0    0 -0.33097106014E+01  0.55870691018E+01  0.17666452776E+02  0.18822143326E+02  0.51100000000E-03 0. -1.
        -11    1    3    3    0    0 -0.10703191847E+02  0.72055574613E+01  0.52805885378E+01  0.13941412755E+02  0.51100000000E-03 0.  1.
         12    1    3    3    0    0  0.83814108615E+01 -0.24401833680E+02  0.62117672763E+01  0.26538341841E+02  0.00000000000E+00 0. -1.
</event>
<event>
 7    1  0.6830263E-012  0.5930194E+02  0.7816164E-02  0.1266605E+00
        -11   -1    0    0    0    0  0.00000000000E+00  0.00000000000E+00  0.45593999997E+02  0.45594000000E+02  0.51100000000E-03 0.  1.
         11   -1    0    0    0    0 -0.00000000000E+00 -0.00000000000E+00 -0.45593999997E+02  0.45594000000E+02  0.51100000000E-03 0. -1.
    9900012    2    1    2    0    0 -0.11068051761E+02 -0.29901374455E+02 -0.35631762785E+00  0.59301938369E+02  0.49999989679E+02 0.  0.
        -12    1    1    2    0    0  0.11068051761E+02  0.29901374455E+02  0.35631762785E+00  0.31886061631E+02  0.00000000000E+00 0.  1.
         11    1    3    3    0    0 -0.11945496946E+02  0.29844129168E+01 -0.12944897111E+02  0.17865384945E+02  0.51100000000E-03 0. -1.
        -11    1    3    3    0    0 -0.75869382742E+01 -0.28269277710E+01  0.41005288026E+01  0.90756536801E+01  0.51100000000E-03 0.  1.
         12    1    3    3    0    0  0.84643834591E+01 -0.30058859601E+02  0.84880506809E+01  0.32360899744E+02  0.00000000000E+00 0. -1.
</event>
<event>
 7    1  0.6830263E-012  0.5930196E+02  0.7816164E-02  0.1266605E+00
        -11   -1    0    0    0    0  0.00000000000E+00  0.00000000000E+00  0.45593999997E+02  0.45594000000E+02  0.51100000000E-03 0.  1.
         11   -1    0    0    0    0 -0.00000000000E+00 -0.00000000000E+00 -0.45593999997E+02  0.45594000000E+02  0.51100000000E-03 0. -1.
    9900012    2    1    2    0    0  0.21561000863E+02  0.46920612422E+01 -0.23017972809E+02  0.59301964356E+02  0.50000037073E+02 0.  0.
        -12    1    1    2    0    0 -0.21561000863E+02 -0.46920612422E+01  0.23017972809E+02  0.31886035644E+02  0.00000000000E+00 0.  1.
         11    1    3    3    0    0  0.24123120574E+02  0.13395421775E+02 -0.31115144092E+02  0.41587431550E+02  0.51100000000E-03 0. -1.
        -11    1    3    3    0    0  0.27613373982E+01 -0.17423744524E+01  0.83311895357E+01  0.89481602746E+01  0.51100000000E-03 0.  1.
        -12    1    3    3    0    0 -0.53234571097E+01 -0.69609860807E+01 -0.23401825224E+00  0.87663725313E+01  0.00000000000E+00 0.  1.
</event>
<event>
 7    1  0.6830263E-012  0.5930194E+02  0.7816164E-02  0.1266605E+00
        -11   -1    0    0    0    0  0.00000000000E+00  0.00000000000E+00  0.45593999997E+02  0.45594000000E+02  0.51100000000E-03 0.  1.
         11   -1    0    0    0    0 -0.00000000000E+00 -0.00000000000E+00 -0.45593999997E+02  0.45594000000E+02  0.51100000000E-03 0. -1.
    9900012    2    1    2    0    0  0.18885280296E+02  0.13524046948E+01 -0.25656151705E+02  0.59301938302E+02  0.49999989557E+02 0.  0.
        -12    1    1    2    0    0 -0.18885280296E+02 -0.13524046948E+01  0.25656151705E+02  0.31886061698E+02  0.00000000000E+00 0.  1.
         11    1    3    3    0    0  0.99550429194E+01  0.24991660099E+02 -0.10042612012E+02  0.28714804723E+02  0.51100000000E-03 0. -1.
        -11    1    3    3    0    0  0.34023406252E+01 -0.17788274332E+02 -0.93114900271E+01  0.20364244946E+02  0.51100000000E-03 0.  1.
        -12    1    3    3    0    0  0.55278967514E+01 -0.58509810717E+01 -0.63020496655E+01  0.10222888632E+02  0.00000000000E+00 0.  1.
</event>
<event>
 7    1  0.6830263E-012  0.5930195E+02  0.7816164E-02  0.1266605E+00
        -11   -1    0    0    0    0  0.00000000000E+00  0.00000000000E+00  0.45593999997E+02  0.45594000000E+02  0.51100000000E-03 0.  1.
         11   -1    0    0    0    0 -0.00000000000E+00 -0.00000000000E+00 -0.45593999997E+02  0.45594000000E+02  0.51100000000E-03 0. -1.
    9900012    2    1    2    0    0  0.13695580540E+01  0.26103905502E+02 -0.18260077218E+02  0.59301953024E+02  0.50000016408E+02 0.  0.
        -12    1    1    2    0    0 -0.13695580540E+01 -0.26103905502E+02  0.18260077218E+02  0.31886046976E+02  0.00000000000E+00 0.  1.
         11    1    3    3    0    0  0.36475560045E+01  0.28571497250E+01  0.50008430912E+01  0.68173602839E+01  0.51100000000E-03 0. -1.
        -11    1    3    3    0    0 -0.14498860234E+02  0.14140819092E+02  0.45626610723E+01  0.20760481425E+02  0.51100000000E-03 0.  1.
         12    1    3    3    0    0  0.12220862284E+02  0.91059366848E+01 -0.27823581381E+02  0.31724111315E+02  0.00000000000E+00 0. -1.
</event>
<event>
 7    1  0.6830263E-012  0.5930193E+02  0.7816164E-02  0.1266605E+00
        -11   -1    0    0    0    0  0.00000000000E+00  0.00000000000E+00  0.45593999997E+02  0.45594000000E+02  0.51100000000E-03 0.  1.
         11   -1    0    0    0    0 -0.00000000000E+00 -0.00000000000E+00 -0.45593999997E+02  0.45594000000E+02  0.51100000000E-03 0. -1.
    9900012    2    1    2    0    0 -0.63176987495E+01 -0.18717225680E+02 -0.25029455114E+02  0.59301929720E+02  0.49999973905E+02 0.  0.
        -12    1    1    2    0    0  0.63176987495E+01  0.18717225680E+02  0.25029455114E+02  0.31886070280E+02  0.00000000000E+00 0.  1.
         11    1    3    3    0    0 -0.60035161077E+01 -0.12555311728E+02 -0.26640136464E+02  0.30056196189E+02  0.51100000000E-03 0. -1.
        -11    1    3    3    0    0 -0.50461001823E+01 -0.19634522651E+01 -0.12587149664E+02  0.13702357782E+02  0.51100000000E-03 0.  1.
        -12    1    3    3    0    0  0.47319175405E+01 -0.41984616867E+01  0.14197831015E+02  0.15543375749E+02  0.00000000000E+00 0.  1.
</event>
<event>
 7    1  0.6830263E-012  0.5930195E+02  0.7816164E-02  0.1266605E+00
        -11   -1    0    0    0    0  0.00000000000E+00  0.00000000000E+00  0.45593999997E+02  0.45594000000E+02  0.51100000000E-03 0.  1.
         11   -1    0    0    0    0 -0.00000000000E+00 -0.00000000000E+00 -0.45593999997E+02  0.45594000000E+02  0.51100000000E-03 0. -1.
    9900012    2    1    2    0    0  0.17401646674E+02 -0.26304229659E+02 -0.46893851405E+01  0.59301950732E+02  0.50000012226E+02 0.  0.
        -12    1    1    2    0    0 -0.17401646674E+02  0.26304229659E+02  0.46893851405E+01  0.31886049268E+02  0.00000000000E+00 0.  1.
         11    1    3    3    0    0  0.14091079808E+02 -0.23166872299E+02  0.81186060409E+01  0.28305021932E+02  0.51100000000E-03 0. -1.
        -11    1    3    3    0    0  0.13624989698E+01 -0.76969305411E+01  0.70518584458E+01  0.10527480753E+02  0.51100000000E-03 0.  1.
        -12    1    3    3    0    0  0.19480678961E+01  0.45595731808E+01 -0.19859849627E+02  0.20469448047E+02  0.00000000000E+00 0.  1.
</event>
<event>
 7    1  0.6830263E-012  0.5930190E+02  0.7816164E-02  0.1266605E+00
        -11   -1    0    0    0    0  0.00000000000E+00  0.00000000000E+00  0.45593999997E+02  0.45594000000E+02  0.51100000000E-03 0. -1.
         11   -1    0    0    0    0 -0.00000000000E+00 -0.00000000000E+00 -0.45593999997E+02  0.45594000000E+02  0.51100000000E-03 0.  1.
    9900012    2    1    2    0    0  0.27422744795E+02  0.12180447145E+02  0.10786704523E+02  0.59301902415E+02  0.49999924109E+02 0.  0.
        -12    1    1    2    0    0 -0.27422744795E+02 -0.12180447145E+02 -0.10786704523E+02  0.31886097585E+02  0.00000000000E+00 0.  1.
         11    1    3    3    0    0  0.15753124521E+02 -0.93585675507E+00  0.15750368024E+02  0.22295982894E+02  0.51100000000E-03 0. -1.
        -11    1    3    3    0    0  0.44395551321E+00  0.25056463152E+01  0.13038820029E+02  0.13284810422E+02  0.51100000000E-03 0.  1.
        -12    1    3    3    0    0  0.11225664760E+02  0.10610657585E+02 -0.18002483530E+02  0.23721109100E+02  0.00000000000E+00 0.  1.
</event>
<event>
 7    1  0.6830263E-012  0.5930193E+02  0.7816164E-02  0.1266605E+00
        -11   -1    0    0    0    0  0.00000000000E+00  0.00000000000E+00  0.45593999997E+02  0.45594000000E+02  0.51100000000E-03 0. -1.
         11   -1    0    0    0    0 -0.00000000000E+00 -0.00000000000E+00 -0.45593999997E+02  0.45594000000E+02  0.51100000000E-03 0.  1.
    9900012    2    1    2    0    0 -0.19372645426E+02 -0.19936823729E+02 -0.15618746355E+02  0.59301928293E+02  0.49999971303E+02 0.  0.
        -12    1    1    2    0    0  0.19372645426E+02  0.19936823729E+02  0.15618746355E+02  0.31886071707E+02  0.00000000000E+00 0.  1.
         11    1    3    3    0    0 -0.13249429569E+02 -0.30346145370E+02 -0.82727037953E+01  0.34130243935E+02  0.51100000000E-03 0. -1.
        -11    1    3    3    0    0  0.73011790497E+01  0.60082201729E+01 -0.54606644506E+01  0.10919010105E+02  0.51100000000E-03 0.  1.
        -12    1    3    3    0    0 -0.13424394907E+02  0.44011014683E+01 -0.18853781093E+01  0.14252674253E+02  0.00000000000E+00 0.  1.
</event>
<event>
 7    1  0.6830263E-012  0.5930193E+02  0.7816164E-02  0.1266605E+00
        -11   -1    0    0    0    0  0.00000000000E+00  0.00000000000E+00  0.45593999997E+02  0.45594000000E+02  0.51100000000E-03 0.  1.
         11   -1    0    0    0    0 -0.00000000000E+00 -0.00000000000E+00 -0.45593999997E+02  0.45594000000E+02  0.51100000000E-03 0. -1.
    9900012    2    1    2    0    0  0.17281432602E+02 -0.26449574187E+02  0.43004063581E+01  0.59301931219E+02  0.49999976640E+02 0.  0.
        -12    1    1    2    0    0 -0.17281432602E+02  0.26449574187E+02 -0.43004063581E+01  0.31886068781E+02  0.00000000000E+00 0.  1.
         11    1    3    3    0    0 -0.10483996751E+02 -0.88250517817E+01  0.53124736875E+01  0.14697554347E+02  0.51100000000E-03 0. -1.
        -11    1    3    3    0    0  0.13186801255E+02 -0.22631139202E+02 -0.84057626705E+01  0.27508490239E+02  0.51100000000E-03 0.  1.
        -12    1    3    3    0    0  0.14578628098E+02  0.50066167963E+01  0.73936953410E+01  0.17095886633E+02  0.00000000000E+00 0.  1.
</event>
<event>
 7    1  0.6830263E-012  0.5930194E+02  0.7816164E-02  0.1266605E+00
        -11   -1    0    0    0    0  0.00000000000E+00  0.00000000000E+00  0.45593999997E+02  0.45594000000E+02  0.51100000000E-03 0. -1.
         11   -1    0    0    0    0 -0.00000000000E+00 -0.00000000000E+00 -0.45593999997E+02  0.45594000000E+02  0.51100000000E-03 0.  1.
    9900012    2    1    2    0    0  0.24047532188E+02  0.17294088791E+02 -0.11804727493E+02  0.59301938740E+02  0.49999990357E+02 0.  0.
        -12    1    1    2    0    0 -0.24047532188E+02 -0.17294088791E+02  0.11804727493E+02  0.31886061260E+02  0.00000000000E+00 0.  1.
         11    1    3    3    0    0  0.53154700414E+01  0.47553449501E+01 -0.21735377907E+01  0.74559904871E+01  0.51100000000E-03 0. -1.
        -11    1    3    3    0    0  0.24519233893E+02  0.47083499507E+01 -0.23905905575E+02  0.34566656065E+02  0.51100000000E-03 0.  1.
        -12    1    3    3    0    0 -0.57871717461E+01  0.78303938905E+01  0.14274715872E+02  0.17279292188E+02  0.00000000000E+00 0.  1.
</event>
<event>
 7    1  0.6830263E-012  0.5930192E+02  0.7816164E-02  0.1266605E+00
        -11   -1    0    0    0    0  0.00000000000E+00  0.00000000000E+00  0.45593999997E+02  0.45594000000E+02  0.51100000000E-03 0. -1.
         11   -1    0    0    0    0 -0.00000000000E+00 -0.00000000000E+00 -0.45593999997E+02  0.45594000000E+02  0.51100000000E-03 0.  1.
    9900012    2    1    2    0    0  0.12945609091E+02  0.29114489820E+02  0.12165413781E+01  0.59301917062E+02  0.49999950821E+02 0.  0.
        -12    1    1    2    0    0 -0.12945609091E+02 -0.29114489820E+02 -0.12165413781E+01  0.31886082938E+02  0.00000000000E+00 0.  1.
         11    1    3    3    0    0  0.10822124033E+02  0.11959807423E+02  0.13803650402E+02  0.21229604963E+02  0.51100000000E-03 0. -1.
        -11    1    3    3    0    0  0.11343340743E+02  0.69053836326E+01  0.62923636462E+01  0.14695221769E+02  0.51100000000E-03 0.  1.
        -12    1    3    3    0    0 -0.92198556846E+01  0.10249298764E+02 -0.18879472670E+02  0.23377090331E+02  0.00000000000E+00 0.  1.
</event>
<event>
 7    1  0.6830263E-012  0.5930196E+02  0.7816164E-02  0.1266605E+00
        -11   -1    0    0    0    0  0.00000000000E+00  0.00000000000E+00  0.45593999997E+02  0.45594000000E+02  0.51100000000E-03 0. -1.
         11   -1    0    0    0    0 -0.00000000000E+00 -0.00000000000E+00 -0.45593999997E+02  0.45594000000E+02  0.51100000000E-03 0.  1.
    9900012    2    1    2    0    0  0.57451188795E+00 -0.31782835471E+02 -0.24982072774E+01  0.59301957064E+02  0.50000023775E+02 0.  0.
        -12    1    1    2    0    0 -0.57451188795E+00  0.31782835471E+02  0.24982072774E+01  0.31886042936E+02  0.00000000000E+00 0.  1.
         11    1    3    3    0    0 -0.92658513443E+00 -0.11938229617E+02  0.20669728809E+02  0.23887602971E+02  0.51100000000E-03 0. -1.
        -11    1    3    3    0    0  0.24871983740E+01 -0.92996101455E+01  0.33822006542E+00  0.96324087166E+01  0.51100000000E-03 0.  1.
        -12    1    3    3    0    0 -0.98610135164E+00 -0.10544995709E+02 -0.23506156152E+02  0.25781945377E+02  0.00000000000E+00 0.  1.
</event>
<event>
 7    1  0.6830263E-012  0.5930194E+02  0.7816164E-02  0.1266605E+00
        -11   -1    0    0    0    0  0.00000000000E+00  0.00000000000E+00  0.45593999997E+02  0.45594000000E+02  0.51100000000E-03 0. -1.
         11   -1    0    0    0    0 -0.00000000000E+00 -0.00000000000E+00 -0.45593999997E+02  0.45594000000E+02  0.51100000000E-03 0.  1.
    9900012    2    1    2    0    0  0.29344455960E+02  0.81714765792E+01  0.94260772237E+01  0.59301936321E+02  0.49999985945E+02 0.  0.
        -12    1    1    2    0    0 -0.29344455960E+02 -0.81714765792E+01 -0.94260772237E+01  0.31886063679E+02  0.00000000000E+00 0.  1.
         11    1    3    3    0    0 -0.30733760681E+01  0.15594603910E+02  0.54320724454E+01  0.16797164132E+02  0.51100000000E-03 0. -1.
        -11    1    3    3    0    0  0.26206283804E+02  0.54341186309E+01  0.75133743019E+01  0.27798376747E+02  0.51100000000E-03 0.  1.
        -12    1    3    3    0    0  0.62115482243E+01 -0.12857245961E+02 -0.35193695236E+01  0.14706395442E+02  0.00000000000E+00 0.  1.
</event>
<event>
 7    1  0.6830263E-012  0.5930180E+02  0.7816164E-02  0.1266605E+00
        -11   -1    0    0    0    0  0.00000000000E+00  0.00000000000E+00  0.45593999997E+02  0.45594000000E+02  0.51100000000E-03 0.  1.
         11   -1    0    0    0    0 -0.00000000000E+00 -0.00000000000E+00 -0.45593999997E+02  0.45594000000E+02  0.51100000000E-03 0. -1.
    9900012    2    1    2    0    0  0.68286309677E+01 -0.24416002000E+02 -0.19338007687E+02  0.59301797720E+02  0.49999733168E+02 0.  0.
        -12    1    1    2    0    0 -0.68286309677E+01  0.24416002000E+02  0.19338007687E+02  0.31886202280E+02  0.00000000000E+00 0.  1.
         11    1    3    3    0    0  0.49046800490E+01 -0.17479920857E+02 -0.28643947052E+02  0.33912817968E+02  0.51100000000E-03 0. -1.
        -11    1    3    3    0    0 -0.31588017587E+00 -0.13455013897E+02 -0.42334403870E+00  0.13465377815E+02  0.51100000000E-03 0.  1.
        -12    1    3    3    0    0  0.22398310946E+01  0.65189327546E+01  0.97292834036E+01  0.11923601936E+02  0.00000000000E+00 0.  1.
</event>
<event>
 7    1  0.6830263E-012  0.5930192E+02  0.7816164E-02  0.1266605E+00
        -11   -1    0    0    0    0  0.00000000000E+00  0.00000000000E+00  0.45593999997E+02  0.45594000000E+02  0.51100000000E-03 0. -1.
         11   -1    0    0    0    0 -0.00000000000E+00 -0.00000000000E+00 -0.45593999997E+02  0.45594000000E+02  0.51100000000E-03 0.  1.
    9900012    2    1    2    0    0 -0.90294465823E+01 -0.22978379469E+02  0.20178826937E+02  0.59301923334E+02  0.49999962260E+02 0.  0.
        -12    1    1    2    0    0  0.90294465823E+01  0.22978379469E+02 -0.20178826937E+02  0.31886076666E+02  0.00000000000E+00 0.  1.
         11    1    3    3    0    0  0.57819258688E+00 -0.90513840246E+01  0.90793653264E+01  0.12833422553E+02  0.51100000000E-03 0. -1.
        -11    1    3    3    0    0 -0.22320490390E+02 -0.17150770294E+02  0.16105267512E+02  0.32430431000E+02  0.51100000000E-03 0.  1.
        -12    1    3    3    0    0  0.12712851221E+02  0.32237748501E+01 -0.50058059018E+01  0.14038069781E+02  0.00000000000E+00 0.  1.
</event>
<event>
 7    1  0.6830263E-012  0.5930192E+02  0.7816164E-02  0.1266605E+00
        -11   -1    0    0    0    0  0.00000000000E+00  0.00000000000E+00  0.45593999997E+02  0.45594000000E+02  0.51100000000E-03 0. -1.
         11   -1    0    0    0    0 -0.00000000000E+00 -0.00000000000E+00 -0.45593999997E+02  0.45594000000E+02  0.51100000000E-03 0.  1.
    9900012    2    1    2    0    0 -0.14804471520E+02  0.42027180474E+01  0.27926457213E+02  0.59301917951E+02  0.49999952443E+02 0.  0.
        -12    1    1    2    0    0  0.14804471520E+02 -0.42027180474E+01 -0.27926457213E+02  0.31886082049E+02  0.00000000000E+00 0.  1.
         11    1    3    3    0    0 -0.16956130825E+02 -0.10900378423E+02  0.47662206076E+01  0.20713413081E+02  0.51100000000E-03 0. -1.
        -11    1    3    3    0    0 -0.10114698577E+02 -0.14313314138E+01  0.65421227669E+01  0.12130754613E+02  0.51100000000E-03 0.  1.
        -12    1    3    3    0    0  0.12266357883E+02  0.16534427884E+02  0.16618113838E+02  0.26457750258E+02  0.00000000000E+00 0.  1.
</event>
<event>
 7    1  0.6830263E-012  0.5930192E+02  0.7816164E-02  0.1266605E+00
        -11   -1    0    0    0    0  0.00000000000E+00  0.00000000000E+00  0.45593999997E+02  0.45594000000E+02  0.51100000000E-03 0.  1.
         11   -1    0    0    0    0 -0.00000000000E+00 -0.00000000000E+00 -0.45593999997E+02  0.45594000000E+02  0.51100000000E-03 0. -1.
    9900012    2    1    2    0    0 -0.29894019553E+02 -0.28559137205E+01 -0.10719782247E+02  0.59301915580E+02  0.49999948118E+02 0.  0.
        -12    1    1    2    0    0  0.29894019553E+02  0.28559137205E+01  0.10719782247E+02  0.31886084420E+02  0.00000000000E+00 0.  1.
         11    1    3    3    0    0 -0.23697012509E+02 -0.12692578450E+02 -0.80637319569E+01  0.28065525523E+02  0.51100000000E-03 0. -1.
        -11    1    3    3    0    0 -0.12170420083E+02 -0.63753365483E+01  0.10596314457E+00  0.13739551286E+02  0.51100000000E-03 0.  1.
         12    1    3    3    0    0  0.59734130387E+01  0.16212001278E+02 -0.27620134351E+01  0.17496838771E+02  0.00000000000E+00 0. -1.
</event>
<event>
 7    1  0.6830263E-012  0.5930193E+02  0.7816164E-02  0.1266605E+00
        -11   -1    0    0    0    0  0.00000000000E+00  0.00000000000E+00  0.45593999997E+02  0.45594000000E+02  0.51100000000E-03 0. -1.
         11   -1    0    0    0    0 -0.00000000000E+00 -0.00000000000E+00 -0.45593999997E+02  0.45594000000E+02  0.51100000000E-03 0.  1.
    9900012    2    1    2    0    0  0.29666236744E+02  0.10918595813E+02  0.41737192501E+01  0.59301932988E+02  0.49999979867E+02 0.  0.
        -12    1    1    2    0    0 -0.29666236744E+02 -0.10918595813E+02 -0.41737192501E+01  0.31886067012E+02  0.00000000000E+00 0.  1.
         11    1    3    3    0    0 -0.26821034435E+01  0.18105461911E+01 -0.73955505937E+01  0.80725414361E+01  0.51100000000E-03 0. -1.
        -11    1    3    3    0    0  0.49408688867E+01 -0.16781520553E+01 -0.12272374744E+02  0.13335650032E+02  0.51100000000E-03 0.  1.
         12    1    3    3    0    0  0.27407471301E+02  0.10786201677E+02  0.23841644587E+02  0.37893741520E+02  0.00000000000E+00 0. -1.
</event>
<event>
 7    1  0.6830263E-012  0.5930190E+02  0.7816164E-02  0.1266605E+00
        -11   -1    0    0    0    0  0.00000000000E+00  0.00000000000E+00  0.45593999997E+02  0.45594000000E+02  0.51100000000E-03 0.  1.
         11   -1    0    0    0    0 -0.00000000000E+00 -0.00000000000E+00 -0.45593999997E+02  0.45594000000E+02  0.51100000000E-03 0. -1.
    9900012    2    1    2    0    0  0.55887968732E+01  0.26902962423E+02 -0.16177734830E+02  0.59301903628E+02  0.49999926320E+02 0.  0.
        -12    1    1    2    0    0 -0.55887968732E+01 -0.26902962423E+02  0.16177734830E+02  0.31886096372E+02  0.00000000000E+00 0.  1.
         11    1    3    3    0    0 -0.16954310278E+02  0.11334470593E+02 -0.79209920951E+01  0.21878322072E+02  0.51100000000E-03 0. -1.
        -11    1    3    3    0    0  0.83523564417E+01 -0.19712985639E+01  0.62359873418E+01  0.10608271044E+02  0.51100000000E-03 0.  1.
         12    1    3    3    0    0  0.14190750710E+02  0.17539790394E+02 -0.14492730077E+02  0.26815310512E+02  0.00000000000E+00 0. -1.
</event>
<event>
 7    1  0.6830263E-012  0.5930195E+02  0.7816164E-02  0.1266605E+00
        -11   -1    0    0    0    0  0.00000000000E+00  0.00000000000E+00  0.45593999997E+02  0.45594000000E+02  0.51100000000E-03 0. -1.
         11   -1    0    0    0    0 -0.00000000000E+00 -0.00000000000E+00 -0.45593999997E+02  0.45594000000E+02  0.51100000000E-03 0.  1.
    9900012    2    1    2    0    0 -0.31676043748E+02  0.33735886852E+01  0.14027068640E+01  0.59301946078E+02  0.50000003739E+02 0.  0.
        -12    1    1    2    0    0  0.31676043748E+02 -0.33735886852E+01 -0.14027068640E+01  0.31886053922E+02  0.00000000000E+00 0.  1.
         11    1    3    3    0    0 -0.25698051049E+01 -0.22288490444E+01  0.13170539022E+01  0.36477798155E+01  0.51100000000E-03 0. -1.
        -11    1    3    3    0    0 -0.50508526628E+01 -0.18406158928E+02 -0.80384935355E+01  0.20710267446E+02  0.51100000000E-03 0.  1.
         12    1    3    3    0    0 -0.24055385981E+02  0.24008596658E+02  0.81241464973E+01  0.34943898816E+02  0.00000000000E+00 0. -1.
</event>
<event>
 7    1  0.6830263E-012  0.5930195E+02  0.7816164E-02  0.1266605E+00
        -11   -1    0    0    0    0  0.00000000000E+00  0.00000000000E+00  0.45593999997E+02  0.45594000000E+02  0.51100000000E-03 0. -1.
         11   -1    0    0    0    0 -0.00000000000E+00 -0.00000000000E+00 -0.45593999997E+02  0.45594000000E+02  0.51100000000E-03 0.  1.
    9900012    2    1    2    0    0  0.17268109299E+02 -0.96189319714E+01  0.25020170746E+02  0.59301946698E+02  0.50000004869E+02 0.  0.
        -12    1    1    2    0    0 -0.17268109299E+02  0.96189319714E+01 -0.25020170746E+02  0.31886053302E+02  0.00000000000E+00 0.  1.
         11    1    3    3    0    0 -0.52810846844E+01 -0.30450232047E+01  0.28191391105E+02  0.28842963690E+02  0.51100000000E-03 0. -1.
        -11    1    3    3    0    0  0.77208344277E+01  0.68017597539E+01 -0.17648783722E+01  0.10439828348E+02  0.51100000000E-03 0.  1.
         12    1    3    3    0    0  0.14828359556E+02 -0.13375668521E+02 -0.14063419863E+01  0.20019154659E+02  0.00000000000E+00 0. -1.
</event>
<event>
 7    1  0.6830263E-012  0.5930193E+02  0.7816164E-02  0.1266605E+00
        -11   -1    0    0    0    0  0.00000000000E+00  0.00000000000E+00  0.45593999997E+02  0.45594000000E+02  0.51100000000E-03 0.  1.
         11   -1    0    0    0    0 -0.00000000000E+00 -0.00000000000E+00 -0.45593999997E+02  0.45594000000E+02  0.51100000000E-03 0. -1.
    9900012    2    1    2    0    0  0.25186238593E+02  0.18964982887E+02 -0.47649264911E+01  0.59301926004E+02  0.49999967129E+02 0.  0.
        -12    1    1    2    0    0 -0.25186238593E+02 -0.18964982887E+02  0.47649264911E+01  0.31886073996E+02  0.00000000000E+00 0.  1.
         11    1    3    3    0    0  0.13732060992E+01 -0.25197481575E+01  0.11770417358E+02  0.12115178530E+02  0.51100000000E-03 0. -1.
        -11    1    3    3    0    0 -0.63531646040E+01  0.35736918228E+01  0.19309198121E+01  0.75407178247E+01  0.51100000000E-03 0.  1.
         12    1    3    3    0    0  0.30166197098E+02  0.17911039222E+02 -0.18466263661E+02  0.39646029650E+02  0.00000000000E+00 0. -1.
</event>
<event>
 7    1  0.6830263E-012  0.5930191E+02  0.7816164E-02  0.1266605E+00
        -11   -1    0    0    0    0  0.00000000000E+00  0.00000000000E+00  0.45593999997E+02  0.45594000000E+02  0.51100000000E-03 0. -1.
         11   -1    0    0    0    0 -0.00000000000E+00 -0.00000000000E+00 -0.45593999997E+02  0.45594000000E+02  0.51100000000E-03 0.  1.
    9900012    2    1    2    0    0 -0.69821788590E+01  0.20618185320E+02  0.23299402495E+02  0.59301913001E+02  0.49999943415E+02 0.  0.
        -12    1    1    2    0    0  0.69821788590E+01 -0.20618185320E+02 -0.23299402495E+02  0.31886086999E+02  0.00000000000E+00 0.  1.
         11    1    3    3    0    0 -0.22459425090E+01 -0.18245673092E-01  0.55183405424E+00  0.23128146798E+01  0.51100000000E-03 0. -1.
        -11    1    3    3    0    0  0.15237734164E+02  0.26867594440E+02  0.98973052812E+01  0.32434747194E+02  0.51100000000E-03 0.  1.
         12    1    3    3    0    0 -0.19973970514E+02 -0.62311634473E+01  0.12850263159E+02  0.24554351127E+02  0.00000000000E+00 0. -1.
</event>
<event>
 7    1  0.6830263E-012  0.5930195E+02  0.7816164E-02  0.1266605E+00
        -11   -1    0    0    0    0  0.00000000000E+00  0.00000000000E+00  0.45593999997E+02  0.45594000000E+02  0.51100000000E-03 0. -1.
         11   -1    0    0    0    0 -0.00000000000E+00 -0.00000000000E+00 -0.45593999997E+02  0.45594000000E+02  0.51100000000E-03 0.  1.
    9900012    2    1    2    0    0  0.25025562748E+02  0.11288963697E+02  0.16217300916E+02  0.59301947544E+02  0.50000006414E+02 0.  0.
        -12    1    1    2    0    0 -0.25025562748E+02 -0.11288963697E+02 -0.16217300916E+02  0.31886052456E+02  0.00000000000E+00 0.  1.
         11    1    3    3    0    0  0.28678826938E+01 -0.80096655380E+00 -0.49844271310E+01  0.58061013297E+01  0.51100000000E-03 0. -1.
        -11    1    3    3    0    0  0.75981892814E+01 -0.10835053793E+02 -0.64642153521E+01  0.14728100741E+02  0.51100000000E-03 0.  1.
         12    1    3    3    0    0  0.14559490773E+02  0.22924984043E+02  0.27665943400E+02  0.38767745474E+02  0.00000000000E+00 0. -1.
</event>
<event>
 7    1  0.6830263E-012  0.5930194E+02  0.7816164E-02  0.1266605E+00
        -11   -1    0    0    0    0  0.00000000000E+00  0.00000000000E+00  0.45593999997E+02  0.45594000000E+02  0.51100000000E-03 0. -1.
         11   -1    0    0    0    0 -0.00000000000E+00 -0.00000000000E+00 -0.45593999997E+02  0.45594000000E+02  0.51100000000E-03 0.  1.
    9900012    2    1    2    0    0  0.30896330117E+02  0.68809622266E+01  0.38457313857E+01  0.59301944964E+02  0.50000001707E+02 0.  0.
        -12    1    1    2    0    0 -0.30896330117E+02 -0.68809622266E+01 -0.38457313857E+01  0.31886055036E+02  0.00000000000E+00 0.  1.
         11    1    3    3    0    0  0.25777388515E+02  0.96964077270E+01 -0.53316924356E+01  0.28052112683E+02  0.51100000000E-03 0. -1.
        -11    1    3    3    0    0  0.29436422657E+00 -0.11377735539E+02 -0.62297705975E+01  0.12974958892E+02  0.51100000000E-03 0.  1.
         12    1    3    3    0    0  0.48245773756E+01  0.85622900382E+01  0.15407194419E+02  0.18274873390E+02  0.00000000000E+00 0. -1.
</event>
<event>
 7    1  0.6830263E-012  0.5930194E+02  0.7816164E-02  0.1266605E+00
        -11   -1    0    0    0    0  0.00000000000E+00  0.00000000000E+00  0.45593999997E+02  0.45594000000E+02  0.51100000000E-03 0.  1.
         11   -1    0    0    0    0 -0.00000000000E+00 -0.00000000000E+00 -0.45593999997E+02  0.45594000000E+02  0.51100000000E-03 0. -1.
    9900012    2    1    2    0    0  0.58027449177E+01 -0.29641036169E+02  0.10220464433E+02  0.59301940868E+02  0.49999994238E+02 0.  0.
        -12    1    1    2    0    0 -0.58027449177E+01  0.29641036169E+02 -0.10220464433E+02  0.31886059132E+02  0.00000000000E+00 0.  1.
         11    1    3    3    0    0 -0.23863877588E+01 -0.72413896101E+00  0.19605201893E+01  0.31722016714E+01  0.51100000000E-03 0. -1.
        -11    1    3    3    0    0 -0.60614579870E+01  0.77210043676E+01 -0.88867726921E+01  0.13241220129E+02  0.51100000000E-03 0.  1.
         12    1    3    3    0    0  0.14250590664E+02 -0.36637901575E+02  0.17146716936E+02  0.42888519067E+02  0.00000000000E+00 0. -1.
</event>
<event>
 7    1  0.6830263E-012  0.5930195E+02  0.7816164E-02  0.1266605E+00
        -11   -1    0    0    0    0  0.00000000000E+00  0.00000000000E+00  0.45593999997E+02  0.45594000000E+02  0.51100000000E-03 0.  1.
         11   -1    0    0    0    0 -0.00000000000E+00 -0.00000000000E+00 -0.45593999997E+02  0.45594000000E+02  0.51100000000E-03 0. -1.
    9900012    2    1    2    0    0  0.16889051223E+02  0.18055214198E+02 -0.20136771868E+02  0.59301946745E+02  0.50000004955E+02 0.  0.
        -12    1    1    2    0    0 -0.16889051223E+02 -0.18055214198E+02  0.20136771868E+02  0.31886053255E+02  0.00000000000E+00 0.  1.
         11    1    3    3    0    0 -0.11102593617E+02  0.13333690294E+02 -0.23835225085E+02  0.29481737347E+02  0.51100000000E-03 0. -1.
        -11    1    3    3    0    0  0.16856669843E+02  0.66818859936E+01  0.37376782791E+01  0.18513917949E+02  0.51100000000E-03 0.  1.
        -12    1    3    3    0    0  0.11134974997E+02 -0.19603620899E+01 -0.39225061609E-01  0.11306291449E+02  0.00000000000E+00 0.  1.
</event>
<event>
 7    1  0.6830263E-012  0.5930197E+02  0.7816164E-02  0.1266605E+00
        -11   -1    0    0    0    0  0.00000000000E+00  0.00000000000E+00  0.45593999997E+02  0.45594000000E+02  0.51100000000E-03 0. -1.
         11   -1    0    0    0    0 -0.00000000000E+00 -0.00000000000E+00 -0.45593999997E+02  0.45594000000E+02  0.51100000000E-03 0.  1.
    9900012    2    1    2    0    0  0.15642167671E+02 -0.25057834450E+02  0.12006088703E+02  0.59301974178E+02  0.50000054987E+02 0.  0.
        -12    1    1    2    0    0 -0.15642167671E+02  0.25057834450E+02 -0.12006088703E+02  0.31886025822E+02  0.00000000000E+00 0.  1.
         11    1    3    3    0    0  0.87591369844E+01  0.75967207658E+01  0.44307614702E+01  0.12412263878E+02  0.51100000000E-03 0. -1.
        -11    1    3    3    0    0 -0.45406845752E+01  0.34809364661E+01 -0.43192565145E+01  0.71687315609E+01  0.51100000000E-03 0.  1.
         12    1    3    3    0    0  0.11423715262E+02 -0.36135491682E+02  0.11894583747E+02  0.39720978739E+02  0.00000000000E+00 0. -1.
</event>
<event>
 7    1  0.6830263E-012  0.5930194E+02  0.7816164E-02  0.1266605E+00
        -11   -1    0    0    0    0  0.00000000000E+00  0.00000000000E+00  0.45593999997E+02  0.45594000000E+02  0.51100000000E-03 0.  1.
         11   -1    0    0    0    0 -0.00000000000E+00 -0.00000000000E+00 -0.45593999997E+02  0.45594000000E+02  0.51100000000E-03 0. -1.
    9900012    2    1    2    0    0  0.66329818188E+01 -0.31080658022E+02  0.25916907770E+01  0.59301943299E+02  0.49999998670E+02 0.  0.
        -12    1    1    2    0    0 -0.66329818188E+01  0.31080658022E+02 -0.25916907770E+01  0.31886056701E+02  0.00000000000E+00 0.  1.
         11    1    3    3    0    0  0.78782820521E+01 -0.16515872311E+02 -0.70281422813E+01  0.19601942518E+02  0.51100000000E-03 0. -1.
        -11    1    3    3    0    0  0.52803921934E+01 -0.25324166889E+02  0.53894850363E+01  0.26424278979E+02  0.51100000000E-03 0.  1.
         12    1    3    3    0    0 -0.65256924267E+01  0.10759381178E+02  0.42303480220E+01  0.13275721802E+02  0.00000000000E+00 0. -1.
</event>
<event>
 7    1  0.6830263E-012  0.5930199E+02  0.7816164E-02  0.1266605E+00
        -11   -1    0    0    0    0  0.00000000000E+00  0.00000000000E+00  0.45593999997E+02  0.45594000000E+02  0.51100000000E-03 0.  1.
         11   -1    0    0    0    0 -0.00000000000E+00 -0.00000000000E+00 -0.45593999997E+02  0.45594000000E+02  0.51100000000E-03 0. -1.
    9900012    2    1    2    0    0 -0.15624207504E+02  0.27697006560E+02 -0.23404205106E+01  0.59301990518E+02  0.50000084788E+02 0.  0.
        -12    1    1    2    0    0  0.15624207504E+02 -0.27697006560E+02  0.23404205106E+01  0.31886009482E+02  0.00000000000E+00 0.  1.
         11    1    3    3    0    0 -0.10419518001E+02  0.26361689552E+02 -0.10432124916E+01  0.28365354289E+02  0.51100000000E-03 0. -1.
        -11    1    3    3    0    0 -0.15222233929E+02  0.55125801291E+01 -0.81249206034E+01  0.18114063060E+02  0.51100000000E-03 0.  1.
        -12    1    3    3    0    0  0.10017544427E+02 -0.41772631210E+01  0.68277125843E+01  0.12822573169E+02  0.00000000000E+00 0.  1.
</event>
<event>
 7    1  0.6830263E-012  0.5930190E+02  0.7816164E-02  0.1266605E+00
        -11   -1    0    0    0    0  0.00000000000E+00  0.00000000000E+00  0.45593999997E+02  0.45594000000E+02  0.51100000000E-03 0. -1.
         11   -1    0    0    0    0 -0.00000000000E+00 -0.00000000000E+00 -0.45593999997E+02  0.45594000000E+02  0.51100000000E-03 0.  1.
    9900012    2    1    2    0    0 -0.28945499415E+02 -0.32635880562E+01  0.12970369062E+02  0.59301899314E+02  0.49999918453E+02 0.  0.
        -12    1    1    2    0    0  0.28945499415E+02  0.32635880562E+01 -0.12970369062E+02  0.31886100686E+02  0.00000000000E+00 0.  1.
         11    1    3    3    0    0 -0.24422293619E+02  0.92155204151E+01  0.88377148507E+01  0.27558654651E+02  0.51100000000E-03 0. -1.
        -11    1    3    3    0    0 -0.14463939024E+01  0.93228623199E+01  0.17679409320E+01  0.95986161793E+01  0.51100000000E-03 0.  1.
        -12    1    3    3    0    0 -0.30768118937E+01 -0.21801970791E+02  0.23647132789E+01  0.22144628484E+02  0.00000000000E+00 0.  1.
</event>
<event>
 7    1  0.6830263E-012  0.5930194E+02  0.7816164E-02  0.1266605E+00
        -11   -1    0    0    0    0  0.00000000000E+00  0.00000000000E+00  0.45593999997E+02  0.45594000000E+02  0.51100000000E-03 0.  1.
         11   -1    0    0    0    0 -0.00000000000E+00 -0.00000000000E+00 -0.45593999997E+02  0.45594000000E+02  0.51100000000E-03 0. -1.
    9900012    2    1    2    0    0  0.51593937474E+01 -0.29182258811E+02 -0.11768485578E+02  0.59301939943E+02  0.49999992550E+02 0.  0.
        -12    1    1    2    0    0 -0.51593937474E+01  0.29182258811E+02  0.11768485578E+02  0.31886060057E+02  0.00000000000E+00 0.  1.
         11    1    3    3    0    0  0.13504181745E+02  0.73947876730E+00 -0.11057252064E+02  0.17469189361E+02  0.51100000000E-03 0. -1.
        -11    1    3    3    0    0 -0.65806028609E+01  0.35631644842E+01 -0.33474853306E+01  0.81979347066E+01  0.51100000000E-03 0.  1.
         12    1    3    3    0    0 -0.17641851367E+01 -0.33484902063E+02  0.26362518167E+01  0.33634815876E+02  0.00000000000E+00 0. -1.
</event>
<event>
 7    1  0.6830263E-012  0.5930192E+02  0.7816164E-02  0.1266605E+00
        -11   -1    0    0    0    0  0.00000000000E+00  0.00000000000E+00  0.45593999997E+02  0.45594000000E+02  0.51100000000E-03 0.  1.
         11   -1    0    0    0    0 -0.00000000000E+00 -0.00000000000E+00 -0.45593999997E+02  0.45594000000E+02  0.51100000000E-03 0. -1.
    9900012    2    1    2    0    0  0.27748605571E+02  0.14267367728E+02 -0.65710814455E+01  0.59301921464E+02  0.49999958849E+02 0.  0.
        -12    1    1    2    0    0 -0.27748605571E+02 -0.14267367728E+02  0.65710814455E+01  0.31886078536E+02  0.00000000000E+00 0.  1.
         11    1    3    3    0    0  0.93190961855E+00 -0.30290310042E+01  0.46557499250E+01  0.56320060357E+01  0.51100000000E-03 0. -1.
        -11    1    3    3    0    0  0.15996052461E+02 -0.28290272140E+01  0.12674157469E+02  0.20603673389E+02  0.51100000000E-03 0.  1.
         12    1    3    3    0    0  0.10820643491E+02  0.20125425946E+02 -0.23900988839E+02  0.33066242039E+02  0.00000000000E+00 0. -1.
</event>
<event>
 7    1  0.6830263E-012  0.5930204E+02  0.7816164E-02  0.1266604E+00
        -11   -1    0    0    0    0  0.00000000000E+00  0.00000000000E+00  0.45593999997E+02  0.45594000000E+02  0.51100000000E-03 0. -1.
         11   -1    0    0    0    0 -0.00000000000E+00 -0.00000000000E+00 -0.45593999997E+02  0.45594000000E+02  0.51100000000E-03 0.  1.
    9900012    2    1    2    0    0 -0.49352934238E+00  0.20982027587E+02  0.24004695232E+02  0.59302039986E+02  0.50000175004E+02 0.  0.
        -12    1    1    2    0    0  0.49352934238E+00 -0.20982027587E+02 -0.24004695232E+02  0.31885960014E+02  0.00000000000E+00 0.  1.
         11    1    3    3    0    0 -0.86879044910E+01  0.48302380163E+01 -0.43112377732E+01  0.10835019849E+02  0.51100000000E-03 0. -1.
        -11    1    3    3    0    0  0.11940081713E+02 -0.70046292696E+01  0.34166270941E+01  0.14258461470E+02  0.51100000000E-03 0.  1.
         12    1    3    3    0    0 -0.37457065649E+01  0.23156418840E+02  0.24899305911E+02  0.34208558666E+02  0.00000000000E+00 0. -1.
</event>
<event>
 7    1  0.6830263E-012  0.5930196E+02  0.7816164E-02  0.1266605E+00
        -11   -1    0    0    0    0  0.00000000000E+00  0.00000000000E+00  0.45593999997E+02  0.45594000000E+02  0.51100000000E-03 0.  1.
         11   -1    0    0    0    0 -0.00000000000E+00 -0.00000000000E+00 -0.45593999997E+02  0.45594000000E+02  0.51100000000E-03 0. -1.
    9900012    2    1    2    0    0  0.29427842334E+02 -0.95618603675E+01 -0.77001500061E+01  0.59301962488E+02  0.50000033667E+02 0.  0.
        -12    1    1    2    0    0 -0.29427842334E+02  0.95618603675E+01  0.77001500061E+01  0.31886037512E+02  0.00000000000E+00 0.  1.
         11    1    3    3    0    0  0.10183968661E+02 -0.65993316171E+01  0.14082817161E+01  0.12216695672E+02  0.51100000000E-03 0. -1.
        -11    1    3    3    0    0  0.15469661921E+02  0.12885816161E+02  0.95768281537E+01  0.22295074251E+02  0.51100000000E-03 0.  1.
        -12    1    3    3    0    0  0.37742117513E+01 -0.15848344912E+02 -0.18685259876E+02  0.24790192565E+02  0.00000000000E+00 0.  1.
</event>
<event>
 7    1  0.6830263E-012  0.5930188E+02  0.7816164E-02  0.1266605E+00
        -11   -1    0    0    0    0  0.00000000000E+00  0.00000000000E+00  0.45593999997E+02  0.45594000000E+02  0.51100000000E-03 0.  1.
         11   -1    0    0    0    0 -0.00000000000E+00 -0.00000000000E+00 -0.45593999997E+02  0.45594000000E+02  0.51100000000E-03 0. -1.
    9900012    2    1    2    0    0  0.26148848159E+01 -0.56713383635E+00 -0.31773653780E+02  0.59301884872E+02  0.49999892115E+02 0.  0.
        -12    1    1    2    0    0 -0.26148848159E+01  0.56713383635E+00  0.31773653780E+02  0.31886115128E+02  0.00000000000E+00 0.  1.
         11    1    3    3    0    0  0.46197541595E+01  0.57035296282E+00 -0.18485347650E+02  0.19062410891E+02  0.51100000000E-03 0. -1.
        -11    1    3    3    0    0 -0.60687619620E+01 -0.14058918007E+02 -0.19946179064E+02  0.25146234446E+02  0.51100000000E-03 0.  1.
        -12    1    3    3    0    0  0.40638926184E+01  0.12921431208E+02  0.66578729333E+01  0.15093239536E+02  0.00000000000E+00 0.  1.
</event>
<event>
 7    1  0.6830263E-012  0.5930199E+02  0.7816164E-02  0.1266605E+00
        -11   -1    0    0    0    0  0.00000000000E+00  0.00000000000E+00  0.45593999997E+02  0.45594000000E+02  0.51100000000E-03 0.  1.
         11   -1    0    0    0    0 -0.00000000000E+00 -0.00000000000E+00 -0.45593999997E+02  0.45594000000E+02  0.51100000000E-03 0. -1.
    9900012    2    1    2    0    0 -0.14237915042E+01 -0.26302227043E+02 -0.17968950994E+02  0.59301991635E+02  0.50000086824E+02 0.  0.
        -12    1    1    2    0    0  0.14237915042E+01  0.26302227043E+02  0.17968950994E+02  0.31886008365E+02  0.00000000000E+00 0.  1.
         11    1    3    3    0    0  0.64804576520E+01 -0.17288594776E+02 -0.14200302253E+02  0.23292497184E+02  0.51100000000E-03 0. -1.
        -11    1    3    3    0    0  0.62078547992E+01 -0.17740574416E+02  0.75792382454E+00  0.18810632381E+02  0.51100000000E-03 0.  1.
        -12    1    3    3    0    0 -0.14112103955E+02  0.87269421485E+01 -0.45265725651E+01  0.17198862070E+02  0.00000000000E+00 0.  1.
</event>
<event>
 7    1  0.6830263E-012  0.5930195E+02  0.7816164E-02  0.1266605E+00
        -11   -1    0    0    0    0  0.00000000000E+00  0.00000000000E+00  0.45593999997E+02  0.45594000000E+02  0.51100000000E-03 0.  1.
         11   -1    0    0    0    0 -0.00000000000E+00 -0.00000000000E+00 -0.45593999997E+02  0.45594000000E+02  0.51100000000E-03 0. -1.
    9900012    2    1    2    0    0  0.27425638960E+02 -0.16034231114E+02  0.27308768462E+01  0.59301954022E+02  0.50000018227E+02 0.  0.
        -12    1    1    2    0    0 -0.27425638960E+02  0.16034231114E+02 -0.27308768462E+01  0.31886045978E+02  0.00000000000E+00 0.  1.
         11    1    3    3    0    0  0.65680535053E+01 -0.68257997231E+01  0.17106896006E+01  0.96258676429E+01  0.51100000000E-03 0. -1.
        -11    1    3    3    0    0 -0.11865672257E+02 -0.11232580383E+02  0.37920115276E+01  0.16773323816E+02  0.51100000000E-03 0.  1.
        -12    1    3    3    0    0  0.32723257712E+02  0.20241489921E+01 -0.27718242820E+01  0.32902762563E+02  0.00000000000E+00 0.  1.
</event>
<event>
 7    1  0.6830263E-012  0.5930194E+02  0.7816164E-02  0.1266605E+00
        -11   -1    0    0    0    0  0.00000000000E+00  0.00000000000E+00  0.45593999997E+02  0.45594000000E+02  0.51100000000E-03 0. -1.
         11   -1    0    0    0    0 -0.00000000000E+00 -0.00000000000E+00 -0.45593999997E+02  0.45594000000E+02  0.51100000000E-03 0.  1.
    9900012    2    1    2    0    0  0.14149713818E+01  0.28887387564E+02  0.13425268220E+02  0.59301935159E+02  0.49999983825E+02 0.  0.
        -12    1    1    2    0    0 -0.14149713818E+01 -0.28887387564E+02 -0.13425268220E+02  0.31886064841E+02  0.00000000000E+00 0.  1.
         11    1    3    3    0    0 -0.38457168318E+01  0.10925102407E+02  0.61367933316E+01  0.13107541082E+02  0.51100000000E-03 0. -1.
        -11    1    3    3    0    0 -0.56693383696E+01  0.10882794646E+02 -0.15607731025E+02  0.19853913591E+02  0.51100000000E-03 0.  1.
         12    1    3    3    0    0  0.10930026583E+02  0.70794905105E+01  0.22896205913E+02  0.26340480486E+02  0.00000000000E+00 0. -1.
</event>
<event>
 7    1  0.6830263E-012  0.5930197E+02  0.7816164E-02  0.1266605E+00
        -11   -1    0    0    0    0  0.00000000000E+00  0.00000000000E+00  0.45593999997E+02  0.45594000000E+02  0.51100000000E-03 0.  1.
         11   -1    0    0    0    0 -0.00000000000E+00 -0.00000000000E+00 -0.45593999997E+02  0.45594000000E+02  0.51100000000E-03 0. -1.
    9900012    2    1    2    0    0  0.96144094729E+01 -0.27423557164E+02 -0.13123672262E+02  0.59301966526E+02  0.50000041031E+02 0.  0.
        -12    1    1    2    0    0 -0.96144094729E+01  0.27423557164E+02  0.13123672262E+02  0.31886033474E+02  0.00000000000E+00 0.  1.
         11    1    3    3    0    0  0.10246458318E+02 -0.16181966324E+02 -0.10954152102E+02  0.22064437240E+02  0.51100000000E-03 0. -1.
        -11    1    3    3    0    0 -0.16741845475E+01  0.51802023913E+01 -0.15265641423E+02  0.16207319304E+02  0.51100000000E-03 0.  1.
        -12    1    3    3    0    0  0.10421357022E+01 -0.16421793231E+02  0.13096121262E+02  0.21030209982E+02  0.00000000000E+00 0.  1.
</event>
<event>
 7    1  0.6830263E-012  0.5930194E+02  0.7816164E-02  0.1266605E+00
        -11   -1    0    0    0    0  0.00000000000E+00  0.00000000000E+00  0.45593999997E+02  0.45594000000E+02  0.51100000000E-03 0.  1.
         11   -1    0    0    0    0 -0.00000000000E+00 -0.00000000000E+00 -0.45593999997E+02  0.45594000000E+02  0.51100000000E-03 0. -1.
    9900012    2    1    2    0    0 -0.53290762699E+00  0.31828792116E+02 -0.18343502782E+01  0.59301939737E+02  0.49999992176E+02 0.  0.
        -12    1    1    2    0    0  0.53290762699E+00 -0.31828792116E+02  0.18343502782E+01  0.31886060263E+02  0.00000000000E+00 0.  1.
         11    1    3    3    0    0  0.21095655389E+02  0.91150561878E+01 -0.10450686229E+02  0.25245351424E+02  0.51100000000E-03 0. -1.
        -11    1    3    3    0    0  0.87233631710E+00  0.26896934268E+01  0.78295971558E+00  0.29340156028E+01  0.51100000000E-03 0.  1.
        -12    1    3    3    0    0 -0.22500899333E+02  0.20024042502E+02  0.78333762356E+01  0.31122572711E+02  0.00000000000E+00 0.  1.
</event>
<event>
 7    1  0.6830263E-012  0.5930193E+02  0.7816164E-02  0.1266605E+00
        -11   -1    0    0    0    0  0.00000000000E+00  0.00000000000E+00  0.45593999997E+02  0.45594000000E+02  0.51100000000E-03 0. -1.
         11   -1    0    0    0    0 -0.00000000000E+00 -0.00000000000E+00 -0.45593999997E+02  0.45594000000E+02  0.51100000000E-03 0.  1.
    9900012    2    1    2    0    0  0.28258467230E+02  0.11283076700E+02  0.95327108019E+01  0.59301931487E+02  0.49999977129E+02 0.  0.
        -12    1    1    2    0    0 -0.28258467230E+02 -0.11283076700E+02 -0.95327108019E+01  0.31886068513E+02  0.00000000000E+00 0.  1.
         11    1    3    3    0    0  0.45500672886E+01  0.90779448241E+01  0.99103685111E+01  0.14188995696E+02  0.51100000000E-03 0. -1.
        -11    1    3    3    0    0 -0.82406766746E+01  0.31131790961E+01  0.81840381075E+01  0.12024105628E+02  0.51100000000E-03 0.  1.
        -12    1    3    3    0    0  0.31949076616E+02 -0.90804722019E+00 -0.85616958168E+01  0.33088830164E+02  0.00000000000E+00 0.  1.
</event>
<event>
 7    1  0.6830263E-012  0.5930187E+02  0.7816164E-02  0.1266605E+00
        -11   -1    0    0    0    0  0.00000000000E+00  0.00000000000E+00  0.45593999997E+02  0.45594000000E+02  0.51100000000E-03 0.  1.
         11   -1    0    0    0    0 -0.00000000000E+00 -0.00000000000E+00 -0.45593999997E+02  0.45594000000E+02  0.51100000000E-03 0. -1.
    9900012    2    1    2    0    0 -0.42258119131E+00 -0.12598823202E+01 -0.31858428118E+02  0.59301869466E+02  0.49999864017E+02 0.  0.
        -12    1    1    2    0    0  0.42258119131E+00  0.12598823202E+01  0.31858428118E+02  0.31886130534E+02  0.00000000000E+00 0.  1.
         11    1    3    3    0    0  0.37020970015E+01  0.17490507549E+02 -0.51256902767E+01  0.18598281576E+02  0.51100000000E-03 0. -1.
        -11    1    3    3    0    0 -0.24675781343E+01  0.49549373909E+01 -0.90800230506E+00  0.56093506615E+01  0.51100000000E-03 0.  1.
        -12    1    3    3    0    0 -0.16571000585E+01 -0.23705327260E+02 -0.25824735536E+02  0.35094237228E+02  0.00000000000E+00 0.  1.
</event>
<event>
 7    1  0.6830263E-012  0.5930195E+02  0.7816164E-02  0.1266605E+00
        -11   -1    0    0    0    0  0.00000000000E+00  0.00000000000E+00  0.45593999997E+02  0.45594000000E+02  0.51100000000E-03 0.  1.
         11   -1    0    0    0    0 -0.00000000000E+00 -0.00000000000E+00 -0.45593999997E+02  0.45594000000E+02  0.51100000000E-03 0. -1.
    9900012    2    1    2    0    0  0.19678692956E+02 -0.21317073877E+01  0.24998505728E+02  0.59301946286E+02  0.50000004118E+02 0.  0.
        -12    1    1    2    0    0 -0.19678692956E+02  0.21317073877E+01 -0.24998505728E+02  0.31886053714E+02  0.00000000000E+00 0.  1.
         11    1    3    3    0    0  0.13942500044E+02 -0.17800689533E+01  0.20126963463E+02  0.24549065388E+02  0.51100000000E-03 0. -1.
        -11    1    3    3    0    0  0.13310395058E+01 -0.15802613364E+02  0.89049036795E+01  0.18187676187E+02  0.51100000000E-03 0.  1.
         12    1    3    3    0    0  0.44051534062E+01  0.15450974929E+02 -0.40333614142E+01  0.16565204710E+02  0.00000000000E+00 0. -1.
</event>
<event>
 7    1  0.6830263E-012  0.5930193E+02  0.7816164E-02  0.1266605E+00
        -11   -1    0    0    0    0  0.00000000000E+00  0.00000000000E+00  0.45593999997E+02  0.45594000000E+02  0.51100000000E-03 0.  1.
         11   -1    0    0    0    0 -0.00000000000E+00 -0.00000000000E+00 -0.45593999997E+02  0.45594000000E+02  0.51100000000E-03 0. -1.
    9900012    2    1    2    0    0  0.11984448586E+02 -0.18124398631E+02  0.23336679842E+02  0.59301930006E+02  0.49999974427E+02 0.  0.
        -12    1    1    2    0    0 -0.11984448586E+02  0.18124398631E+02 -0.23336679842E+02  0.31886069994E+02  0.00000000000E+00 0.  1.
         11    1    3    3    0    0  0.10954174373E+02  0.10729079877E+01 -0.98503771772E+01  0.14770748070E+02  0.51100000000E-03 0. -1.
        -11    1    3    3    0    0  0.26575687137E+01  0.48627638771E+01  0.70802802377E+01  0.89910796069E+01  0.51100000000E-03 0.  1.
        -12    1    3    3    0    0 -0.16272945004E+01 -0.24060070496E+02  0.26106776781E+02  0.35540102329E+02  0.00000000000E+00 0.  1.
</event>
<event>
 7    1  0.6830263E-012  0.5930195E+02  0.7816164E-02  0.1266605E+00
        -11   -1    0    0    0    0  0.00000000000E+00  0.00000000000E+00  0.45593999997E+02  0.45594000000E+02  0.51100000000E-03 0.  1.
         11   -1    0    0    0    0 -0.00000000000E+00 -0.00000000000E+00 -0.45593999997E+02  0.45594000000E+02  0.51100000000E-03 0. -1.
    9900012    2    1    2    0    0  0.48714118105E+01  0.19701779004E+02 -0.24593278983E+02  0.59301951012E+02  0.50000012737E+02 0.  0.
        -12    1    1    2    0    0 -0.48714118105E+01 -0.19701779004E+02  0.24593278983E+02  0.31886048988E+02  0.00000000000E+00 0.  1.
         11    1    3    3    0    0 -0.42104544788E+01  0.25553257373E+02 -0.26317518335E+02  0.36923009910E+02  0.51100000000E-03 0. -1.
        -11    1    3    3    0    0  0.17420388641E+01  0.52631544186E+01 -0.49935235838E+01  0.74612848680E+01  0.51100000000E-03 0.  1.
        -12    1    3    3    0    0  0.73398274252E+01 -0.11114632788E+02  0.67177629353E+01  0.14917656233E+02  0.00000000000E+00 0.  1.
</event>
<event>
 7    1  0.6830263E-012  0.5930199E+02  0.7816164E-02  0.1266605E+00
        -11   -1    0    0    0    0  0.00000000000E+00  0.00000000000E+00  0.45593999997E+02  0.45594000000E+02  0.51100000000E-03 0. -1.
         11   -1    0    0    0    0 -0.00000000000E+00 -0.00000000000E+00 -0.45593999997E+02  0.45594000000E+02  0.51100000000E-03 0.  1.
    9900012    2    1    2    0    0  0.14972565136E+02 -0.66888112716E+01  0.27345922835E+02  0.59301993686E+02  0.50000090565E+02 0.  0.
        -12    1    1    2    0    0 -0.14972565136E+02  0.66888112716E+01 -0.27345922835E+02  0.31886006314E+02  0.00000000000E+00 0.  1.
         11    1    3    3    0    0 -0.28923346700E+01 -0.47679545262E+01  0.14297818397E+02  0.15346875948E+02  0.51100000000E-03 0. -1.
        -11    1    3    3    0    0  0.42299338966E+01 -0.18064753870E+02  0.13290197295E+02  0.22822292119E+02  0.51100000000E-03 0.  1.
         12    1    3    3    0    0  0.13634965909E+02  0.16143897124E+02 -0.24209285714E+00  0.21132825619E+02  0.00000000000E+00 0. -1.
</event>
<event>
 7    1  0.6830263E-012  0.5930195E+02  0.7816164E-02  0.1266605E+00
        -11   -1    0    0    0    0  0.00000000000E+00  0.00000000000E+00  0.45593999997E+02  0.45594000000E+02  0.51100000000E-03 0. -1.
         11   -1    0    0    0    0 -0.00000000000E+00 -0.00000000000E+00 -0.45593999997E+02  0.45594000000E+02  0.51100000000E-03 0.  1.
    9900012    2    1    2    0    0 -0.25260621526E+02  0.46671615975E+01  0.18890178041E+02  0.59301949387E+02  0.50000009775E+02 0.  0.
        -12    1    1    2    0    0  0.25260621526E+02 -0.46671615975E+01 -0.18890178041E+02  0.31886050613E+02  0.00000000000E+00 0.  1.
         11    1    3    3    0    0 -0.16772984195E+02 -0.13585973801E+02 -0.63955590615E+01  0.22512548920E+02  0.51100000000E-03 0. -1.
        -11    1    3    3    0    0  0.42865490818E+01  0.26011839406E+01  0.85357323411E+00  0.50861821095E+01  0.51100000000E-03 0.  1.
        -12    1    3    3    0    0 -0.12774186413E+02  0.15651951458E+02  0.24432163868E+02  0.31703218358E+02  0.00000000000E+00 0.  1.
</event>
<event>
 7    1  0.6830263E-012  0.5930195E+02  0.7816164E-02  0.1266605E+00
        -11   -1    0    0    0    0  0.00000000000E+00  0.00000000000E+00  0.45593999997E+02  0.45594000000E+02  0.51100000000E-03 0.  1.
         11   -1    0    0    0    0 -0.00000000000E+00 -0.00000000000E+00 -0.45593999997E+02  0.45594000000E+02  0.51100000000E-03 0. -1.
    9900012    2    1    2    0    0  0.23615640979E+02  0.20472636892E+02 -0.63160680165E+01  0.59301951713E+02  0.50000014017E+02 0.  0.
        -12    1    1    2    0    0 -0.23615640979E+02 -0.20472636892E+02  0.63160680165E+01  0.31886048287E+02  0.00000000000E+00 0.  1.
         11    1    3    3    0    0 -0.73777390066E+01  0.14744914223E+02  0.73633335258E+01  0.18057192727E+02  0.51100000000E-03 0. -1.
        -11    1    3    3    0    0 -0.30156170362E+01  0.21207460993E+01 -0.45333296877E+01  0.58431659608E+01  0.51100000000E-03 0.  1.
        -12    1    3    3    0    0  0.34008997022E+02  0.36069765692E+01 -0.91460718545E+01  0.35401593026E+02  0.00000000000E+00 0.  1.
</event>
<event>
 7    1  0.6830263E-012  0.5930196E+02  0.7816164E-02  0.1266605E+00
        -11   -1    0    0    0    0  0.00000000000E+00  0.00000000000E+00  0.45593999997E+02  0.45594000000E+02  0.51100000000E-03 0. -1.
         11   -1    0    0    0    0 -0.00000000000E+00 -0.00000000000E+00 -0.45593999997E+02  0.45594000000E+02  0.51100000000E-03 0.  1.
    9900012    2    1    2    0    0  0.26481986565E+02  0.90538426362E+01 -0.15279137393E+02  0.59301957311E+02  0.50000024225E+02 0.  0.
        -12    1    1    2    0    0 -0.26481986565E+02 -0.90538426362E+01  0.15279137393E+02  0.31886042689E+02  0.00000000000E+00 0.  1.
         11    1    3    3    0    0 -0.85897483121E+01 -0.26941399302E+01 -0.20024637485E+02  0.21955142283E+02  0.51100000000E-03 0.  1.
        -11    1    3    3    0    0  0.14300750453E+02  0.58486594437E+01  0.18382192880E+01  0.15559477216E+02  0.51100000000E-03 0. -1.
        -12    1    3    3    0    0  0.20770984424E+02  0.58993231227E+01  0.29072808040E+01  0.21787337812E+02  0.00000000000E+00 0.  1.
</event>
<event>
 7    1  0.6830263E-012  0.5930228E+02  0.7816164E-02  0.1266604E+00
        -11   -1    0    0    0    0  0.00000000000E+00  0.00000000000E+00  0.45593999997E+02  0.45594000000E+02  0.51100000000E-03 0.  1.
         11   -1    0    0    0    0 -0.00000000000E+00 -0.00000000000E+00 -0.45593999997E+02  0.45594000000E+02  0.51100000000E-03 0. -1.
    9900012    2    1    2    0    0 -0.15401861962E+01 -0.22325222897E+02  0.22713681952E+02  0.59302280646E+02  0.50000613907E+02 0.  0.
        -12    1    1    2    0    0  0.15401861962E+01  0.22325222897E+02 -0.22713681952E+02  0.31885719354E+02  0.00000000000E+00 0.  1.
         11    1    3    3    0    0 -0.12376560161E+01 -0.13054638306E+02 -0.31263002563E+01  0.13480694614E+02  0.51100000000E-03 0. -1.
        -11    1    3    3    0    0 -0.82663401240E+01 -0.19224114319E+02  0.51999280115E+01  0.21562425698E+02  0.51100000000E-03 0.  1.
        -12    1    3    3    0    0  0.79638099438E+01  0.99535297284E+01  0.20640054197E+02  0.24259160334E+02  0.00000000000E+00 0.  1.
</event>
<event>
 7    1  0.6830263E-012  0.5930198E+02  0.7816164E-02  0.1266605E+00
        -11   -1    0    0    0    0  0.00000000000E+00  0.00000000000E+00  0.45593999997E+02  0.45594000000E+02  0.51100000000E-03 0.  1.
         11   -1    0    0    0    0 -0.00000000000E+00 -0.00000000000E+00 -0.45593999997E+02  0.45594000000E+02  0.51100000000E-03 0. -1.
    9900012    2    1    2    0    0  0.28598350717E+02 -0.50502933333E+01 -0.13166129823E+02  0.59301982673E+02  0.50000070479E+02 0.  0.
        -12    1    1    2    0    0 -0.28598350717E+02  0.50502933333E+01  0.13166129823E+02  0.31886017327E+02  0.00000000000E+00 0.  1.
         11    1    3    3    0    0  0.25730791151E+02 -0.59735591245E+01 -0.15529268688E+02  0.30641723322E+02  0.51100000000E-03 0. -1.
        -11    1    3    3    0    0  0.13290016479E+02 -0.12194299812E+01 -0.64697433777E+01  0.14831356213E+02  0.51100000000E-03 0.  1.
        -12    1    3    3    0    0 -0.10422456913E+02  0.21426957725E+01  0.88328822429E+01  0.13828903138E+02  0.00000000000E+00 0.  1.
</event>
<event>
 7    1  0.6830263E-012  0.5930195E+02  0.7816164E-02  0.1266605E+00
        -11   -1    0    0    0    0  0.00000000000E+00  0.00000000000E+00  0.45593999997E+02  0.45594000000E+02  0.51100000000E-03 0.  1.
         11   -1    0    0    0    0 -0.00000000000E+00 -0.00000000000E+00 -0.45593999997E+02  0.45594000000E+02  0.51100000000E-03 0. -1.
    9900012    2    1    2    0    0 -0.58436763007E+01 -0.29323481928E+02 -0.11077219909E+02  0.59301953742E+02  0.50000017716E+02 0.  0.
        -12    1    1    2    0    0  0.58436763007E+01  0.29323481928E+02  0.11077219909E+02  0.31886046258E+02  0.00000000000E+00 0.  1.
         11    1    3    3    0    0  0.30488654272E+01 -0.11015495302E+02 -0.26122495682E+01  0.11724357774E+02  0.51100000000E-03 0. -1.
        -11    1    3    3    0    0  0.16185891930E+02 -0.30308529074E+01  0.15775386350E+01  0.16542605458E+02  0.51100000000E-03 0.  1.
        -12    1    3    3    0    0 -0.25078433658E+02 -0.15277133719E+02 -0.10042508976E+02  0.31034990510E+02  0.00000000000E+00 0.  1.
</event>
<event>
 7    1  0.6830263E-012  0.5930194E+02  0.7816164E-02  0.1266605E+00
        -11   -1    0    0    0    0  0.00000000000E+00  0.00000000000E+00  0.45593999997E+02  0.45594000000E+02  0.51100000000E-03 0.  1.
         11   -1    0    0    0    0 -0.00000000000E+00 -0.00000000000E+00 -0.45593999997E+02  0.45594000000E+02  0.51100000000E-03 0. -1.
    9900012    2    1    2    0    0 -0.29015999443E+02  0.11341736281E+02 -0.67939373571E+01  0.59301940501E+02  0.49999993568E+02 0.  0.
        -12    1    1    2    0    0  0.29015999443E+02 -0.11341736281E+02  0.67939373571E+01  0.31886059499E+02  0.00000000000E+00 0.  1.
         11    1    3    3    0    0 -0.22227830896E+02  0.53207163676E+01 -0.94351665640E+01  0.24726683104E+02  0.51100000000E-03 0. -1.
        -11    1    3    3    0    0 -0.20324212360E+02  0.24238773135E+01  0.16157921422E+01  0.20531915980E+02  0.51100000000E-03 0.  1.
         12    1    3    3    0    0  0.13536043812E+02  0.35971426000E+01  0.10254370647E+01  0.14043341417E+02  0.00000000000E+00 0. -1.
</event>
<event>
 7    1  0.6830263E-012  0.5930199E+02  0.7816164E-02  0.1266605E+00
        -11   -1    0    0    0    0  0.00000000000E+00  0.00000000000E+00  0.45593999997E+02  0.45594000000E+02  0.51100000000E-03 0.  1.
         11   -1    0    0    0    0 -0.00000000000E+00 -0.00000000000E+00 -0.45593999997E+02  0.45594000000E+02  0.51100000000E-03 0. -1.
    9900012    2    1    2    0    0  0.31611738075E+02  0.33910848505E+01 -0.24323398445E+01  0.59301988683E+02  0.50000081441E+02 0.  0.
        -12    1    1    2    0    0 -0.31611738075E+02 -0.33910848505E+01  0.24323398445E+01  0.31886011317E+02  0.00000000000E+00 0.  1.
         11    1    3    3    0    0  0.10236179250E+02 -0.12933402499E+02 -0.13736173814E+02  0.21464732403E+02  0.51100000000E-03 0. -1.
        -11    1    3    3    0    0  0.18011084114E+02 -0.56551525073E+00  0.98947949233E+01  0.20557867722E+02  0.51100000000E-03 0.  1.
        -12    1    3    3    0    0  0.33644747113E+01  0.16890002600E+02  0.14090390457E+01  0.17279388558E+02  0.00000000000E+00 0.  1.
</event>
<event>
 7    1  0.6830263E-012  0.5930182E+02  0.7816164E-02  0.1266605E+00
        -11   -1    0    0    0    0  0.00000000000E+00  0.00000000000E+00  0.45593999997E+02  0.45594000000E+02  0.51100000000E-03 0. -1.
         11   -1    0    0    0    0 -0.00000000000E+00 -0.00000000000E+00 -0.45593999997E+02  0.45594000000E+02  0.51100000000E-03 0.  1.
    9900012    2    1    2    0    0  0.23541489553E+02 -0.21492096635E+02  0.78505996247E+00  0.59301823257E+02  0.49999779743E+02 0.  0.
        -12    1    1    2    0    0 -0.23541489553E+02  0.21492096635E+02 -0.78505996247E+00  0.31886176743E+02  0.00000000000E+00 0.  1.
         11    1    3    3    0    0 -0.71542669206E+01 -0.19596975509E+02  0.10232118752E+02  0.23236205342E+02  0.51100000000E-03 0. -1.
        -11    1    3    3    0    0  0.13183652969E+02 -0.89243196543E+01 -0.48680203813E+01  0.16647816961E+02  0.51100000000E-03 0.  1.
        -12    1    3    3    0    0  0.17512103505E+02  0.70291985287E+01 -0.45790384085E+01  0.19417800953E+02  0.00000000000E+00 0.  1.
</event>
<event>
 7    1  0.6830263E-012  0.5930191E+02  0.7816164E-02  0.1266605E+00
        -11   -1    0    0    0    0  0.00000000000E+00  0.00000000000E+00  0.45593999997E+02  0.45594000000E+02  0.51100000000E-03 0.  1.
         11   -1    0    0    0    0 -0.00000000000E+00 -0.00000000000E+00 -0.45593999997E+02  0.45594000000E+02  0.51100000000E-03 0. -1.
    9900012    2    1    2    0    0  0.75109314942E+00  0.23601739886E+02 -0.21427009014E+02  0.59301906137E+02  0.49999930896E+02 0.  0.
        -12    1    1    2    0    0 -0.75109314942E+00 -0.23601739886E+02  0.21427009014E+02  0.31886093863E+02  0.00000000000E+00 0.  1.
         11    1    3    3    0    0 -0.21939398560E+01 -0.82286462048E+01 -0.77881583109E+01  0.11540337976E+02  0.51100000000E-03 0. -1.
        -11    1    3    3    0    0 -0.27808742993E+01  0.75355551402E+01 -0.20380892584E+02  0.21906588870E+02  0.51100000000E-03 0.  1.
        -12    1    3    3    0    0  0.57259073047E+01  0.24294830951E+02  0.67420418810E+01  0.25854979291E+02  0.00000000000E+00 0.  1.
</event>
<event>
 7    1  0.6830263E-012  0.5930195E+02  0.7816164E-02  0.1266605E+00
        -11   -1    0    0    0    0  0.00000000000E+00  0.00000000000E+00  0.45593999997E+02  0.45594000000E+02  0.51100000000E-03 0. -1.
         11   -1    0    0    0    0 -0.00000000000E+00 -0.00000000000E+00 -0.45593999997E+02  0.45594000000E+02  0.51100000000E-03 0.  1.
    9900012    2    1    2    0    0 -0.85646849929E+01  0.30216167165E+02  0.55090453189E+01  0.59301950268E+02  0.50000011381E+02 0.  0.
        -12    1    1    2    0    0  0.85646849929E+01 -0.30216167165E+02 -0.55090453189E+01  0.31886049732E+02  0.00000000000E+00 0.  1.
         11    1    3    3    0    0  0.15663467036E+01  0.18786607850E+02  0.17774114558E+02  0.25909635758E+02  0.51100000000E-03 0. -1.
        -11    1    3    3    0    0 -0.14128553898E+02  0.40388197076E+01  0.38742902992E+01  0.15196651785E+02  0.51100000000E-03 0.  1.
        -12    1    3    3    0    0  0.39975222017E+01  0.73907396077E+01 -0.16139359539E+02  0.18195662725E+02  0.00000000000E+00 0.  1.
</event>
<event>
 7    1  0.6830263E-012  0.5930193E+02  0.7816164E-02  0.1266605E+00
        -11   -1    0    0    0    0  0.00000000000E+00  0.00000000000E+00  0.45593999997E+02  0.45594000000E+02  0.51100000000E-03 0. -1.
         11   -1    0    0    0    0 -0.00000000000E+00 -0.00000000000E+00 -0.45593999997E+02  0.45594000000E+02  0.51100000000E-03 0.  1.
    9900012    2    1    2    0    0 -0.13355653509E+02 -0.28674232894E+02  0.40169987291E+01  0.59301931074E+02  0.49999976376E+02 0.  0.
        -12    1    1    2    0    0  0.13355653509E+02  0.28674232894E+02 -0.40169987291E+01  0.31886068926E+02  0.00000000000E+00 0.  1.
         11    1    3    3    0    0 -0.11357303818E+02  0.94588627499E+01  0.51611150280E+01  0.15655527558E+02  0.51100000000E-03 0.  1.
        -11    1    3    3    0    0  0.94219821713E+01 -0.13404690240E+02 -0.12562373307E-01  0.16384737610E+02  0.51100000000E-03 0. -1.
        -12    1    3    3    0    0 -0.11420331863E+02 -0.24728405405E+02 -0.11315539256E+01  0.27261665906E+02  0.00000000000E+00 0.  1.
</event>
<event>
 7    1  0.6830263E-012  0.5930187E+02  0.7816164E-02  0.1266605E+00
        -11   -1    0    0    0    0  0.00000000000E+00  0.00000000000E+00  0.45593999997E+02  0.45594000000E+02  0.51100000000E-03 0.  1.
         11   -1    0    0    0    0 -0.00000000000E+00 -0.00000000000E+00 -0.45593999997E+02  0.45594000000E+02  0.51100000000E-03 0. -1.
    9900012    2    1    2    0    0  0.29722601860E+01 -0.16709634222E+02 -0.26994060828E+02  0.59301866236E+02  0.49999858126E+02 0.  0.
        -12    1    1    2    0    0 -0.29722601860E+01  0.16709634222E+02  0.26994060828E+02  0.31886133764E+02  0.00000000000E+00 0.  1.
         11    1    3    3    0    0  0.85010653056E+01  0.97623379704E+00 -0.13131344521E+02  0.15673332541E+02  0.51100000000E-03 0. -1.
        -11    1    3    3    0    0  0.45534247912E+01  0.66012370300E+01 -0.15319511977E+02  0.17291542879E+02  0.51100000000E-03 0.  1.
        -12    1    3    3    0    0 -0.10082229911E+02 -0.24287105049E+02  0.14567956699E+01  0.26336990816E+02  0.00000000000E+00 0.  1.
</event>
<event>
 7    1  0.6830263E-012  0.5930168E+02  0.7816164E-02  0.1266606E+00
        -11   -1    0    0    0    0  0.00000000000E+00  0.00000000000E+00  0.45593999997E+02  0.45594000000E+02  0.51100000000E-03 0.  1.
         11   -1    0    0    0    0 -0.00000000000E+00 -0.00000000000E+00 -0.45593999997E+02  0.45594000000E+02  0.51100000000E-03 0. -1.
    9900012    2    1    2    0    0 -0.20734894214E+02 -0.24220485167E+02 -0.41200801437E+00  0.59301678632E+02  0.49999515980E+02 0.  0.
        -12    1    1    2    0    0  0.20734894214E+02  0.24220485167E+02  0.41200801437E+00  0.31886321368E+02  0.00000000000E+00 0.  1.
         11    1    3    3    0    0 -0.13952853991E+02 -0.11933836094E+02 -0.99964285214E+01  0.20905194614E+02  0.51100000000E-03 0. -1.
        -11    1    3    3    0    0 -0.97392748765E+01 -0.19637871415E+01 -0.11218588549E+02  0.14985548517E+02  0.51100000000E-03 0.  1.
        -12    1    3    3    0    0  0.29572346537E+01 -0.10322861931E+02  0.20803009056E+02  0.23410935501E+02  0.00000000000E+00 0.  1.
</event>
<event>
 7    1  0.6830263E-012  0.5930194E+02  0.7816164E-02  0.1266605E+00
        -11   -1    0    0    0    0  0.00000000000E+00  0.00000000000E+00  0.45593999997E+02  0.45594000000E+02  0.51100000000E-03 0. -1.
         11   -1    0    0    0    0 -0.00000000000E+00 -0.00000000000E+00 -0.45593999997E+02  0.45594000000E+02  0.51100000000E-03 0.  1.
    9900012    2    1    2    0    0  0.87501228142E+01 -0.27523070713E+02  0.13514324830E+02  0.59301936487E+02  0.49999986247E+02 0.  0.
        -12    1    1    2    0    0 -0.87501228142E+01  0.27523070713E+02 -0.13514324830E+02  0.31886063513E+02  0.00000000000E+00 0.  1.
         11    1    3    3    0    0  0.76435933279E+01 -0.14727097430E+02 -0.13755908365E+02  0.21553118867E+02  0.51100000000E-03 0.  1.
        -11    1    3    3    0    0  0.80979703019E+01 -0.83293126931E+01  0.28552676005E+01  0.11962739079E+02  0.51100000000E-03 0. -1.
         12    1    3    3    0    0 -0.69914408156E+01 -0.44666605902E+01  0.24414965595E+02  0.25786078541E+02  0.00000000000E+00 0. -1.
</event>
<event>
 7    1  0.6830263E-012  0.5930196E+02  0.7816164E-02  0.1266605E+00
        -11   -1    0    0    0    0  0.00000000000E+00  0.00000000000E+00  0.45593999997E+02  0.45594000000E+02  0.51100000000E-03 0.  1.
         11   -1    0    0    0    0 -0.00000000000E+00 -0.00000000000E+00 -0.45593999997E+02  0.45594000000E+02  0.51100000000E-03 0. -1.
    9900012    2    1    2    0    0 -0.23285844527E+02  0.11207737209E+02 -0.18678208934E+02  0.59301962026E+02  0.50000032825E+02 0.  0.
        -12    1    1    2    0    0  0.23285844527E+02 -0.11207737209E+02  0.18678208934E+02  0.31886037974E+02  0.00000000000E+00 0.  1.
         11    1    3    3    0    0  0.64395678878E+01  0.53057642636E+01  0.65074677070E+01  0.10581413196E+02  0.51100000000E-03 0.  1.
        -11    1    3    3    0    0 -0.92086952122E+01 -0.94402948681E+01 -0.58201533299E+00  0.13200680922E+02  0.51100000000E-03 0. -1.
         12    1    3    3    0    0 -0.20516717203E+02  0.15342267813E+02 -0.24603661308E+02  0.35519867908E+02  0.00000000000E+00 0. -1.
</event>
<event>
 7    1  0.6830263E-012  0.5930194E+02  0.7816164E-02  0.1266605E+00
        -11   -1    0    0    0    0  0.00000000000E+00  0.00000000000E+00  0.45593999997E+02  0.45594000000E+02  0.51100000000E-03 0.  1.
         11   -1    0    0    0    0 -0.00000000000E+00 -0.00000000000E+00 -0.45593999997E+02  0.45594000000E+02  0.51100000000E-03 0. -1.
    9900012    2    1    2    0    0  0.17634175330E+02 -0.11554736319E+02 -0.23921633665E+02  0.59301943044E+02  0.49999998207E+02 0.  0.
        -12    1    1    2    0    0 -0.17634175330E+02  0.11554736319E+02  0.23921633665E+02  0.31886056956E+02  0.00000000000E+00 0.  1.
         11    1    3    3    0    0  0.21645909113E+02  0.12869975610E+02 -0.23607982080E+02  0.34518378753E+02  0.51100000000E-03 0.  1.
        -11    1    3    3    0    0 -0.90177687055E+00 -0.70067312815E+01  0.39894500074E+00  0.70757785544E+01  0.51100000000E-03 0. -1.
        -12    1    3    3    0    0 -0.31099569127E+01 -0.17417980647E+02 -0.71259658518E+00  0.17707785737E+02  0.00000000000E+00 0.  1.
</event>
<event>
 7    1  0.6830263E-012  0.5930195E+02  0.7816164E-02  0.1266605E+00
        -11   -1    0    0    0    0  0.00000000000E+00  0.00000000000E+00  0.45593999997E+02  0.45594000000E+02  0.51100000000E-03 0. -1.
         11   -1    0    0    0    0 -0.00000000000E+00 -0.00000000000E+00 -0.45593999997E+02  0.45594000000E+02  0.51100000000E-03 0.  1.
    9900012    2    1    2    0    0 -0.11384471299E+02  0.99101330906E+00  0.29767963043E+02  0.59301954183E+02  0.50000018521E+02 0.  0.
        -12    1    1    2    0    0  0.11384471299E+02 -0.99101330906E+00 -0.29767963043E+02  0.31886045817E+02  0.00000000000E+00 0.  1.
         11    1    3    3    0    0 -0.15903038861E+02 -0.31356981348E+01  0.19350803839E+01  0.16324331048E+02  0.51100000000E-03 0. -1.
        -11    1    3    3    0    0  0.14608052760E+02  0.62326946483E+01  0.30983149723E+01  0.16181509322E+02  0.51100000000E-03 0.  1.
         12    1    3    3    0    0 -0.10089485198E+02 -0.21059832045E+01  0.24734567687E+02  0.26796113812E+02  0.00000000000E+00 0. -1.
</event>
<event>
 7    1  0.6830263E-012  0.5930195E+02  0.7816164E-02  0.1266605E+00
        -11   -1    0    0    0    0  0.00000000000E+00  0.00000000000E+00  0.45593999997E+02  0.45594000000E+02  0.51100000000E-03 0. -1.
         11   -1    0    0    0    0 -0.00000000000E+00 -0.00000000000E+00 -0.45593999997E+02  0.45594000000E+02  0.51100000000E-03 0.  1.
    9900012    2    1    2    0    0 -0.26323547354E+02  0.34055180992E+01 -0.17668990647E+02  0.59301954003E+02  0.50000018192E+02 0.  0.
        -12    1    1    2    0    0  0.26323547354E+02 -0.34055180992E+01  0.17668990647E+02  0.31886045997E+02  0.00000000000E+00 0.  1.
         11    1    3    3    0    0 -0.17827955523E+02 -0.36238623656E+00  0.40096867907E+00  0.17836145829E+02  0.51100000000E-03 0. -1.
        -11    1    3    3    0    0 -0.10270486717E+02  0.44945360395E+01 -0.28622848175E+02  0.30740058385E+02  0.51100000000E-03 0.  1.
         12    1    3    3    0    0  0.17748948853E+01 -0.72663170377E+00  0.10552888848E+02  0.10725749788E+02  0.00000000000E+00 0. -1.
</event>
<event>
 7    1  0.6830263E-012  0.5930193E+02  0.7816164E-02  0.1266605E+00
        -11   -1    0    0    0    0  0.00000000000E+00  0.00000000000E+00  0.45593999997E+02  0.45594000000E+02  0.51100000000E-03 0. -1.
         11   -1    0    0    0    0 -0.00000000000E+00 -0.00000000000E+00 -0.45593999997E+02  0.45594000000E+02  0.51100000000E-03 0.  1.
    9900012    2    1    2    0    0  0.19784923736E+02  0.13440330283E+02  0.21086384447E+02  0.59301932598E+02  0.49999979155E+02 0.  0.
        -12    1    1    2    0    0 -0.19784923736E+02 -0.13440330283E+02 -0.21086384447E+02  0.31886067402E+02  0.00000000000E+00 0.  1.
         11    1    3    3    0    0  0.12199712997E+02 -0.44084793461E+01 -0.52812185699E+01  0.14005675892E+02  0.51100000000E-03 0. -1.
        -11    1    3    3    0    0  0.60784001641E+01  0.99930889225E+01 -0.51495238605E+01  0.12779920619E+02  0.51100000000E-03 0.  1.
         12    1    3    3    0    0  0.15068105742E+01  0.78557207068E+01  0.31517126877E+02  0.32516336087E+02  0.00000000000E+00 0. -1.
</event>
<event>
 7    1  0.6830263E-012  0.5930194E+02  0.7816164E-02  0.1266605E+00
        -11   -1    0    0    0    0  0.00000000000E+00  0.00000000000E+00  0.45593999997E+02  0.45594000000E+02  0.51100000000E-03 0.  1.
         11   -1    0    0    0    0 -0.00000000000E+00 -0.00000000000E+00 -0.45593999997E+02  0.45594000000E+02  0.51100000000E-03 0. -1.
    9900012    2    1    2    0    0  0.16551191974E+02  0.50857501381E+01 -0.26775246592E+02  0.59301942854E+02  0.49999997860E+02 0.  0.
        -12    1    1    2    0    0 -0.16551191974E+02 -0.50857501381E+01  0.26775246592E+02  0.31886057146E+02  0.00000000000E+00 0.  1.
         11    1    3    3    0    0 -0.10009982389E+02  0.53195262505E+01 -0.40371386146E+01  0.12033104147E+02  0.51100000000E-03 0. -1.
        -11    1    3    3    0    0  0.28650387835E+00 -0.46104683403E+01  0.63337541561E+01  0.78393204271E+01  0.51100000000E-03 0.  1.
         12    1    3    3    0    0  0.26274670484E+02  0.43766922278E+01 -0.29071862134E+02  0.39429518280E+02  0.00000000000E+00 0. -1.
</event>
<event>
 7    1  0.6830263E-012  0.5930194E+02  0.7816164E-02  0.1266605E+00
        -11   -1    0    0    0    0  0.00000000000E+00  0.00000000000E+00  0.45593999997E+02  0.45594000000E+02  0.51100000000E-03 0. -1.
         11   -1    0    0    0    0 -0.00000000000E+00 -0.00000000000E+00 -0.45593999997E+02  0.45594000000E+02  0.51100000000E-03 0.  1.
    9900012    2    1    2    0    0  0.30605891327E+02 -0.13469309739E+01  0.88422785072E+01  0.59301941978E+02  0.49999996262E+02 0.  0.
        -12    1    1    2    0    0 -0.30605891327E+02  0.13469309739E+01 -0.88422785072E+01  0.31886058022E+02  0.00000000000E+00 0.  1.
         11    1    3    3    0    0  0.19424678696E+02  0.10808865909E+02  0.16492941086E+02  0.27679718760E+02  0.51100000000E-03 0. -1.
        -11    1    3    3    0    0  0.12494793728E+02 -0.93682942782E+01  0.66643113215E+01  0.16979336078E+02  0.51100000000E-03 0.  1.
        -12    1    3    3    0    0 -0.13135810972E+01 -0.27875026046E+01 -0.14314973900E+02  0.14642887141E+02  0.00000000000E+00 0.  1.
</event>
<event>
 7    1  0.6830263E-012  0.5930195E+02  0.7816164E-02  0.1266605E+00
        -11   -1    0    0    0    0  0.00000000000E+00  0.00000000000E+00  0.45593999997E+02  0.45594000000E+02  0.51100000000E-03 0.  1.
         11   -1    0    0    0    0 -0.00000000000E+00 -0.00000000000E+00 -0.45593999997E+02  0.45594000000E+02  0.51100000000E-03 0. -1.
    9900012    2    1    2    0    0  0.15119542500E+02  0.14846067972E+02 -0.23826750514E+02  0.59301947568E+02  0.50000006456E+02 0.  0.
        -12    1    1    2    0    0 -0.15119542500E+02 -0.14846067972E+02  0.23826750514E+02  0.31886052432E+02  0.00000000000E+00 0.  1.
         11    1    3    3    0    0 -0.94459697098E+00 -0.35536063115E+01 -0.11313783074E+01  0.38471285903E+01  0.51100000000E-03 0.  1.
        -11    1    3    3    0    0  0.72181263341E+01 -0.11203996835E+02  0.47293500798E+01  0.14142052372E+02  0.51100000000E-03 0. -1.
         12    1    3    3    0    0  0.88460131370E+01  0.29603671118E+02 -0.27424722287E+02  0.41312766606E+02  0.00000000000E+00 0. -1.
</event>
<event>
 7    1  0.6830263E-012  0.5930196E+02  0.7816164E-02  0.1266605E+00
        -11   -1    0    0    0    0  0.00000000000E+00  0.00000000000E+00  0.45593999997E+02  0.45594000000E+02  0.51100000000E-03 0. -1.
         11   -1    0    0    0    0 -0.00000000000E+00 -0.00000000000E+00 -0.45593999997E+02  0.45594000000E+02  0.51100000000E-03 0.  1.
    9900012    2    1    2    0    0  0.27891822202E+02 -0.44625125143E+01  0.14793636729E+02  0.59301961498E+02  0.50000031861E+02 0.  0.
        -12    1    1    2    0    0 -0.27891822202E+02  0.44625125143E+01 -0.14793636729E+02  0.31886038502E+02  0.00000000000E+00 0.  1.
         11    1    3    3    0    0 -0.86563871594E+01  0.34642239098E+01  0.28142542323E+01  0.97392973615E+01  0.51100000000E-03 0. -1.
        -11    1    3    3    0    0 -0.43782258208E+01  0.60249443803E-01 -0.29415680364E+01  0.52749705314E+01  0.51100000000E-03 0.  1.
         12    1    3    3    0    0  0.40926435183E+02 -0.79869858679E+01  0.14920950533E+02  0.44287693605E+02  0.00000000000E+00 0. -1.
</event>
<event>
 7    1  0.6830263E-012  0.5930199E+02  0.7816164E-02  0.1266605E+00
        -11   -1    0    0    0    0  0.00000000000E+00  0.00000000000E+00  0.45593999997E+02  0.45594000000E+02  0.51100000000E-03 0. -1.
         11   -1    0    0    0    0 -0.00000000000E+00 -0.00000000000E+00 -0.45593999997E+02  0.45594000000E+02  0.51100000000E-03 0.  1.
    9900012    2    1    2    0    0 -0.15983930925E+02  0.18071898328E+02  0.20847978930E+02  0.59301987668E+02  0.50000079589E+02 0.  0.
        -12    1    1    2    0    0  0.15983930925E+02 -0.18071898328E+02 -0.20847978930E+02  0.31886012332E+02  0.00000000000E+00 0.  1.
         11    1    3    3    0    0 -0.30411531851E+01 -0.50168789002E+01  0.15054207303E+02  0.16156944153E+02  0.51100000000E-03 0. -1.
        -11    1    3    3    0    0 -0.92788649074E+01  0.14161945381E+02 -0.13446270964E+02  0.21620828709E+02  0.51100000000E-03 0.  1.
         12    1    3    3    0    0 -0.36639128325E+01  0.89268318476E+01  0.19240042591E+02  0.21524214806E+02  0.00000000000E+00 0. -1.
</event>
<event>
 7    1  0.6830263E-012  0.5930193E+02  0.7816164E-02  0.1266605E+00
        -11   -1    0    0    0    0  0.00000000000E+00  0.00000000000E+00  0.45593999997E+02  0.45594000000E+02  0.51100000000E-03 0.  1.
         11   -1    0    0    0    0 -0.00000000000E+00 -0.00000000000E+00 -0.45593999997E+02  0.45594000000E+02  0.51100000000E-03 0. -1.
    9900012    2    1    2    0    0  0.13002325307E+02  0.22250597598E+02 -0.18776889739E+02  0.59301934938E+02  0.49999983423E+02 0.  0.
        -12    1    1    2    0    0 -0.13002325307E+02 -0.22250597598E+02  0.18776889739E+02  0.31886065062E+02  0.00000000000E+00 0.  1.
         11    1    3    3    0    0  0.44720042678E+01 -0.37321180578E+00 -0.27056162096E+02  0.27425791089E+02  0.51100000000E-03 0. -1.
        -11    1    3    3    0    0 -0.31744931407E+01  0.35427774367E+00  0.57674038126E+01  0.65928648112E+01  0.51100000000E-03 0.  1.
        -12    1    3    3    0    0  0.11704814179E+02  0.22269531660E+02  0.25118685443E+01  0.25283279038E+02  0.00000000000E+00 0.  1.
</event>
<event>
 7    1  0.6830263E-012  0.5930194E+02  0.7816164E-02  0.1266605E+00
        -11   -1    0    0    0    0  0.00000000000E+00  0.00000000000E+00  0.45593999997E+02  0.45594000000E+02  0.51100000000E-03 0.  1.
         11   -1    0    0    0    0 -0.00000000000E+00 -0.00000000000E+00 -0.45593999997E+02  0.45594000000E+02  0.51100000000E-03 0. -1.
    9900012    2    1    2    0    0 -0.16624535600E+02  0.10370307493E+02 -0.25155558000E+02  0.59301944118E+02  0.50000000164E+02 0.  0.
        -12    1    1    2    0    0  0.16624535600E+02 -0.10370307493E+02  0.25155558000E+02  0.31886055882E+02  0.00000000000E+00 0.  1.
         11    1    3    3    0    0  0.29311635215E+01 -0.53435098875E+01 -0.46242036493E+01  0.76503645115E+01  0.51100000000E-03 0. -1.
        -11    1    3    3    0    0 -0.14024362686E+02 -0.61493266514E+01  0.63373259460E+01  0.16572829192E+02  0.51100000000E-03 0.  1.
         12    1    3    3    0    0 -0.55313364352E+01  0.21863144032E+02 -0.26868680297E+02  0.35078750414E+02  0.00000000000E+00 0. -1.
</event>
<event>
 7    1  0.6830263E-012  0.5930193E+02  0.7816164E-02  0.1266605E+00
        -11   -1    0    0    0    0  0.00000000000E+00  0.00000000000E+00  0.45593999997E+02  0.45594000000E+02  0.51100000000E-03 0.  1.
         11   -1    0    0    0    0 -0.00000000000E+00 -0.00000000000E+00 -0.45593999997E+02  0.45594000000E+02  0.51100000000E-03 0. -1.
    9900012    2    1    2    0    0  0.21332442591E+02  0.26046363408E+01 -0.23555562155E+02  0.59301925519E+02  0.49999966245E+02 0.  0.
        -12    1    1    2    0    0 -0.21332442591E+02 -0.26046363408E+01  0.23555562155E+02  0.31886074481E+02  0.00000000000E+00 0.  1.
         11    1    3    3    0    0  0.15912500024E+02 -0.37916774558E+01 -0.18162175301E+02  0.24442771669E+02  0.51100000000E-03 0. -1.
        -11    1    3    3    0    0  0.17787268819E+02  0.58662923393E+00  0.40468981858E+01  0.18251258890E+02  0.51100000000E-03 0.  1.
         12    1    3    3    0    0 -0.12367326253E+02  0.58096845627E+01 -0.94402850399E+01  0.16607894960E+02  0.00000000000E+00 0. -1.
</event>
<event>
 7    1  0.6830263E-012  0.5930194E+02  0.7816164E-02  0.1266605E+00
        -11   -1    0    0    0    0  0.00000000000E+00  0.00000000000E+00  0.45593999997E+02  0.45594000000E+02  0.51100000000E-03 0. -1.
         11   -1    0    0    0    0 -0.00000000000E+00 -0.00000000000E+00 -0.45593999997E+02  0.45594000000E+02  0.51100000000E-03 0.  1.
    9900012    2    1    2    0    0  0.27430068331E+01  0.17886345915E+02  0.26254048723E+02  0.59301944568E+02  0.50000000985E+02 0.  0.
        -12    1    1    2    0    0 -0.27430068331E+01 -0.17886345915E+02 -0.26254048723E+02  0.31886055432E+02  0.00000000000E+00 0.  1.
         11    1    3    3    0    0 -0.61685494210E+00  0.23453889173E+02  0.39603966556E+01  0.23793910340E+02  0.51100000000E-03 0. -1.
        -11    1    3    3    0    0  0.25976558468E+01  0.10272450273E+02  0.40703063545E+01  0.11350702383E+02  0.51100000000E-03 0.  1.
         12    1    3    3    0    0  0.76220592841E+00 -0.15839993530E+02  0.18223345713E+02  0.24157331845E+02  0.00000000000E+00 0. -1.
</event>
<event>
 7    1  0.6830263E-012  0.5930195E+02  0.7816164E-02  0.1266605E+00
        -11   -1    0    0    0    0  0.00000000000E+00  0.00000000000E+00  0.45593999997E+02  0.45594000000E+02  0.51100000000E-03 0.  1.
         11   -1    0    0    0    0 -0.00000000000E+00 -0.00000000000E+00 -0.45593999997E+02  0.45594000000E+02  0.51100000000E-03 0. -1.
    9900012    2    1    2    0    0  0.96999300280E+01  0.24851537176E+02 -0.17465183756E+02  0.59301949975E+02  0.50000010846E+02 0.  0.
        -12    1    1    2    0    0 -0.96999300280E+01 -0.24851537176E+02  0.17465183756E+02  0.31886050025E+02  0.00000000000E+00 0.  1.
         11    1    3    3    0    0  0.20313878804E+02 -0.26435838028E+01 -0.86878777662E+01  0.22251324180E+02  0.51100000000E-03 0. -1.
        -11    1    3    3    0    0  0.22664341949E+01 -0.24860779489E+01 -0.74398060822E+00  0.34454049014E+01  0.51100000000E-03 0.  1.
         12    1    3    3    0    0 -0.12880382971E+02  0.29981198928E+02 -0.80333253815E+01  0.33605220894E+02  0.00000000000E+00 0. -1.
</event>
<event>
 7    1  0.6830263E-012  0.5930192E+02  0.7816164E-02  0.1266605E+00
        -11   -1    0    0    0    0  0.00000000000E+00  0.00000000000E+00  0.45593999997E+02  0.45594000000E+02  0.51100000000E-03 0.  1.
         11   -1    0    0    0    0 -0.00000000000E+00 -0.00000000000E+00 -0.45593999997E+02  0.45594000000E+02  0.51100000000E-03 0. -1.
    9900012    2    1    2    0    0 -0.22059383511E+02 -0.19976868327E+02 -0.11446849668E+02  0.59301920963E+02  0.49999957935E+02 0.  0.
        -12    1    1    2    0    0  0.22059383511E+02  0.19976868327E+02  0.11446849668E+02  0.31886079037E+02  0.00000000000E+00 0.  1.
         11    1    3    3    0    0 -0.13010899423E+02  0.76130056132E+00 -0.29311868778E+01  0.13358702748E+02  0.51100000000E-03 0. -1.
        -11    1    3    3    0    0 -0.10798708739E+00 -0.20447770803E+02  0.11896595365E+02  0.23656964589E+02  0.51100000000E-03 0.  1.
         12    1    3    3    0    0 -0.89404970006E+01 -0.29039808477E+00 -0.20412258155E+02  0.22286253625E+02  0.00000000000E+00 0. -1.
</event>
<event>
 7    1  0.6830263E-012  0.5930194E+02  0.7816164E-02  0.1266605E+00
        -11   -1    0    0    0    0  0.00000000000E+00  0.00000000000E+00  0.45593999997E+02  0.45594000000E+02  0.51100000000E-03 0. -1.
         11   -1    0    0    0    0 -0.00000000000E+00 -0.00000000000E+00 -0.45593999997E+02  0.45594000000E+02  0.51100000000E-03 0.  1.
    9900012    2    1    2    0    0 -0.94085839325E+01 -0.53003934943E+01  0.30001754921E+02  0.59301938451E+02  0.49999989829E+02 0.  0.
        -12    1    1    2    0    0  0.94085839325E+01  0.53003934943E+01 -0.30001754921E+02  0.31886061549E+02  0.00000000000E+00 0.  1.
         11    1    3    3    0    0 -0.13088744641E+01  0.14575970687E+02  0.21871547618E+02  0.26316091452E+02  0.51100000000E-03 0. -1.
        -11    1    3    3    0    0 -0.61190353278E+01  0.38026616068E+01  0.55304536163E+01  0.90823315345E+01  0.51100000000E-03 0.  1.
        -12    1    3    3    0    0 -0.19806741407E+01 -0.23679025788E+02  0.25997536867E+01  0.23903515464E+02  0.00000000000E+00 0.  1.
</event>
<event>
 7    1  0.6830263E-012  0.5930195E+02  0.7816164E-02  0.1266605E+00
        -11   -1    0    0    0    0  0.00000000000E+00  0.00000000000E+00  0.45593999997E+02  0.45594000000E+02  0.51100000000E-03 0.  1.
         11   -1    0    0    0    0 -0.00000000000E+00 -0.00000000000E+00 -0.45593999997E+02  0.45594000000E+02  0.51100000000E-03 0. -1.
    9900012    2    1    2    0    0  0.17640347773E+01  0.23073357074E+02  0.21936919243E+02  0.59301952092E+02  0.50000014707E+02 0.  0.
        -12    1    1    2    0    0 -0.17640347773E+01 -0.23073357074E+02 -0.21936919243E+02  0.31886047908E+02  0.00000000000E+00 0.  1.
         11    1    3    3    0    0  0.53321841551E+00 -0.16140320945E+01 -0.84713651635E+01  0.86402227676E+01  0.51100000000E-03 0. -1.
        -11    1    3    3    0    0  0.68328978440E+01 -0.21319725791E+01  0.20188007163E+02  0.21419370521E+02  0.51100000000E-03 0.  1.
         12    1    3    3    0    0 -0.56020814822E+01  0.26819361747E+02  0.10220277243E+02  0.29242358803E+02  0.00000000000E+00 0. -1.
</event>
<event>
 7    1  0.6830263E-012  0.5930195E+02  0.7816164E-02  0.1266605E+00
        -11   -1    0    0    0    0  0.00000000000E+00  0.00000000000E+00  0.45593999997E+02  0.45594000000E+02  0.51100000000E-03 0.  1.
         11   -1    0    0    0    0 -0.00000000000E+00 -0.00000000000E+00 -0.45593999997E+02  0.45594000000E+02  0.51100000000E-03 0. -1.
    9900012    2    1    2    0    0  0.13590500926E+02  0.17944799270E+02 -0.22583240101E+02  0.59301948665E+02  0.50000008458E+02 0.  0.
        -12    1    1    2    0    0 -0.13590500926E+02 -0.17944799270E+02  0.22583240101E+02  0.31886051335E+02  0.00000000000E+00 0.  1.
         11    1    3    3    0    0  0.21406142674E+02  0.89312046318E+00 -0.68818360396E+01  0.22502894833E+02  0.51100000000E-03 0. -1.
        -11    1    3    3    0    0  0.63333931170E+01  0.88933050520E+01 -0.17226942184E+02  0.20395349479E+02  0.51100000000E-03 0.  1.
        -12    1    3    3    0    0 -0.14149034865E+02  0.81583737548E+01  0.15255381225E+01  0.16403704353E+02  0.00000000000E+00 0.  1.
</event>
<event>
 7    1  0.6830263E-012  0.5930195E+02  0.7816164E-02  0.1266605E+00
        -11   -1    0    0    0    0  0.00000000000E+00  0.00000000000E+00  0.45593999997E+02  0.45594000000E+02  0.51100000000E-03 0. -1.
         11   -1    0    0    0    0 -0.00000000000E+00 -0.00000000000E+00 -0.45593999997E+02  0.45594000000E+02  0.51100000000E-03 0.  1.
    9900012    2    1    2    0    0  0.25253920762E+02 -0.18332041521E+02  0.65495092016E+01  0.59301947704E+02  0.50000006705E+02 0.  0.
        -12    1    1    2    0    0 -0.25253920762E+02  0.18332041521E+02 -0.65495092016E+01  0.31886052296E+02  0.00000000000E+00 0.  1.
         11    1    3    3    0    0  0.58619647238E+01  0.92373597693E+01 -0.37418423145E+01  0.11562561572E+02  0.51100000000E-03 0. -1.
        -11    1    3    3    0    0  0.70174305098E+01  0.38821142167E+01 -0.61957136056E+01  0.10134199973E+02  0.51100000000E-03 0.  1.
         12    1    3    3    0    0  0.12374525529E+02 -0.31451515507E+02  0.16487065122E+02  0.37605186160E+02  0.00000000000E+00 0. -1.
</event>
<event>
 7    1  0.6830263E-012  0.5930191E+02  0.7816164E-02  0.1266605E+00
        -11   -1    0    0    0    0  0.00000000000E+00  0.00000000000E+00  0.45593999997E+02  0.45594000000E+02  0.51100000000E-03 0. -1.
         11   -1    0    0    0    0 -0.00000000000E+00 -0.00000000000E+00 -0.45593999997E+02  0.45594000000E+02  0.51100000000E-03 0.  1.
    9900012    2    1    2    0    0  0.10737996552E+02 -0.25167204183E+02  0.16371612144E+02  0.59301914939E+02  0.49999946948E+02 0.  0.
        -12    1    1    2    0    0 -0.10737996552E+02  0.25167204183E+02 -0.16371612144E+02  0.31886085061E+02  0.00000000000E+00 0.  1.
         11    1    3    3    0    0  0.15583162436E+02  0.40457860425E+01  0.10682805323E+02  0.19321637250E+02  0.51100000000E-03 0. -1.
        -11    1    3    3    0    0  0.93516028378E+01 -0.20216791223E+02  0.63430009802E+01  0.23160414174E+02  0.51100000000E-03 0.  1.
         12    1    3    3    0    0 -0.14196768722E+02 -0.89961990026E+01 -0.65419415927E+00  0.16819863514E+02  0.00000000000E+00 0. -1.
</event>
<event>
 7    1  0.6830263E-012  0.5930193E+02  0.7816164E-02  0.1266605E+00
        -11   -1    0    0    0    0  0.00000000000E+00  0.00000000000E+00  0.45593999997E+02  0.45594000000E+02  0.51100000000E-03 0. -1.
         11   -1    0    0    0    0 -0.00000000000E+00 -0.00000000000E+00 -0.45593999997E+02  0.45594000000E+02  0.51100000000E-03 0.  1.
    9900012    2    1    2    0    0 -0.18449441927E+02 -0.15748642937E+02  0.20695891229E+02  0.59301928189E+02  0.49999971114E+02 0.  0.
        -12    1    1    2    0    0  0.18449441927E+02  0.15748642937E+02 -0.20695891229E+02  0.31886071811E+02  0.00000000000E+00 0.  1.
         11    1    3    3    0    0 -0.13699290258E+02 -0.39627008796E+01  0.24136132554E+02  0.28034379729E+02  0.51100000000E-03 0.  1.
        -11    1    3    3    0    0 -0.81666077296E+01  0.77258569657E+01 -0.18735742370E+01  0.11397044720E+02  0.51100000000E-03 0. -1.
        -12    1    3    3    0    0  0.34164560607E+01 -0.19511799023E+02 -0.15666670881E+01  0.19870503740E+02  0.00000000000E+00 0.  1.
</event>
<event>
 7    1  0.6830263E-012  0.5930198E+02  0.7816164E-02  0.1266605E+00
        -11   -1    0    0    0    0  0.00000000000E+00  0.00000000000E+00  0.45593999997E+02  0.45594000000E+02  0.51100000000E-03 0. -1.
         11   -1    0    0    0    0 -0.00000000000E+00 -0.00000000000E+00 -0.45593999997E+02  0.45594000000E+02  0.51100000000E-03 0.  1.
    9900012    2    1    2    0    0  0.18650692599E+02  0.13489789548E+02  0.22065707198E+02  0.59301981268E+02  0.50000067916E+02 0.  0.
        -12    1    1    2    0    0 -0.18650692599E+02 -0.13489789548E+02 -0.22065707198E+02  0.31886018732E+02  0.00000000000E+00 0.  1.
         11    1    3    3    0    0  0.22973498458E+02 -0.10452781261E+01 -0.43186552809E+01  0.23399252583E+02  0.51100000000E-03 0. -1.
        -11    1    3    3    0    0 -0.31824805365E+01 -0.42508554696E+01  0.39427282332E+01  0.66138537004E+01  0.51100000000E-03 0.  1.
        -12    1    3    3    0    0 -0.11403253228E+01  0.18785923144E+02  0.22441634246E+02  0.29288874984E+02  0.00000000000E+00 0.  1.
</event>
<event>
 7    1  0.6830263E-012  0.5930200E+02  0.7816164E-02  0.1266605E+00
        -11   -1    0    0    0    0  0.00000000000E+00  0.00000000000E+00  0.45593999997E+02  0.45594000000E+02  0.51100000000E-03 0.  1.
         11   -1    0    0    0    0 -0.00000000000E+00 -0.00000000000E+00 -0.45593999997E+02  0.45594000000E+02  0.51100000000E-03 0. -1.
    9900012    2    1    2    0    0 -0.28962110800E+02 -0.48175680933E+01 -0.12438023806E+02  0.59301995852E+02  0.50000094516E+02 0.  0.
        -12    1    1    2    0    0  0.28962110800E+02  0.48175680933E+01  0.12438023806E+02  0.31886004148E+02  0.00000000000E+00 0.  1.
         11    1    3    3    0    0  0.18343460576E+01 -0.46639018715E+01 -0.75415234310E+01  0.90549092788E+01  0.51100000000E-03 0. -1.
        -11    1    3    3    0    0  0.39939940881E+01 -0.60709110117E+01  0.96469329974E+01  0.12077717740E+02  0.51100000000E-03 0.  1.
        -12    1    3    3    0    0 -0.34790450946E+02  0.59172447900E+01 -0.14543433372E+02  0.38169368834E+02  0.00000000000E+00 0.  1.
</event>
<event>
 7    1  0.6830263E-012  0.5930193E+02  0.7816164E-02  0.1266605E+00
        -11   -1    0    0    0    0  0.00000000000E+00  0.00000000000E+00  0.45593999997E+02  0.45594000000E+02  0.51100000000E-03 0.  1.
         11   -1    0    0    0    0 -0.00000000000E+00 -0.00000000000E+00 -0.45593999997E+02  0.45594000000E+02  0.51100000000E-03 0. -1.
    9900012    2    1    2    0    0  0.17451345513E+01 -0.20955470752E+02 -0.23969647339E+02  0.59301933410E+02  0.49999980636E+02 0.  0.
        -12    1    1    2    0    0 -0.17451345513E+01  0.20955470752E+02  0.23969647339E+02  0.31886066590E+02  0.00000000000E+00 0.  1.
         11    1    3    3    0    0  0.72245012014E+01  0.40276677229E+01 -0.68801413382E+01  0.10758804301E+02  0.51100000000E-03 0. -1.
        -11    1    3    3    0    0 -0.18946779075E+02 -0.23607782287E+01 -0.77922477459E+01  0.20622144320E+02  0.51100000000E-03 0.  1.
         12    1    3    3    0    0  0.13467412425E+02 -0.22622360246E+02 -0.92972582544E+01  0.27920984789E+02  0.00000000000E+00 0. -1.
</event>
<event>
 7    1  0.6830263E-012  0.5930195E+02  0.7816164E-02  0.1266605E+00
        -11   -1    0    0    0    0  0.00000000000E+00  0.00000000000E+00  0.45593999997E+02  0.45594000000E+02  0.51100000000E-03 0.  1.
         11   -1    0    0    0    0 -0.00000000000E+00 -0.00000000000E+00 -0.45593999997E+02  0.45594000000E+02  0.51100000000E-03 0. -1.
    9900012    2    1    2    0    0 -0.10961520628E+02 -0.14363337426E+02 -0.26272792924E+02  0.59301952196E+02  0.50000014898E+02 0.  0.
        -12    1    1    2    0    0  0.10961520628E+02  0.14363337426E+02  0.26272792924E+02  0.31886047804E+02  0.00000000000E+00 0.  1.
         11    1    3    3    0    0 -0.14800978999E+02 -0.72694701150E+01 -0.22696306207E+02  0.28054170649E+02  0.51100000000E-03 0. -1.
        -11    1    3    3    0    0 -0.47606093968E+01  0.84972631191E+01 -0.83324393677E+01  0.12817816835E+02  0.51100000000E-03 0.  1.
        -12    1    3    3    0    0  0.86000677675E+01 -0.15591130430E+02  0.47559526505E+01  0.18429964713E+02  0.00000000000E+00 0.  1.
</event>
<event>
 7    1  0.6830263E-012  0.5930191E+02  0.7816164E-02  0.1266605E+00
        -11   -1    0    0    0    0  0.00000000000E+00  0.00000000000E+00  0.45593999997E+02  0.45594000000E+02  0.51100000000E-03 0.  1.
         11   -1    0    0    0    0 -0.00000000000E+00 -0.00000000000E+00 -0.45593999997E+02  0.45594000000E+02  0.51100000000E-03 0. -1.
    9900012    2    1    2    0    0 -0.70755933940E+01 -0.29762171724E+02 -0.89928714559E+01  0.59301911739E+02  0.49999941112E+02 0.  0.
        -12    1    1    2    0    0  0.70755933940E+01  0.29762171724E+02  0.89928714559E+01  0.31886088261E+02  0.00000000000E+00 0.  1.
         11    1    3    3    0    0  0.31849633979E+01  0.80114135676E+01  0.84301181193E+01  0.12057928137E+02  0.51100000000E-03 0. -1.
        -11    1    3    3    0    0  0.19328627952E+01  0.12554414860E+00 -0.52752065072E+01  0.56195661641E+01  0.51100000000E-03 0.  1.
         12    1    3    3    0    0 -0.12193419587E+02 -0.37899129440E+02 -0.12147783068E+02  0.41624417437E+02  0.00000000000E+00 0. -1.
</event>
<event>
 7    1  0.6830263E-012  0.5930194E+02  0.7816164E-02  0.1266605E+00
        -11   -1    0    0    0    0  0.00000000000E+00  0.00000000000E+00  0.45593999997E+02  0.45594000000E+02  0.51100000000E-03 0.  1.
         11   -1    0    0    0    0 -0.00000000000E+00 -0.00000000000E+00 -0.45593999997E+02  0.45594000000E+02  0.51100000000E-03 0. -1.
    9900012    2    1    2    0    0  0.30666748367E+02 -0.72803279734E+01 -0.48236859847E+01  0.59301943842E+02  0.49999999661E+02 0.  0.
        -12    1    1    2    0    0 -0.30666748367E+02  0.72803279734E+01  0.48236859847E+01  0.31886056158E+02  0.00000000000E+00 0.  1.
         11    1    3    3    0    0  0.15984037485E+01 -0.19450716182E+01  0.63189910491E+01  0.68020472126E+01  0.51100000000E-03 0. -1.
        -11    1    3    3    0    0  0.80815496647E+01 -0.81375670880E+01  0.14985070355E+02  0.18870182217E+02  0.51100000000E-03 0.  1.
         12    1    3    3    0    0  0.20986794954E+02  0.28023107328E+01 -0.26127747388E+02  0.33629714413E+02  0.00000000000E+00 0. -1.
</event>
<event>
 7    1  0.6830263E-012  0.5930191E+02  0.7816164E-02  0.1266605E+00
        -11   -1    0    0    0    0  0.00000000000E+00  0.00000000000E+00  0.45593999997E+02  0.45594000000E+02  0.51100000000E-03 0.  1.
         11   -1    0    0    0    0 -0.00000000000E+00 -0.00000000000E+00 -0.45593999997E+02  0.45594000000E+02  0.51100000000E-03 0. -1.
    9900012    2    1    2    0    0 -0.19680617133E+02  0.14729944183E+02 -0.20308245947E+02  0.59301908992E+02  0.49999936103E+02 0.  0.
        -12    1    1    2    0    0  0.19680617133E+02 -0.14729944183E+02  0.20308245947E+02  0.31886091008E+02  0.00000000000E+00 0.  1.
         11    1    3    3    0    0 -0.76757826613E+01  0.64242770331E-01 -0.18741611757E+02  0.20252648669E+02  0.51100000000E-03 0. -1.
        -11    1    3    3    0    0 -0.95379428808E+01 -0.64633786646E+01 -0.10861975403E+02  0.15834460145E+02  0.51100000000E-03 0.  1.
         12    1    3    3    0    0 -0.24668915908E+01  0.21129080077E+02  0.92953412136E+01  0.23214800178E+02  0.00000000000E+00 0. -1.
</event>
<event>
 7    1  0.6830263E-012  0.5930194E+02  0.7816164E-02  0.1266605E+00
        -11   -1    0    0    0    0  0.00000000000E+00  0.00000000000E+00  0.45593999997E+02  0.45594000000E+02  0.51100000000E-03 0.  1.
         11   -1    0    0    0    0 -0.00000000000E+00 -0.00000000000E+00 -0.45593999997E+02  0.45594000000E+02  0.51100000000E-03 0. -1.
    9900012    2    1    2    0    0 -0.75190058704E+01  0.28146916099E+02 -0.12959034706E+02  0.59301938536E+02  0.49999989985E+02 0.  0.
        -12    1    1    2    0    0  0.75190058704E+01 -0.28146916099E+02  0.12959034706E+02  0.31886061464E+02  0.00000000000E+00 0.  1.
         11    1    3    3    0    0  0.11567832291E+02  0.11631952142E+02 -0.85686986053E+01  0.18507826739E+02  0.51100000000E-03 0. -1.
        -11    1    3    3    0    0 -0.52382536682E+01  0.36765275161E+00  0.12547524455E+02  0.13602016036E+02  0.51100000000E-03 0.  1.
         12    1    3    3    0    0 -0.13848584494E+02  0.16147311205E+02 -0.16937860556E+02  0.27192095761E+02  0.00000000000E+00 0. -1.
</event>
<event>
 7    1  0.6830263E-012  0.5930194E+02  0.7816164E-02  0.1266605E+00
        -11   -1    0    0    0    0  0.00000000000E+00  0.00000000000E+00  0.45593999997E+02  0.45594000000E+02  0.51100000000E-03 0.  1.
         11   -1    0    0    0    0 -0.00000000000E+00 -0.00000000000E+00 -0.45593999997E+02  0.45594000000E+02  0.51100000000E-03 0. -1.
    9900012    2    1    2    0    0  0.23123165811E+02 -0.36128616135E+01 -0.21656119094E+02  0.59301936267E+02  0.49999985847E+02 0.  0.
        -12    1    1    2    0    0 -0.23123165811E+02  0.36128616135E+01  0.21656119094E+02  0.31886063733E+02  0.00000000000E+00 0.  1.
         11    1    3    3    0    0  0.58050650904E+01  0.13771320058E+00 -0.21868088478E+02  0.22625893122E+02  0.51100000000E-03 0. -1.
        -11    1    3    3    0    0  0.20506606720E+02  0.98061964404E+01 -0.42771117706E+00  0.22734672747E+02  0.51100000000E-03 0.  1.
        -12    1    3    3    0    0 -0.31885060000E+01 -0.13556771254E+02  0.63968056100E+00  0.13941370398E+02  0.00000000000E+00 0.  1.
</event>
<event>
 7    1  0.6830263E-012  0.5930195E+02  0.7816164E-02  0.1266605E+00
        -11   -1    0    0    0    0  0.00000000000E+00  0.00000000000E+00  0.45593999997E+02  0.45594000000E+02  0.51100000000E-03 0.  1.
         11   -1    0    0    0    0 -0.00000000000E+00 -0.00000000000E+00 -0.45593999997E+02  0.45594000000E+02  0.51100000000E-03 0. -1.
    9900012    2    1    2    0    0 -0.89745290940E+01 -0.18210435983E+02 -0.24587767111E+02  0.59301945954E+02  0.50000003513E+02 0.  0.
        -12    1    1    2    0    0  0.89745290940E+01  0.18210435983E+02  0.24587767111E+02  0.31886054046E+02  0.00000000000E+00 0.  1.
         11    1    3    3    0    0 -0.45373026184E+01  0.84988426940E+00  0.10168872819E+01  0.47268888634E+01  0.51100000000E-03 0. -1.
        -11    1    3    3    0    0  0.15076933549E+02  0.50603463686E+01 -0.29904596267E+01  0.16182208738E+02  0.51100000000E-03 0.  1.
         12    1    3    3    0    0 -0.19514160024E+02 -0.24120666621E+02 -0.22614194766E+02  0.38392848352E+02  0.00000000000E+00 0. -1.
</event>
<event>
 7    1  0.6830263E-012  0.5930195E+02  0.7816164E-02  0.1266605E+00
        -11   -1    0    0    0    0  0.00000000000E+00  0.00000000000E+00  0.45593999997E+02  0.45594000000E+02  0.51100000000E-03 0.  1.
         11   -1    0    0    0    0 -0.00000000000E+00 -0.00000000000E+00 -0.45593999997E+02  0.45594000000E+02  0.51100000000E-03 0. -1.
    9900012    2    1    2    0    0  0.31735533325E+02 -0.80620591571E+00 -0.29876964971E+01  0.59301947033E+02  0.50000005482E+02 0.  0.
        -12    1    1    2    0    0 -0.31735533325E+02  0.80620591571E+00  0.29876964971E+01  0.31886052967E+02  0.00000000000E+00 0.  1.
         11    1    3    3    0    0  0.22094418607E+01 -0.12755725406E+02 -0.36629666153E+01  0.13453902358E+02  0.51100000000E-03 0. -1.
        -11    1    3    3    0    0  0.18471525718E+02  0.93545781416E+00  0.15644329681E+02  0.24224314131E+02  0.51100000000E-03 0.  1.
         12    1    3    3    0    0  0.11054565747E+02  0.11014061676E+02 -0.14969059563E+02  0.21623730545E+02  0.00000000000E+00 0. -1.
</event>
<event>
 7    1  0.6830263E-012  0.5930194E+02  0.7816164E-02  0.1266605E+00
        -11   -1    0    0    0    0  0.00000000000E+00  0.00000000000E+00  0.45593999997E+02  0.45594000000E+02  0.51100000000E-03 0.  1.
         11   -1    0    0    0    0 -0.00000000000E+00 -0.00000000000E+00 -0.45593999997E+02  0.45594000000E+02  0.51100000000E-03 0. -1.
    9900012    2    1    2    0    0 -0.31603137441E+01  0.30108678729E+02  0.10010029423E+02  0.59301940243E+02  0.49999993097E+02 0.  0.
        -12    1    1    2    0    0  0.31603137441E+01 -0.30108678729E+02 -0.10010029423E+02  0.31886059757E+02  0.00000000000E+00 0.  1.
         11    1    3    3    0    0 -0.20200968891E+01  0.18908790141E+02  0.11743581308E+01  0.19052618017E+02  0.51100000000E-03 0. -1.
        -11    1    3    3    0    0 -0.17225234356E+02 -0.29058588612E+01  0.11123448373E+01  0.17504000275E+02  0.51100000000E-03 0.  1.
         12    1    3    3    0    0  0.16085017501E+02  0.14105747450E+02  0.77233264549E+01  0.22745321951E+02  0.00000000000E+00 0. -1.
</event>
<event>
 7    1  0.6830263E-012  0.5930189E+02  0.7816164E-02  0.1266605E+00
        -11   -1    0    0    0    0  0.00000000000E+00  0.00000000000E+00  0.45593999997E+02  0.45594000000E+02  0.51100000000E-03 0.  1.
         11   -1    0    0    0    0 -0.00000000000E+00 -0.00000000000E+00 -0.45593999997E+02  0.45594000000E+02  0.51100000000E-03 0. -1.
    9900012    2    1    2    0    0  0.23382521757E+02 -0.33060109643E+01 -0.21425492627E+02  0.59301893833E+02  0.49999908456E+02 0.  0.
        -12    1    1    2    0    0 -0.23382521757E+02  0.33060109643E+01  0.21425492627E+02  0.31886106167E+02  0.00000000000E+00 0.  1.
         11    1    3    3    0    0  0.15611540287E+02  0.12754126184E+02 -0.22414978322E+01  0.20283299476E+02  0.51100000000E-03 0. -1.
        -11    1    3    3    0    0  0.82938723536E+01  0.32173987548E+01 -0.17536285567E+02  0.19663704765E+02  0.51100000000E-03 0.  1.
        -12    1    3    3    0    0 -0.52289088368E+00 -0.19277535903E+02 -0.16477092277E+01  0.19354889591E+02  0.00000000000E+00 0.  1.
</event>
<event>
 7    1  0.6830263E-012  0.5930204E+02  0.7816164E-02  0.1266604E+00
        -11   -1    0    0    0    0  0.00000000000E+00  0.00000000000E+00  0.45593999997E+02  0.45594000000E+02  0.51100000000E-03 0. -1.
         11   -1    0    0    0    0 -0.00000000000E+00 -0.00000000000E+00 -0.45593999997E+02  0.45594000000E+02  0.51100000000E-03 0.  1.
    9900012    2    1    2    0    0  0.22821004285E+02  0.98175472568E+01  0.19988292964E+02  0.59302041863E+02  0.50000178427E+02 0.  0.
        -12    1    1    2    0    0 -0.22821004285E+02 -0.98175472568E+01 -0.19988292964E+02  0.31885958137E+02  0.00000000000E+00 0.  1.
         11    1    3    3    0    0  0.18849081849E+02  0.14461561933E+02  0.61769878515E+01  0.24547501691E+02  0.51100000000E-03 0. -1.
        -11    1    3    3    0    0  0.11571743920E+02 -0.16054819983E+01  0.20889054662E+02  0.23933980754E+02  0.51100000000E-03 0.  1.
        -12    1    3    3    0    0 -0.75998214833E+01 -0.30385326777E+01 -0.70777495503E+01  0.10820559418E+02  0.00000000000E+00 0.  1.
</event>
<event>
 7    1  0.6830263E-012  0.5930195E+02  0.7816164E-02  0.1266605E+00
        -11   -1    0    0    0    0  0.00000000000E+00  0.00000000000E+00  0.45593999997E+02  0.45594000000E+02  0.51100000000E-03 0. -1.
         11   -1    0    0    0    0 -0.00000000000E+00 -0.00000000000E+00 -0.45593999997E+02  0.45594000000E+02  0.51100000000E-03 0.  1.
    9900012    2    1    2    0    0  0.29815548919E+01 -0.29720133406E+02  0.11159928036E+02  0.59301953004E+02  0.50000016371E+02 0.  0.
        -12    1    1    2    0    0 -0.29815548919E+01  0.29720133406E+02 -0.11159928036E+02  0.31886046996E+02  0.00000000000E+00 0.  1.
         11    1    3    3    0    0  0.12393585632E+02  0.51043694939E+01  0.12353166501E+02  0.18227898278E+02  0.51100000000E-03 0. -1.
        -11    1    3    3    0    0  0.36715745957E+01 -0.60950075200E-01  0.11723610381E+01  0.38546861855E+01  0.51100000000E-03 0.  1.
        -12    1    3    3    0    0 -0.13083605336E+02 -0.34763552825E+02 -0.23655995034E+01  0.37219368541E+02  0.00000000000E+00 0.  1.
</event>
<event>
 7    1  0.6830263E-012  0.5930193E+02  0.7816164E-02  0.1266605E+00
        -11   -1    0    0    0    0  0.00000000000E+00  0.00000000000E+00  0.45593999997E+02  0.45594000000E+02  0.51100000000E-03 0.  1.
         11   -1    0    0    0    0 -0.00000000000E+00 -0.00000000000E+00 -0.45593999997E+02  0.45594000000E+02  0.51100000000E-03 0. -1.
    9900012    2    1    2    0    0 -0.11742754020E+01 -0.17982093698E+02 -0.26305642291E+02  0.59301930427E+02  0.49999975196E+02 0.  0.
        -12    1    1    2    0    0  0.11742754020E+01  0.17982093698E+02  0.26305642291E+02  0.31886069573E+02  0.00000000000E+00 0.  1.
         11    1    3    3    0    0 -0.82280698963E+01 -0.10555662938E+02 -0.28975496107E+02  0.31917119689E+02  0.51100000000E-03 0. -1.
        -11    1    3    3    0    0  0.13050568973E+02 -0.57552427223E+01 -0.69968776464E+01  0.15886990476E+02  0.51100000000E-03 0.  1.
        -12    1    3    3    0    0 -0.59967744790E+01 -0.16711880376E+01  0.96667314632E+01  0.11497820263E+02  0.00000000000E+00 0.  1.
</event>
<event>
 7    1  0.6830263E-012  0.5930196E+02  0.7816164E-02  0.1266605E+00
        -11   -1    0    0    0    0  0.00000000000E+00  0.00000000000E+00  0.45593999997E+02  0.45594000000E+02  0.51100000000E-03 0. -1.
         11   -1    0    0    0    0 -0.00000000000E+00 -0.00000000000E+00 -0.45593999997E+02  0.45594000000E+02  0.51100000000E-03 0.  1.
    9900012    2    1    2    0    0  0.60075755152E+00 -0.31837935731E+02 -0.16444842606E+01  0.59301962465E+02  0.50000033624E+02 0.  0.
        -12    1    1    2    0    0 -0.60075755152E+00  0.31837935731E+02  0.16444842606E+01  0.31886037535E+02  0.00000000000E+00 0.  1.
         11    1    3    3    0    0 -0.74205696179E+01  0.14153400592E+00  0.12079870187E+02  0.14177734280E+02  0.51100000000E-03 0. -1.
        -11    1    3    3    0    0 -0.97762944056E+01 -0.15550828337E+02 -0.89671443501E+01  0.20440495892E+02  0.51100000000E-03 0.  1.
        -12    1    3    3    0    0  0.17797621575E+02 -0.16428641400E+02 -0.47572100972E+01  0.24683732292E+02  0.00000000000E+00 0.  1.
</event>
<event>
 7    1  0.6830263E-012  0.5930193E+02  0.7816164E-02  0.1266605E+00
        -11   -1    0    0    0    0  0.00000000000E+00  0.00000000000E+00  0.45593999997E+02  0.45594000000E+02  0.51100000000E-03 0.  1.
         11   -1    0    0    0    0 -0.00000000000E+00 -0.00000000000E+00 -0.45593999997E+02  0.45594000000E+02  0.51100000000E-03 0. -1.
    9900012    2    1    2    0    0 -0.10190355221E+02 -0.85561043711E+01 -0.28977083627E+02  0.59301927225E+02  0.49999969355E+02 0.  0.
        -12    1    1    2    0    0  0.10190355221E+02  0.85561043711E+01  0.28977083627E+02  0.31886072775E+02  0.00000000000E+00 0.  1.
         11    1    3    3    0    0  0.36992928907E+00 -0.43813598154E+01  0.30182714842E+01  0.53332095894E+01  0.51100000000E-03 0.  1.
        -11    1    3    3    0    0 -0.45730042577E+00 -0.83720227043E+01  0.85489570349E+01  0.11974328979E+02  0.51100000000E-03 0. -1.
         12    1    3    3    0    0 -0.10102984085E+02  0.41972781486E+01 -0.40544312146E+02  0.41994388657E+02  0.00000000000E+00 0. -1.
</event>
<event>
 7    1  0.6830263E-012  0.5930184E+02  0.7816164E-02  0.1266605E+00
        -11   -1    0    0    0    0  0.00000000000E+00  0.00000000000E+00  0.45593999997E+02  0.45594000000E+02  0.51100000000E-03 0.  1.
         11   -1    0    0    0    0 -0.00000000000E+00 -0.00000000000E+00 -0.45593999997E+02  0.45594000000E+02  0.51100000000E-03 0. -1.
    9900012    2    1    2    0    0 -0.16010641447E+02 -0.19907475929E+02  0.19080857890E+02  0.59301837245E+02  0.49999805253E+02 0.  0.
        -12    1    1    2    0    0  0.16010641447E+02  0.19907475929E+02 -0.19080857890E+02  0.31886162755E+02  0.00000000000E+00 0.  1.
         11    1    3    3    0    0  0.27937695898E+01  0.12028699238E+02  0.11046089996E+02  0.16568369212E+02  0.51100000000E-03 0. -1.
        -11    1    3    3    0    0 -0.35605680729E+01 -0.13166652170E+02  0.12077076974E+02  0.18217962643E+02  0.51100000000E-03 0.  1.
        -12    1    3    3    0    0 -0.15243842964E+02 -0.18769522997E+02 -0.40423090795E+01  0.24515505390E+02  0.00000000000E+00 0.  1.
</event>
<event>
 7    1  0.6830263E-012  0.5930194E+02  0.7816164E-02  0.1266605E+00
        -11   -1    0    0    0    0  0.00000000000E+00  0.00000000000E+00  0.45593999997E+02  0.45594000000E+02  0.51100000000E-03 0.  1.
         11   -1    0    0    0    0 -0.00000000000E+00 -0.00000000000E+00 -0.45593999997E+02  0.45594000000E+02  0.51100000000E-03 0. -1.
    9900012    2    1    2    0    0  0.92045975966E+01  0.18077404043E+02 -0.24600886079E+02  0.59301941139E+02  0.49999994731E+02 0.  0.
        -12    1    1    2    0    0 -0.92045975966E+01 -0.18077404043E+02  0.24600886079E+02  0.31886058861E+02  0.00000000000E+00 0.  1.
         11    1    3    3    0    0 -0.51708171177E-01  0.40607536468E+01 -0.44339940989E+01  0.60127113556E+01  0.51100000000E-03 0. -1.
        -11    1    3    3    0    0  0.21735224190E+02  0.19012830682E+02  0.20986063898E+00  0.28878222640E+02  0.51100000000E-03 0.  1.
         12    1    3    3    0    0 -0.12478918422E+02 -0.49961802857E+01 -0.20376752619E+02  0.24411007143E+02  0.00000000000E+00 0. -1.
</event>
<event>
 7    1  0.6830263E-012  0.5930194E+02  0.7816164E-02  0.1266605E+00
        -11   -1    0    0    0    0  0.00000000000E+00  0.00000000000E+00  0.45593999997E+02  0.45594000000E+02  0.51100000000E-03 0.  1.
         11   -1    0    0    0    0 -0.00000000000E+00 -0.00000000000E+00 -0.45593999997E+02  0.45594000000E+02  0.51100000000E-03 0. -1.
    9900012    2    1    2    0    0  0.74657624464E+01 -0.40842527410E+01 -0.30729498843E+02  0.59301939904E+02  0.49999992478E+02 0.  0.
        -12    1    1    2    0    0 -0.74657624464E+01  0.40842527410E+01  0.30729498843E+02  0.31886060096E+02  0.00000000000E+00 0.  1.
         11    1    3    3    0    0  0.16497890869E+01 -0.53237982553E+01  0.19624312723E+01  0.59089566469E+01  0.51100000000E-03 0. -1.
        -11    1    3    3    0    0 -0.80364731149E+01  0.70778033110E+01  0.57225251026E+01  0.12141972395E+02  0.51100000000E-03 0.  1.
         12    1    3    3    0    0  0.13852446474E+02 -0.58382577967E+01 -0.38414455218E+02  0.41251010861E+02  0.00000000000E+00 0. -1.
</event>
<event>
 7    1  0.6830263E-012  0.5930195E+02  0.7816164E-02  0.1266605E+00
        -11   -1    0    0    0    0  0.00000000000E+00  0.00000000000E+00  0.45593999997E+02  0.45594000000E+02  0.51100000000E-03 0. -1.
         11   -1    0    0    0    0 -0.00000000000E+00 -0.00000000000E+00 -0.45593999997E+02  0.45594000000E+02  0.51100000000E-03 0.  1.
    9900012    2    1    2    0    0 -0.72325051749E+01  0.31034388360E+02  0.11303994549E+01  0.59301949838E+02  0.50000010596E+02 0.  0.
        -12    1    1    2    0    0  0.72325051749E+01 -0.31034388360E+02 -0.11303994549E+01  0.31886050162E+02  0.00000000000E+00 0.  1.
         11    1    3    3    0    0 -0.17324039629E+02  0.14449076015E+02  0.17652898084E+02  0.28644771910E+02  0.51100000000E-03 0. -1.
        -11    1    3    3    0    0 -0.40758200454E+01  0.46263834826E+01 -0.55784735735E+00  0.61908745025E+01  0.51100000000E-03 0.  1.
        -12    1    3    3    0    0  0.14167354500E+02  0.11958928863E+02 -0.15964651272E+02  0.24466303425E+02  0.00000000000E+00 0.  1.
</event>
<event>
 7    1  0.6830263E-012  0.5930223E+02  0.7816164E-02  0.1266604E+00
        -11   -1    0    0    0    0  0.00000000000E+00  0.00000000000E+00  0.45593999997E+02  0.45594000000E+02  0.51100000000E-03 0.  1.
         11   -1    0    0    0    0 -0.00000000000E+00 -0.00000000000E+00 -0.45593999997E+02  0.45594000000E+02  0.51100000000E-03 0. -1.
    9900012    2    1    2    0    0  0.10608466069E+02  0.22562959283E+02 -0.19876502320E+02  0.59302234705E+02  0.50000530123E+02 0.  0.
        -12    1    1    2    0    0 -0.10608466069E+02 -0.22562959283E+02  0.19876502320E+02  0.31885765295E+02  0.00000000000E+00 0.  1.
         11    1    3    3    0    0  0.55563022830E+01  0.10161854877E+02 -0.11550057847E+01  0.11639150666E+02  0.51100000000E-03 0. -1.
        -11    1    3    3    0    0  0.63618834745E+01  0.24791057876E+02 -0.51223886289E+00  0.25599462902E+02  0.51100000000E-03 0.  1.
        -12    1    3    3    0    0 -0.13097196880E+01 -0.12389953470E+02 -0.18209257673E+02  0.22063621136E+02  0.00000000000E+00 0.  1.
</event>
<event>
 7    1  0.6830263E-012  0.5930195E+02  0.7816164E-02  0.1266605E+00
        -11   -1    0    0    0    0  0.00000000000E+00  0.00000000000E+00  0.45593999997E+02  0.45594000000E+02  0.51100000000E-03 0. -1.
         11   -1    0    0    0    0 -0.00000000000E+00 -0.00000000000E+00 -0.45593999997E+02  0.45594000000E+02  0.51100000000E-03 0.  1.
    9900012    2    1    2    0    0  0.11960578051E+02  0.22215538214E+02  0.19497048440E+02  0.59301945629E+02  0.50000002921E+02 0.  0.
        -12    1    1    2    0    0 -0.11960578051E+02 -0.22215538214E+02 -0.19497048440E+02  0.31886054371E+02  0.00000000000E+00 0.  1.
         11    1    3    3    0    0  0.60140518555E+01  0.70434728927E+01  0.10987117622E+02  0.14369971608E+02  0.51100000000E-03 0. -1.
        -11    1    3    3    0    0 -0.13747352550E+02  0.19495697352E+02  0.61212958753E+01  0.24628077083E+02  0.51100000000E-03 0.  1.
         12    1    3    3    0    0  0.19693878746E+02 -0.43236320308E+01  0.23886349434E+01  0.20303896938E+02  0.00000000000E+00 0. -1.
</event>
<event>
 7    1  0.6830263E-012  0.5930193E+02  0.7816164E-02  0.1266605E+00
        -11   -1    0    0    0    0  0.00000000000E+00  0.00000000000E+00  0.45593999997E+02  0.45594000000E+02  0.51100000000E-03 0.  1.
         11   -1    0    0    0    0 -0.00000000000E+00 -0.00000000000E+00 -0.45593999997E+02  0.45594000000E+02  0.51100000000E-03 0. -1.
    9900012    2    1    2    0    0 -0.25703299956E+02  0.14147936335E+02 -0.12485905238E+02  0.59301928421E+02  0.49999971537E+02 0.  0.
        -12    1    1    2    0    0  0.25703299956E+02 -0.14147936335E+02  0.12485905238E+02  0.31886071579E+02  0.00000000000E+00 0.  1.
         11    1    3    3    0    0 -0.55412341578E+01  0.14234552098E+02  0.31692213480E+01  0.15600375432E+02  0.51100000000E-03 0. -1.
        -11    1    3    3    0    0 -0.14668142234E+02  0.11784455616E+02  0.48030586859E+01  0.19418989771E+02  0.51100000000E-03 0.  1.
        -12    1    3    3    0    0 -0.54939235641E+01 -0.11871071378E+02 -0.20458185271E+02  0.24282563217E+02  0.00000000000E+00 0.  1.
</event>
<event>
 7    1  0.6830263E-012  0.5930193E+02  0.7816164E-02  0.1266605E+00
        -11   -1    0    0    0    0  0.00000000000E+00  0.00000000000E+00  0.45593999997E+02  0.45594000000E+02  0.51100000000E-03 0.  1.
         11   -1    0    0    0    0 -0.00000000000E+00 -0.00000000000E+00 -0.45593999997E+02  0.45594000000E+02  0.51100000000E-03 0. -1.
    9900012    2    1    2    0    0  0.25727353133E+02  0.14956911306E+02  0.11450581159E+02  0.59301926175E+02  0.49999967442E+02 0.  0.
        -12    1    1    2    0    0 -0.25727353133E+02 -0.14956911306E+02 -0.11450581159E+02  0.31886073825E+02  0.00000000000E+00 0.  1.
         11    1    3    3    0    0 -0.83433455430E+01  0.51130163486E+01  0.80802975391E+01  0.12690372714E+02  0.51100000000E-03 0. -1.
        -11    1    3    3    0    0 -0.34063465364E+01 -0.43362168321E+01 -0.26049362303E+01  0.60984970415E+01  0.51100000000E-03 0.  1.
        -12    1    3    3    0    0  0.37477045213E+02  0.14180111789E+02  0.59752198507E+01  0.40513056420E+02  0.00000000000E+00 0.  1.
</event>
<event>
 7    1  0.7787490E-012  0.5930221E+02  0.7816164E-02  0.1266604E+00
        -11   -1    0    0    0    0  0.00000000000E+00  0.00000000000E+00  0.45593999997E+02  0.45594000000E+02  0.51100000000E-03 0. -1.
         11   -1    0    0    0    0 -0.00000000000E+00 -0.00000000000E+00 -0.45593999997E+02  0.45594000000E+02  0.51100000000E-03 0.  1.
    9900012    2    1    2    0    0 -0.70494916597E+00  0.20368123477E+02  0.24522364325E+02  0.59302207562E+02  0.50000480622E+02 0.  0.
        -12    1    1    2    0    0  0.70494916597E+00 -0.20368123477E+02 -0.24522364325E+02  0.31885792438E+02  0.00000000000E+00 0.  1.
         11    1    3    3    0    0 -0.13101815960E+02  0.10101139668E+01  0.34260270405E+01  0.13579969558E+02  0.51100000000E-03 0. -1.
        -11    1    3    3    0    0  0.39445990652E+01  0.13800977166E+02 -0.69207753107E+01  0.15934991800E+02  0.51100000000E-03 0.  1.
         12    1    3    3    0    0  0.84522677284E+01  0.55570323444E+01  0.28017112595E+02  0.29787246204E+02  0.00000000000E+00 0. -1.
</event>
<event>
 7    1  0.6830263E-012  0.5930202E+02  0.7816164E-02  0.1266605E+00
        -11   -1    0    0    0    0  0.00000000000E+00  0.00000000000E+00  0.45593999997E+02  0.45594000000E+02  0.51100000000E-03 0.  1.
         11   -1    0    0    0    0 -0.00000000000E+00 -0.00000000000E+00 -0.45593999997E+02  0.45594000000E+02  0.51100000000E-03 0. -1.
    9900012    2    1    2    0    0  0.99254340766E+01  0.28570096728E+02 -0.10097088492E+02  0.59302017740E+02  0.50000134434E+02 0.  0.
        -12    1    1    2    0    0 -0.99254340766E+01 -0.28570096728E+02  0.10097088492E+02  0.31885982260E+02  0.00000000000E+00 0.  1.
         11    1    3    3    0    0  0.10639538901E+02  0.37765824128E+01  0.39800782347E+00  0.11296936454E+02  0.51100000000E-03 0. -1.
        -11    1    3    3    0    0  0.17688231205E+02  0.28402562770E+01 -0.66170672160E+01  0.19097805049E+02  0.51100000000E-03 0.  1.
         12    1    3    3    0    0 -0.18402336029E+02  0.21953258038E+02 -0.38780290995E+01  0.28907276238E+02  0.00000000000E+00 0. -1.
</event>
<event>
 7    1  0.6830263E-012  0.5930194E+02  0.7816164E-02  0.1266605E+00
        -11   -1    0    0    0    0  0.00000000000E+00  0.00000000000E+00  0.45593999997E+02  0.45594000000E+02  0.51100000000E-03 0. -1.
         11   -1    0    0    0    0 -0.00000000000E+00 -0.00000000000E+00 -0.45593999997E+02  0.45594000000E+02  0.51100000000E-03 0.  1.
    9900012    2    1    2    0    0 -0.23096832232E+02 -0.12334800767E+02  0.18196418046E+02  0.59301943505E+02  0.49999999046E+02 0.  0.
        -12    1    1    2    0    0  0.23096832232E+02  0.12334800767E+02 -0.18196418046E+02  0.31886056495E+02  0.00000000000E+00 0.  1.
         11    1    3    3    0    0 -0.23252148385E+02 -0.13308938823E+02 -0.22694373509E+01  0.26887554802E+02  0.51100000000E-03 0. -1.
        -11    1    3    3    0    0 -0.76561819134E+01 -0.92167866763E+01  0.12440863973E+02  0.17272561327E+02  0.51100000000E-03 0.  1.
        -12    1    3    3    0    0  0.78114980655E+01  0.10190924732E+02  0.80249914234E+01  0.15141827376E+02  0.00000000000E+00 0.  1.
</event>
<event>
 7    1  0.6830263E-012  0.5930191E+02  0.7816164E-02  0.1266605E+00
        -11   -1    0    0    0    0  0.00000000000E+00  0.00000000000E+00  0.45593999997E+02  0.45594000000E+02  0.51100000000E-03 0.  1.
         11   -1    0    0    0    0 -0.00000000000E+00 -0.00000000000E+00 -0.45593999997E+02  0.45594000000E+02  0.51100000000E-03 0. -1.
    9900012    2    1    2    0    0 -0.99117083498E+01 -0.70927123166E+00 -0.30298151447E+02  0.59301905708E+02  0.49999930115E+02 0.  0.
        -12    1    1    2    0    0  0.99117083498E+01  0.70927123166E+00  0.30298151447E+02  0.31886094292E+02  0.00000000000E+00 0.  1.
         11    1    3    3    0    0  0.17726487745E+01  0.14381149784E+02 -0.25524258308E+02  0.29350426151E+02  0.51100000000E-03 0. -1.
        -11    1    3    3    0    0 -0.30466760981E+01 -0.10714605932E+01  0.83127968058E+01  0.89181194231E+01  0.51100000000E-03 0.  1.
        -12    1    3    3    0    0 -0.86376810262E+01 -0.14018960423E+02 -0.13086689944E+02  0.21033360134E+02  0.00000000000E+00 0.  1.
</event>
<event>
 7    1  0.6830263E-012  0.5930202E+02  0.7816164E-02  0.1266604E+00
        -11   -1    0    0    0    0  0.00000000000E+00  0.00000000000E+00  0.45593999997E+02  0.45594000000E+02  0.51100000000E-03 0. -1.
         11   -1    0    0    0    0 -0.00000000000E+00 -0.00000000000E+00 -0.45593999997E+02  0.45594000000E+02  0.51100000000E-03 0.  1.
    9900012    2    1    2    0    0  0.72499368284E+01  0.13458766793E+00  0.31050535699E+02  0.59302024006E+02  0.50000145862E+02 0.  0.
        -12    1    1    2    0    0 -0.72499368284E+01 -0.13458766793E+00 -0.31050535699E+02  0.31885975994E+02  0.00000000000E+00 0.  1.
         11    1    3    3    0    0  0.26854723801E+01  0.94230761020E+01  0.91794031523E+01  0.13426375819E+02  0.51100000000E-03 0. -1.
        -11    1    3    3    0    0  0.11755386027E+02 -0.21541208155E+01  0.30380220406E+02  0.32646395349E+02  0.51100000000E-03 0.  1.
        -12    1    3    3    0    0 -0.71909215787E+01 -0.71343676185E+01 -0.85090878592E+01  0.13229252838E+02  0.00000000000E+00 0.  1.
</event>
<event>
 7    1  0.6830263E-012  0.5930196E+02  0.7816164E-02  0.1266605E+00
        -11   -1    0    0    0    0  0.00000000000E+00  0.00000000000E+00  0.45593999997E+02  0.45594000000E+02  0.51100000000E-03 0. -1.
         11   -1    0    0    0    0 -0.00000000000E+00 -0.00000000000E+00 -0.45593999997E+02  0.45594000000E+02  0.51100000000E-03 0.  1.
    9900012    2    1    2    0    0  0.91275659944E+01  0.30372334729E+02  0.33058285041E+01  0.59301957913E+02  0.50000025324E+02 0.  0.
        -12    1    1    2    0    0 -0.91275659944E+01 -0.30372334729E+02 -0.33058285041E+01  0.31886042087E+02  0.00000000000E+00 0.  1.
         11    1    3    3    0    0 -0.53185473507E+01  0.15486043990E+02  0.92950410243E+01  0.18828231257E+02  0.51100000000E-03 0. -1.
        -11    1    3    3    0    0 -0.16271748500E+01  0.16010796219E+02 -0.15010984836E+02  0.22007338766E+02  0.51100000000E-03 0.  1.
         12    1    3    3    0    0  0.16073288195E+02 -0.11245054800E+01  0.90217723157E+01  0.18466387890E+02  0.00000000000E+00 0. -1.
</event>
<event>
 7    1  0.6830263E-012  0.5930193E+02  0.7816164E-02  0.1266605E+00
        -11   -1    0    0    0    0  0.00000000000E+00  0.00000000000E+00  0.45593999997E+02  0.45594000000E+02  0.51100000000E-03 0. -1.
         11   -1    0    0    0    0 -0.00000000000E+00 -0.00000000000E+00 -0.45593999997E+02  0.45594000000E+02  0.51100000000E-03 0.  1.
    9900012    2    1    2    0    0 -0.26019960613E+02 -0.88834733742E+01  0.16148277057E+02  0.59301932488E+02  0.49999978954E+02 0.  0.
        -12    1    1    2    0    0  0.26019960613E+02  0.88834733742E+01 -0.16148277057E+02  0.31886067512E+02  0.00000000000E+00 0.  1.
         11    1    3    3    0    0 -0.20305269532E+01  0.13301924565E+02 -0.71536283981E+01  0.15239377820E+02  0.51100000000E-03 0. -1.
        -11    1    3    3    0    0  0.16916622076E+01  0.16458624734E+01  0.13675157126E+01  0.27277616815E+01  0.51100000000E-03 0.  1.
         12    1    3    3    0    0 -0.25681095867E+02 -0.23831260412E+02  0.21934389743E+02  0.41334792986E+02  0.00000000000E+00 0. -1.
</event>
<event>
 7    1  0.6830263E-012  0.5930212E+02  0.7816164E-02  0.1266604E+00
        -11   -1    0    0    0    0  0.00000000000E+00  0.00000000000E+00  0.45593999997E+02  0.45594000000E+02  0.51100000000E-03 0. -1.
         11   -1    0    0    0    0 -0.00000000000E+00 -0.00000000000E+00 -0.45593999997E+02  0.45594000000E+02  0.51100000000E-03 0.  1.
    9900012    2    1    2    0    0 -0.11696956354E+02  0.19174157532E+02  0.22632765043E+02  0.59302122899E+02  0.50000326218E+02 0.  0.
        -12    1    1    2    0    0  0.11696956354E+02 -0.19174157532E+02 -0.22632765043E+02  0.31885877101E+02  0.00000000000E+00 0.  1.
         11    1    3    3    0    0 -0.18734693177E+01  0.35524007034E+01 -0.59858357267E+01  0.72083054631E+01  0.51100000000E-03 0. -1.
        -11    1    3    3    0    0 -0.10889139528E+02  0.12791785119E+02 -0.56260055735E+01  0.17715955102E+02  0.51100000000E-03 0.  1.
         12    1    3    3    0    0  0.10656524916E+01  0.28299717094E+01  0.34244606343E+02  0.34377862335E+02  0.00000000000E+00 0. -1.
</event>
<event>
 7    1  0.6830263E-012  0.5930194E+02  0.7816164E-02  0.1266605E+00
        -11   -1    0    0    0    0  0.00000000000E+00  0.00000000000E+00  0.45593999997E+02  0.45594000000E+02  0.51100000000E-03 0. -1.
         11   -1    0    0    0    0 -0.00000000000E+00 -0.00000000000E+00 -0.45593999997E+02  0.45594000000E+02  0.51100000000E-03 0.  1.
    9900012    2    1    2    0    0 -0.78969268397E+01  0.19042477165E+02  0.24325782247E+02  0.59301936085E+02  0.49999985514E+02 0.  0.
        -12    1    1    2    0    0  0.78969268397E+01 -0.19042477165E+02 -0.24325782247E+02  0.31886063915E+02  0.00000000000E+00 0.  1.
         11    1    3    3    0    0 -0.11261208514E+02 -0.63687549362E+01  0.97952422860E+01  0.16227218750E+02  0.51100000000E-03 0. -1.
        -11    1    3    3    0    0  0.11440386409E+01 -0.12079035797E+01 -0.79746492981E+01  0.81463419495E+01  0.51100000000E-03 0.  1.
         12    1    3    3    0    0  0.22202430337E+01  0.26619135681E+02  0.22505189259E+02  0.34928375386E+02  0.00000000000E+00 0. -1.
</event>
<event>
 7    1  0.6830263E-012  0.5930199E+02  0.7816164E-02  0.1266605E+00
        -11   -1    0    0    0    0  0.00000000000E+00  0.00000000000E+00  0.45593999997E+02  0.45594000000E+02  0.51100000000E-03 0.  1.
         11   -1    0    0    0    0 -0.00000000000E+00 -0.00000000000E+00 -0.45593999997E+02  0.45594000000E+02  0.51100000000E-03 0. -1.
    9900012    2    1    2    0    0 -0.23561365038E+02 -0.18396460174E+02 -0.11097281799E+02  0.59301994720E+02  0.50000092450E+02 0.  0.
        -12    1    1    2    0    0  0.23561365038E+02  0.18396460174E+02  0.11097281799E+02  0.31886005280E+02  0.00000000000E+00 0.  1.
         11    1    3    3    0    0  0.44501283377E+01  0.39518460987E+01 -0.20620359082E+01  0.62986285934E+01  0.51100000000E-03 0. -1.
        -11    1    3    3    0    0 -0.62409168908E-01 -0.22452903244E+02  0.28477399734E+01  0.22632860672E+02  0.51100000000E-03 0.  1.
        -12    1    3    3    0    0 -0.27949084207E+02  0.10459697082E+00 -0.11882985864E+02  0.30370505455E+02  0.00000000000E+00 0.  1.
</event>
<event>
 7    1  0.6830263E-012  0.5930195E+02  0.7816164E-02  0.1266605E+00
        -11   -1    0    0    0    0  0.00000000000E+00  0.00000000000E+00  0.45593999997E+02  0.45594000000E+02  0.51100000000E-03 0. -1.
         11   -1    0    0    0    0 -0.00000000000E+00 -0.00000000000E+00 -0.45593999997E+02  0.45594000000E+02  0.51100000000E-03 0.  1.
    9900012    2    1    2    0    0  0.11809882701E+02  0.19116299219E+02  0.22623308952E+02  0.59301947670E+02  0.50000006643E+02 0.  0.
        -12    1    1    2    0    0 -0.11809882701E+02 -0.19116299219E+02 -0.22623308952E+02  0.31886052330E+02  0.00000000000E+00 0.  1.
         11    1    3    3    0    0  0.23050471392E+01  0.28228510683E+01  0.48910583014E+01  0.60995230991E+01  0.51100000000E-03 0. -1.
        -11    1    3    3    0    0  0.76427512369E+01 -0.99944835463E+01  0.23103080728E+02  0.26306913297E+02  0.51100000000E-03 0.  1.
         12    1    3    3    0    0  0.18620843250E+01  0.26287931697E+02 -0.53708300777E+01  0.26895511274E+02  0.00000000000E+00 0. -1.
</event>
<event>
 7    1  0.6830263E-012  0.5930197E+02  0.7816164E-02  0.1266605E+00
        -11   -1    0    0    0    0  0.00000000000E+00  0.00000000000E+00  0.45593999997E+02  0.45594000000E+02  0.51100000000E-03 0.  1.
         11   -1    0    0    0    0 -0.00000000000E+00 -0.00000000000E+00 -0.45593999997E+02  0.45594000000E+02  0.51100000000E-03 0. -1.
    9900012    2    1    2    0    0  0.21553750052E+02 -0.10085158181E+02 -0.21223667517E+02  0.59301974539E+02  0.50000055646E+02 0.  0.
        -12    1    1    2    0    0 -0.21553750052E+02  0.10085158181E+02  0.21223667517E+02  0.31886025461E+02  0.00000000000E+00 0.  1.
         11    1    3    3    0    0  0.12870042098E+01 -0.21379807974E+02 -0.17050741531E+02  0.27376638871E+02  0.51100000000E-03 0. -1.
        -11    1    3    3    0    0  0.46301594728E+01 -0.42814107000E+01  0.49764874275E+01  0.80333232042E+01  0.51100000000E-03 0.  1.
         12    1    3    3    0    0  0.15636586369E+02  0.15576060494E+02 -0.91494134128E+01  0.23892012464E+02  0.00000000000E+00 0. -1.
</event>
<event>
 7    1  0.6830263E-012  0.5930215E+02  0.7816164E-02  0.1266604E+00
        -11   -1    0    0    0    0  0.00000000000E+00  0.00000000000E+00  0.45593999997E+02  0.45594000000E+02  0.51100000000E-03 0.  1.
         11   -1    0    0    0    0 -0.00000000000E+00 -0.00000000000E+00 -0.45593999997E+02  0.45594000000E+02  0.51100000000E-03 0. -1.
    9900012    2    1    2    0    0 -0.31496864728E+02  0.49633595299E+01 -0.14061389855E+00  0.59302153645E+02  0.50000382290E+02 0.  0.
        -12    1    1    2    0    0  0.31496864728E+02 -0.49633595299E+01  0.14061389855E+00  0.31885846355E+02  0.00000000000E+00 0.  1.
         11    1    3    3    0    0 -0.10463527145E+02 -0.15504902155E+01 -0.17654584713E+01  0.10724097356E+02  0.51100000000E-03 0. -1.
        -11    1    3    3    0    0 -0.13649550401E+02  0.78181330843E+01  0.21898349813E+02  0.26962402635E+02  0.51100000000E-03 0.  1.
         12    1    3    3    0    0 -0.73837871814E+01 -0.13042833389E+01 -0.20273505240E+02  0.21615653654E+02  0.00000000000E+00 0. -1.
</event>
<event>
 7    1  0.6830263E-012  0.5930195E+02  0.7816164E-02  0.1266605E+00
        -11   -1    0    0    0    0  0.00000000000E+00  0.00000000000E+00  0.45593999997E+02  0.45594000000E+02  0.51100000000E-03 0. -1.
         11   -1    0    0    0    0 -0.00000000000E+00 -0.00000000000E+00 -0.45593999997E+02  0.45594000000E+02  0.51100000000E-03 0.  1.
    9900012    2    1    2    0    0  0.24638054840E+02 -0.87054408874E-01  0.20240525002E+02  0.59301950117E+02  0.50000011106E+02 0.  0.
        -12    1    1    2    0    0 -0.24638054840E+02  0.87054408874E-01 -0.20240525002E+02  0.31886049883E+02  0.00000000000E+00 0.  1.
         11    1    3    3    0    0  0.46612792598E+01  0.29184113539E+01  0.12617896825E+01  0.56424075209E+01  0.51100000000E-03 0.  1.
        -11    1    3    3    0    0  0.26490410476E+02  0.12946417993E+02  0.21159567945E+02  0.36291581695E+02  0.51100000000E-03 0. -1.
        -12    1    3    3    0    0 -0.65136348955E+01 -0.15951883756E+02 -0.21808326256E+01  0.17367960901E+02  0.00000000000E+00 0.  1.
</event>
<event>
 7    1  0.6830263E-012  0.5930195E+02  0.7816164E-02  0.1266605E+00
        -11   -1    0    0    0    0  0.00000000000E+00  0.00000000000E+00  0.45593999997E+02  0.45594000000E+02  0.51100000000E-03 0.  1.
         11   -1    0    0    0    0 -0.00000000000E+00 -0.00000000000E+00 -0.45593999997E+02  0.45594000000E+02  0.51100000000E-03 0. -1.
    9900012    2    1    2    0    0  0.58638718108E+01 -0.97045155079E+01 -0.29801973914E+02  0.59301948770E+02  0.50000008649E+02 0.  0.
        -12    1    1    2    0    0 -0.58638718108E+01  0.97045155079E+01  0.29801973914E+02  0.31886051230E+02  0.00000000000E+00 0.  1.
         11    1    3    3    0    0  0.16496723632E+02 -0.36627950909E+01 -0.38006980416E+01  0.17320602308E+02  0.51100000000E-03 0. -1.
        -11    1    3    3    0    0  0.12196635559E+01 -0.13247393317E+02 -0.93889922559E+00  0.13336511571E+02  0.51100000000E-03 0.  1.
        -12    1    3    3    0    0 -0.11852515377E+02  0.72056728996E+01 -0.25062376647E+02  0.28644834890E+02  0.00000000000E+00 0.  1.
</event>
<event>
 7    1  0.6830263E-012  0.5930192E+02  0.7816164E-02  0.1266605E+00
        -11   -1    0    0    0    0  0.00000000000E+00  0.00000000000E+00  0.45593999997E+02  0.45594000000E+02  0.51100000000E-03 0. -1.
         11   -1    0    0    0    0 -0.00000000000E+00 -0.00000000000E+00 -0.45593999997E+02  0.45594000000E+02  0.51100000000E-03 0.  1.
    9900012    2    1    2    0    0  0.19329673774E+02  0.12269879055E+02  0.22193143800E+02  0.59301923855E+02  0.49999963209E+02 0.  0.
        -12    1    1    2    0    0 -0.19329673774E+02 -0.12269879055E+02 -0.22193143800E+02  0.31886076145E+02  0.00000000000E+00 0.  1.
         11    1    3    3    0    0  0.15625591728E+02  0.89231027656E+01 -0.19978169191E+00  0.17995021334E+02  0.51100000000E-03 0. -1.
        -11    1    3    3    0    0  0.15278565820E+02 -0.89280032039E+01  0.95867077541E+01  0.20125823723E+02  0.51100000000E-03 0.  1.
         12    1    3    3    0    0 -0.11574483774E+02  0.12274779494E+02  0.12806217738E+02  0.21181078797E+02  0.00000000000E+00 0. -1.
</event>
<event>
 7    1  0.6830263E-012  0.5930192E+02  0.7816164E-02  0.1266605E+00
        -11   -1    0    0    0    0  0.00000000000E+00  0.00000000000E+00  0.45593999997E+02  0.45594000000E+02  0.51100000000E-03 0.  1.
         11   -1    0    0    0    0 -0.00000000000E+00 -0.00000000000E+00 -0.45593999997E+02  0.45594000000E+02  0.51100000000E-03 0. -1.
    9900012    2    1    2    0    0 -0.19332944239E+02  0.61499095109E+00 -0.25349179156E+02  0.59301924187E+02  0.49999963816E+02 0.  0.
        -12    1    1    2    0    0  0.19332944239E+02 -0.61499095109E+00  0.25349179156E+02  0.31886075813E+02  0.00000000000E+00 0.  1.
         11    1    3    3    0    0 -0.94120639494E+01  0.19751877181E+02 -0.38032367087E+01  0.22207841175E+02  0.51100000000E-03 0. -1.
        -11    1    3    3    0    0  0.36131001031E+01 -0.92980398898E+00  0.21361959102E+01  0.42991116572E+01  0.51100000000E-03 0.  1.
         12    1    3    3    0    0 -0.13533980393E+02 -0.18207082240E+02 -0.23682138357E+02  0.32794971355E+02  0.00000000000E+00 0. -1.
</event>
<event>
 7    1  0.6830263E-012  0.5930195E+02  0.7816164E-02  0.1266605E+00
        -11   -1    0    0    0    0  0.00000000000E+00  0.00000000000E+00  0.45593999997E+02  0.45594000000E+02  0.51100000000E-03 0. -1.
         11   -1    0    0    0    0 -0.00000000000E+00 -0.00000000000E+00 -0.45593999997E+02  0.45594000000E+02  0.51100000000E-03 0.  1.
    9900012    2    1    2    0    0  0.27112785386E+02  0.15741104609E+02  0.58167685681E+01  0.59301948154E+02  0.50000007526E+02 0.  0.
        -12    1    1    2    0    0 -0.27112785386E+02 -0.15741104609E+02 -0.58167685681E+01  0.31886051846E+02  0.00000000000E+00 0.  1.
         11    1    3    3    0    0  0.28671731694E+02  0.15112810984E+02 -0.79357547542E+01  0.33368270227E+02  0.51100000000E-03 0. -1.
        -11    1    3    3    0    0 -0.67236117943E+01  0.88875300834E+01  0.32485748775E+01  0.11608117226E+02  0.51100000000E-03 0.  1.
        -12    1    3    3    0    0  0.51646654864E+01 -0.82592364582E+01  0.10503948445E+02  0.14325560701E+02  0.00000000000E+00 0.  1.
</event>
<event>
 7    1  0.6830263E-012  0.5930195E+02  0.7816164E-02  0.1266605E+00
        -11   -1    0    0    0    0  0.00000000000E+00  0.00000000000E+00  0.45593999997E+02  0.45594000000E+02  0.51100000000E-03 0. -1.
         11   -1    0    0    0    0 -0.00000000000E+00 -0.00000000000E+00 -0.45593999997E+02  0.45594000000E+02  0.51100000000E-03 0.  1.
    9900012    2    1    2    0    0 -0.21642541870E+02 -0.22791804113E+02 -0.53716357951E+01  0.59301946239E+02  0.50000004033E+02 0.  0.
        -12    1    1    2    0    0  0.21642541870E+02  0.22791804113E+02  0.53716357951E+01  0.31886053761E+02  0.00000000000E+00 0.  1.
         11    1    3    3    0    0  0.75520725121E+01 -0.22626011938E+01  0.26091702154E+01  0.83042719647E+01  0.51100000000E-03 0. -1.
        -11    1    3    3    0    0  0.99954476149E+00 -0.28236807617E+00 -0.14094804240E+02  0.14133022616E+02  0.51100000000E-03 0.  1.
         12    1    3    3    0    0 -0.30194159144E+02 -0.20246834843E+02  0.61139982290E+01  0.36864651658E+02  0.00000000000E+00 0. -1.
</event>
<event>
 7    1  0.6830263E-012  0.5930212E+02  0.7816164E-02  0.1266604E+00
        -11   -1    0    0    0    0  0.00000000000E+00  0.00000000000E+00  0.45593999997E+02  0.45594000000E+02  0.51100000000E-03 0.  1.
         11   -1    0    0    0    0 -0.00000000000E+00 -0.00000000000E+00 -0.45593999997E+02  0.45594000000E+02  0.51100000000E-03 0. -1.
    9900012    2    1    2    0    0  0.26088834064E+02 -0.10872965375E+02 -0.14760095467E+02  0.59302124490E+02  0.50000329118E+02 0.  0.
        -12    1    1    2    0    0 -0.26088834064E+02  0.10872965375E+02  0.14760095467E+02  0.31885875510E+02  0.00000000000E+00 0.  1.
         11    1    3    3    0    0  0.38327160304E+01 -0.54794936549E+01 -0.75127698748E+01  0.10057647555E+02  0.51100000000E-03 0. -1.
        -11    1    3    3    0    0  0.13142710692E+02 -0.24262892807E+02 -0.60884021985E+01  0.28257520296E+02  0.51100000000E-03 0.  1.
        -12    1    3    3    0    0  0.91134073411E+01  0.18869421087E+02 -0.11589233938E+01  0.20986956639E+02  0.00000000000E+00 0.  1.
</event>
<event>
 7    1  0.6830263E-012  0.5930198E+02  0.7816164E-02  0.1266605E+00
        -11   -1    0    0    0    0  0.00000000000E+00  0.00000000000E+00  0.45593999997E+02  0.45594000000E+02  0.51100000000E-03 0.  1.
         11   -1    0    0    0    0 -0.00000000000E+00 -0.00000000000E+00 -0.45593999997E+02  0.45594000000E+02  0.51100000000E-03 0. -1.
    9900012    2    1    2    0    0 -0.17298191535E+02  0.14115012628E+02 -0.22765266776E+02  0.59301978247E+02  0.50000062408E+02 0.  0.
        -12    1    1    2    0    0  0.17298191535E+02 -0.14115012628E+02  0.22765266776E+02  0.31886021753E+02  0.00000000000E+00 0.  1.
         11    1    3    3    0    0  0.12368541060E+01 -0.36098970214E+01 -0.11575992094E+01  0.39876309728E+01  0.51100000000E-03 0.  1.
        -11    1    3    3    0    0  0.74930222948E+01 -0.46103838324E+01 -0.18975608541E+02  0.20915896872E+02  0.51100000000E-03 0. -1.
        -12    1    3    3    0    0 -0.26028067936E+02  0.22335293482E+02 -0.26320590252E+01  0.34398450402E+02  0.00000000000E+00 0.  1.
</event>
<event>
 7    1  0.6830263E-012  0.5930195E+02  0.7816164E-02  0.1266605E+00
        -11   -1    0    0    0    0  0.00000000000E+00  0.00000000000E+00  0.45593999997E+02  0.45594000000E+02  0.51100000000E-03 0.  1.
         11   -1    0    0    0    0 -0.00000000000E+00 -0.00000000000E+00 -0.45593999997E+02  0.45594000000E+02  0.51100000000E-03 0. -1.
    9900012    2    1    2    0    0 -0.22255793223E+02  0.25035898822E+01 -0.22696521098E+02  0.59301947183E+02  0.50000005754E+02 0.  0.
        -12    1    1    2    0    0  0.22255793223E+02 -0.25035898822E+01  0.22696521098E+02  0.31886052817E+02  0.00000000000E+00 0.  1.
         11    1    3    3    0    0 -0.23833278378E+02 -0.74141807584E+01 -0.16335639152E+02  0.29830325867E+02  0.51100000000E-03 0. -1.
        -11    1    3    3    0    0  0.48165883149E+00 -0.94013273545E+01 -0.16641104431E+01  0.95596137518E+01  0.51100000000E-03 0.  1.
         12    1    3    3    0    0  0.10958263234E+01  0.19319097995E+02 -0.46967715028E+01  0.19912007564E+02  0.00000000000E+00 0. -1.
</event>
<event>
 7    1  0.6830263E-012  0.5930196E+02  0.7816164E-02  0.1266605E+00
        -11   -1    0    0    0    0  0.00000000000E+00  0.00000000000E+00  0.45593999997E+02  0.45594000000E+02  0.51100000000E-03 0. -1.
         11   -1    0    0    0    0 -0.00000000000E+00 -0.00000000000E+00 -0.45593999997E+02  0.45594000000E+02  0.51100000000E-03 0.  1.
    9900012    2    1    2    0    0 -0.17390346388E+02 -0.10863068020E+02  0.24419031609E+02  0.59301960751E+02  0.50000030499E+02 0.  0.
        -12    1    1    2    0    0  0.17390346388E+02  0.10863068020E+02 -0.24419031609E+02  0.31886039249E+02  0.00000000000E+00 0.  1.
         11    1    3    3    0    0 -0.60426641770E+01 -0.28831296102E+01 -0.74419533179E+01  0.10010439359E+02  0.51100000000E-03 0.  1.
        -11    1    3    3    0    0  0.83866200914E+01 -0.10980071593E+01 -0.27205974902E+01  0.88849686124E+01  0.51100000000E-03 0. -1.
         12    1    3    3    0    0 -0.19734302302E+02 -0.68819312508E+01  0.34581582417E+02  0.40406552780E+02  0.00000000000E+00 0. -1.
</event>
<event>
 7    1  0.6830263E-012  0.5930195E+02  0.7816164E-02  0.1266605E+00
        -11   -1    0    0    0    0  0.00000000000E+00  0.00000000000E+00  0.45593999997E+02  0.45594000000E+02  0.51100000000E-03 0. -1.
         11   -1    0    0    0    0 -0.00000000000E+00 -0.00000000000E+00 -0.45593999997E+02  0.45594000000E+02  0.51100000000E-03 0.  1.
    9900012    2    1    2    0    0  0.29792199964E+02 -0.56136472994E+01  0.98808834283E+01  0.59301951765E+02  0.50000014111E+02 0.  0.
        -12    1    1    2    0    0 -0.29792199964E+02  0.56136472994E+01 -0.98808834283E+01  0.31886048235E+02  0.00000000000E+00 0.  1.
         11    1    3    3    0    0  0.12924594544E+02 -0.16968775064E+02 -0.42705429422E+01  0.21753666555E+02  0.51100000000E-03 0. -1.
        -11    1    3    3    0    0  0.61190081871E+00 -0.15898294450E+01  0.16543326427E+02  0.16630803643E+02  0.51100000000E-03 0.  1.
         12    1    3    3    0    0  0.16255704601E+02  0.12944957209E+02 -0.23919000567E+01  0.20917481567E+02  0.00000000000E+00 0. -1.
</event>
<event>
 7    1  0.6830263E-012  0.5930206E+02  0.7816164E-02  0.1266604E+00
        -11   -1    0    0    0    0  0.00000000000E+00  0.00000000000E+00  0.45593999997E+02  0.45594000000E+02  0.51100000000E-03 0.  1.
         11   -1    0    0    0    0 -0.00000000000E+00 -0.00000000000E+00 -0.45593999997E+02  0.45594000000E+02  0.51100000000E-03 0. -1.
    9900012    2    1    2    0    0 -0.21334729594E+02 -0.23536139653E+02  0.27554629136E+01  0.59302060583E+02  0.50000212569E+02 0.  0.
        -12    1    1    2    0    0  0.21334729594E+02  0.23536139653E+02 -0.27554629136E+01  0.31885939417E+02  0.00000000000E+00 0.  1.
         11    1    3    3    0    0 -0.29603106650E+00 -0.12319111509E+02 -0.49983566828E+00  0.12332800928E+02  0.51100000000E-03 0. -1.
        -11    1    3    3    0    0 -0.22499975378E+02  0.45451064154E+01  0.14857270330E+02  0.27343104547E+02  0.51100000000E-03 0.  1.
         12    1    3    3    0    0  0.14612768508E+01 -0.15762134559E+02 -0.11601971748E+02  0.19626155108E+02  0.00000000000E+00 0. -1.
</event>
<event>
 7    1  0.6830263E-012  0.5930187E+02  0.7816164E-02  0.1266605E+00
        -11   -1    0    0    0    0  0.00000000000E+00  0.00000000000E+00  0.45593999997E+02  0.45594000000E+02  0.51100000000E-03 0.  1.
         11   -1    0    0    0    0 -0.00000000000E+00 -0.00000000000E+00 -0.45593999997E+02  0.45594000000E+02  0.51100000000E-03 0. -1.
    9900012    2    1    2    0    0 -0.35645682029E+01  0.25007381239E+02 -0.19458925037E+02  0.59301874075E+02  0.49999872423E+02 0.  0.
        -12    1    1    2    0    0  0.35645682029E+01 -0.25007381239E+02  0.19458925037E+02  0.31886125925E+02  0.00000000000E+00 0.  1.
         11    1    3    3    0    0 -0.82645998766E+01  0.27537761027E+00 -0.11569337111E+02  0.14220724503E+02  0.51100000000E-03 0. -1.
        -11    1    3    3    0    0 -0.74255354512E+01  0.11952533481E+02 -0.19452801258E+02  0.24008604924E+02  0.51100000000E-03 0.  1.
        -12    1    3    3    0    0  0.12125567125E+02  0.12779470148E+02  0.11563213332E+02  0.21072544648E+02  0.00000000000E+00 0.  1.
</event>
<event>
 7    1  0.6830263E-012  0.5930172E+02  0.7816164E-02  0.1266606E+00
        -11   -1    0    0    0    0  0.00000000000E+00  0.00000000000E+00  0.45593999997E+02  0.45594000000E+02  0.51100000000E-03 0.  1.
         11   -1    0    0    0    0 -0.00000000000E+00 -0.00000000000E+00 -0.45593999997E+02  0.45594000000E+02  0.51100000000E-03 0. -1.
    9900012    2    1    2    0    0  0.13149036189E+02  0.15357489843E+02 -0.24657356896E+02  0.59301719312E+02  0.49999590171E+02 0.  0.
        -12    1    1    2    0    0 -0.13149036189E+02 -0.15357489843E+02  0.24657356896E+02  0.31886280688E+02  0.00000000000E+00 0.  1.
         11    1    3    3    0    0 -0.61016900582E+01 -0.11557867673E+02 -0.97097854642E+01  0.16281733960E+02  0.51100000000E-03 0. -1.
        -11    1    3    3    0    0 -0.19484280673E+01  0.16614178250E+02 -0.52382651796E+01  0.17529024879E+02  0.51100000000E-03 0.  1.
        -12    1    3    3    0    0  0.21199154315E+02  0.10301179266E+02 -0.97093062524E+01  0.25490960473E+02  0.00000000000E+00 0.  1.
</event>
<event>
 7    1  0.6830263E-012  0.5930193E+02  0.7816164E-02  0.1266605E+00
        -11   -1    0    0    0    0  0.00000000000E+00  0.00000000000E+00  0.45593999997E+02  0.45594000000E+02  0.51100000000E-03 0.  1.
         11   -1    0    0    0    0 -0.00000000000E+00 -0.00000000000E+00 -0.45593999997E+02  0.45594000000E+02  0.51100000000E-03 0. -1.
    9900012    2    1    2    0    0  0.17183158941E+02 -0.23889549472E+02 -0.12278037614E+02  0.59301925723E+02  0.49999966616E+02 0.  0.
        -12    1    1    2    0    0 -0.17183158941E+02  0.23889549472E+02  0.12278037614E+02  0.31886074277E+02  0.00000000000E+00 0.  1.
         11    1    3    3    0    0  0.62954075125E+01 -0.50960362183E+01 -0.11116986123E+02  0.13754603651E+02  0.51100000000E-03 0. -1.
        -11    1    3    3    0    0  0.35594927135E+01 -0.28505842022E+02 -0.10098624028E+02  0.30450537356E+02  0.51100000000E-03 0.  1.
         12    1    3    3    0    0  0.73282587153E+01  0.97123287683E+01  0.89375725370E+01  0.15096784716E+02  0.00000000000E+00 0. -1.
</event>
<event>
 7    1  0.6830263E-012  0.5930171E+02  0.7816164E-02  0.1266606E+00
        -11   -1    0    0    0    0  0.00000000000E+00  0.00000000000E+00  0.45593999997E+02  0.45594000000E+02  0.51100000000E-03 0.  1.
         11   -1    0    0    0    0 -0.00000000000E+00 -0.00000000000E+00 -0.45593999997E+02  0.45594000000E+02  0.51100000000E-03 0. -1.
    9900012    2    1    2    0    0  0.21476933534E+02  0.21553756376E+02 -0.95347865133E+01  0.59301713892E+02  0.49999580286E+02 0.  0.
        -12    1    1    2    0    0 -0.21476933534E+02 -0.21553756376E+02  0.95347865133E+01  0.31886286108E+02  0.00000000000E+00 0.  1.
         11    1    3    3    0    0  0.39622567800E+01  0.94888837527E+01 -0.19135749075E+02  0.21723611270E+02  0.51100000000E-03 0. -1.
        -11    1    3    3    0    0 -0.42051955699E+01  0.24903030983E+01 -0.70537902219E+01  0.85814472007E+01  0.51100000000E-03 0.  1.
         12    1    3    3    0    0  0.21719872324E+02  0.95745695246E+01  0.16654752784E+02  0.28996655422E+02  0.00000000000E+00 0. -1.
</event>
<event>
 7    1  0.6830263E-012  0.5930194E+02  0.7816164E-02  0.1266605E+00
        -11   -1    0    0    0    0  0.00000000000E+00  0.00000000000E+00  0.45593999997E+02  0.45594000000E+02  0.51100000000E-03 0.  1.
         11   -1    0    0    0    0 -0.00000000000E+00 -0.00000000000E+00 -0.45593999997E+02  0.45594000000E+02  0.51100000000E-03 0. -1.
    9900012    2    1    2    0    0 -0.62735960329E+01  0.84201200065E+01 -0.30107550641E+02  0.59301936686E+02  0.49999986610E+02 0.  0.
        -12    1    1    2    0    0  0.62735960329E+01 -0.84201200065E+01  0.30107550641E+02  0.31886063314E+02  0.00000000000E+00 0.  1.
         11    1    3    3    0    0 -0.10835455259E+02 -0.11117390418E+02 -0.20893974954E+02  0.26030014407E+02  0.51100000000E-03 0. -1.
        -11    1    3    3    0    0  0.42851857363E+01 -0.48655889041E+01 -0.56665419111E+01  0.86108344352E+01  0.51100000000E-03 0.  1.
        -12    1    3    3    0    0  0.27667348943E+00  0.24403099328E+02 -0.35470337752E+01  0.24661087844E+02  0.00000000000E+00 0.  1.
</event>
<event>
 7    1  0.6830263E-012  0.5930193E+02  0.7816164E-02  0.1266605E+00
        -11   -1    0    0    0    0  0.00000000000E+00  0.00000000000E+00  0.45593999997E+02  0.45594000000E+02  0.51100000000E-03 0. -1.
         11   -1    0    0    0    0 -0.00000000000E+00 -0.00000000000E+00 -0.45593999997E+02  0.45594000000E+02  0.51100000000E-03 0.  1.
    9900012    2    1    2    0    0 -0.99743485508E+00 -0.17985657330E+02  0.26310510296E+02  0.59301926270E+02  0.49999967615E+02 0.  0.
        -12    1    1    2    0    0  0.99743485508E+00  0.17985657330E+02 -0.26310510296E+02  0.31886073730E+02  0.00000000000E+00 0.  1.
         11    1    3    3    0    0 -0.76797794401E+01 -0.17928228830E+02  0.16691079123E+01  0.19575145535E+02  0.51100000000E-03 0. -1.
        -11    1    3    3    0    0  0.16497232673E+00 -0.71467062834E+01 -0.48925335001E+01  0.86625348992E+01  0.51100000000E-03 0.  1.
        -12    1    3    3    0    0  0.65173722583E+01  0.70892777831E+01  0.29533935883E+02  0.31064245837E+02  0.00000000000E+00 0.  1.
</event>
<event>
 7    1  0.6830263E-012  0.5930194E+02  0.7816164E-02  0.1266605E+00
        -11   -1    0    0    0    0  0.00000000000E+00  0.00000000000E+00  0.45593999997E+02  0.45594000000E+02  0.51100000000E-03 0. -1.
         11   -1    0    0    0    0 -0.00000000000E+00 -0.00000000000E+00 -0.45593999997E+02  0.45594000000E+02  0.51100000000E-03 0.  1.
    9900012    2    1    2    0    0  0.17415075508E+02 -0.13056053632E+02  0.23301830321E+02  0.59301942110E+02  0.49999996503E+02 0.  0.
        -12    1    1    2    0    0 -0.17415075508E+02  0.13056053632E+02 -0.23301830321E+02  0.31886057890E+02  0.00000000000E+00 0.  1.
         11    1    3    3    0    0 -0.10040788191E+01 -0.13321199004E+02  0.74522835800E-01  0.13359194253E+02  0.51100000000E-03 0. -1.
        -11    1    3    3    0    0 -0.10575979273E+02  0.60094763336E+00  0.72353332503E+01  0.12828192513E+02  0.51100000000E-03 0.  1.
         12    1    3    3    0    0  0.28995133601E+02 -0.33580226162E+00  0.15991974235E+02  0.33114555344E+02  0.00000000000E+00 0. -1.
</event>
<event>
 7    1  0.6830263E-012  0.5930194E+02  0.7816164E-02  0.1266605E+00
        -11   -1    0    0    0    0  0.00000000000E+00  0.00000000000E+00  0.45593999997E+02  0.45594000000E+02  0.51100000000E-03 0. -1.
         11   -1    0    0    0    0 -0.00000000000E+00 -0.00000000000E+00 -0.45593999997E+02  0.45594000000E+02  0.51100000000E-03 0.  1.
    9900012    2    1    2    0    0  0.20211195660E+02  0.21376327025E+02  0.12299624033E+02  0.59301944451E+02  0.50000000772E+02 0.  0.
        -12    1    1    2    0    0 -0.20211195660E+02 -0.21376327025E+02 -0.12299624033E+02  0.31886055549E+02  0.00000000000E+00 0.  1.
         11    1    3    3    0    0  0.49934423351E+01  0.21568149500E+02  0.87714172918E+01  0.23812964973E+02  0.51100000000E-03 0. -1.
        -11    1    3    3    0    0 -0.92580520941E+01  0.13602057352E+01  0.55521771182E+01  0.10880641490E+02  0.51100000000E-03 0.  1.
        -12    1    3    3    0    0  0.24475805419E+02 -0.15520282103E+01 -0.20239703768E+01  0.24608337988E+02  0.00000000000E+00 0.  1.
</event>
<event>
 7    1  0.6830263E-012  0.5930193E+02  0.7816164E-02  0.1266605E+00
        -11   -1    0    0    0    0  0.00000000000E+00  0.00000000000E+00  0.45593999997E+02  0.45594000000E+02  0.51100000000E-03 0.  1.
         11   -1    0    0    0    0 -0.00000000000E+00 -0.00000000000E+00 -0.45593999997E+02  0.45594000000E+02  0.51100000000E-03 0. -1.
    9900012    2    1    2    0    0  0.31324015677E+02  0.30899944530E+01 -0.50970157291E+01  0.59301927912E+02  0.49999970608E+02 0.  0.
        -12    1    1    2    0    0 -0.31324015677E+02 -0.30899944530E+01  0.50970157291E+01  0.31886072088E+02  0.00000000000E+00 0.  1.
         11    1    3    3    0    0 -0.97638501145E+01 -0.18223076726E+00 -0.31514514888E+01  0.10261463047E+02  0.51100000000E-03 0.  1.
        -11    1    3    3    0    0  0.15003147289E+02  0.81554773785E+01  0.10161678458E+02  0.19871234214E+02  0.51100000000E-03 0. -1.
        -12    1    3    3    0    0  0.26084718503E+02 -0.48832521583E+01 -0.12107242699E+02  0.29169230651E+02  0.00000000000E+00 0.  1.
</event>
<event>
 7    1  0.6830263E-012  0.5930196E+02  0.7816164E-02  0.1266605E+00
        -11   -1    0    0    0    0  0.00000000000E+00  0.00000000000E+00  0.45593999997E+02  0.45594000000E+02  0.51100000000E-03 0. -1.
         11   -1    0    0    0    0 -0.00000000000E+00 -0.00000000000E+00 -0.45593999997E+02  0.45594000000E+02  0.51100000000E-03 0.  1.
    9900012    2    1    2    0    0  0.94657694994E+01  0.15454719440E+02  0.26234914068E+02  0.59301955069E+02  0.50000020137E+02 0.  0.
        -12    1    1    2    0    0 -0.94657694994E+01 -0.15454719440E+02 -0.26234914068E+02  0.31886044931E+02  0.00000000000E+00 0.  1.
         11    1    3    3    0    0  0.29042114831E+01  0.59522978264E+01  0.78517192639E+01  0.10271990528E+02  0.51100000000E-03 0. -1.
        -11    1    3    3    0    0  0.15562142991E+02  0.23822340647E+02  0.10074687796E+02  0.30185816915E+02  0.51100000000E-03 0.  1.
        -12    1    3    3    0    0 -0.90005849747E+01 -0.14319919034E+02  0.83085070087E+01  0.18844147626E+02  0.00000000000E+00 0.  1.
</event>
<event>
 7    1  0.6830263E-012  0.5930195E+02  0.7816164E-02  0.1266605E+00
        -11   -1    0    0    0    0  0.00000000000E+00  0.00000000000E+00  0.45593999997E+02  0.45594000000E+02  0.51100000000E-03 0. -1.
         11   -1    0    0    0    0 -0.00000000000E+00 -0.00000000000E+00 -0.45593999997E+02  0.45594000000E+02  0.51100000000E-03 0.  1.
    9900012    2    1    2    0    0 -0.20970275865E+02  0.16087706130E+02  0.17836854284E+02  0.59301950870E+02  0.50000012478E+02 0.  0.
        -12    1    1    2    0    0  0.20970275865E+02 -0.16087706130E+02 -0.17836854284E+02  0.31886049130E+02  0.00000000000E+00 0.  1.
         11    1    3    3    0    0 -0.15824466144E+02  0.10550753566E+02 -0.21687191241E+01  0.19142504341E+02  0.51100000000E-03 0. -1.
        -11    1    3    3    0    0  0.10166728987E+02  0.70764755690E+01 -0.27497483442E+01  0.12688577579E+02  0.51100000000E-03 0.  1.
        -12    1    3    3    0    0 -0.15312538708E+02 -0.15395230054E+01  0.22755321752E+02  0.27470868949E+02  0.00000000000E+00 0.  1.
</event>
<event>
 7    1  0.6830263E-012  0.5930194E+02  0.7816164E-02  0.1266605E+00
        -11   -1    0    0    0    0  0.00000000000E+00  0.00000000000E+00  0.45593999997E+02  0.45594000000E+02  0.51100000000E-03 0.  1.
         11   -1    0    0    0    0 -0.00000000000E+00 -0.00000000000E+00 -0.45593999997E+02  0.45594000000E+02  0.51100000000E-03 0. -1.
    9900012    2    1    2    0    0  0.19663247225E+02 -0.93126875390E+01 -0.23309897790E+02  0.59301940732E+02  0.49999993990E+02 0.  0.
        -12    1    1    2    0    0 -0.19663247225E+02  0.93126875390E+01  0.23309897790E+02  0.31886059268E+02  0.00000000000E+00 0.  1.
         11    1    3    3    0    0 -0.83515707969E+01 -0.12974108268E+01 -0.16589532867E+02  0.18618394416E+02  0.51100000000E-03 0. -1.
        -11    1    3    3    0    0  0.15344969425E+02  0.43160458569E+01 -0.14330634057E+02  0.21435097650E+02  0.51100000000E-03 0.  1.
         12    1    3    3    0    0  0.12669848597E+02 -0.12331322569E+02  0.76102691343E+01  0.19248448667E+02  0.00000000000E+00 0. -1.
</event>
<event>
 7    1  0.6830263E-012  0.5930196E+02  0.7816164E-02  0.1266605E+00
        -11   -1    0    0    0    0  0.00000000000E+00  0.00000000000E+00  0.45593999997E+02  0.45594000000E+02  0.51100000000E-03 0.  1.
         11   -1    0    0    0    0 -0.00000000000E+00 -0.00000000000E+00 -0.45593999997E+02  0.45594000000E+02  0.51100000000E-03 0. -1.
    9900012    2    1    2    0    0 -0.16631486327E+02 -0.12962790113E+02 -0.23918180287E+02  0.59301958960E+02  0.50000027233E+02 0.  0.
        -12    1    1    2    0    0  0.16631486327E+02  0.12962790113E+02  0.23918180287E+02  0.31886041040E+02  0.00000000000E+00 0.  1.
         11    1    3    3    0    0  0.10465342332E+02 -0.91803183976E+01 -0.67921543202E+01  0.15489835266E+02  0.51100000000E-03 0. -1.
        -11    1    3    3    0    0  0.16863488216E+01 -0.97297316962E+01 -0.88945819167E+01  0.13290035326E+02  0.51100000000E-03 0.  1.
         12    1    3    3    0    0 -0.28783177481E+02  0.59472599803E+01 -0.82314440498E+01  0.30522088368E+02  0.00000000000E+00 0. -1.
</event>
<event>
 7    1  0.6830263E-012  0.5930195E+02  0.7816164E-02  0.1266605E+00
        -11   -1    0    0    0    0  0.00000000000E+00  0.00000000000E+00  0.45593999997E+02  0.45594000000E+02  0.51100000000E-03 0.  1.
         11   -1    0    0    0    0 -0.00000000000E+00 -0.00000000000E+00 -0.45593999997E+02  0.45594000000E+02  0.51100000000E-03 0. -1.
    9900012    2    1    2    0    0 -0.28504162678E+02 -0.76199231905E+01  0.12090052483E+02  0.59301954644E+02  0.50000019361E+02 0.  0.
        -12    1    1    2    0    0  0.28504162678E+02  0.76199231905E+01 -0.12090052483E+02  0.31886045356E+02  0.00000000000E+00 0.  1.
         11    1    3    3    0    0 -0.30737596759E+01 -0.13862075408E+02 -0.28905335150E+01  0.14490007503E+02  0.51100000000E-03 0. -1.
        -11    1    3    3    0    0 -0.24553853042E+02  0.22513719869E+00 -0.40023607392E+01  0.24878932407E+02  0.51100000000E-03 0.  1.
        -12    1    3    3    0    0 -0.87654996081E+00  0.60170150187E+01  0.18982946737E+02  0.19933014734E+02  0.00000000000E+00 0.  1.
</event>
<event>
 7    1  0.6830263E-012  0.5930200E+02  0.7816164E-02  0.1266605E+00
        -11   -1    0    0    0    0  0.00000000000E+00  0.00000000000E+00  0.45593999997E+02  0.45594000000E+02  0.51100000000E-03 0.  1.
         11   -1    0    0    0    0 -0.00000000000E+00 -0.00000000000E+00 -0.45593999997E+02  0.45594000000E+02  0.51100000000E-03 0. -1.
    9900012    2    1    2    0    0 -0.17582666545E+02  0.26566425993E+02 -0.13387025163E+01  0.59301995589E+02  0.50000094035E+02 0.  0.
        -12    1    1    2    0    0  0.17582666545E+02 -0.26566425993E+02  0.13387025163E+01  0.31886004411E+02  0.00000000000E+00 0.  1.
         11    1    3    3    0    0 -0.53062131815E+01  0.11595007254E+02 -0.37746573283E+01  0.13298425837E+02  0.51100000000E-03 0.  1.
        -11    1    3    3    0    0 -0.27798617459E+02  0.86439201767E+01  0.27249712077E+01  0.29238774889E+02  0.51100000000E-03 0. -1.
        -12    1    3    3    0    0  0.15522164096E+02  0.63274985627E+01 -0.28901639576E+00  0.16764794862E+02  0.00000000000E+00 0.  1.
</event>
<event>
 7    1  0.6830263E-012  0.5930215E+02  0.7816164E-02  0.1266604E+00
        -11   -1    0    0    0    0  0.00000000000E+00  0.00000000000E+00  0.45593999997E+02  0.45594000000E+02  0.51100000000E-03 0.  1.
         11   -1    0    0    0    0 -0.00000000000E+00 -0.00000000000E+00 -0.45593999997E+02  0.45594000000E+02  0.51100000000E-03 0. -1.
    9900012    2    1    2    0    0  0.12065365639E+02  0.25172709218E+02 -0.15410025402E+02  0.59302153293E+02  0.50000381648E+02 0.  0.
        -12    1    1    2    0    0 -0.12065365639E+02 -0.25172709218E+02  0.15410025402E+02  0.31885846707E+02  0.00000000000E+00 0.  1.
         11    1    3    3    0    0 -0.41656981796E+01 -0.96709731239E+00 -0.68125429730E+01  0.80435726238E+01  0.51100000000E-03 0. -1.
        -11    1    3    3    0    0 -0.43890278192E+01 -0.88263881958E+01 -0.53254327483E+00  0.98717929669E+01  0.51100000000E-03 0.  1.
         12    1    3    3    0    0  0.20620091638E+02  0.34966194726E+02 -0.80649391537E+01  0.41386787702E+02  0.00000000000E+00 0. -1.
</event>
<event>
 7    1  0.6830263E-012  0.5930194E+02  0.7816164E-02  0.1266605E+00
        -11   -1    0    0    0    0  0.00000000000E+00  0.00000000000E+00  0.45593999997E+02  0.45594000000E+02  0.51100000000E-03 0.  1.
         11   -1    0    0    0    0 -0.00000000000E+00 -0.00000000000E+00 -0.45593999997E+02  0.45594000000E+02  0.51100000000E-03 0. -1.
    9900012    2    1    2    0    0  0.10741778701E+02 -0.10034745814E+02 -0.28295559336E+02  0.59301943309E+02  0.49999998689E+02 0.  0.
        -12    1    1    2    0    0 -0.10741778701E+02  0.10034745814E+02  0.28295559336E+02  0.31886056691E+02  0.00000000000E+00 0.  1.
         11    1    3    3    0    0  0.58423712602E+01 -0.13266413697E+01 -0.53738792281E+01  0.80480965132E+01  0.51100000000E-03 0. -1.
        -11    1    3    3    0    0  0.22874892920E+02 -0.14250275713E+02 -0.11987223616E+02  0.29496179656E+02  0.51100000000E-03 0.  1.
        -12    1    3    3    0    0 -0.17975485479E+02  0.55421712694E+01 -0.10934456492E+02  0.21757667140E+02  0.00000000000E+00 0.  1.
</event>
<event>
 7    1  0.6830263E-012  0.5930195E+02  0.7816164E-02  0.1266605E+00
        -11   -1    0    0    0    0  0.00000000000E+00  0.00000000000E+00  0.45593999997E+02  0.45594000000E+02  0.51100000000E-03 0. -1.
         11   -1    0    0    0    0 -0.00000000000E+00 -0.00000000000E+00 -0.45593999997E+02  0.45594000000E+02  0.51100000000E-03 0.  1.
    9900012    2    1    2    0    0  0.26152742356E+02 -0.18179928828E+02 -0.14981372425E+01  0.59301950384E+02  0.50000011593E+02 0.  0.
        -12    1    1    2    0    0 -0.26152742356E+02  0.18179928828E+02  0.14981372425E+01  0.31886049616E+02  0.00000000000E+00 0.  1.
         11    1    3    3    0    0  0.13597837839E+02  0.36348369585E+01 -0.10027695084E+02  0.17282010953E+02  0.51100000000E-03 0. -1.
        -11    1    3    3    0    0  0.95819589865E+01  0.66893220689E+01 -0.12171972079E+01  0.11749150483E+02  0.51100000000E-03 0.  1.
         12    1    3    3    0    0  0.29729455302E+01 -0.28504087855E+02  0.97467550496E+01  0.30270788949E+02  0.00000000000E+00 0. -1.
</event>
<event>
 7    1  0.6830263E-012  0.5930195E+02  0.7816164E-02  0.1266605E+00
        -11   -1    0    0    0    0  0.00000000000E+00  0.00000000000E+00  0.45593999997E+02  0.45594000000E+02  0.51100000000E-03 0.  1.
         11   -1    0    0    0    0 -0.00000000000E+00 -0.00000000000E+00 -0.45593999997E+02  0.45594000000E+02  0.51100000000E-03 0. -1.
    9900012    2    1    2    0    0 -0.63926368314E+01  0.11857586219E+02 -0.28900726304E+02  0.59301950739E+02  0.50000012240E+02 0.  0.
        -12    1    1    2    0    0  0.63926368314E+01 -0.11857586219E+02  0.28900726304E+02  0.31886049261E+02  0.00000000000E+00 0.  1.
         11    1    3    3    0    0  0.12562679422E+02 -0.48846244712E+01 -0.71221222298E+01  0.15244838333E+02  0.51100000000E-03 0. -1.
        -11    1    3    3    0    0 -0.68753670949E+01 -0.80644813713E+01 -0.75573959466E+01  0.13016173256E+02  0.51100000000E-03 0.  1.
         12    1    3    3    0    0 -0.12079949159E+02  0.24806692061E+02 -0.14221208128E+02  0.31040939150E+02  0.00000000000E+00 0. -1.
</event>
<event>
 7    1  0.6830263E-012  0.5930195E+02  0.7816164E-02  0.1266605E+00
        -11   -1    0    0    0    0  0.00000000000E+00  0.00000000000E+00  0.45593999997E+02  0.45594000000E+02  0.51100000000E-03 0.  1.
         11   -1    0    0    0    0 -0.00000000000E+00 -0.00000000000E+00 -0.45593999997E+02  0.45594000000E+02  0.51100000000E-03 0. -1.
    9900012    2    1    2    0    0 -0.68262252296E+01 -0.12639224447E+02 -0.28467047398E+02  0.59301950808E+02  0.50000012366E+02 0.  0.
        -12    1    1    2    0    0  0.68262252296E+01  0.12639224447E+02  0.28467047398E+02  0.31886049192E+02  0.00000000000E+00 0.  1.
         11    1    3    3    0    0 -0.53585336736E+01 -0.39630154676E+01  0.39128620803E+01  0.77285098594E+01  0.51100000000E-03 0. -1.
        -11    1    3    3    0    0  0.13710392669E+02  0.74059999203E+01 -0.22461047436E+02  0.27337197262E+02  0.51100000000E-03 0.  1.
         12    1    3    3    0    0 -0.15178084225E+02 -0.16082208900E+02 -0.99188620425E+01  0.24236243687E+02  0.00000000000E+00 0. -1.
</event>
<event>
 7    1  0.6830263E-012  0.5930195E+02  0.7816164E-02  0.1266605E+00
        -11   -1    0    0    0    0  0.00000000000E+00  0.00000000000E+00  0.45593999997E+02  0.45594000000E+02  0.51100000000E-03 0.  1.
         11   -1    0    0    0    0 -0.00000000000E+00 -0.00000000000E+00 -0.45593999997E+02  0.45594000000E+02  0.51100000000E-03 0. -1.
    9900012    2    1    2    0    0  0.21944517451E+01 -0.19461567413E+02 -0.25162512957E+02  0.59301948458E+02  0.50000008079E+02 0.  0.
        -12    1    1    2    0    0 -0.21944517451E+01  0.19461567413E+02  0.25162512957E+02  0.31886051542E+02  0.00000000000E+00 0.  1.
         11    1    3    3    0    0 -0.17558878919E+01  0.76026250677E+00 -0.87020121262E+00  0.21019970932E+01  0.51100000000E-03 0. -1.
        -11    1    3    3    0    0 -0.21050558670E+02 -0.47923161709E+01 -0.53443356943E+01  0.22240823700E+02  0.51100000000E-03 0.  1.
         12    1    3    3    0    0  0.25000898307E+02 -0.15429513749E+02 -0.18947976050E+02  0.34959127665E+02  0.00000000000E+00 0. -1.
</event>
<event>
 7    1  0.6830263E-012  0.5930199E+02  0.7816164E-02  0.1266605E+00
        -11   -1    0    0    0    0  0.00000000000E+00  0.00000000000E+00  0.45593999997E+02  0.45594000000E+02  0.51100000000E-03 0.  1.
         11   -1    0    0    0    0 -0.00000000000E+00 -0.00000000000E+00 -0.45593999997E+02  0.45594000000E+02  0.51100000000E-03 0. -1.
    9900012    2    1    2    0    0 -0.14354846731E+02  0.49669467593E+01 -0.28035434826E+02  0.59301987539E+02  0.50000079355E+02 0.  0.
        -12    1    1    2    0    0  0.14354846731E+02 -0.49669467593E+01  0.28035434826E+02  0.31886012461E+02  0.00000000000E+00 0.  1.
         11    1    3    3    0    0  0.60136647365E+01  0.80574458472E+01 -0.73453062055E+01  0.12451510778E+02  0.51100000000E-03 0. -1.
        -11    1    3    3    0    0 -0.32902065101E+01  0.39889212270E+01 -0.26865737677E+02  0.27358815995E+02  0.51100000000E-03 0.  1.
        -12    1    3    3    0    0 -0.17078304957E+02 -0.70794203150E+01  0.61756090572E+01  0.19491660766E+02  0.00000000000E+00 0.  1.
</event>
<event>
 7    1  0.6830263E-012  0.5930195E+02  0.7816164E-02  0.1266605E+00
        -11   -1    0    0    0    0  0.00000000000E+00  0.00000000000E+00  0.45593999997E+02  0.45594000000E+02  0.51100000000E-03 0. -1.
         11   -1    0    0    0    0 -0.00000000000E+00 -0.00000000000E+00 -0.45593999997E+02  0.45594000000E+02  0.51100000000E-03 0.  1.
    9900012    2    1    2    0    0  0.19430540877E+02  0.25010228676E+02 -0.36963525448E+01  0.59301945379E+02  0.50000002464E+02 0.  0.
        -12    1    1    2    0    0 -0.19430540877E+02 -0.25010228676E+02  0.36963525448E+01  0.31886054621E+02  0.00000000000E+00 0.  1.
         11    1    3    3    0    0  0.14725770267E+01  0.21693423897E+01  0.85026973228E+01  0.88977745267E+01  0.51100000000E-03 0. -1.
        -11    1    3    3    0    0 -0.10285375730E+02 -0.19725859575E+01 -0.66396537430E+01  0.12400203682E+02  0.51100000000E-03 0.  1.
         12    1    3    3    0    0  0.28243339580E+02  0.24813472243E+02 -0.55593961246E+01  0.38003967170E+02  0.00000000000E+00 0. -1.
</event>
<event>
 7    1  0.6830263E-012  0.5930192E+02  0.7816164E-02  0.1266605E+00
        -11   -1    0    0    0    0  0.00000000000E+00  0.00000000000E+00  0.45593999997E+02  0.45594000000E+02  0.51100000000E-03 0. -1.
         11   -1    0    0    0    0 -0.00000000000E+00 -0.00000000000E+00 -0.45593999997E+02  0.45594000000E+02  0.51100000000E-03 0.  1.
    9900012    2    1    2    0    0 -0.12366647939E+02  0.17691506214E+02  0.23469094786E+02  0.59301924929E+02  0.49999965168E+02 0.  0.
        -12    1    1    2    0    0  0.12366647939E+02 -0.17691506214E+02 -0.23469094786E+02  0.31886075071E+02  0.00000000000E+00 0.  1.
         11    1    3    3    0    0 -0.13714015534E+01  0.45648441780E+01  0.13986253712E+02  0.14776123908E+02  0.51100000000E-03 0. -1.
        -11    1    3    3    0    0 -0.26063233487E+01 -0.56442359374E+01  0.20344306937E+02  0.21273014496E+02  0.51100000000E-03 0.  1.
        -12    1    3    3    0    0 -0.83889230371E+01  0.18770897973E+02 -0.10861465864E+02  0.23252786524E+02  0.00000000000E+00 0.  1.
</event>
<event>
 7    1  0.6830263E-012  0.5930192E+02  0.7816164E-02  0.1266605E+00
        -11   -1    0    0    0    0  0.00000000000E+00  0.00000000000E+00  0.45593999997E+02  0.45594000000E+02  0.51100000000E-03 0. -1.
         11   -1    0    0    0    0 -0.00000000000E+00 -0.00000000000E+00 -0.45593999997E+02  0.45594000000E+02  0.51100000000E-03 0.  1.
    9900012    2    1    2    0    0  0.19899685456E+02 -0.22189744772E+02  0.11328721351E+02  0.59301918683E+02  0.49999953777E+02 0.  0.
        -12    1    1    2    0    0 -0.19899685456E+02  0.22189744772E+02 -0.11328721351E+02  0.31886081317E+02  0.00000000000E+00 0.  1.
         11    1    3    3    0    0  0.12914647833E+02 -0.56571180608E+01 -0.24399876321E+01  0.14308901191E+02  0.51100000000E-03 0. -1.
        -11    1    3    3    0    0  0.10948593095E+02 -0.97675557653E+01 -0.11432351208E+02  0.18600416414E+02  0.51100000000E-03 0.  1.
        -12    1    3    3    0    0 -0.39635554720E+01 -0.67650709460E+01  0.25201060191E+02  0.26392601077E+02  0.00000000000E+00 0.  1.
</event>
<event>
 7    1  0.6830263E-012  0.5930183E+02  0.7816164E-02  0.1266605E+00
        -11   -1    0    0    0    0  0.00000000000E+00  0.00000000000E+00  0.45593999997E+02  0.45594000000E+02  0.51100000000E-03 0.  1.
         11   -1    0    0    0    0 -0.00000000000E+00 -0.00000000000E+00 -0.45593999997E+02  0.45594000000E+02  0.51100000000E-03 0. -1.
    9900012    2    1    2    0    0  0.13524091985E-01  0.66030619015E+01 -0.31194982380E+02  0.59301834739E+02  0.49999800683E+02 0.  0.
        -12    1    1    2    0    0 -0.13524091985E-01 -0.66030619015E+01  0.31194982380E+02  0.31886165261E+02  0.00000000000E+00 0.  1.
         11    1    3    3    0    0 -0.91641446403E+00 -0.49699314303E+01 -0.39364177131E+02  0.39687258350E+02  0.51100000000E-03 0. -1.
        -11    1    3    3    0    0 -0.50868381138E+01  0.94337900164E+01  0.23442860703E+01  0.10971234822E+02  0.51100000000E-03 0.  1.
        -12    1    3    3    0    0  0.60167766698E+01  0.21392033154E+01  0.58249086805E+01  0.86433415677E+01  0.00000000000E+00 0.  1.
</event>
<event>
 7    1  0.6830263E-012  0.5930194E+02  0.7816164E-02  0.1266605E+00
        -11   -1    0    0    0    0  0.00000000000E+00  0.00000000000E+00  0.45593999997E+02  0.45594000000E+02  0.51100000000E-03 0.  1.
         11   -1    0    0    0    0 -0.00000000000E+00 -0.00000000000E+00 -0.45593999997E+02  0.45594000000E+02  0.51100000000E-03 0. -1.
    9900012    2    1    2    0    0  0.22136069897E+02  0.15451646198E+02 -0.16969444593E+02  0.59301937050E+02  0.49999987274E+02 0.  0.
        -12    1    1    2    0    0 -0.22136069897E+02 -0.15451646198E+02  0.16969444593E+02  0.31886062950E+02  0.00000000000E+00 0.  1.
         11    1    3    3    0    0 -0.17889609009E+01  0.37532599510E+01 -0.14390630364E+02  0.14979238429E+02  0.51100000000E-03 0. -1.
        -11    1    3    3    0    0  0.20905137402E+01  0.18759313178E+02 -0.83814219453E+01  0.20652610312E+02  0.51100000000E-03 0.  1.
        -12    1    3    3    0    0  0.21834517057E+02 -0.70609269311E+01  0.58026077169E+01  0.23670088309E+02  0.00000000000E+00 0.  1.
</event>
<event>
 7    1  0.6830263E-012  0.5930203E+02  0.7816164E-02  0.1266604E+00
        -11   -1    0    0    0    0  0.00000000000E+00  0.00000000000E+00  0.45593999997E+02  0.45594000000E+02  0.51100000000E-03 0. -1.
         11   -1    0    0    0    0 -0.00000000000E+00 -0.00000000000E+00 -0.45593999997E+02  0.45594000000E+02  0.51100000000E-03 0.  1.
    9900012    2    1    2    0    0 -0.26288858521E+02 -0.40024936184E+01 -0.17595205855E+02  0.59302026492E+02  0.50000150395E+02 0.  0.
        -12    1    1    2    0    0  0.26288858521E+02  0.40024936184E+01  0.17595205855E+02  0.31885973508E+02  0.00000000000E+00 0.  1.
         11    1    3    3    0    0  0.45990229334E+01  0.53648255933E+00 -0.13083613050E+02  0.13878751967E+02  0.51100000000E-03 0. -1.
        -11    1    3    3    0    0  0.58174910023E+01 -0.47809740803E+01 -0.43913046825E+01  0.87169072379E+01  0.51100000000E-03 0.  1.
         12    1    3    3    0    0 -0.36705372456E+02  0.24199790263E+00 -0.12028812245E+00  0.36706367287E+02  0.00000000000E+00 0. -1.
</event>
<event>
 7    1  0.6830263E-012  0.5930196E+02  0.7816164E-02  0.1266605E+00
        -11   -1    0    0    0    0  0.00000000000E+00  0.00000000000E+00  0.45593999997E+02  0.45594000000E+02  0.51100000000E-03 0. -1.
         11   -1    0    0    0    0 -0.00000000000E+00 -0.00000000000E+00 -0.45593999997E+02  0.45594000000E+02  0.51100000000E-03 0.  1.
    9900012    2    1    2    0    0  0.27596924468E+02  0.14167662057E+02  0.73761017911E+01  0.59301956565E+02  0.50000022865E+02 0.  0.
        -12    1    1    2    0    0 -0.27596924468E+02 -0.14167662057E+02 -0.73761017911E+01  0.31886043435E+02  0.00000000000E+00 0.  1.
         11    1    3    3    0    0  0.21821626640E+02  0.11575042623E+02 -0.28418592310E+00  0.24703152893E+02  0.51100000000E-03 0. -1.
        -11    1    3    3    0    0  0.14640932493E+02 -0.93549947533E+01  0.91679306669E+01  0.19644942965E+02  0.51100000000E-03 0.  1.
         12    1    3    3    0    0 -0.88656346651E+01  0.11947614188E+02 -0.15076429527E+01  0.14953860708E+02  0.00000000000E+00 0. -1.
</event>
<event>
 7    1  0.6830263E-012  0.5930201E+02  0.7816164E-02  0.1266605E+00
        -11   -1    0    0    0    0  0.00000000000E+00  0.00000000000E+00  0.45593999997E+02  0.45594000000E+02  0.51100000000E-03 0.  1.
         11   -1    0    0    0    0 -0.00000000000E+00 -0.00000000000E+00 -0.45593999997E+02  0.45594000000E+02  0.51100000000E-03 0. -1.
    9900012    2    1    2    0    0  0.18522256980E+02 -0.66276628876E+01 -0.25094153456E+02  0.59302008457E+02  0.50000117503E+02 0.  0.
        -12    1    1    2    0    0 -0.18522256980E+02  0.66276628876E+01  0.25094153456E+02  0.31885991543E+02  0.00000000000E+00 0.  1.
         11    1    3    3    0    0  0.14658912015E+02  0.65984468459E+01 -0.85361790364E+01  0.18201361351E+02  0.51100000000E-03 0. -1.
        -11    1    3    3    0    0  0.10960262683E+01  0.98810819209E+01 -0.14710819780E+02  0.17755147771E+02  0.51100000000E-03 0.  1.
        -12    1    3    3    0    0  0.27673186975E+01 -0.23107191654E+02 -0.18471546401E+01  0.23345499335E+02  0.00000000000E+00 0.  1.
</event>
<event>
 7    1  0.6830263E-012  0.5930195E+02  0.7816164E-02  0.1266605E+00
        -11   -1    0    0    0    0  0.00000000000E+00  0.00000000000E+00  0.45593999997E+02  0.45594000000E+02  0.51100000000E-03 0.  1.
         11   -1    0    0    0    0 -0.00000000000E+00 -0.00000000000E+00 -0.45593999997E+02  0.45594000000E+02  0.51100000000E-03 0. -1.
    9900012    2    1    2    0    0 -0.78452686184E+01  0.20189979838E+02 -0.23399504333E+02  0.59301947742E+02  0.50000006775E+02 0.  0.
        -12    1    1    2    0    0  0.78452686184E+01 -0.20189979838E+02  0.23399504333E+02  0.31886052258E+02  0.00000000000E+00 0.  1.
         11    1    3    3    0    0 -0.28988220652E+01  0.38996448376E+01  0.98632632104E+00  0.49581487572E+01  0.51100000000E-03 0. -1.
        -11    1    3    3    0    0 -0.12381205601E+02  0.21273064803E+02  0.36782818402E+01  0.24887090947E+02  0.51100000000E-03 0.  1.
         12    1    3    3    0    0  0.74347590476E+01 -0.49827298027E+01 -0.28064112494E+02  0.29456708039E+02  0.00000000000E+00 0. -1.
</event>
<event>
 7    1  0.6830263E-012  0.5930197E+02  0.7816164E-02  0.1266605E+00
        -11   -1    0    0    0    0  0.00000000000E+00  0.00000000000E+00  0.45593999997E+02  0.45594000000E+02  0.51100000000E-03 0.  1.
         11   -1    0    0    0    0 -0.00000000000E+00 -0.00000000000E+00 -0.45593999997E+02  0.45594000000E+02  0.51100000000E-03 0. -1.
    9900012    2    1    2    0    0 -0.18546088800E+02  0.17720640971E+02 -0.18940437630E+02  0.59301973220E+02  0.50000053239E+02 0.  0.
        -12    1    1    2    0    0  0.18546088800E+02 -0.17720640971E+02  0.18940437630E+02  0.31886026780E+02  0.00000000000E+00 0.  1.
         11    1    3    3    0    0  0.24849124322E+01 -0.65518189444E+01 -0.51467813381E+01  0.86942785600E+01  0.51100000000E-03 0. -1.
        -11    1    3    3    0    0  0.73944983049E+01  0.52941374643E+01  0.62036655098E+01  0.11008722119E+02  0.51100000000E-03 0.  1.
         12    1    3    3    0    0 -0.28425499537E+02  0.18978322451E+02 -0.19997321802E+02  0.39598972541E+02  0.00000000000E+00 0. -1.
</event>
<event>
 7    1  0.6830263E-012  0.5930193E+02  0.7816164E-02  0.1266605E+00
        -11   -1    0    0    0    0  0.00000000000E+00  0.00000000000E+00  0.45593999997E+02  0.45594000000E+02  0.51100000000E-03 0. -1.
         11   -1    0    0    0    0 -0.00000000000E+00 -0.00000000000E+00 -0.45593999997E+02  0.45594000000E+02  0.51100000000E-03 0.  1.
    9900012    2    1    2    0    0 -0.10892320658E+02 -0.53955145574E+01  0.29478245778E+02  0.59301934065E+02  0.49999981831E+02 0.  0.
        -12    1    1    2    0    0  0.10892320658E+02  0.53955145574E+01 -0.29478245778E+02  0.31886065935E+02  0.00000000000E+00 0.  1.
         11    1    3    3    0    0 -0.42005212445E+01 -0.33605242013E+01  0.15835679324E+02  0.16724420515E+02  0.51100000000E-03 0. -1.
        -11    1    3    3    0    0 -0.42315411433E+01 -0.20776241860E+02  0.49522181876E+01  0.21773438670E+02  0.51100000000E-03 0.  1.
         12    1    3    3    0    0 -0.24602582705E+01  0.18741251504E+02  0.86903482655E+01  0.20804074881E+02  0.00000000000E+00 0. -1.
</event>
<event>
 7    1  0.6830263E-012  0.5930196E+02  0.7816164E-02  0.1266605E+00
        -11   -1    0    0    0    0  0.00000000000E+00  0.00000000000E+00  0.45593999997E+02  0.45594000000E+02  0.51100000000E-03 0.  1.
         11   -1    0    0    0    0 -0.00000000000E+00 -0.00000000000E+00 -0.45593999997E+02  0.45594000000E+02  0.51100000000E-03 0. -1.
    9900012    2    1    2    0    0 -0.15013147939E+02 -0.28066928348E+02  0.18901634835E+01  0.59301956095E+02  0.50000022007E+02 0.  0.
        -12    1    1    2    0    0  0.15013147939E+02  0.28066928348E+02 -0.18901634835E+01  0.31886043905E+02  0.00000000000E+00 0.  1.
         11    1    3    3    0    0  0.53376754091E+01  0.13122964074E+01  0.14978296317E+02  0.15955007410E+02  0.51100000000E-03 0. -1.
        -11    1    3    3    0    0  0.37946467188E+01 -0.78144441864E+01 -0.81542935231E+00  0.87252396501E+01  0.51100000000E-03 0.  1.
         12    1    3    3    0    0 -0.24145470067E+02 -0.21564780569E+02 -0.12272703481E+02  0.34621709035E+02  0.00000000000E+00 0. -1.
</event>
<event>
 7    1  0.6830263E-012  0.5930195E+02  0.7816164E-02  0.1266605E+00
        -11   -1    0    0    0    0  0.00000000000E+00  0.00000000000E+00  0.45593999997E+02  0.45594000000E+02  0.51100000000E-03 0. -1.
         11   -1    0    0    0    0 -0.00000000000E+00 -0.00000000000E+00 -0.45593999997E+02  0.45594000000E+02  0.51100000000E-03 0.  1.
    9900012    2    1    2    0    0  0.10096812187E+02  0.28740484993E+02 -0.94211953908E+01  0.59301952635E+02  0.50000015698E+02 0.  0.
        -12    1    1    2    0    0 -0.10096812187E+02 -0.28740484993E+02  0.94211953908E+01  0.31886047365E+02  0.00000000000E+00 0.  1.
         11    1    3    3    0    0 -0.84377967136E+00  0.14906363939E+01 -0.11769191470E+02  0.11893184145E+02  0.51100000000E-03 0. -1.
        -11    1    3    3    0    0 -0.10874527638E+02  0.12232955185E+02 -0.89048320828E+01  0.18633211709E+02  0.51100000000E-03 0.  1.
         12    1    3    3    0    0  0.21815119496E+02  0.15016893414E+02  0.11252828162E+02  0.28775556781E+02  0.00000000000E+00 0. -1.
</event>
<event>
 7    1  0.6830263E-012  0.5930195E+02  0.7816164E-02  0.1266605E+00
        -11   -1    0    0    0    0  0.00000000000E+00  0.00000000000E+00  0.45593999997E+02  0.45594000000E+02  0.51100000000E-03 0.  1.
         11   -1    0    0    0    0 -0.00000000000E+00 -0.00000000000E+00 -0.45593999997E+02  0.45594000000E+02  0.51100000000E-03 0. -1.
    9900012    2    1    2    0    0  0.25899755052E+02  0.16713497986E+02  0.81597600894E+01  0.59301952716E+02  0.50000015845E+02 0.  0.
        -12    1    1    2    0    0 -0.25899755052E+02 -0.16713497986E+02 -0.81597600894E+01  0.31886047284E+02  0.00000000000E+00 0.  1.
         11    1    3    3    0    0  0.22351821031E+02  0.74181386628E+01 -0.12514306515E+02  0.26669093582E+02  0.51100000000E-03 0. -1.
        -11    1    3    3    0    0  0.62766745397E+01  0.45593398630E+01 -0.30136963107E+01  0.83226551640E+01  0.51100000000E-03 0.  1.
        -12    1    3    3    0    0 -0.27287405191E+01  0.47360194603E+01  0.23687762915E+02  0.24310203970E+02  0.00000000000E+00 0.  1.
</event>
<event>
 7    1  0.6830263E-012  0.5930193E+02  0.7816164E-02  0.1266605E+00
        -11   -1    0    0    0    0  0.00000000000E+00  0.00000000000E+00  0.45593999997E+02  0.45594000000E+02  0.51100000000E-03 0. -1.
         11   -1    0    0    0    0 -0.00000000000E+00 -0.00000000000E+00 -0.45593999997E+02  0.45594000000E+02  0.51100000000E-03 0.  1.
    9900012    2    1    2    0    0 -0.21430293415E+01  0.23011636825E+02  0.21968005938E+02  0.59301932681E+02  0.49999979307E+02 0.  0.
        -12    1    1    2    0    0  0.21430293415E+01 -0.23011636825E+02 -0.21968005938E+02  0.31886067319E+02  0.00000000000E+00 0.  1.
         11    1    3    3    0    0 -0.12132427928E+02  0.93064013877E+01  0.99053442256E+01  0.18218692563E+02  0.51100000000E-03 0. -1.
        -11    1    3    3    0    0  0.38891635208E+01 -0.11987250069E+02  0.61487176616E+01  0.14022356659E+02  0.51100000000E-03 0.  1.
        -12    1    3    3    0    0  0.61002350656E+01  0.25692485507E+02  0.59139440509E+01  0.27060883460E+02  0.00000000000E+00 0.  1.
</event>
<event>
 7    1  0.6830263E-012  0.5930195E+02  0.7816164E-02  0.1266605E+00
        -11   -1    0    0    0    0  0.00000000000E+00  0.00000000000E+00  0.45593999997E+02  0.45594000000E+02  0.51100000000E-03 0. -1.
         11   -1    0    0    0    0 -0.00000000000E+00 -0.00000000000E+00 -0.45593999997E+02  0.45594000000E+02  0.51100000000E-03 0.  1.
    9900012    2    1    2    0    0 -0.21979635060E+02 -0.57610441395E+01  0.22370210147E+02  0.59301948363E+02  0.50000007907E+02 0.  0.
        -12    1    1    2    0    0  0.21979635060E+02  0.57610441395E+01 -0.22370210147E+02  0.31886051637E+02  0.00000000000E+00 0.  1.
         11    1    3    3    0    0  0.29954958794E+00  0.11153362401E+02  0.91463769637E+01  0.14427176946E+02  0.51100000000E-03 0. -1.
        -11    1    3    3    0    0  0.66918935013E+00 -0.15350847285E+02 -0.43029977724E+01  0.15956569708E+02  0.51100000000E-03 0.  1.
        -12    1    3    3    0    0 -0.22948373998E+02 -0.15635592554E+01  0.17526830956E+02  0.28918201709E+02  0.00000000000E+00 0.  1.
</event>
<event>
 7    1  0.6830263E-012  0.5930194E+02  0.7816164E-02  0.1266605E+00
        -11   -1    0    0    0    0  0.00000000000E+00  0.00000000000E+00  0.45593999997E+02  0.45594000000E+02  0.51100000000E-03 0. -1.
         11   -1    0    0    0    0 -0.00000000000E+00 -0.00000000000E+00 -0.45593999997E+02  0.45594000000E+02  0.51100000000E-03 0.  1.
    9900012    2    1    2    0    0 -0.12612526806E+02 -0.69015426024E+01  0.28460742563E+02  0.59301937371E+02  0.49999987860E+02 0.  0.
        -12    1    1    2    0    0  0.12612526806E+02  0.69015426024E+01 -0.28460742563E+02  0.31886062629E+02  0.00000000000E+00 0.  1.
         11    1    3    3    0    0 -0.80951968470E+01 -0.41807496123E+01 -0.45551230969E+01  0.10186266539E+02  0.51100000000E-03 0. -1.
        -11    1    3    3    0    0 -0.13764562981E+02 -0.15366638171E+02  0.17277702446E+02  0.26909399191E+02  0.51100000000E-03 0.  1.
        -12    1    3    3    0    0  0.92472330219E+01  0.12645845180E+02  0.15738163214E+02  0.22206271642E+02  0.00000000000E+00 0.  1.
</event>
<event>
 7    1  0.6830263E-012  0.5930194E+02  0.7816164E-02  0.1266605E+00
        -11   -1    0    0    0    0  0.00000000000E+00  0.00000000000E+00  0.45593999997E+02  0.45594000000E+02  0.51100000000E-03 0. -1.
         11   -1    0    0    0    0 -0.00000000000E+00 -0.00000000000E+00 -0.45593999997E+02  0.45594000000E+02  0.51100000000E-03 0.  1.
    9900012    2    1    2    0    0 -0.19916912089E+02  0.25836367850E+01  0.24766149686E+02  0.59301941347E+02  0.49999995110E+02 0.  0.
        -12    1    1    2    0    0  0.19916912089E+02 -0.25836367850E+01 -0.24766149686E+02  0.31886058653E+02  0.00000000000E+00 0.  1.
         11    1    3    3    0    0 -0.19227372488E+01 -0.59518528546E+01  0.23311888649E+02  0.24136396243E+02  0.51100000000E-03 0. -1.
        -11    1    3    3    0    0 -0.15865214849E+02  0.19128215603E+01  0.13721704170E+02  0.21062979232E+02  0.51100000000E-03 0.  1.
        -12    1    3    3    0    0 -0.21289599905E+01  0.66226680793E+01 -0.12267443134E+02  0.14102565872E+02  0.00000000000E+00 0.  1.
</event>
<event>
 7    1  0.6830263E-012  0.5930192E+02  0.7816164E-02  0.1266605E+00
        -11   -1    0    0    0    0  0.00000000000E+00  0.00000000000E+00  0.45593999997E+02  0.45594000000E+02  0.51100000000E-03 0.  1.
         11   -1    0    0    0    0 -0.00000000000E+00 -0.00000000000E+00 -0.45593999997E+02  0.45594000000E+02  0.51100000000E-03 0. -1.
    9900012    2    1    2    0    0 -0.52305965523E+01  0.13256024225E+02 -0.28524387344E+02  0.59301921660E+02  0.49999959207E+02 0.  0.
        -12    1    1    2    0    0  0.52305965523E+01 -0.13256024225E+02  0.28524387344E+02  0.31886078340E+02  0.00000000000E+00 0.  1.
         11    1    3    3    0    0  0.13615848821E+02  0.62571664645E+01 -0.12620899773E+02  0.19591594694E+02  0.51100000000E-03 0. -1.
        -11    1    3    3    0    0  0.76324758344E+01 -0.27930494910E+01 -0.42077739489E+01  0.91521131269E+01  0.51100000000E-03 0.  1.
        -12    1    3    3    0    0 -0.26478921208E+02  0.97919072513E+01 -0.11695713622E+02  0.30558213840E+02  0.00000000000E+00 0.  1.
</event>
<event>
 7    1  0.6830263E-012  0.5930196E+02  0.7816164E-02  0.1266605E+00
        -11   -1    0    0    0    0  0.00000000000E+00  0.00000000000E+00  0.45593999997E+02  0.45594000000E+02  0.51100000000E-03 0.  1.
         11   -1    0    0    0    0 -0.00000000000E+00 -0.00000000000E+00 -0.45593999997E+02  0.45594000000E+02  0.51100000000E-03 0. -1.
    9900012    2    1    2    0    0  0.28779114469E+02  0.97495878087E+01 -0.96657938242E+01  0.59301961326E+02  0.50000031549E+02 0.  0.
        -12    1    1    2    0    0 -0.28779114469E+02 -0.97495878087E+01  0.96657938242E+01  0.31886038674E+02  0.00000000000E+00 0.  1.
         11    1    3    3    0    0 -0.62872819419E+01  0.69581794664E+01 -0.76908245825E+01  0.12128271053E+02  0.51100000000E-03 0. -1.
        -11    1    3    3    0    0 -0.51364722473E+01  0.27895593722E+01 -0.37277818409E+01  0.69326291082E+01  0.51100000000E-03 0.  1.
         12    1    3    3    0    0  0.40202868658E+02  0.18489701063E-02  0.17528125992E+01  0.40241061166E+02  0.00000000000E+00 0. -1.
</event>
<event>
 7    1  0.6830263E-012  0.5930193E+02  0.7816164E-02  0.1266605E+00
        -11   -1    0    0    0    0  0.00000000000E+00  0.00000000000E+00  0.45593999997E+02  0.45594000000E+02  0.51100000000E-03 0.  1.
         11   -1    0    0    0    0 -0.00000000000E+00 -0.00000000000E+00 -0.45593999997E+02  0.45594000000E+02  0.51100000000E-03 0. -1.
    9900012    2    1    2    0    0 -0.90811906113E+01 -0.28417471212E+02  0.11256140405E+02  0.59301931101E+02  0.49999976426E+02 0.  0.
        -12    1    1    2    0    0  0.90811906113E+01  0.28417471212E+02 -0.11256140405E+02  0.31886068899E+02  0.00000000000E+00 0.  1.
         11    1    3    3    0    0 -0.35919999271E+01 -0.19266813351E+01 -0.13574701103E+02  0.14173463752E+02  0.51100000000E-03 0. -1.
        -11    1    3    3    0    0 -0.14745868415E+02 -0.76128361153E+01  0.96667853491E+01  0.19205276574E+02  0.51100000000E-03 0.  1.
        -12    1    3    3    0    0  0.92566777304E+01 -0.18877953761E+02  0.15164056158E+02  0.25923190776E+02  0.00000000000E+00 0.  1.
</event>
<event>
 7    1  0.6830263E-012  0.5930196E+02  0.7816164E-02  0.1266605E+00
        -11   -1    0    0    0    0  0.00000000000E+00  0.00000000000E+00  0.45593999997E+02  0.45594000000E+02  0.51100000000E-03 0. -1.
         11   -1    0    0    0    0 -0.00000000000E+00 -0.00000000000E+00 -0.45593999997E+02  0.45594000000E+02  0.51100000000E-03 0.  1.
    9900012    2    1    2    0    0  0.31953987375E+01  0.21672852715E+02  0.23168870486E+02  0.59301957952E+02  0.50000025395E+02 0.  0.
        -12    1    1    2    0    0 -0.31953987375E+01 -0.21672852715E+02 -0.23168870486E+02  0.31886042048E+02  0.00000000000E+00 0.  1.
         11    1    3    3    0    0 -0.22143405815E+01 -0.60365053591E+01  0.98563931430E+01  0.11768227870E+02  0.51100000000E-03 0. -1.
        -11    1    3    3    0    0  0.14186966240E+02 -0.14844031530E+01  0.86835327410E+01  0.16699616910E+02  0.51100000000E-03 0.  1.
        -12    1    3    3    0    0 -0.87772269204E+01  0.29193761227E+02  0.46289446022E+01  0.30834113172E+02  0.00000000000E+00 0.  1.
</event>
<event>
 7    1  0.6830263E-012  0.5930194E+02  0.7816164E-02  0.1266605E+00
        -11   -1    0    0    0    0  0.00000000000E+00  0.00000000000E+00  0.45593999997E+02  0.45594000000E+02  0.51100000000E-03 0. -1.
         11   -1    0    0    0    0 -0.00000000000E+00 -0.00000000000E+00 -0.45593999997E+02  0.45594000000E+02  0.51100000000E-03 0.  1.
    9900012    2    1    2    0    0 -0.21684204740E+02 -0.17007785603E+02  0.16039050454E+02  0.59301942768E+02  0.49999997703E+02 0.  0.
        -12    1    1    2    0    0  0.21684204740E+02  0.17007785603E+02 -0.16039050454E+02  0.31886057232E+02  0.00000000000E+00 0.  1.
         11    1    3    3    0    0 -0.45330387797E+01  0.18460199416E+00 -0.20601308880E+01  0.49826356491E+01  0.51100000000E-03 0. -1.
        -11    1    3    3    0    0 -0.14480396028E+02  0.63931822916E+01 -0.90688768356E+01  0.18242784225E+02  0.51100000000E-03 0.  1.
         12    1    3    3    0    0 -0.26707699315E+01 -0.23585569889E+02  0.27168058177E+02  0.36076522895E+02  0.00000000000E+00 0. -1.
</event>
<event>
 7    1  0.6830263E-012  0.5930197E+02  0.7816164E-02  0.1266605E+00
        -11   -1    0    0    0    0  0.00000000000E+00  0.00000000000E+00  0.45593999997E+02  0.45594000000E+02  0.51100000000E-03 0.  1.
         11   -1    0    0    0    0 -0.00000000000E+00 -0.00000000000E+00 -0.45593999997E+02  0.45594000000E+02  0.51100000000E-03 0. -1.
    9900012    2    1    2    0    0  0.15902459706E+02 -0.58357361396E+01 -0.27014345600E+02  0.59301970000E+02  0.50000047367E+02 0.  0.
        -12    1    1    2    0    0 -0.15902459706E+02  0.58357361396E+01  0.27014345600E+02  0.31886030000E+02  0.00000000000E+00 0.  1.
         11    1    3    3    0    0  0.45127143715E+01  0.23792462405E+01 -0.28086640909E+02  0.28546187162E+02  0.51100000000E-03 0. -1.
        -11    1    3    3    0    0  0.15822821018E+01  0.90235680068E+01  0.51474215054E+01  0.10508298846E+02  0.51100000000E-03 0.  1.
         12    1    3    3    0    0  0.98074632327E+01 -0.17238550387E+02 -0.40751261963E+01  0.20247483992E+02  0.00000000000E+00 0. -1.
</event>
<event>
 7    1  0.6830263E-012  0.5930195E+02  0.7816164E-02  0.1266605E+00
        -11   -1    0    0    0    0  0.00000000000E+00  0.00000000000E+00  0.45593999997E+02  0.45594000000E+02  0.51100000000E-03 0.  1.
         11   -1    0    0    0    0 -0.00000000000E+00 -0.00000000000E+00 -0.45593999997E+02  0.45594000000E+02  0.51100000000E-03 0. -1.
    9900012    2    1    2    0    0  0.22011767572E+02 -0.44377033008E+01 -0.22638667566E+02  0.59301946758E+02  0.50000004979E+02 0.  0.
        -12    1    1    2    0    0 -0.22011767572E+02  0.44377033008E+01  0.22638667566E+02  0.31886053242E+02  0.00000000000E+00 0.  1.
         11    1    3    3    0    0 -0.16531599428E+01 -0.75683690465E+01  0.51182706311E+01  0.92849255428E+01  0.51100000000E-03 0. -1.
        -11    1    3    3    0    0 -0.53349647846E+01  0.97746530538E+01 -0.11923485897E+02  0.16314876885E+02  0.51100000000E-03 0.  1.
         12    1    3    3    0    0  0.28999892299E+02 -0.66439873080E+01 -0.15833452300E+02  0.33702144330E+02  0.00000000000E+00 0. -1.
</event>
<event>
 7    1  0.6830263E-012  0.5930192E+02  0.7816164E-02  0.1266605E+00
        -11   -1    0    0    0    0  0.00000000000E+00  0.00000000000E+00  0.45593999997E+02  0.45594000000E+02  0.51100000000E-03 0. -1.
         11   -1    0    0    0    0 -0.00000000000E+00 -0.00000000000E+00 -0.45593999997E+02  0.45594000000E+02  0.51100000000E-03 0.  1.
    9900012    2    1    2    0    0 -0.29616231694E+02 -0.77699732423E+01 -0.89010437153E+01  0.59301917720E+02  0.49999952022E+02 0.  0.
        -12    1    1    2    0    0  0.29616231694E+02  0.77699732423E+01  0.89010437153E+01  0.31886082280E+02  0.00000000000E+00 0.  1.
         11    1    3    3    0    0 -0.14808154266E+02 -0.48550893345E+01 -0.10295169292E+01  0.15617721684E+02  0.51100000000E-03 0. -1.
        -11    1    3    3    0    0 -0.36432040903E+00 -0.18119135413E+02  0.53464220026E+01  0.18894973564E+02  0.51100000000E-03 0.  1.
        -12    1    3    3    0    0 -0.14443757019E+02  0.15204251505E+02 -0.13217948789E+02  0.24789222473E+02  0.00000000000E+00 0.  1.
</event>
<event>
 7    1  0.6830263E-012  0.5930195E+02  0.7816164E-02  0.1266605E+00
        -11   -1    0    0    0    0  0.00000000000E+00  0.00000000000E+00  0.45593999997E+02  0.45594000000E+02  0.51100000000E-03 0.  1.
         11   -1    0    0    0    0 -0.00000000000E+00 -0.00000000000E+00 -0.45593999997E+02  0.45594000000E+02  0.51100000000E-03 0. -1.
    9900012    2    1    2    0    0 -0.15640417785E+02  0.27689722896E+02 -0.23188422534E+01  0.59301945808E+02  0.50000003246E+02 0.  0.
        -12    1    1    2    0    0  0.15640417785E+02 -0.27689722896E+02  0.23188422534E+01  0.31886054192E+02  0.00000000000E+00 0.  1.
         11    1    3    3    0    0  0.94992323675E-01  0.82242939615E+01 -0.20417236754E+02  0.22011624011E+02  0.51100000000E-03 0. -1.
        -11    1    3    3    0    0 -0.47643260875E+01  0.21421787796E+01 -0.44142245587E+01  0.68390870522E+01  0.51100000000E-03 0.  1.
        -12    1    3    3    0    0 -0.10971084021E+02  0.17323250155E+02  0.22512619059E+02  0.30451234744E+02  0.00000000000E+00 0.  1.
</event>
<event>
 7    1  0.6830263E-012  0.5930196E+02  0.7816164E-02  0.1266605E+00
        -11   -1    0    0    0    0  0.00000000000E+00  0.00000000000E+00  0.45593999997E+02  0.45594000000E+02  0.51100000000E-03 0.  1.
         11   -1    0    0    0    0 -0.00000000000E+00 -0.00000000000E+00 -0.45593999997E+02  0.45594000000E+02  0.51100000000E-03 0. -1.
    9900012    2    1    2    0    0  0.92903604201E+01  0.21286901270E+02 -0.21846656914E+02  0.59301962606E+02  0.50000033882E+02 0.  0.
        -12    1    1    2    0    0 -0.92903604201E+01 -0.21286901270E+02  0.21846656914E+02  0.31886037394E+02  0.00000000000E+00 0.  1.
         11    1    3    3    0    0 -0.43080048580E+01  0.21629171102E+02 -0.16208108674E+02  0.27369375869E+02  0.51100000000E-03 0. -1.
        -11    1    3    3    0    0  0.18656911296E+02  0.63769714276E+01 -0.10375347768E+02  0.22279900028E+02  0.51100000000E-03 0.  1.
        -12    1    3    3    0    0 -0.50585460177E+01 -0.67192412599E+01  0.47367995282E+01  0.96526867085E+01  0.00000000000E+00 0.  1.
</event>
<event>
 7    1  0.6830263E-012  0.5930195E+02  0.7816164E-02  0.1266605E+00
        -11   -1    0    0    0    0  0.00000000000E+00  0.00000000000E+00  0.45593999997E+02  0.45594000000E+02  0.51100000000E-03 0. -1.
         11   -1    0    0    0    0 -0.00000000000E+00 -0.00000000000E+00 -0.45593999997E+02  0.45594000000E+02  0.51100000000E-03 0.  1.
    9900012    2    1    2    0    0 -0.36790619098E+01  0.31339477810E+02  0.45849403099E+01  0.59301952212E+02  0.50000014925E+02 0.  0.
        -12    1    1    2    0    0  0.36790619098E+01 -0.31339477810E+02 -0.45849403099E+01  0.31886047788E+02  0.00000000000E+00 0.  1.
         11    1    3    3    0    0 -0.21051957036E+02  0.99636835014E+01  0.72975648987E+01  0.24407259938E+02  0.51100000000E-03 0. -1.
        -11    1    3    3    0    0  0.43675669863E+01  0.17486415516E+02  0.57257163001E+01  0.18911218797E+02  0.51100000000E-03 0.  1.
        -12    1    3    3    0    0  0.13005328140E+02  0.38893787922E+01 -0.84383408888E+01  0.15983473477E+02  0.00000000000E+00 0.  1.
</event>
<event>
 7    1  0.6830263E-012  0.5930198E+02  0.7816164E-02  0.1266605E+00
        -11   -1    0    0    0    0  0.00000000000E+00  0.00000000000E+00  0.45593999997E+02  0.45594000000E+02  0.51100000000E-03 0. -1.
         11   -1    0    0    0    0 -0.00000000000E+00 -0.00000000000E+00 -0.45593999997E+02  0.45594000000E+02  0.51100000000E-03 0.  1.
    9900012    2    1    2    0    0  0.15657877709E+02  0.63306143975E+01  0.27045742122E+02  0.59301984572E+02  0.50000073942E+02 0.  0.
        -12    1    1    2    0    0 -0.15657877709E+02 -0.63306143975E+01 -0.27045742122E+02  0.31886015428E+02  0.00000000000E+00 0.  1.
         11    1    3    3    0    0  0.47551200339E+01  0.21114980906E+02  0.24704403844E+02  0.32844499612E+02  0.51100000000E-03 0. -1.
        -11    1    3    3    0    0 -0.38261509776E+00  0.38062478615E+01 -0.19445731938E+01  0.42913030962E+01  0.51100000000E-03 0.  1.
         12    1    3    3    0    0  0.11285372773E+02 -0.18590614370E+02  0.42859114713E+01  0.22166181864E+02  0.00000000000E+00 0. -1.
</event>
<event>
 7    1  0.6830263E-012  0.5930195E+02  0.7816164E-02  0.1266605E+00
        -11   -1    0    0    0    0  0.00000000000E+00  0.00000000000E+00  0.45593999997E+02  0.45594000000E+02  0.51100000000E-03 0. -1.
         11   -1    0    0    0    0 -0.00000000000E+00 -0.00000000000E+00 -0.45593999997E+02  0.45594000000E+02  0.51100000000E-03 0.  1.
    9900012    2    1    2    0    0  0.31729204244E+01  0.14571389556E+02  0.28183818272E+02  0.59301946152E+02  0.50000003875E+02 0.  0.
        -12    1    1    2    0    0 -0.31729204244E+01 -0.14571389556E+02 -0.28183818272E+02  0.31886053848E+02  0.00000000000E+00 0.  1.
         11    1    3    3    0    0  0.15077634517E+02  0.77031107002E+01 -0.22564465956E+01  0.17081116140E+02  0.51100000000E-03 0. -1.
        -11    1    3    3    0    0 -0.19042858818E+02  0.96899035995E+01  0.24548888892E+02  0.32544932782E+02  0.51100000000E-03 0.  1.
         12    1    3    3    0    0  0.71381447254E+01 -0.28216247435E+01  0.58913759754E+01  0.96758972296E+01  0.00000000000E+00 0. -1.
</event>
<event>
 7    1  0.6830263E-012  0.5930193E+02  0.7816164E-02  0.1266605E+00
        -11   -1    0    0    0    0  0.00000000000E+00  0.00000000000E+00  0.45593999997E+02  0.45594000000E+02  0.51100000000E-03 0.  1.
         11   -1    0    0    0    0 -0.00000000000E+00 -0.00000000000E+00 -0.45593999997E+02  0.45594000000E+02  0.51100000000E-03 0. -1.
    9900012    2    1    2    0    0  0.21120014305E+02 -0.22641730226E+02  0.76169727311E+01  0.59301933678E+02  0.49999981125E+02 0.  0.
        -12    1    1    2    0    0 -0.21120014305E+02  0.22641730226E+02 -0.76169727311E+01  0.31886066322E+02  0.00000000000E+00 0.  1.
         11    1    3    3    0    0 -0.12389982501E+02 -0.48827714301E+00  0.28924186506E+01  0.12732484709E+02  0.51100000000E-03 0. -1.
        -11    1    3    3    0    0  0.85534958970E+01 -0.43757239219E+01  0.11705134031E+02  0.15143296036E+02  0.51100000000E-03 0.  1.
         12    1    3    3    0    0  0.24956500910E+02 -0.17777729161E+02 -0.69805799501E+01  0.31426152934E+02  0.00000000000E+00 0. -1.
</event>
<event>
 7    1  0.6830263E-012  0.5930193E+02  0.7816164E-02  0.1266605E+00
        -11   -1    0    0    0    0  0.00000000000E+00  0.00000000000E+00  0.45593999997E+02  0.45594000000E+02  0.51100000000E-03 0.  1.
         11   -1    0    0    0    0 -0.00000000000E+00 -0.00000000000E+00 -0.45593999997E+02  0.45594000000E+02  0.51100000000E-03 0. -1.
    9900012    2    1    2    0    0  0.11899224270E+02 -0.21963820185E+02 -0.19817174210E+02  0.59301932055E+02  0.49999978164E+02 0.  0.
        -12    1    1    2    0    0 -0.11899224270E+02  0.21963820185E+02  0.19817174210E+02  0.31886067945E+02  0.00000000000E+00 0.  1.
         11    1    3    3    0    0  0.66608820086E+00 -0.15453926508E+02  0.12217550581E+02  0.19711318081E+02  0.51100000000E-03 0. -1.
        -11    1    3    3    0    0 -0.47228951594E+01 -0.14931904185E+01 -0.22709758629E+01  0.54490997370E+01  0.51100000000E-03 0.  1.
         12    1    3    3    0    0  0.15956031228E+02 -0.50167032582E+01 -0.29763748929E+02  0.34141514237E+02  0.00000000000E+00 0. -1.
</event>
<event>
 7    1  0.6830263E-012  0.5930195E+02  0.7816164E-02  0.1266605E+00
        -11   -1    0    0    0    0  0.00000000000E+00  0.00000000000E+00  0.45593999997E+02  0.45594000000E+02  0.51100000000E-03 0.  1.
         11   -1    0    0    0    0 -0.00000000000E+00 -0.00000000000E+00 -0.45593999997E+02  0.45594000000E+02  0.51100000000E-03 0. -1.
    9900012    2    1    2    0    0 -0.22050133928E+02 -0.74817091813E+01 -0.21783846031E+02  0.59301947776E+02  0.50000006836E+02 0.  0.
        -12    1    1    2    0    0  0.22050133928E+02  0.74817091813E+01  0.21783846031E+02  0.31886052224E+02  0.00000000000E+00 0.  1.
         11    1    3    3    0    0  0.89381581794E+01 -0.87238855324E+01 -0.64289377987E+01  0.14047351775E+02  0.51100000000E-03 0.  1.
        -11    1    3    3    0    0 -0.99723168034E+01  0.18927677608E+01 -0.21137125413E+02  0.23447979512E+02  0.51100000000E-03 0. -1.
         12    1    3    3    0    0 -0.21015975304E+02 -0.65059140969E+00  0.57822171806E+01  0.21806616488E+02  0.00000000000E+00 0. -1.
</event>
<event>
 7    1  0.6830263E-012  0.5930192E+02  0.7816164E-02  0.1266605E+00
        -11   -1    0    0    0    0  0.00000000000E+00  0.00000000000E+00  0.45593999997E+02  0.45594000000E+02  0.51100000000E-03 0.  1.
         11   -1    0    0    0    0 -0.00000000000E+00 -0.00000000000E+00 -0.45593999997E+02  0.45594000000E+02  0.51100000000E-03 0. -1.
    9900012    2    1    2    0    0 -0.30142320448E+02  0.78744896273E+01  0.67937423012E+01  0.59301921481E+02  0.49999958881E+02 0.  0.
        -12    1    1    2    0    0  0.30142320448E+02 -0.78744896273E+01 -0.67937423012E+01  0.31886078519E+02  0.00000000000E+00 0.  1.
         11    1    3    3    0    0  0.53762689514E+01 -0.80362385964E+00  0.12116055247E+02  0.13279641341E+02  0.51100000000E-03 0. -1.
        -11    1    3    3    0    0 -0.79667299614E+01 -0.56716373055E+01  0.75916300903E+01  0.12380189970E+02  0.51100000000E-03 0.  1.
         12    1    3    3    0    0 -0.27551859438E+02  0.14349750792E+02 -0.12913943036E+02  0.33642090170E+02  0.00000000000E+00 0. -1.
</event>
<event>
 7    1  0.6830263E-012  0.5930192E+02  0.7816164E-02  0.1266605E+00
        -11   -1    0    0    0    0  0.00000000000E+00  0.00000000000E+00  0.45593999997E+02  0.45594000000E+02  0.51100000000E-03 0. -1.
         11   -1    0    0    0    0 -0.00000000000E+00 -0.00000000000E+00 -0.45593999997E+02  0.45594000000E+02  0.51100000000E-03 0.  1.
    9900012    2    1    2    0    0 -0.23508899485E+02  0.21473179854E+02  0.17194703913E+01  0.59301915473E+02  0.49999947924E+02 0.  0.
        -12    1    1    2    0    0  0.23508899485E+02 -0.21473179854E+02 -0.17194703913E+01  0.31886084527E+02  0.00000000000E+00 0.  1.
         11    1    3    3    0    0  0.26598410398E+01 -0.28294095574E+01 -0.77447159368E+01  0.86637715808E+01  0.51100000000E-03 0. -1.
        -11    1    3    3    0    0 -0.16901332577E+02  0.74193101100E+01 -0.11831970684E+02  0.21924797283E+02  0.51100000000E-03 0.  1.
         12    1    3    3    0    0 -0.92674079478E+01  0.16883279301E+02  0.21296157012E+02  0.28713346609E+02  0.00000000000E+00 0. -1.
</event>
<event>
 7    1  0.6830263E-012  0.5930194E+02  0.7816164E-02  0.1266605E+00
        -11   -1    0    0    0    0  0.00000000000E+00  0.00000000000E+00  0.45593999997E+02  0.45594000000E+02  0.51100000000E-03 0. -1.
         11   -1    0    0    0    0 -0.00000000000E+00 -0.00000000000E+00 -0.45593999997E+02  0.45594000000E+02  0.51100000000E-03 0.  1.
    9900012    2    1    2    0    0 -0.26077039562E+02 -0.52145610041E+01  0.17593106652E+02  0.59301936580E+02  0.49999986416E+02 0.  0.
        -12    1    1    2    0    0  0.26077039562E+02  0.52145610041E+01 -0.17593106652E+02  0.31886063420E+02  0.00000000000E+00 0.  1.
         11    1    3    3    0    0 -0.84643404885E+01  0.41707406932E+01  0.11193419776E+02  0.14640108756E+02  0.51100000000E-03 0. -1.
        -11    1    3    3    0    0  0.58548923246E+00 -0.39691580246E+01  0.20577785700E+02  0.20965263596E+02  0.51100000000E-03 0.  1.
        -12    1    3    3    0    0 -0.18198188306E+02 -0.54161436726E+01 -0.14178098825E+02  0.23696564228E+02  0.00000000000E+00 0.  1.
</event>
<event>
 7    1  0.6830263E-012  0.5930204E+02  0.7816164E-02  0.1266604E+00
        -11   -1    0    0    0    0  0.00000000000E+00  0.00000000000E+00  0.45593999997E+02  0.45594000000E+02  0.51100000000E-03 0. -1.
         11   -1    0    0    0    0 -0.00000000000E+00 -0.00000000000E+00 -0.45593999997E+02  0.45594000000E+02  0.51100000000E-03 0.  1.
    9900012    2    1    2    0    0 -0.28087612320E+02 -0.13569413257E+02  0.66084426022E+01  0.59302039835E+02  0.50000174730E+02 0.  0.
        -12    1    1    2    0    0  0.28087612320E+02  0.13569413257E+02 -0.66084426022E+01  0.31885960165E+02  0.00000000000E+00 0.  1.
         11    1    3    3    0    0 -0.73413088328E+01 -0.17311820419E+02  0.68097795531E+00  0.18816420298E+02  0.51100000000E-03 0. -1.
        -11    1    3    3    0    0  0.25163769008E+01 -0.11714348414E+02  0.33286481823E+01  0.12435353250E+02  0.51100000000E-03 0.  1.
         12    1    3    3    0    0 -0.23262680388E+02  0.15456755576E+02  0.25988164647E+01  0.28050266287E+02  0.00000000000E+00 0. -1.
</event>
<event>
 7    1  0.6830263E-012  0.5930195E+02  0.7816164E-02  0.1266605E+00
        -11   -1    0    0    0    0  0.00000000000E+00  0.00000000000E+00  0.45593999997E+02  0.45594000000E+02  0.51100000000E-03 0. -1.
         11   -1    0    0    0    0 -0.00000000000E+00 -0.00000000000E+00 -0.45593999997E+02  0.45594000000E+02  0.51100000000E-03 0.  1.
    9900012    2    1    2    0    0  0.27466010150E+02 -0.15835913438E+02 -0.34003340777E+01  0.59301950703E+02  0.50000012174E+02 0.  0.
        -12    1    1    2    0    0 -0.27466010150E+02  0.15835913438E+02  0.34003340777E+01  0.31886049297E+02  0.00000000000E+00 0.  1.
         11    1    3    3    0    0  0.99920131609E+01 -0.46680479270E+01 -0.34967803662E+01  0.11569722194E+02  0.51100000000E-03 0. -1.
        -11    1    3    3    0    0  0.25943514278E+01  0.49832082883E+01 -0.18263430112E+02  0.19108006278E+02  0.51100000000E-03 0.  1.
        -12    1    3    3    0    0  0.14879645561E+02 -0.16151073799E+02  0.18359876401E+02  0.28624222231E+02  0.00000000000E+00 0.  1.
</event>
<event>
 7    1  0.6830263E-012  0.5930188E+02  0.7816164E-02  0.1266605E+00
        -11   -1    0    0    0    0  0.00000000000E+00  0.00000000000E+00  0.45593999997E+02  0.45594000000E+02  0.51100000000E-03 0. -1.
         11   -1    0    0    0    0 -0.00000000000E+00 -0.00000000000E+00 -0.45593999997E+02  0.45594000000E+02  0.51100000000E-03 0.  1.
    9900012    2    1    2    0    0  0.29383365692E+02  0.12371696876E+02  0.53275338715E+00  0.59301876229E+02  0.49999876351E+02 0.  0.
        -12    1    1    2    0    0 -0.29383365692E+02 -0.12371696876E+02 -0.53275338715E+00  0.31886123771E+02  0.00000000000E+00 0.  1.
         11    1    3    3    0    0  0.15255394487E+02  0.43631106343E+01  0.13670838350E+02  0.20944106971E+02  0.51100000000E-03 0. -1.
        -11    1    3    3    0    0  0.21800972866E+02 -0.35876517330E+01 -0.89228200477E+01  0.23827932784E+02  0.51100000000E-03 0.  1.
        -12    1    3    3    0    0 -0.76730016620E+01  0.11596237975E+02 -0.42152649147E+01  0.14529836474E+02  0.00000000000E+00 0.  1.
</event>
<event>
 7    1  0.6830263E-012  0.5930203E+02  0.7816164E-02  0.1266604E+00
        -11   -1    0    0    0    0  0.00000000000E+00  0.00000000000E+00  0.45593999997E+02  0.45594000000E+02  0.51100000000E-03 0. -1.
         11   -1    0    0    0    0 -0.00000000000E+00 -0.00000000000E+00 -0.45593999997E+02  0.45594000000E+02  0.51100000000E-03 0.  1.
    9900012    2    1    2    0    0 -0.85979385911E+00  0.71949409855E+01  0.31051710620E+02  0.59302028889E+02  0.50000154766E+02 0.  0.
        -12    1    1    2    0    0  0.85979385911E+00 -0.71949409855E+01 -0.31051710620E+02  0.31885971111E+02  0.00000000000E+00 0.  1.
         11    1    3    3    0    0 -0.17568317374E+02 -0.61699874567E+01  0.54179997035E+01  0.19392504779E+02  0.51100000000E-03 0. -1.
        -11    1    3    3    0    0 -0.28190791662E+01 -0.15361560293E+01 -0.12939160689E+01  0.34613872575E+01  0.51100000000E-03 0.  1.
        -12    1    3    3    0    0  0.19527602681E+02  0.14901084472E+02  0.26927626986E+02  0.36448136852E+02  0.00000000000E+00 0.  1.
</event>
<event>
 7    1  0.6830263E-012  0.5930193E+02  0.7816164E-02  0.1266605E+00
        -11   -1    0    0    0    0  0.00000000000E+00  0.00000000000E+00  0.45593999997E+02  0.45594000000E+02  0.51100000000E-03 0.  1.
         11   -1    0    0    0    0 -0.00000000000E+00 -0.00000000000E+00 -0.45593999997E+02  0.45594000000E+02  0.51100000000E-03 0. -1.
    9900012    2    1    2    0    0 -0.12888782042E+01 -0.11113515141E+02 -0.29858831883E+02  0.59301933023E+02  0.49999979931E+02 0.  0.
        -12    1    1    2    0    0  0.12888782042E+01  0.11113515141E+02  0.29858831883E+02  0.31886066977E+02  0.00000000000E+00 0.  1.
         11    1    3    3    0    0  0.17388749041E+01 -0.32383678465E+01  0.14259369116E+01  0.39425890704E+01  0.51100000000E-03 0. -1.
        -11    1    3    3    0    0 -0.22490131144E+02  0.68475886536E+00 -0.81314850355E+01  0.23924797653E+02  0.51100000000E-03 0.  1.
         12    1    3    3    0    0  0.19462378036E+02 -0.85599061597E+01 -0.23153283759E+02  0.31434546300E+02  0.00000000000E+00 0. -1.
</event>
<event>
 7    1  0.6830263E-012  0.5930196E+02  0.7816164E-02  0.1266605E+00
        -11   -1    0    0    0    0  0.00000000000E+00  0.00000000000E+00  0.45593999997E+02  0.45594000000E+02  0.51100000000E-03 0.  1.
         11   -1    0    0    0    0 -0.00000000000E+00 -0.00000000000E+00 -0.45593999997E+02  0.45594000000E+02  0.51100000000E-03 0. -1.
    9900012    2    1    2    0    0  0.18381191347E+02  0.21370321918E+02  0.14905056592E+02  0.59301959696E+02  0.50000028576E+02 0.  0.
        -12    1    1    2    0    0 -0.18381191347E+02 -0.21370321918E+02 -0.14905056592E+02  0.31886040304E+02  0.00000000000E+00 0.  1.
         11    1    3    3    0    0 -0.38529785086E+01  0.64542611997E+01 -0.34108881620E+01  0.82545193280E+01  0.51100000000E-03 0. -1.
        -11    1    3    3    0    0  0.17085078668E+02  0.15662327354E+02  0.30203138116E+02  0.38071484914E+02  0.51100000000E-03 0.  1.
         12    1    3    3    0    0  0.51490911877E+01 -0.74626663491E+00 -0.11887193362E+02  0.12975955455E+02  0.00000000000E+00 0. -1.
</event>
<event>
 7    1  0.6830263E-012  0.5930195E+02  0.7816164E-02  0.1266605E+00
        -11   -1    0    0    0    0  0.00000000000E+00  0.00000000000E+00  0.45593999997E+02  0.45594000000E+02  0.51100000000E-03 0.  1.
         11   -1    0    0    0    0 -0.00000000000E+00 -0.00000000000E+00 -0.45593999997E+02  0.45594000000E+02  0.51100000000E-03 0. -1.
    9900012    2    1    2    0    0  0.17861236189E+01 -0.70895219740E+01 -0.31036573693E+02  0.59301945587E+02  0.50000002844E+02 0.  0.
        -12    1    1    2    0    0 -0.17861236189E+01  0.70895219740E+01  0.31036573693E+02  0.31886054413E+02  0.00000000000E+00 0.  1.
         11    1    3    3    0    0 -0.13443445358E+02 -0.24879810225E+01  0.21285653893E+01  0.13836439699E+02  0.51100000000E-03 0. -1.
        -11    1    3    3    0    0 -0.65400153371E+01  0.20850966185E+01 -0.25801146717E+01  0.73332407910E+01  0.51100000000E-03 0.  1.
         12    1    3    3    0    0  0.21769584314E+02 -0.66866375701E+01 -0.30585024411E+02  0.38132265097E+02  0.00000000000E+00 0. -1.
</event>
<event>
 7    1  0.6830263E-012  0.5930196E+02  0.7816164E-02  0.1266605E+00
        -11   -1    0    0    0    0  0.00000000000E+00  0.00000000000E+00  0.45593999997E+02  0.45594000000E+02  0.51100000000E-03 0.  1.
         11   -1    0    0    0    0 -0.00000000000E+00 -0.00000000000E+00 -0.45593999997E+02  0.45594000000E+02  0.51100000000E-03 0. -1.
    9900012    2    1    2    0    0 -0.12095689771E+02  0.26862708758E+02 -0.12198709327E+02  0.59301963211E+02  0.50000034986E+02 0.  0.
        -12    1    1    2    0    0  0.12095689771E+02 -0.26862708758E+02  0.12198709327E+02  0.31886036789E+02  0.00000000000E+00 0.  1.
         11    1    3    3    0    0 -0.41465970358E+01 -0.14905197244E+01 -0.10998318616E+02  0.11848161404E+02  0.51100000000E-03 0. -1.
        -11    1    3    3    0    0 -0.75816666600E+01 -0.67104340435E+01 -0.64393173623E+01  0.11999016741E+02  0.51100000000E-03 0.  1.
        -12    1    3    3    0    0 -0.36742607555E+00  0.35063662525E+02  0.52389266510E+01  0.35454785066E+02  0.00000000000E+00 0.  1.
</event>
<event>
 7    1  0.6830263E-012  0.5930195E+02  0.7816164E-02  0.1266605E+00
        -11   -1    0    0    0    0  0.00000000000E+00  0.00000000000E+00  0.45593999997E+02  0.45594000000E+02  0.51100000000E-03 0.  1.
         11   -1    0    0    0    0 -0.00000000000E+00 -0.00000000000E+00 -0.45593999997E+02  0.45594000000E+02  0.51100000000E-03 0. -1.
    9900012    2    1    2    0    0  0.21134302381E+02  0.21395541173E+02  0.10596811202E+02  0.59301947770E+02  0.50000006824E+02 0.  0.
        -12    1    1    2    0    0 -0.21134302381E+02 -0.21395541173E+02 -0.10596811202E+02  0.31886052230E+02  0.00000000000E+00 0.  1.
         11    1    3    3    0    0  0.67194364867E+01  0.18361092242E+02  0.64088047211E+01  0.20575551347E+02  0.51100000000E-03 0. -1.
        -11    1    3    3    0    0 -0.14610330092E+01  0.15374294745E+02  0.92362330688E+01  0.17994764736E+02  0.51100000000E-03 0.  1.
         12    1    3    3    0    0  0.15875898903E+02 -0.12339845814E+02 -0.50482265880E+01  0.20731631686E+02  0.00000000000E+00 0. -1.
</event>
<event>
 7    1  0.6830263E-012  0.5930173E+02  0.7816164E-02  0.1266605E+00
        -11   -1    0    0    0    0  0.00000000000E+00  0.00000000000E+00  0.45593999997E+02  0.45594000000E+02  0.51100000000E-03 0.  1.
         11   -1    0    0    0    0 -0.00000000000E+00 -0.00000000000E+00 -0.45593999997E+02  0.45594000000E+02  0.51100000000E-03 0. -1.
    9900012    2    1    2    0    0  0.59816657146E+01  0.17835475720E+02 -0.25745863473E+02  0.59301733288E+02  0.49999615660E+02 0.  0.
        -12    1    1    2    0    0 -0.59816657146E+01 -0.17835475720E+02  0.25745863473E+02  0.31886266712E+02  0.00000000000E+00 0.  1.
         11    1    3    3    0    0  0.88216124961E+00  0.15735245119E+00 -0.60158249057E+01  0.60821967924E+01  0.51100000000E-03 0. -1.
        -11    1    3    3    0    0  0.22533888998E+02  0.59816541776E+01 -0.22059381816E+02  0.32096303003E+02  0.51100000000E-03 0.  1.
        -12    1    3    3    0    0 -0.17434384533E+02  0.11696469091E+02  0.23293432486E+01  0.21123233493E+02  0.00000000000E+00 0.  1.
</event>
<event>
 7    1  0.6830263E-012  0.5930194E+02  0.7816164E-02  0.1266605E+00
        -11   -1    0    0    0    0  0.00000000000E+00  0.00000000000E+00  0.45593999997E+02  0.45594000000E+02  0.51100000000E-03 0.  1.
         11   -1    0    0    0    0 -0.00000000000E+00 -0.00000000000E+00 -0.45593999997E+02  0.45594000000E+02  0.51100000000E-03 0. -1.
    9900012    2    1    2    0    0  0.16782416225E+02  0.13181395909E+02 -0.23692232907E+02  0.59301943603E+02  0.49999999225E+02 0.  0.
        -12    1    1    2    0    0 -0.16782416225E+02 -0.13181395909E+02  0.23692232907E+02  0.31886056397E+02  0.00000000000E+00 0.  1.
         11    1    3    3    0    0  0.63942569412E+01  0.13435701858E+02 -0.13242961674E+02  0.19919353414E+02  0.51100000000E-03 0. -1.
        -11    1    3    3    0    0  0.81856581394E+01  0.14793316160E+02 -0.15917926318E+02  0.23221274313E+02  0.51100000000E-03 0.  1.
        -12    1    3    3    0    0  0.22025011440E+01 -0.15047622109E+02  0.54686550859E+01  0.16161315876E+02  0.00000000000E+00 0.  1.
</event>
<event>
 7    1  0.6830263E-012  0.5930194E+02  0.7816164E-02  0.1266605E+00
        -11   -1    0    0    0    0  0.00000000000E+00  0.00000000000E+00  0.45593999997E+02  0.45594000000E+02  0.51100000000E-03 0. -1.
         11   -1    0    0    0    0 -0.00000000000E+00 -0.00000000000E+00 -0.45593999997E+02  0.45594000000E+02  0.51100000000E-03 0.  1.
    9900012    2    1    2    0    0  0.56905040501E+01  0.25669476976E+02  0.18039324246E+02  0.59301935586E+02  0.49999984604E+02 0.  0.
        -12    1    1    2    0    0 -0.56905040501E+01 -0.25669476976E+02 -0.18039324246E+02  0.31886064414E+02  0.00000000000E+00 0.  1.
         11    1    3    3    0    0 -0.19680053636E+01  0.14232311426E+02  0.12191491059E+02  0.18843146981E+02  0.51100000000E-03 0. -1.
        -11    1    3    3    0    0  0.68628457762E+01  0.29298740592E+01  0.21427637557E+02  0.22689787696E+02  0.51100000000E-03 0.  1.
        -12    1    3    3    0    0  0.79566363751E+00  0.85072914910E+01 -0.15579804369E+02  0.17769000910E+02  0.00000000000E+00 0.  1.
</event>
<event>
 7    1  0.6830263E-012  0.5930202E+02  0.7816164E-02  0.1266605E+00
        -11   -1    0    0    0    0  0.00000000000E+00  0.00000000000E+00  0.45593999997E+02  0.45594000000E+02  0.51100000000E-03 0.  1.
         11   -1    0    0    0    0 -0.00000000000E+00 -0.00000000000E+00 -0.45593999997E+02  0.45594000000E+02  0.51100000000E-03 0. -1.
    9900012    2    1    2    0    0  0.10961745205E+02 -0.28271529965E+02  0.98628894525E+01  0.59302017926E+02  0.50000134772E+02 0.  0.
        -12    1    1    2    0    0 -0.10961745205E+02  0.28271529965E+02 -0.98628894525E+01  0.31885982074E+02  0.00000000000E+00 0.  1.
         11    1    3    3    0    0  0.77582385014E+01 -0.90598474606E+01  0.74388686872E+01  0.14057306579E+02  0.51100000000E-03 0. -1.
        -11    1    3    3    0    0  0.21572520497E+02 -0.13074095503E+02  0.49724082659E+01  0.25710512597E+02  0.51100000000E-03 0.  1.
        -12    1    3    3    0    0 -0.18369013793E+02 -0.61375870014E+01 -0.25483875005E+01  0.19534198749E+02  0.00000000000E+00 0.  1.
</event>
<event>
 7    1  0.6830263E-012  0.5930195E+02  0.7816164E-02  0.1266605E+00
        -11   -1    0    0    0    0  0.00000000000E+00  0.00000000000E+00  0.45593999997E+02  0.45594000000E+02  0.51100000000E-03 0.  1.
         11   -1    0    0    0    0 -0.00000000000E+00 -0.00000000000E+00 -0.45593999997E+02  0.45594000000E+02  0.51100000000E-03 0. -1.
    9900012    2    1    2    0    0  0.21523846093E+02 -0.22036934884E+02 -0.82351469519E+01  0.59301951404E+02  0.50000013453E+02 0.  0.
        -12    1    1    2    0    0 -0.21523846093E+02  0.22036934884E+02  0.82351469519E+01  0.31886048596E+02  0.00000000000E+00 0.  1.
         11    1    3    3    0    0 -0.85922215598E+01 -0.11828012668E+02 -0.61071759635E+01  0.15843792271E+02  0.51100000000E-03 0. -1.
        -11    1    3    3    0    0  0.47626870022E+01 -0.14823990794E+02 -0.72639357929E+01  0.17181346106E+02  0.51100000000E-03 0.  1.
        -12    1    3    3    0    0  0.25353380651E+02  0.46150685787E+01  0.51359648045E+01  0.26276813027E+02  0.00000000000E+00 0.  1.
</event>
<event>
 7    1  0.6830263E-012  0.5930196E+02  0.7816164E-02  0.1266605E+00
        -11   -1    0    0    0    0  0.00000000000E+00  0.00000000000E+00  0.45593999997E+02  0.45594000000E+02  0.51100000000E-03 0. -1.
         11   -1    0    0    0    0 -0.00000000000E+00 -0.00000000000E+00 -0.45593999997E+02  0.45594000000E+02  0.51100000000E-03 0.  1.
    9900012    2    1    2    0    0  0.10508728671E+02 -0.18312728193E+02  0.23894139664E+02  0.59301963833E+02  0.50000036120E+02 0.  0.
        -12    1    1    2    0    0 -0.10508728671E+02  0.18312728193E+02 -0.23894139664E+02  0.31886036167E+02  0.00000000000E+00 0.  1.
         11    1    3    3    0    0 -0.16877025927E+01 -0.87949072782E+01  0.49352236833E+01  0.10225222107E+02  0.51100000000E-03 0. -1.
        -11    1    3    3    0    0 -0.70897956274E+01 -0.17635204663E+02 -0.24215350581E+01  0.19160623107E+02  0.51100000000E-03 0.  1.
         12    1    3    3    0    0  0.19286226891E+02  0.81173837482E+01  0.21380451038E+02  0.29916118619E+02  0.00000000000E+00 0. -1.
</event>
<event>
 7    1  0.6830263E-012  0.5930193E+02  0.7816164E-02  0.1266605E+00
        -11   -1    0    0    0    0  0.00000000000E+00  0.00000000000E+00  0.45593999997E+02  0.45594000000E+02  0.51100000000E-03 0. -1.
         11   -1    0    0    0    0 -0.00000000000E+00 -0.00000000000E+00 -0.45593999997E+02  0.45594000000E+02  0.51100000000E-03 0.  1.
    9900012    2    1    2    0    0  0.36100391797E+01  0.31088683579E+02 -0.60977952012E+01  0.59301925675E+02  0.49999966529E+02 0.  0.
        -12    1    1    2    0    0 -0.36100391797E+01 -0.31088683579E+02  0.60977952012E+01  0.31886074325E+02  0.00000000000E+00 0.  1.
         11    1    3    3    0    0  0.53698283066E+01  0.69470822283E+00 -0.52302224672E+01  0.75281407316E+01  0.51100000000E-03 0. -1.
        -11    1    3    3    0    0  0.56491119269E+00  0.26323376468E+02 -0.19369895249E+02  0.32686879868E+02  0.51100000000E-03 0.  1.
         12    1    3    3    0    0 -0.23247003196E+01  0.40705988883E+01  0.18502322515E+02  0.19086905075E+02  0.00000000000E+00 0. -1.
</event>
<event>
 7    1  0.6830263E-012  0.5930197E+02  0.7816164E-02  0.1266605E+00
        -11   -1    0    0    0    0  0.00000000000E+00  0.00000000000E+00  0.45593999997E+02  0.45594000000E+02  0.51100000000E-03 0. -1.
         11   -1    0    0    0    0 -0.00000000000E+00 -0.00000000000E+00 -0.45593999997E+02  0.45594000000E+02  0.51100000000E-03 0.  1.
    9900012    2    1    2    0    0  0.22091239532E+02 -0.17086996985E+02  0.15386048073E+02  0.59301971628E+02  0.50000050337E+02 0.  0.
        -12    1    1    2    0    0 -0.22091239532E+02  0.17086996985E+02 -0.15386048073E+02  0.31886028372E+02  0.00000000000E+00 0.  1.
         11    1    3    3    0    0  0.17387033804E+02 -0.83900525037E+01  0.66180970210E+01  0.20408359414E+02  0.51100000000E-03 0. -1.
        -11    1    3    3    0    0  0.20363479946E+02 -0.13403101595E+01  0.66474580981E+01  0.21462908616E+02  0.51100000000E-03 0.  1.
        -12    1    3    3    0    0 -0.15659274218E+02 -0.73566343214E+01  0.21204929537E+01  0.17430703598E+02  0.00000000000E+00 0.  1.
</event>
<event>
 7    1  0.6830263E-012  0.5930191E+02  0.7816164E-02  0.1266605E+00
        -11   -1    0    0    0    0  0.00000000000E+00  0.00000000000E+00  0.45593999997E+02  0.45594000000E+02  0.51100000000E-03 0.  1.
         11   -1    0    0    0    0 -0.00000000000E+00 -0.00000000000E+00 -0.45593999997E+02  0.45594000000E+02  0.51100000000E-03 0. -1.
    9900012    2    1    2    0    0 -0.19126253192E+02 -0.13184643902E+02 -0.21842035732E+02  0.59301907093E+02  0.49999932639E+02 0.  0.
        -12    1    1    2    0    0  0.19126253192E+02  0.13184643902E+02  0.21842035732E+02  0.31886092907E+02  0.00000000000E+00 0.  1.
         11    1    3    3    0    0 -0.13953932887E+02  0.76682157544E+01 -0.46263169872E+01  0.16580608704E+02  0.51100000000E-03 0. -1.
        -11    1    3    3    0    0  0.10173601336E+02 -0.36490839396E+01  0.38689213155E+01  0.11479831451E+02  0.51100000000E-03 0.  1.
         12    1    3    3    0    0 -0.15345921641E+02 -0.17203775717E+02 -0.21084640060E+02  0.31241466937E+02  0.00000000000E+00 0. -1.
</event>
<event>
 7    1  0.6830263E-012  0.5930202E+02  0.7816164E-02  0.1266604E+00
        -11   -1    0    0    0    0  0.00000000000E+00  0.00000000000E+00  0.45593999997E+02  0.45594000000E+02  0.51100000000E-03 0.  1.
         11   -1    0    0    0    0 -0.00000000000E+00 -0.00000000000E+00 -0.45593999997E+02  0.45594000000E+02  0.51100000000E-03 0. -1.
    9900012    2    1    2    0    0  0.29441988503E+02 -0.11304003783E+02 -0.47015345005E+01  0.59302021652E+02  0.50000141568E+02 0.  0.
        -12    1    1    2    0    0 -0.29441988503E+02  0.11304003783E+02  0.47015345005E+01  0.31885978348E+02  0.00000000000E+00 0.  1.
         11    1    3    3    0    0  0.10555201210E+02  0.10774796680E+02 -0.11092778314E+01  0.15124120260E+02  0.51100000000E-03 0. -1.
        -11    1    3    3    0    0  0.11762880152E+02  0.68585746762E+01 -0.45634000032E+01  0.14360710842E+02  0.51100000000E-03 0.  1.
         12    1    3    3    0    0  0.71239071415E+01 -0.28937375139E+02  0.97114333412E+00  0.29817190550E+02  0.00000000000E+00 0. -1.
</event>
<event>
 7    1  0.6830263E-012  0.5930196E+02  0.7816164E-02  0.1266605E+00
        -11   -1    0    0    0    0  0.00000000000E+00  0.00000000000E+00  0.45593999997E+02  0.45594000000E+02  0.51100000000E-03 0.  1.
         11   -1    0    0    0    0 -0.00000000000E+00 -0.00000000000E+00 -0.45593999997E+02  0.45594000000E+02  0.51100000000E-03 0. -1.
    9900012    2    1    2    0    0 -0.12467782225E+02  0.19956118797E+02 -0.21518074578E+02  0.59301955959E+02  0.50000021760E+02 0.  0.
        -12    1    1    2    0    0  0.12467782225E+02 -0.19956118797E+02  0.21518074578E+02  0.31886044041E+02  0.00000000000E+00 0.  1.
         11    1    3    3    0    0 -0.46974590224E+01  0.66045300591E+01  0.19418302968E+01  0.83340652584E+01  0.51100000000E-03 0. -1.
        -11    1    3    3    0    0 -0.18199781080E+02  0.14445527474E+02  0.21096710742E+01  0.23331438183E+02  0.51100000000E-03 0.  1.
        -12    1    3    3    0    0  0.10429457878E+02 -0.10939387359E+01 -0.25569575948E+02  0.27636452518E+02  0.00000000000E+00 0.  1.
</event>
<event>
 7    1  0.6830263E-012  0.5930194E+02  0.7816164E-02  0.1266605E+00
        -11   -1    0    0    0    0  0.00000000000E+00  0.00000000000E+00  0.45593999997E+02  0.45594000000E+02  0.51100000000E-03 0. -1.
         11   -1    0    0    0    0 -0.00000000000E+00 -0.00000000000E+00 -0.45593999997E+02  0.45594000000E+02  0.51100000000E-03 0.  1.
    9900012    2    1    2    0    0 -0.29720130162E+02 -0.93049927486E+01  0.68448240583E+01  0.59301942808E+02  0.49999997775E+02 0.  0.
        -12    1    1    2    0    0  0.29720130162E+02  0.93049927486E+01 -0.68448240583E+01  0.31886057192E+02  0.00000000000E+00 0.  1.
         11    1    3    3    0    0 -0.30567256312E+02 -0.20236956768E+02 -0.53465671194E+01  0.37046961521E+02  0.51100000000E-03 0.  1.
        -11    1    3    3    0    0 -0.53738636963E+01  0.46035300438E+00  0.74210932643E+01  0.91740373563E+01  0.51100000000E-03 0. -1.
        -12    1    3    3    0    0  0.62209898465E+01  0.10471611016E+02  0.47702979134E+01  0.13080943931E+02  0.00000000000E+00 0.  1.
</event>
<event>
 7    1  0.6830263E-012  0.5930195E+02  0.7816164E-02  0.1266605E+00
        -11   -1    0    0    0    0  0.00000000000E+00  0.00000000000E+00  0.45593999997E+02  0.45594000000E+02  0.51100000000E-03 0.  1.
         11   -1    0    0    0    0 -0.00000000000E+00 -0.00000000000E+00 -0.45593999997E+02  0.45594000000E+02  0.51100000000E-03 0. -1.
    9900012    2    1    2    0    0  0.51767605200E+01  0.19693014355E+02 -0.24537855957E+02  0.59301952286E+02  0.50000015061E+02 0.  0.
        -12    1    1    2    0    0 -0.51767605200E+01 -0.19693014355E+02  0.24537855957E+02  0.31886047714E+02  0.00000000000E+00 0.  1.
         11    1    3    3    0    0 -0.76522450785E+01  0.91933836610E+01 -0.22606597167E+02  0.25576031623E+02  0.51100000000E-03 0. -1.
        -11    1    3    3    0    0 -0.40257656096E+01  0.11695423653E+02 -0.91154513279E+01  0.15364933334E+02  0.51100000000E-03 0.  1.
        -12    1    3    3    0    0  0.16854771208E+02 -0.11957929593E+01  0.71841925375E+01  0.18360987329E+02  0.00000000000E+00 0.  1.
</event>
<event>
 7    1  0.6830263E-012  0.5930199E+02  0.7816164E-02  0.1266605E+00
        -11   -1    0    0    0    0  0.00000000000E+00  0.00000000000E+00  0.45593999997E+02  0.45594000000E+02  0.51100000000E-03 0.  1.
         11   -1    0    0    0    0 -0.00000000000E+00 -0.00000000000E+00 -0.45593999997E+02  0.45594000000E+02  0.51100000000E-03 0. -1.
    9900012    2    1    2    0    0 -0.28789333605E+01  0.68101304567E+01 -0.31016951595E+02  0.59301993345E+02  0.50000089943E+02 0.  0.
        -12    1    1    2    0    0  0.28789333605E+01 -0.68101304567E+01  0.31016951595E+02  0.31886006655E+02  0.00000000000E+00 0.  1.
         11    1    3    3    0    0 -0.95102583243E+01  0.20817551290E+02 -0.22905585492E+02  0.32380260995E+02  0.51100000000E-03 0. -1.
        -11    1    3    3    0    0 -0.13071546742E+01 -0.38576247361E+01 -0.12627133231E+02  0.13267796194E+02  0.51100000000E-03 0.  1.
        -12    1    3    3    0    0  0.79384796381E+01 -0.10149796097E+02  0.45157671285E+01  0.13653936155E+02  0.00000000000E+00 0.  1.
</event>
<event>
 7    1  0.6830263E-012  0.5930196E+02  0.7816164E-02  0.1266605E+00
        -11   -1    0    0    0    0  0.00000000000E+00  0.00000000000E+00  0.45593999997E+02  0.45594000000E+02  0.51100000000E-03 0.  1.
         11   -1    0    0    0    0 -0.00000000000E+00 -0.00000000000E+00 -0.45593999997E+02  0.45594000000E+02  0.51100000000E-03 0. -1.
    9900012    2    1    2    0    0  0.20282296750E+02 -0.10804496968E+02 -0.22104540540E+02  0.59301961854E+02  0.50000032511E+02 0.  0.
        -12    1    1    2    0    0 -0.20282296750E+02  0.10804496968E+02  0.22104540540E+02  0.31886038146E+02  0.00000000000E+00 0.  1.
         11    1    3    3    0    0  0.18108717178E+02  0.36665542882E+00 -0.79194225716E+01  0.19768088632E+02  0.51100000000E-03 0. -1.
        -11    1    3    3    0    0  0.14123850360E+02  0.59855360735E+01 -0.97014093012E+01  0.18150127652E+02  0.51100000000E-03 0.  1.
        -12    1    3    3    0    0 -0.11950270789E+02 -0.17156688470E+02 -0.44837086668E+01  0.21383745570E+02  0.00000000000E+00 0.  1.
</event>
<event>
 7    1  0.6830263E-012  0.5930194E+02  0.7816164E-02  0.1266605E+00
        -11   -1    0    0    0    0  0.00000000000E+00  0.00000000000E+00  0.45593999997E+02  0.45594000000E+02  0.51100000000E-03 0.  1.
         11   -1    0    0    0    0 -0.00000000000E+00 -0.00000000000E+00 -0.45593999997E+02  0.45594000000E+02  0.51100000000E-03 0. -1.
    9900012    2    1    2    0    0  0.11121728849E+02 -0.14970685062E+02 -0.25863223109E+02  0.59301943904E+02  0.49999999773E+02 0.  0.
        -12    1    1    2    0    0 -0.11121728849E+02  0.14970685062E+02  0.25863223109E+02  0.31886056096E+02  0.00000000000E+00 0.  1.
         11    1    3    3    0    0  0.69936790984E+01 -0.25208967687E+02 -0.24265189121E+02  0.35681970273E+02  0.51100000000E-03 0. -1.
        -11    1    3    3    0    0  0.26257281433E+01  0.92203032982E+01 -0.10683936941E+02  0.14354614241E+02  0.51100000000E-03 0.  1.
        -12    1    3    3    0    0  0.15023216077E+01  0.10179793270E+01  0.90859029541E+01  0.92653593894E+01  0.00000000000E+00 0.  1.
</event>
<event>
 7    1  0.6830263E-012  0.5930194E+02  0.7816164E-02  0.1266605E+00
        -11   -1    0    0    0    0  0.00000000000E+00  0.00000000000E+00  0.45593999997E+02  0.45594000000E+02  0.51100000000E-03 0.  1.
         11   -1    0    0    0    0 -0.00000000000E+00 -0.00000000000E+00 -0.45593999997E+02  0.45594000000E+02  0.51100000000E-03 0. -1.
    9900012    2    1    2    0    0  0.42333867500E+01 -0.24371246372E+02 -0.20120679894E+02  0.59301937645E+02  0.49999988360E+02 0.  0.
        -12    1    1    2    0    0 -0.42333867500E+01  0.24371246372E+02  0.20120679894E+02  0.31886062355E+02  0.00000000000E+00 0.  1.
         11    1    3    3    0    0  0.14877793861E+02 -0.12062019599E+02 -0.26169688346E+01  0.19331052561E+02  0.51100000000E-03 0. -1.
        -11    1    3    3    0    0  0.94346351705E+00  0.10253038390E+02 -0.28732008500E+01  0.10689724179E+02  0.51100000000E-03 0.  1.
        -12    1    3    3    0    0 -0.11587870628E+02 -0.22562265163E+02 -0.14630510209E+02  0.29281160905E+02  0.00000000000E+00 0.  1.
</event>
<event>
 7    1  0.6830263E-012  0.5930195E+02  0.7816164E-02  0.1266605E+00
        -11   -1    0    0    0    0  0.00000000000E+00  0.00000000000E+00  0.45593999997E+02  0.45594000000E+02  0.51100000000E-03 0.  1.
         11   -1    0    0    0    0 -0.00000000000E+00 -0.00000000000E+00 -0.45593999997E+02  0.45594000000E+02  0.51100000000E-03 0. -1.
    9900012    2    1    2    0    0  0.29743449396E+02 -0.67968593954E+01 -0.92655413831E+01  0.59301947614E+02  0.50000006541E+02 0.  0.
        -12    1    1    2    0    0 -0.29743449396E+02  0.67968593954E+01  0.92655413831E+01  0.31886052386E+02  0.00000000000E+00 0.  1.
         11    1    3    3    0    0 -0.43901786545E+00  0.67976509218E+01  0.10551002174E+02  0.12558839193E+02  0.51100000000E-03 0. -1.
        -11    1    3    3    0    0  0.44035408943E+00 -0.90472510105E+01  0.23663295613E+01  0.93619537718E+01  0.51100000000E-03 0.  1.
         12    1    3    3    0    0  0.29742113172E+02 -0.45472593068E+01 -0.22182873118E+02  0.37381154650E+02  0.00000000000E+00 0. -1.
</event>
<event>
 7    1  0.6830263E-012  0.5930195E+02  0.7816164E-02  0.1266605E+00
        -11   -1    0    0    0    0  0.00000000000E+00  0.00000000000E+00  0.45593999997E+02  0.45594000000E+02  0.51100000000E-03 0.  1.
         11   -1    0    0    0    0 -0.00000000000E+00 -0.00000000000E+00 -0.45593999997E+02  0.45594000000E+02  0.51100000000E-03 0. -1.
    9900012    2    1    2    0    0 -0.59070521349E+01 -0.12853598634E+02 -0.28576419705E+02  0.59301952488E+02  0.50000015430E+02 0.  0.
        -12    1    1    2    0    0  0.59070521349E+01  0.12853598634E+02  0.28576419705E+02  0.31886047512E+02  0.00000000000E+00 0.  1.
         11    1    3    3    0    0  0.25605712038E+01  0.85803593898E+01 -0.27182242611E+02  0.28619109102E+02  0.51100000000E-03 0. -1.
        -11    1    3    3    0    0 -0.48605882038E+01  0.16116452289E+01  0.42828922312E+01  0.66757684319E+01  0.51100000000E-03 0.  1.
        -12    1    3    3    0    0 -0.36070351349E+01 -0.23045603253E+02 -0.56770693247E+01  0.24007074954E+02  0.00000000000E+00 0.  1.
</event>
<event>
 7    1  0.6830263E-012  0.5930195E+02  0.7816164E-02  0.1266605E+00
        -11   -1    0    0    0    0  0.00000000000E+00  0.00000000000E+00  0.45593999997E+02  0.45594000000E+02  0.51100000000E-03 0. -1.
         11   -1    0    0    0    0 -0.00000000000E+00 -0.00000000000E+00 -0.45593999997E+02  0.45594000000E+02  0.51100000000E-03 0.  1.
    9900012    2    1    2    0    0 -0.24002697094E+02 -0.19199961171E+02 -0.84824764598E+01  0.59301946879E+02  0.50000005200E+02 0.  0.
        -12    1    1    2    0    0  0.24002697094E+02  0.19199961171E+02  0.84824764598E+01  0.31886053121E+02  0.00000000000E+00 0.  1.
         11    1    3    3    0    0 -0.22533682023E+01 -0.57754335253E+01 -0.54044850390E+01  0.82244610436E+01  0.51100000000E-03 0. -1.
        -11    1    3    3    0    0 -0.10780726456E+02 -0.14717649701E+02 -0.22358806556E+02  0.28857399510E+02  0.51100000000E-03 0.  1.
         12    1    3    3    0    0 -0.10968602435E+02  0.12931220550E+01  0.19280815135E+02  0.22220086325E+02  0.00000000000E+00 0. -1.
</event>
<event>
 7    1  0.6830263E-012  0.5930195E+02  0.7816164E-02  0.1266605E+00
        -11   -1    0    0    0    0  0.00000000000E+00  0.00000000000E+00  0.45593999997E+02  0.45594000000E+02  0.51100000000E-03 0.  1.
         11   -1    0    0    0    0 -0.00000000000E+00 -0.00000000000E+00 -0.45593999997E+02  0.45594000000E+02  0.51100000000E-03 0. -1.
    9900012    2    1    2    0    0 -0.29399365990E+02  0.10703839888E+02  0.61502374100E+01  0.59301947733E+02  0.50000006758E+02 0.  0.
        -12    1    1    2    0    0  0.29399365990E+02 -0.10703839888E+02 -0.61502374100E+01  0.31886052267E+02  0.00000000000E+00 0.  1.
         11    1    3    3    0    0 -0.16067408335E+02  0.95714301016E+01 -0.34916006569E+01  0.19025381999E+02  0.51100000000E-03 0. -1.
        -11    1    3    3    0    0 -0.15249949117E+02  0.16734825470E+02  0.18085596639E+01  0.22713128800E+02  0.51100000000E-03 0.  1.
        -12    1    3    3    0    0  0.19179914622E+01 -0.15602415683E+02  0.78332784029E+01  0.17563436934E+02  0.00000000000E+00 0.  1.
</event>
<event>
 7    1  0.6830263E-012  0.5930194E+02  0.7816164E-02  0.1266605E+00
        -11   -1    0    0    0    0  0.00000000000E+00  0.00000000000E+00  0.45593999997E+02  0.45594000000E+02  0.51100000000E-03 0. -1.
         11   -1    0    0    0    0 -0.00000000000E+00 -0.00000000000E+00 -0.45593999997E+02  0.45594000000E+02  0.51100000000E-03 0.  1.
    9900012    2    1    2    0    0  0.81577536500E+01 -0.22144281129E+02  0.21443004181E+02  0.59301944119E+02  0.50000000167E+02 0.  0.
        -12    1    1    2    0    0 -0.81577536500E+01  0.22144281129E+02 -0.21443004181E+02  0.31886055881E+02  0.00000000000E+00 0.  1.
         11    1    3    3    0    0 -0.13643995994E+01 -0.14152441054E+02  0.78438062576E+01  0.16238179422E+02  0.51100000000E-03 0. -1.
        -11    1    3    3    0    0  0.52898655227E+00 -0.15329340890E+02  0.23328041226E+02  0.27918918793E+02  0.51100000000E-03 0.  1.
        -12    1    3    3    0    0  0.89931666971E+01  0.73375008155E+01 -0.97288433029E+01  0.15144845904E+02  0.00000000000E+00 0.  1.
</event>
<event>
 7    1  0.6830263E-012  0.5930197E+02  0.7816164E-02  0.1266605E+00
        -11   -1    0    0    0    0  0.00000000000E+00  0.00000000000E+00  0.45593999997E+02  0.45594000000E+02  0.51100000000E-03 0.  1.
         11   -1    0    0    0    0 -0.00000000000E+00 -0.00000000000E+00 -0.45593999997E+02  0.45594000000E+02  0.51100000000E-03 0. -1.
    9900012    2    1    2    0    0 -0.25038529809E+02  0.69432844914E+01 -0.18481935528E+02  0.59301966767E+02  0.50000041471E+02 0.  0.
        -12    1    1    2    0    0  0.25038529809E+02 -0.69432844914E+01  0.18481935528E+02  0.31886033233E+02  0.00000000000E+00 0.  1.
         11    1    3    3    0    0  0.31708953965E+01  0.18254084165E+01 -0.13159364413E+02  0.13658534530E+02  0.51100000000E-03 0.  1.
        -11    1    3    3    0    0 -0.11046596791E+02  0.66057093281E+01 -0.19478067165E+02  0.23346472906E+02  0.51100000000E-03 0. -1.
         12    1    3    3    0    0 -0.17162828414E+02 -0.14878332531E+01  0.14155496050E+02  0.22296959331E+02  0.00000000000E+00 0. -1.
</event>
<event>
 7    1  0.6830263E-012  0.5930195E+02  0.7816164E-02  0.1266605E+00
        -11   -1    0    0    0    0  0.00000000000E+00  0.00000000000E+00  0.45593999997E+02  0.45594000000E+02  0.51100000000E-03 0.  1.
         11   -1    0    0    0    0 -0.00000000000E+00 -0.00000000000E+00 -0.45593999997E+02  0.45594000000E+02  0.51100000000E-03 0. -1.
    9900012    2    1    2    0    0 -0.14653753650E+02 -0.20376173158E+02 -0.19667217554E+02  0.59301947016E+02  0.50000005449E+02 0.  0.
        -12    1    1    2    0    0  0.14653753650E+02  0.20376173158E+02  0.19667217554E+02  0.31886052984E+02  0.00000000000E+00 0.  1.
         11    1    3    3    0    0 -0.71857758645E+01 -0.30228474663E-01 -0.14665145247E+02  0.16331037136E+02  0.51100000000E-03 0. -1.
        -11    1    3    3    0    0 -0.95597451882E+01 -0.29248539301E+02 -0.10242171374E+02  0.32430970600E+02  0.51100000000E-03 0.  1.
        -12    1    3    3    0    0  0.20917674022E+01  0.89025946180E+01  0.52400990673E+01  0.10539939280E+02  0.00000000000E+00 0.  1.
</event>
<event>
 7    1  0.6830263E-012  0.5930193E+02  0.7816164E-02  0.1266605E+00
        -11   -1    0    0    0    0  0.00000000000E+00  0.00000000000E+00  0.45593999997E+02  0.45594000000E+02  0.51100000000E-03 0.  1.
         11   -1    0    0    0    0 -0.00000000000E+00 -0.00000000000E+00 -0.45593999997E+02  0.45594000000E+02  0.51100000000E-03 0. -1.
    9900012    2    1    2    0    0 -0.13166669246E+02  0.11556338594E+02 -0.26642289305E+02  0.59301925921E+02  0.49999966979E+02 0.  0.
        -12    1    1    2    0    0  0.13166669246E+02 -0.11556338594E+02  0.26642289305E+02  0.31886074079E+02  0.00000000000E+00 0.  1.
         11    1    3    3    0    0 -0.10485401290E+02 -0.18380972522E+01 -0.86523509599E+01  0.13718069074E+02  0.51100000000E-03 0. -1.
        -11    1    3    3    0    0 -0.17730326120E+02 -0.20515957688E+01 -0.15924722654E+02  0.23920081551E+02  0.51100000000E-03 0.  1.
        -12    1    3    3    0    0  0.15049058164E+02  0.15446031615E+02 -0.20652156906E+01  0.21663775297E+02  0.00000000000E+00 0.  1.
</event>
<event>
 7    1  0.6830263E-012  0.5930197E+02  0.7816164E-02  0.1266605E+00
        -11   -1    0    0    0    0  0.00000000000E+00  0.00000000000E+00  0.45593999997E+02  0.45594000000E+02  0.51100000000E-03 0.  1.
         11   -1    0    0    0    0 -0.00000000000E+00 -0.00000000000E+00 -0.45593999997E+02  0.45594000000E+02  0.51100000000E-03 0. -1.
    9900012    2    1    2    0    0  0.44472953091E+01  0.25271333605E+02 -0.18928815910E+02  0.59301971563E+02  0.50000050218E+02 0.  0.
        -12    1    1    2    0    0 -0.44472953091E+01 -0.25271333605E+02  0.18928815910E+02  0.31886028437E+02  0.00000000000E+00 0.  1.
         11    1    3    3    0    0  0.13774864894E+02 -0.53673287395E+01  0.12387212140E+01  0.14835415436E+02  0.51100000000E-03 0. -1.
        -11    1    3    3    0    0  0.44826667519E+01  0.27594805979E+01  0.26410438999E+01  0.58893248782E+01  0.51100000000E-03 0.  1.
         12    1    3    3    0    0 -0.13810236337E+02  0.27879181746E+02 -0.22808581024E+02  0.38577231249E+02  0.00000000000E+00 0. -1.
</event>
<event>
 7    1  0.6830263E-012  0.5930198E+02  0.7816164E-02  0.1266605E+00
        -11   -1    0    0    0    0  0.00000000000E+00  0.00000000000E+00  0.45593999997E+02  0.45594000000E+02  0.51100000000E-03 0.  1.
         11   -1    0    0    0    0 -0.00000000000E+00 -0.00000000000E+00 -0.45593999997E+02  0.45594000000E+02  0.51100000000E-03 0. -1.
    9900012    2    1    2    0    0 -0.21133559099E+01  0.29560799892E+02 -0.11764828539E+02  0.59301978705E+02  0.50000063243E+02 0.  0.
        -12    1    1    2    0    0  0.21133559099E+01 -0.29560799892E+02  0.11764828539E+02  0.31886021295E+02  0.00000000000E+00 0.  1.
         11    1    3    3    0    0  0.70280160821E+01  0.15392394686E+02  0.87103852527E+00  0.16943362493E+02  0.51100000000E-03 0. -1.
        -11    1    3    3    0    0 -0.49058237321E+01 -0.76614453377E+01  0.79306344264E+01  0.12068960760E+02  0.51100000000E-03 0.  1.
        -12    1    3    3    0    0 -0.42355482598E+01  0.21829850544E+02 -0.20566501490E+02  0.30289655452E+02  0.00000000000E+00 0.  1.
</event>
<event>
 7    1  0.6830263E-012  0.5930194E+02  0.7816164E-02  0.1266605E+00
        -11   -1    0    0    0    0  0.00000000000E+00  0.00000000000E+00  0.45593999997E+02  0.45594000000E+02  0.51100000000E-03 0.  1.
         11   -1    0    0    0    0 -0.00000000000E+00 -0.00000000000E+00 -0.45593999997E+02  0.45594000000E+02  0.51100000000E-03 0. -1.
    9900012    2    1    2    0    0  0.14700740495E+02 -0.19475627378E+02 -0.20525813186E+02  0.59301939726E+02  0.49999992155E+02 0.  0.
        -12    1    1    2    0    0 -0.14700740495E+02  0.19475627378E+02  0.20525813186E+02  0.31886060274E+02  0.00000000000E+00 0.  1.
         11    1    3    3    0    0 -0.63726497919E+01  0.12072706222E+01  0.85472214417E+01  0.10729546233E+02  0.51100000000E-03 0. -1.
        -11    1    3    3    0    0  0.10871119607E+02 -0.86816335266E+01  0.16865978240E+01  0.14014157651E+02  0.51100000000E-03 0.  1.
         12    1    3    3    0    0  0.10202270680E+02 -0.12001264473E+02 -0.30759632451E+02  0.34558235842E+02  0.00000000000E+00 0. -1.
</event>
<event>
 7    1  0.6830263E-012  0.5930194E+02  0.7816164E-02  0.1266605E+00
        -11   -1    0    0    0    0  0.00000000000E+00  0.00000000000E+00  0.45593999997E+02  0.45594000000E+02  0.51100000000E-03 0. -1.
         11   -1    0    0    0    0 -0.00000000000E+00 -0.00000000000E+00 -0.45593999997E+02  0.45594000000E+02  0.51100000000E-03 0.  1.
    9900012    2    1    2    0    0 -0.31525669425E+02 -0.45540039359E+01 -0.14540210525E+01  0.59301937813E+02  0.49999988666E+02 0.  0.
        -12    1    1    2    0    0  0.31525669425E+02  0.45540039359E+01  0.14540210525E+01  0.31886062187E+02  0.00000000000E+00 0.  1.
         11    1    3    3    0    0 -0.14788448001E+02 -0.47038870123E+01 -0.14131073143E+02  0.20988377158E+02  0.51100000000E-03 0. -1.
        -11    1    3    3    0    0 -0.19520780428E+01 -0.14803478532E+02  0.33156952766E+01  0.15295339838E+02  0.51100000000E-03 0.  1.
         12    1    3    3    0    0 -0.14785143382E+02  0.14953361609E+02  0.93613568134E+01  0.23018220817E+02  0.00000000000E+00 0. -1.
</event>
<event>
 7    1  0.6830263E-012  0.5930200E+02  0.7816164E-02  0.1266605E+00
        -11   -1    0    0    0    0  0.00000000000E+00  0.00000000000E+00  0.45593999997E+02  0.45594000000E+02  0.51100000000E-03 0. -1.
         11   -1    0    0    0    0 -0.00000000000E+00 -0.00000000000E+00 -0.45593999997E+02  0.45594000000E+02  0.51100000000E-03 0.  1.
    9900012    2    1    2    0    0  0.19712865192E+02 -0.18996736262E+02  0.16347596846E+02  0.59302000481E+02  0.50000102958E+02 0.  0.
        -12    1    1    2    0    0 -0.19712865192E+02  0.18996736262E+02 -0.16347596846E+02  0.31885999519E+02  0.00000000000E+00 0.  1.
         11    1    3    3    0    0  0.58728646967E+01  0.29207508904E+01  0.14314935282E+02  0.15746069284E+02  0.51100000000E-03 0. -1.
        -11    1    3    3    0    0  0.51196254115E-02  0.43525566824E+01  0.11577809672E+02  0.12368930954E+02  0.51100000000E-03 0.  1.
        -12    1    3    3    0    0  0.13834880870E+02 -0.26270043835E+02 -0.95451481085E+01  0.31187000243E+02  0.00000000000E+00 0.  1.
</event>
<event>
 7    1  0.6830263E-012  0.5930191E+02  0.7816164E-02  0.1266605E+00
        -11   -1    0    0    0    0  0.00000000000E+00  0.00000000000E+00  0.45593999997E+02  0.45594000000E+02  0.51100000000E-03 0.  1.
         11   -1    0    0    0    0 -0.00000000000E+00 -0.00000000000E+00 -0.45593999997E+02  0.45594000000E+02  0.51100000000E-03 0. -1.
    9900012    2    1    2    0    0  0.23008108421E+02  0.21523161092E+02 -0.49095158962E+01  0.59301908003E+02  0.49999934299E+02 0.  0.
        -12    1    1    2    0    0 -0.23008108421E+02 -0.21523161092E+02  0.49095158962E+01  0.31886091997E+02  0.00000000000E+00 0.  1.
         11    1    3    3    0    0  0.19824093215E+02  0.62279861630E+01 -0.84633462149E+00  0.20796604674E+02  0.51100000000E-03 0. -1.
        -11    1    3    3    0    0  0.15213723282E+02  0.13695245295E+01  0.72451055514E+01  0.16906345798E+02  0.51100000000E-03 0.  1.
        -12    1    3    3    0    0 -0.12029708076E+02  0.13925650400E+02 -0.11308286826E+02  0.21598957530E+02  0.00000000000E+00 0.  1.
</event>
<event>
 7    1  0.6830263E-012  0.5930192E+02  0.7816164E-02  0.1266605E+00
        -11   -1    0    0    0    0  0.00000000000E+00  0.00000000000E+00  0.45593999997E+02  0.45594000000E+02  0.51100000000E-03 0. -1.
         11   -1    0    0    0    0 -0.00000000000E+00 -0.00000000000E+00 -0.45593999997E+02  0.45594000000E+02  0.51100000000E-03 0.  1.
    9900012    2    1    2    0    0  0.28721406008E+02  0.13511693419E+02 -0.30392293106E+01  0.59301922522E+02  0.49999960779E+02 0.  0.
        -12    1    1    2    0    0 -0.28721406008E+02 -0.13511693419E+02  0.30392293106E+01  0.31886077478E+02  0.00000000000E+00 0.  1.
         11    1    3    3    0    0  0.28887647831E+01 -0.10333889174E+02  0.57204606261E+01  0.12159683280E+02  0.51100000000E-03 0. -1.
        -11    1    3    3    0    0  0.17033044712E+02 -0.36412283952E+01 -0.42753163862E+01  0.17934923664E+02  0.51100000000E-03 0.  1.
        -12    1    3    3    0    0  0.87995965126E+01  0.27486810989E+02 -0.44843735504E+01  0.29207315578E+02  0.00000000000E+00 0.  1.
</event>
<event>
 7    1  0.6830263E-012  0.5930194E+02  0.7816164E-02  0.1266605E+00
        -11   -1    0    0    0    0  0.00000000000E+00  0.00000000000E+00  0.45593999997E+02  0.45594000000E+02  0.51100000000E-03 0. -1.
         11   -1    0    0    0    0 -0.00000000000E+00 -0.00000000000E+00 -0.45593999997E+02  0.45594000000E+02  0.51100000000E-03 0.  1.
    9900012    2    1    2    0    0  0.29014892035E+02 -0.12163668659E+02  0.51866888099E+01  0.59301944492E+02  0.50000000846E+02 0.  0.
        -12    1    1    2    0    0 -0.29014892035E+02  0.12163668659E+02 -0.51866888099E+01  0.31886055508E+02  0.00000000000E+00 0.  1.
         11    1    3    3    0    0  0.97816016539E-01  0.51851370676E+01  0.47116206963E+01  0.70067527593E+01  0.51100000000E-03 0. -1.
        -11    1    3    3    0    0 -0.63699875457E+01  0.67974167204E+01 -0.17545119587E+01  0.94794476567E+01  0.51100000000E-03 0.  1.
        -12    1    3    3    0    0  0.35287063565E+02 -0.24146222447E+02  0.22295800722E+01  0.42815744076E+02  0.00000000000E+00 0.  1.
</event>
<event>
 7    1  0.6830263E-012  0.5930196E+02  0.7816164E-02  0.1266605E+00
        -11   -1    0    0    0    0  0.00000000000E+00  0.00000000000E+00  0.45593999997E+02  0.45594000000E+02  0.51100000000E-03 0.  1.
         11   -1    0    0    0    0 -0.00000000000E+00 -0.00000000000E+00 -0.45593999997E+02  0.45594000000E+02  0.51100000000E-03 0. -1.
    9900012    2    1    2    0    0  0.12522264769E+02 -0.57152728421E+01 -0.28761922673E+02  0.59301958313E+02  0.50000026052E+02 0.  0.
        -12    1    1    2    0    0 -0.12522264769E+02  0.57152728421E+01  0.28761922673E+02  0.31886041687E+02  0.00000000000E+00 0.  1.
         11    1    3    3    0    0 -0.87133361355E+01  0.35865587901E+01 -0.14378684573E+02  0.17191050022E+02  0.51100000000E-03 0.  1.
        -11    1    3    3    0    0  0.14094221849E+02 -0.22008873985E+01 -0.24171514339E+02  0.28066939637E+02  0.51100000000E-03 0. -1.
         12    1    3    3    0    0  0.71413790556E+01 -0.71009442337E+01  0.97882762382E+01  0.14043968654E+02  0.00000000000E+00 0. -1.
</event>
<event>
 7    1  0.6830263E-012  0.5930196E+02  0.7816164E-02  0.1266605E+00
        -11   -1    0    0    0    0  0.00000000000E+00  0.00000000000E+00  0.45593999997E+02  0.45594000000E+02  0.51100000000E-03 0.  1.
         11   -1    0    0    0    0 -0.00000000000E+00 -0.00000000000E+00 -0.45593999997E+02  0.45594000000E+02  0.51100000000E-03 0. -1.
    9900012    2    1    2    0    0  0.22056263833E+02 -0.12048134363E+02 -0.19623541609E+02  0.59301957580E+02  0.50000024717E+02 0.  0.
        -12    1    1    2    0    0 -0.22056263833E+02  0.12048134363E+02  0.19623541609E+02  0.31886042420E+02  0.00000000000E+00 0.  1.
         11    1    3    3    0    0  0.77237625480E+01 -0.79997466202E+01 -0.25440822122E+01  0.11407226151E+02  0.51100000000E-03 0. -1.
        -11    1    3    3    0    0  0.16006763679E+02 -0.19744778269E+02 -0.11128920909E+01  0.25442312816E+02  0.51100000000E-03 0.  1.
         12    1    3    3    0    0 -0.16742623933E+01  0.15696390526E+02 -0.15966567306E+02  0.22452418614E+02  0.00000000000E+00 0. -1.
</event>
<event>
 7    1  0.6830263E-012  0.5930193E+02  0.7816164E-02  0.1266605E+00
        -11   -1    0    0    0    0  0.00000000000E+00  0.00000000000E+00  0.45593999997E+02  0.45594000000E+02  0.51100000000E-03 0.  1.
         11   -1    0    0    0    0 -0.00000000000E+00 -0.00000000000E+00 -0.45593999997E+02  0.45594000000E+02  0.51100000000E-03 0. -1.
    9900012    2    1    2    0    0 -0.23839177781E+02  0.10970046995E+02 -0.18112791246E+02  0.59301928824E+02  0.49999972271E+02 0.  0.
        -12    1    1    2    0    0  0.23839177781E+02 -0.10970046995E+02  0.18112791246E+02  0.31886071176E+02  0.00000000000E+00 0.  1.
         11    1    3    3    0    0  0.11678499627E+00 -0.16689658063E+01 -0.15484795962E+02  0.15574915469E+02  0.51100000000E-03 0. -1.
        -11    1    3    3    0    0  0.29563106759E+01 -0.70069860044E+01 -0.67299319761E+01  0.10155275001E+02  0.51100000000E-03 0.  1.
        -12    1    3    3    0    0 -0.26912273453E+02  0.19645998805E+02  0.41019366926E+01  0.33571738354E+02  0.00000000000E+00 0.  1.
</event>
<event>
 7    1  0.6830263E-012  0.5930198E+02  0.7816164E-02  0.1266605E+00
        -11   -1    0    0    0    0  0.00000000000E+00  0.00000000000E+00  0.45593999997E+02  0.45594000000E+02  0.51100000000E-03 0. -1.
         11   -1    0    0    0    0 -0.00000000000E+00 -0.00000000000E+00 -0.45593999997E+02  0.45594000000E+02  0.51100000000E-03 0.  1.
    9900012    2    1    2    0    0 -0.31820067646E+02  0.19432753436E+01 -0.65213159889E+00  0.59301979557E+02  0.50000064796E+02 0.  0.
        -12    1    1    2    0    0  0.31820067646E+02 -0.19432753436E+01  0.65213159889E+00  0.31886020443E+02  0.00000000000E+00 0.  1.
         11    1    3    3    0    0 -0.53143883568E+01  0.75381308769E+01 -0.14050110947E+02  0.16806896162E+02  0.51100000000E-03 0. -1.
        -11    1    3    3    0    0 -0.96526619858E+01  0.12033742189E+02  0.85218881638E+01  0.17624057780E+02  0.51100000000E-03 0.  1.
        -12    1    3    3    0    0 -0.16853017304E+02 -0.17628597723E+02  0.48760911839E+01  0.24871025615E+02  0.00000000000E+00 0.  1.
</event>
<event>
 7    1  0.6830263E-012  0.5930197E+02  0.7816164E-02  0.1266605E+00
        -11   -1    0    0    0    0  0.00000000000E+00  0.00000000000E+00  0.45593999997E+02  0.45594000000E+02  0.51100000000E-03 0. -1.
         11   -1    0    0    0    0 -0.00000000000E+00 -0.00000000000E+00 -0.45593999997E+02  0.45594000000E+02  0.51100000000E-03 0.  1.
    9900012    2    1    2    0    0 -0.23292041199E+02  0.77879284623E+01  0.20335880676E+02  0.59301967700E+02  0.50000043173E+02 0.  0.
        -12    1    1    2    0    0  0.23292041199E+02 -0.77879284623E+01 -0.20335880676E+02  0.31886032300E+02  0.00000000000E+00 0.  1.
         11    1    3    3    0    0  0.47427003063E+01  0.53967841513E+01  0.95866186837E+00  0.72482769132E+01  0.51100000000E-03 0. -1.
        -11    1    3    3    0    0 -0.26370142162E+02  0.56208942585E+00 -0.55919145880E+01  0.26962378441E+02  0.51100000000E-03 0.  1.
         12    1    3    3    0    0 -0.16645993437E+01  0.18290548851E+01  0.24969133396E+02  0.25091312347E+02  0.00000000000E+00 0. -1.
</event>
<event>
 7    1  0.6830263E-012  0.5930184E+02  0.7816164E-02  0.1266605E+00
        -11   -1    0    0    0    0  0.00000000000E+00  0.00000000000E+00  0.45593999997E+02  0.45594000000E+02  0.51100000000E-03 0. -1.
         11   -1    0    0    0    0 -0.00000000000E+00 -0.00000000000E+00 -0.45593999997E+02  0.45594000000E+02  0.51100000000E-03 0.  1.
    9900012    2    1    2    0    0 -0.19789043910E+02 -0.88467979418E+01  0.23384937131E+02  0.59301837212E+02  0.49999805194E+02 0.  0.
        -12    1    1    2    0    0  0.19789043910E+02  0.88467979418E+01 -0.23384937131E+02  0.31886162788E+02  0.00000000000E+00 0.  1.
         11    1    3    3    0    0  0.10378098939E+02  0.10759145129E+01  0.19460946671E+02  0.22081462253E+02  0.51100000000E-03 0. -1.
        -11    1    3    3    0    0 -0.59000580177E+01  0.33856615434E+01  0.65194853068E+01  0.94221588623E+01  0.51100000000E-03 0.  1.
        -12    1    3    3    0    0 -0.24267084832E+02 -0.13308373998E+02 -0.25954948466E+01  0.27798216097E+02  0.00000000000E+00 0.  1.
</event>
<event>
 7    1  0.6830263E-012  0.5930190E+02  0.7816164E-02  0.1266605E+00
        -11   -1    0    0    0    0  0.00000000000E+00  0.00000000000E+00  0.45593999997E+02  0.45594000000E+02  0.51100000000E-03 0.  1.
         11   -1    0    0    0    0 -0.00000000000E+00 -0.00000000000E+00 -0.45593999997E+02  0.45594000000E+02  0.51100000000E-03 0. -1.
    9900012    2    1    2    0    0 -0.24561941459E+02 -0.17893475188E+02 -0.96570273142E+01  0.59301896458E+02  0.49999913244E+02 0.  0.
        -12    1    1    2    0    0  0.24561941459E+02  0.17893475188E+02  0.96570273142E+01  0.31886103542E+02  0.00000000000E+00 0.  1.
         11    1    3    3    0    0 -0.22817705377E+01 -0.97407833622E+01 -0.24597056376E+01  0.10302402117E+02  0.51100000000E-03 0. -1.
        -11    1    3    3    0    0 -0.28411129032E+02 -0.18569228383E+02 -0.11990426340E+02  0.35996927920E+02  0.51100000000E-03 0.  1.
        -12    1    3    3    0    0  0.61309581109E+01  0.10416536557E+02  0.47931046632E+01  0.13002566421E+02  0.00000000000E+00 0.  1.
</event>
<event>
 7    1  0.6830263E-012  0.5930198E+02  0.7816164E-02  0.1266605E+00
        -11   -1    0    0    0    0  0.00000000000E+00  0.00000000000E+00  0.45593999997E+02  0.45594000000E+02  0.51100000000E-03 0.  1.
         11   -1    0    0    0    0 -0.00000000000E+00 -0.00000000000E+00 -0.45593999997E+02  0.45594000000E+02  0.51100000000E-03 0. -1.
    9900012    2    1    2    0    0  0.29183878852E+02 -0.73297688415E+01 -0.10549586144E+02  0.59301983254E+02  0.50000071540E+02 0.  0.
        -12    1    1    2    0    0 -0.29183878852E+02  0.73297688415E+01  0.10549586144E+02  0.31886016746E+02  0.00000000000E+00 0.  1.
         11    1    3    3    0    0 -0.33876031104E+01 -0.32536569935E+01 -0.23346704992E+01  0.52452669395E+01  0.51100000000E-03 0. -1.
        -11    1    3    3    0    0 -0.66686850499E+00 -0.15834196306E+02  0.46656547311E+01  0.16520739105E+02  0.51100000000E-03 0.  1.
         12    1    3    3    0    0  0.33238350467E+02  0.11758084458E+02 -0.12880570376E+02  0.37535977210E+02  0.00000000000E+00 0. -1.
</event>
<event>
 7    1  0.6830263E-012  0.5930215E+02  0.7816164E-02  0.1266604E+00
        -11   -1    0    0    0    0  0.00000000000E+00  0.00000000000E+00  0.45593999997E+02  0.45594000000E+02  0.51100000000E-03 0.  1.
         11   -1    0    0    0    0 -0.00000000000E+00 -0.00000000000E+00 -0.45593999997E+02  0.45594000000E+02  0.51100000000E-03 0. -1.
    9900012    2    1    2    0    0  0.20874120242E+02  0.15053832993E+02 -0.18824463824E+02  0.59302153267E+02  0.50000381600E+02 0.  0.
        -12    1    1    2    0    0 -0.20874120242E+02 -0.15053832993E+02  0.18824463824E+02  0.31885846733E+02  0.00000000000E+00 0.  1.
         11    1    3    3    0    0  0.51516316563E+01 -0.12604260202E+01 -0.26222092085E+01  0.59164147817E+01  0.51100000000E-03 0. -1.
        -11    1    3    3    0    0  0.23664168383E+02  0.23965647060E+02  0.12841839938E+00  0.33680284972E+02  0.51100000000E-03 0.  1.
        -12    1    3    3    0    0 -0.79416797975E+01 -0.76513880465E+01 -0.16330673014E+02  0.19705453513E+02  0.00000000000E+00 0.  1.
</event>
<event>
 7    1  0.6830263E-012  0.5930194E+02  0.7816164E-02  0.1266605E+00
        -11   -1    0    0    0    0  0.00000000000E+00  0.00000000000E+00  0.45593999997E+02  0.45594000000E+02  0.51100000000E-03 0.  1.
         11   -1    0    0    0    0 -0.00000000000E+00 -0.00000000000E+00 -0.45593999997E+02  0.45594000000E+02  0.51100000000E-03 0. -1.
    9900012    2    1    2    0    0 -0.16032484028E+01  0.23701409861E+01 -0.31757407285E+02  0.59301938920E+02  0.49999990685E+02 0.  0.
        -12    1    1    2    0    0  0.16032484028E+01 -0.23701409861E+01  0.31757407285E+02  0.31886061080E+02  0.00000000000E+00 0.  1.
         11    1    3    3    0    0  0.73366949749E+01 -0.85079643869E+01 -0.33663131936E+02  0.35488293889E+02  0.51100000000E-03 0. -1.
        -11    1    3    3    0    0 -0.74620309878E+01  0.89413465345E+01 -0.76621197203E+01  0.13940504409E+02  0.51100000000E-03 0.  1.
        -12    1    3    3    0    0 -0.14779123898E+01  0.19367588385E+01  0.95678443710E+01  0.98731406218E+01  0.00000000000E+00 0.  1.
</event>
<event>
 7    1  0.6830263E-012  0.5930195E+02  0.7816164E-02  0.1266605E+00
        -11   -1    0    0    0    0  0.00000000000E+00  0.00000000000E+00  0.45593999997E+02  0.45594000000E+02  0.51100000000E-03 0.  1.
         11   -1    0    0    0    0 -0.00000000000E+00 -0.00000000000E+00 -0.45593999997E+02  0.45594000000E+02  0.51100000000E-03 0. -1.
    9900012    2    1    2    0    0  0.25277042120E+02 -0.17934342717E+02 -0.74933850296E+01  0.59301947779E+02  0.50000006842E+02 0.  0.
        -12    1    1    2    0    0 -0.25277042120E+02  0.17934342717E+02  0.74933850296E+01  0.31886052221E+02  0.00000000000E+00 0.  1.
         11    1    3    3    0    0 -0.36009145050E+01 -0.84367396331E+01  0.74695895075E+01  0.11829620813E+02  0.51100000000E-03 0. -1.
        -11    1    3    3    0    0 -0.36803647770E+01  0.34451781438E+01 -0.11140292141E+02  0.12227855355E+02  0.51100000000E-03 0.  1.
         12    1    3    3    0    0  0.32558321402E+02 -0.12942781228E+02 -0.38226823957E+01  0.35244471611E+02  0.00000000000E+00 0. -1.
</event>
<event>
 7    1  0.6830263E-012  0.5930193E+02  0.7816164E-02  0.1266605E+00
        -11   -1    0    0    0    0  0.00000000000E+00  0.00000000000E+00  0.45593999997E+02  0.45594000000E+02  0.51100000000E-03 0. -1.
         11   -1    0    0    0    0 -0.00000000000E+00 -0.00000000000E+00 -0.45593999997E+02  0.45594000000E+02  0.51100000000E-03 0.  1.
    9900012    2    1    2    0    0 -0.32125017524E+01 -0.30997600844E+02 -0.67490791852E+01  0.59301929445E+02  0.49999973405E+02 0.  0.
        -12    1    1    2    0    0  0.32125017524E+01  0.30997600844E+02  0.67490791852E+01  0.31886070555E+02  0.00000000000E+00 0.  1.
         11    1    3    3    0    0  0.96721159546E+01 -0.80468372754E+01  0.72989352076E+01  0.14545647892E+02  0.51100000000E-03 0. -1.
        -11    1    3    3    0    0  0.11268112028E+02 -0.63892420744E+01 -0.20786098358E+01  0.13119198987E+02  0.51100000000E-03 0.  1.
        -12    1    3    3    0    0 -0.24152729735E+02 -0.16561521494E+02 -0.11969404557E+02  0.31637082566E+02  0.00000000000E+00 0.  1.
</event>
<event>
 7    1  0.6830263E-012  0.5930166E+02  0.7816164E-02  0.1266606E+00
        -11   -1    0    0    0    0  0.00000000000E+00  0.00000000000E+00  0.45593999997E+02  0.45594000000E+02  0.51100000000E-03 0.  1.
         11   -1    0    0    0    0 -0.00000000000E+00 -0.00000000000E+00 -0.45593999997E+02  0.45594000000E+02  0.51100000000E-03 0. -1.
    9900012    2    1    2    0    0 -0.20131983324E+02  0.11457976507E+02 -0.21912479562E+02  0.59301659056E+02  0.49999480278E+02 0.  0.
        -12    1    1    2    0    0  0.20131983324E+02 -0.11457976507E+02  0.21912479562E+02  0.31886340944E+02  0.00000000000E+00 0.  1.
         11    1    3    3    0    0  0.52358494786E-01 -0.11254028925E+02 -0.27163207201E+01  0.11577318644E+02  0.51100000000E-03 0. -1.
        -11    1    3    3    0    0 -0.95381759149E+01 -0.46609647752E+01 -0.14515426889E+02  0.17983298097E+02  0.51100000000E-03 0.  1.
        -12    1    3    3    0    0 -0.10646165904E+02  0.27372970207E+02 -0.46807319534E+01  0.29741042316E+02  0.00000000000E+00 0.  1.
</event>
<event>
 7    1  0.6830263E-012  0.5930195E+02  0.7816164E-02  0.1266605E+00
        -11   -1    0    0    0    0  0.00000000000E+00  0.00000000000E+00  0.45593999997E+02  0.45594000000E+02  0.51100000000E-03 0.  1.
         11   -1    0    0    0    0 -0.00000000000E+00 -0.00000000000E+00 -0.45593999997E+02  0.45594000000E+02  0.51100000000E-03 0. -1.
    9900012    2    1    2    0    0  0.49378734861E+01  0.67590849476E+01 -0.30767712116E+02  0.59301953949E+02  0.50000018095E+02 0.  0.
        -12    1    1    2    0    0 -0.49378734861E+01 -0.67590849476E+01  0.30767712116E+02  0.31886046051E+02  0.00000000000E+00 0.  1.
         11    1    3    3    0    0 -0.15708696431E+02  0.10148209217E+02 -0.12271900701E+02  0.22368478736E+02  0.51100000000E-03 0. -1.
        -11    1    3    3    0    0  0.10881190447E+00 -0.99166407077E+01 -0.89692292910E+01  0.13371562261E+02  0.51100000000E-03 0.  1.
        -12    1    3    3    0    0  0.20537758013E+02  0.65275164385E+01 -0.95265821235E+01  0.23561912953E+02  0.00000000000E+00 0.  1.
</event>
<event>
 7    1  0.6830263E-012  0.5930194E+02  0.7816164E-02  0.1266605E+00
        -11   -1    0    0    0    0  0.00000000000E+00  0.00000000000E+00  0.45593999997E+02  0.45594000000E+02  0.51100000000E-03 0.  1.
         11   -1    0    0    0    0 -0.00000000000E+00 -0.00000000000E+00 -0.45593999997E+02  0.45594000000E+02  0.51100000000E-03 0. -1.
    9900012    2    1    2    0    0 -0.18773788779E+00  0.24915238447E+02 -0.19897647172E+02  0.59301941677E+02  0.49999995713E+02 0.  0.
        -12    1    1    2    0    0  0.18773788779E+00 -0.24915238447E+02  0.19897647172E+02  0.31886058323E+02  0.00000000000E+00 0.  1.
         11    1    3    3    0    0  0.10064603669E+02 -0.21012241235E+01 -0.38425797057E+01  0.10976192823E+02  0.51100000000E-03 0.  1.
        -11    1    3    3    0    0 -0.92066854395E+01  0.17982138642E+02 -0.27237638215E+02  0.33911787077E+02  0.51100000000E-03 0. -1.
         12    1    3    3    0    0 -0.10456561170E+01  0.90343239289E+01  0.11182570749E+02  0.14413961778E+02  0.00000000000E+00 0. -1.
</event>
<event>
 7    1  0.6830263E-012  0.5930203E+02  0.7816164E-02  0.1266604E+00
        -11   -1    0    0    0    0  0.00000000000E+00  0.00000000000E+00  0.45593999997E+02  0.45594000000E+02  0.51100000000E-03 0.  1.
         11   -1    0    0    0    0 -0.00000000000E+00 -0.00000000000E+00 -0.45593999997E+02  0.45594000000E+02  0.51100000000E-03 0. -1.
    9900012    2    1    2    0    0  0.19490189887E+02 -0.25113749971E+02 -0.24792831739E+01  0.59302034679E+02  0.50000165326E+02 0.  0.
        -12    1    1    2    0    0 -0.19490189887E+02  0.25113749971E+02  0.24792831739E+01  0.31885965321E+02  0.00000000000E+00 0.  1.
         11    1    3    3    0    0  0.22837222679E+02 -0.19676479601E+02 -0.43744707394E+01  0.30460442934E+02  0.51100000000E-03 0. -1.
        -11    1    3    3    0    0  0.45052084868E+01 -0.15091951938E+02  0.39267252383E+01  0.16232162153E+02  0.51100000000E-03 0.  1.
         12    1    3    3    0    0 -0.78522412797E+01  0.96546815690E+01 -0.20315376728E+01  0.12609429592E+02  0.00000000000E+00 0. -1.
</event>
<event>
 7    1  0.6830263E-012  0.5930195E+02  0.7816164E-02  0.1266605E+00
        -11   -1    0    0    0    0  0.00000000000E+00  0.00000000000E+00  0.45593999997E+02  0.45594000000E+02  0.51100000000E-03 0. -1.
         11   -1    0    0    0    0 -0.00000000000E+00 -0.00000000000E+00 -0.45593999997E+02  0.45594000000E+02  0.51100000000E-03 0.  1.
    9900012    2    1    2    0    0  0.10083695056E+02  0.16078114465E+02  0.25622913393E+02  0.59301947227E+02  0.50000005835E+02 0.  0.
        -12    1    1    2    0    0 -0.10083695056E+02 -0.16078114465E+02 -0.25622913393E+02  0.31886052773E+02  0.00000000000E+00 0.  1.
         11    1    3    3    0    0  0.15563070413E+01  0.49616076506E+00 -0.68047084914E+01  0.69980229369E+01  0.51100000000E-03 0. -1.
        -11    1    3    3    0    0  0.16790609102E+02  0.23348299368E+02  0.17900295293E+02  0.33874595337E+02  0.51100000000E-03 0.  1.
         12    1    3    3    0    0 -0.82632210869E+01 -0.77663456688E+01  0.14527326591E+02  0.18429328953E+02  0.00000000000E+00 0. -1.
</event>
<event>
 7    1  0.6830263E-012  0.5930193E+02  0.7816164E-02  0.1266605E+00
        -11   -1    0    0    0    0  0.00000000000E+00  0.00000000000E+00  0.45593999997E+02  0.45594000000E+02  0.51100000000E-03 0.  1.
         11   -1    0    0    0    0 -0.00000000000E+00 -0.00000000000E+00 -0.45593999997E+02  0.45594000000E+02  0.51100000000E-03 0. -1.
    9900012    2    1    2    0    0 -0.57325496045E+01  0.74835535298E+01 -0.30460727540E+02  0.59301927481E+02  0.49999969823E+02 0.  0.
        -12    1    1    2    0    0  0.57325496045E+01 -0.74835535298E+01  0.30460727540E+02  0.31886072519E+02  0.00000000000E+00 0.  1.
         11    1    3    3    0    0 -0.35662257288E+01  0.15814826153E+02 -0.11352360637E+01  0.16251629253E+02  0.51100000000E-03 0. -1.
        -11    1    3    3    0    0 -0.52684938908E+01 -0.14268920900E+02 -0.25168665060E+01  0.15417319767E+02  0.51100000000E-03 0.  1.
         12    1    3    3    0    0  0.31021700151E+01  0.59376482767E+01 -0.26808624970E+02  0.27632978462E+02  0.00000000000E+00 0. -1.
</event>
<event>
 7    1  0.6830263E-012  0.5930196E+02  0.7816164E-02  0.1266605E+00
        -11   -1    0    0    0    0  0.00000000000E+00  0.00000000000E+00  0.45593999997E+02  0.45594000000E+02  0.51100000000E-03 0.  1.
         11   -1    0    0    0    0 -0.00000000000E+00 -0.00000000000E+00 -0.45593999997E+02  0.45594000000E+02  0.51100000000E-03 0. -1.
    9900012    2    1    2    0    0  0.11497406430E+01 -0.15392293223E+02 -0.27901163655E+02  0.59301960304E+02  0.50000029683E+02 0.  0.
        -12    1    1    2    0    0 -0.11497406430E+01  0.15392293223E+02  0.27901163655E+02  0.31886039696E+02  0.00000000000E+00 0.  1.
         11    1    3    3    0    0  0.68202464606E+01 -0.29366111486E+02 -0.12095698374E+02  0.32483691062E+02  0.51100000000E-03 0.  1.
        -11    1    3    3    0    0 -0.42343025022E+01  0.59863410781E+01 -0.17094709530E+02  0.18600932540E+02  0.51100000000E-03 0. -1.
        -12    1    3    3    0    0 -0.14362033155E+01  0.79874771847E+01  0.12892442491E+01  0.82173367019E+01  0.00000000000E+00 0.  1.
</event>
<event>
 7    1  0.6830263E-012  0.5930205E+02  0.7816164E-02  0.1266604E+00
        -11   -1    0    0    0    0  0.00000000000E+00  0.00000000000E+00  0.45593999997E+02  0.45594000000E+02  0.51100000000E-03 0.  1.
         11   -1    0    0    0    0 -0.00000000000E+00 -0.00000000000E+00 -0.45593999997E+02  0.45594000000E+02  0.51100000000E-03 0. -1.
    9900012    2    1    2    0    0  0.30002436009E+02 -0.10772695586E+02 -0.71892758028E+00  0.59302047081E+02  0.50000187944E+02 0.  0.
        -12    1    1    2    0    0 -0.30002436009E+02  0.10772695586E+02  0.71892758028E+00  0.31885952919E+02  0.00000000000E+00 0.  1.
         11    1    3    3    0    0  0.84069917268E+01 -0.94868534012E+01 -0.13030283544E+02  0.18178728967E+02  0.51100000000E-03 0. -1.
        -11    1    3    3    0    0  0.24530700698E+02  0.54158519905E+01 -0.18439708122E+01  0.25189024557E+02  0.51100000000E-03 0.  1.
        -12    1    3    3    0    0 -0.29352564153E+01 -0.67016941756E+01  0.14155326776E+02  0.15934293557E+02  0.00000000000E+00 0.  1.
</event>
<event>
 7    1  0.6830263E-012  0.5930194E+02  0.7816164E-02  0.1266605E+00
        -11   -1    0    0    0    0  0.00000000000E+00  0.00000000000E+00  0.45593999997E+02  0.45594000000E+02  0.51100000000E-03 0. -1.
         11   -1    0    0    0    0 -0.00000000000E+00 -0.00000000000E+00 -0.45593999997E+02  0.45594000000E+02  0.51100000000E-03 0.  1.
    9900012    2    1    2    0    0  0.57949229871E+01  0.26686427455E+02  0.16461291516E+02  0.59301942528E+02  0.49999997264E+02 0.  0.
        -12    1    1    2    0    0 -0.57949229871E+01 -0.26686427455E+02 -0.16461291516E+02  0.31886057472E+02  0.00000000000E+00 0.  1.
         11    1    3    3    0    0 -0.17597232499E+01  0.15139442711E+02 -0.12606209756E+02  0.19779177844E+02  0.51100000000E-03 0. -1.
        -11    1    3    3    0    0 -0.55788513051E+01  0.83148069636E+01  0.35160796773E+01  0.10612370766E+02  0.51100000000E-03 0.  1.
         12    1    3    3    0    0  0.13133497542E+02  0.32321777809E+01  0.25551421595E+02  0.28910393917E+02  0.00000000000E+00 0. -1.
</event>
<event>
 7    1  0.6830263E-012  0.5930194E+02  0.7816164E-02  0.1266605E+00
        -11   -1    0    0    0    0  0.00000000000E+00  0.00000000000E+00  0.45593999997E+02  0.45594000000E+02  0.51100000000E-03 0.  1.
         11   -1    0    0    0    0 -0.00000000000E+00 -0.00000000000E+00 -0.45593999997E+02  0.45594000000E+02  0.51100000000E-03 0. -1.
    9900012    2    1    2    0    0  0.12061533115E+02 -0.16049122697E+02 -0.24772278000E+02  0.59301942267E+02  0.49999996790E+02 0.  0.
        -12    1    1    2    0    0 -0.12061533115E+02  0.16049122697E+02  0.24772278000E+02  0.31886057733E+02  0.00000000000E+00 0.  1.
         11    1    3    3    0    0  0.50601041188E+01 -0.19529050039E+02 -0.25676434608E+01  0.20336696938E+02  0.51100000000E-03 0. -1.
        -11    1    3    3    0    0  0.38457603310E+01 -0.14003962405E+01  0.75824369102E+01  0.86165150677E+01  0.51100000000E-03 0.  1.
         12    1    3    3    0    0  0.31556686657E+01  0.48803235828E+01 -0.29787071449E+02  0.30348730262E+02  0.00000000000E+00 0. -1.
</event>
<event>
 7    1  0.6830263E-012  0.5930195E+02  0.7816164E-02  0.1266605E+00
        -11   -1    0    0    0    0  0.00000000000E+00  0.00000000000E+00  0.45593999997E+02  0.45594000000E+02  0.51100000000E-03 0.  1.
         11   -1    0    0    0    0 -0.00000000000E+00 -0.00000000000E+00 -0.45593999997E+02  0.45594000000E+02  0.51100000000E-03 0. -1.
    9900012    2    1    2    0    0  0.77047325472E+01  0.39128398010E+01 -0.30692778774E+02  0.59301954654E+02  0.50000019380E+02 0.  0.
        -12    1    1    2    0    0 -0.77047325472E+01 -0.39128398010E+01  0.30692778774E+02  0.31886045346E+02  0.00000000000E+00 0.  1.
         11    1    3    3    0    0 -0.82984793978E+01  0.32468558936E+01 -0.21781170881E+02  0.23533513098E+02  0.51100000000E-03 0. -1.
        -11    1    3    3    0    0 -0.63735338834E+01 -0.81044879232E+01 -0.56371109850E+00  0.10325813727E+02  0.51100000000E-03 0.  1.
         12    1    3    3    0    0  0.22376745828E+02  0.87704718305E+01 -0.83478967944E+01  0.25442627830E+02  0.00000000000E+00 0. -1.
</event>
<event>
 7    1  0.6830263E-012  0.5930196E+02  0.7816164E-02  0.1266605E+00
        -11   -1    0    0    0    0  0.00000000000E+00  0.00000000000E+00  0.45593999997E+02  0.45594000000E+02  0.51100000000E-03 0.  1.
         11   -1    0    0    0    0 -0.00000000000E+00 -0.00000000000E+00 -0.45593999997E+02  0.45594000000E+02  0.51100000000E-03 0. -1.
    9900012    2    1    2    0    0 -0.35592140998E+01  0.50376261370E+01 -0.31283764008E+02  0.59301959597E+02  0.50000028394E+02 0.  0.
        -12    1    1    2    0    0  0.35592140998E+01 -0.50376261370E+01  0.31283764008E+02  0.31886040403E+02  0.00000000000E+00 0.  1.
         11    1    3    3    0    0 -0.59440966811E+01 -0.43446803280E+01 -0.31677153439E+02  0.32521540289E+02  0.51100000000E-03 0. -1.
        -11    1    3    3    0    0 -0.12429377849E+01 -0.61021323949E+01 -0.68908459307E+01  0.92878776910E+01  0.51100000000E-03 0.  1.
        -12    1    3    3    0    0  0.36278203662E+01  0.15484438860E+02  0.72842353616E+01  0.17492541617E+02  0.00000000000E+00 0.  1.
</event>
<event>
 7    1  0.6830263E-012  0.5930196E+02  0.7816164E-02  0.1266605E+00
        -11   -1    0    0    0    0  0.00000000000E+00  0.00000000000E+00  0.45593999997E+02  0.45594000000E+02  0.51100000000E-03 0.  1.
         11   -1    0    0    0    0 -0.00000000000E+00 -0.00000000000E+00 -0.45593999997E+02  0.45594000000E+02  0.51100000000E-03 0. -1.
    9900012    2    1    2    0    0 -0.62280710967E+01  0.63532596425E+01 -0.30619709422E+02  0.59301962574E+02  0.50000033824E+02 0.  0.
        -12    1    1    2    0    0  0.62280710967E+01 -0.63532596425E+01  0.30619709422E+02  0.31886037426E+02  0.00000000000E+00 0.  1.
         11    1    3    3    0    0 -0.61741830452E+01  0.71375304138E+01  0.34613823352E+00  0.94437645365E+01  0.51100000000E-03 0. -1.
        -11    1    3    3    0    0 -0.15121576858E+02 -0.10668468769E+02 -0.24519722034E+02  0.30719620464E+02  0.51100000000E-03 0.  1.
        -12    1    3    3    0    0  0.15067688806E+02  0.98841979976E+01 -0.64461256212E+01  0.19138577574E+02  0.00000000000E+00 0.  1.
</event>
<event>
 7    1  0.6830263E-012  0.5930196E+02  0.7816164E-02  0.1266605E+00
        -11   -1    0    0    0    0  0.00000000000E+00  0.00000000000E+00  0.45593999997E+02  0.45594000000E+02  0.51100000000E-03 0. -1.
         11   -1    0    0    0    0 -0.00000000000E+00 -0.00000000000E+00 -0.45593999997E+02  0.45594000000E+02  0.51100000000E-03 0.  1.
    9900012    2    1    2    0    0 -0.27736764118E+02 -0.15722891806E+02  0.42661750291E+00  0.59301962100E+02  0.50000032959E+02 0.  0.
        -12    1    1    2    0    0  0.27736764118E+02  0.15722891806E+02 -0.42661750291E+00  0.31886037900E+02  0.00000000000E+00 0.  1.
         11    1    3    3    0    0 -0.11485366816E+02 -0.25261646120E+01  0.16003386262E+02  0.19859595430E+02  0.51100000000E-03 0.  1.
        -11    1    3    3    0    0 -0.18007414725E+01  0.71619287622E+01  0.33539407891E+01  0.81107837182E+01  0.51100000000E-03 0. -1.
        -12    1    3    3    0    0 -0.14450655830E+02 -0.20358655956E+02 -0.18930709548E+02  0.31331582951E+02  0.00000000000E+00 0.  1.
</event>
<event>
 7    1  0.6830263E-012  0.5930196E+02  0.7816164E-02  0.1266605E+00
        -11   -1    0    0    0    0  0.00000000000E+00  0.00000000000E+00  0.45593999997E+02  0.45594000000E+02  0.51100000000E-03 0. -1.
         11   -1    0    0    0    0 -0.00000000000E+00 -0.00000000000E+00 -0.45593999997E+02  0.45594000000E+02  0.51100000000E-03 0.  1.
    9900012    2    1    2    0    0 -0.13902818133E+02  0.23624712236E+02  0.16288169349E+02  0.59301955388E+02  0.50000020719E+02 0.  0.
        -12    1    1    2    0    0  0.13902818133E+02 -0.23624712236E+02 -0.16288169349E+02  0.31886044612E+02  0.00000000000E+00 0.  1.
         11    1    3    3    0    0  0.48172848656E+00  0.59568497137E+01  0.21993718750E+01  0.63681518317E+01  0.51100000000E-03 0. -1.
        -11    1    3    3    0    0  0.10866804406E+02  0.22799593728E+02  0.69353828920E+01  0.26191762985E+02  0.51100000000E-03 0.  1.
         12    1    3    3    0    0 -0.25251351025E+02 -0.51317312056E+01  0.71534145816E+01  0.26742040572E+02  0.00000000000E+00 0. -1.
</event>
<event>
 7    1  0.6830263E-012  0.5930194E+02  0.7816164E-02  0.1266605E+00
        -11   -1    0    0    0    0  0.00000000000E+00  0.00000000000E+00  0.45593999997E+02  0.45594000000E+02  0.51100000000E-03 0.  1.
         11   -1    0    0    0    0 -0.00000000000E+00 -0.00000000000E+00 -0.45593999997E+02  0.45594000000E+02  0.51100000000E-03 0. -1.
    9900012    2    1    2    0    0 -0.91466191339E+01 -0.13681308958E+02 -0.27310839005E+02  0.59301940608E+02  0.49999993763E+02 0.  0.
        -12    1    1    2    0    0  0.91466191339E+01  0.13681308958E+02  0.27310839005E+02  0.31886059392E+02  0.00000000000E+00 0.  1.
         11    1    3    3    0    0  0.12805031376E+02 -0.93555141777E+01 -0.17741398805E+02  0.23796043913E+02  0.51100000000E-03 0. -1.
        -11    1    3    3    0    0  0.14931294030E+01  0.50761730815E+01  0.41831152425E+01  0.67450294263E+01  0.51100000000E-03 0.  1.
        -12    1    3    3    0    0 -0.23444779913E+02 -0.94019678622E+01 -0.13752555443E+02  0.28760867269E+02  0.00000000000E+00 0.  1.
</event>
<event>
 7    1  0.6830263E-012  0.5930170E+02  0.7816164E-02  0.1266606E+00
        -11   -1    0    0    0    0  0.00000000000E+00  0.00000000000E+00  0.45593999997E+02  0.45594000000E+02  0.51100000000E-03 0.  1.
         11   -1    0    0    0    0 -0.00000000000E+00 -0.00000000000E+00 -0.45593999997E+02  0.45594000000E+02  0.51100000000E-03 0. -1.
    9900012    2    1    2    0    0  0.11269181846E+02  0.28366868956E+02 -0.92229241092E+01  0.59301701329E+02  0.49999557373E+02 0.  0.
        -12    1    1    2    0    0 -0.11269181846E+02 -0.28366868956E+02  0.92229241092E+01  0.31886298671E+02  0.00000000000E+00 0.  1.
         11    1    3    3    0    0 -0.10041499148E+02  0.10492748485E+01 -0.37791335077E+01  0.10780284467E+02  0.51100000000E-03 0. -1.
        -11    1    3    3    0    0 -0.19311501863E+00  0.23113599088E+02  0.58896223681E+01  0.23852953865E+02  0.51100000000E-03 0.  1.
         12    1    3    3    0    0  0.21503796013E+02  0.42039950197E+01 -0.11333412970E+02  0.24668462997E+02  0.00000000000E+00 0. -1.
</event>
<event>
 7    1  0.6830263E-012  0.5930197E+02  0.7816164E-02  0.1266605E+00
        -11   -1    0    0    0    0  0.00000000000E+00  0.00000000000E+00  0.45593999997E+02  0.45594000000E+02  0.51100000000E-03 0.  1.
         11   -1    0    0    0    0 -0.00000000000E+00 -0.00000000000E+00 -0.45593999997E+02  0.45594000000E+02  0.51100000000E-03 0. -1.
    9900012    2    1    2    0    0  0.18786403927E+02  0.58145084717E+01 -0.25099429397E+02  0.59301971126E+02  0.50000049421E+02 0.  0.
        -12    1    1    2    0    0 -0.18786403927E+02 -0.58145084717E+01  0.25099429397E+02  0.31886028874E+02  0.00000000000E+00 0.  1.
         11    1    3    3    0    0  0.36085434456E+01 -0.70750507026E+01 -0.25374672010E+02  0.26588567245E+02  0.51100000000E-03 0. -1.
        -11    1    3    3    0    0  0.75948191999E+01  0.10546428501E+02 -0.12266643678E+02  0.17871177359E+02  0.51100000000E-03 0.  1.
         12    1    3    3    0    0  0.75830412817E+01  0.23431306732E+01  0.12541886290E+02  0.14842226523E+02  0.00000000000E+00 0. -1.
</event>
<event>
 7    1  0.6830263E-012  0.5930193E+02  0.7816164E-02  0.1266605E+00
        -11   -1    0    0    0    0  0.00000000000E+00  0.00000000000E+00  0.45593999997E+02  0.45594000000E+02  0.51100000000E-03 0. -1.
         11   -1    0    0    0    0 -0.00000000000E+00 -0.00000000000E+00 -0.45593999997E+02  0.45594000000E+02  0.51100000000E-03 0.  1.
    9900012    2    1    2    0    0  0.21084148891E+02  0.59960585581E+01  0.23156586431E+02  0.59301928623E+02  0.49999971906E+02 0.  0.
        -12    1    1    2    0    0 -0.21084148891E+02 -0.59960585581E+01 -0.23156586431E+02  0.31886071377E+02  0.00000000000E+00 0.  1.
         11    1    3    3    0    0  0.25153711134E+02  0.12865112119E+02 -0.43378180764E+01  0.28583858374E+02  0.51100000000E-03 0. -1.
        -11    1    3    3    0    0  0.29411777636E+00 -0.15772127542E-01 -0.10236951933E+01  0.10652258616E+01  0.51100000000E-03 0.  1.
        -12    1    3    3    0    0 -0.43636800194E+01 -0.68532814330E+01  0.28518099701E+02  0.29652844388E+02  0.00000000000E+00 0.  1.
</event>
<event>
 7    1  0.6830263E-012  0.5930195E+02  0.7816164E-02  0.1266605E+00
        -11   -1    0    0    0    0  0.00000000000E+00  0.00000000000E+00  0.45593999997E+02  0.45594000000E+02  0.51100000000E-03 0.  1.
         11   -1    0    0    0    0 -0.00000000000E+00 -0.00000000000E+00 -0.45593999997E+02  0.45594000000E+02  0.51100000000E-03 0. -1.
    9900012    2    1    2    0    0 -0.15364093797E+01  0.20858043834E+02 -0.24068690083E+02  0.59301946800E+02  0.50000005055E+02 0.  0.
        -12    1    1    2    0    0  0.15364093797E+01 -0.20858043834E+02  0.24068690083E+02  0.31886053200E+02  0.00000000000E+00 0.  1.
         11    1    3    3    0    0  0.14285019104E+02  0.23876905965E+02 -0.62202560267E+01  0.28510699651E+02  0.51100000000E-03 0. -1.
        -11    1    3    3    0    0  0.14144191663E+01 -0.33478290342E+01 -0.12076700040E+02  0.12611709834E+02  0.51100000000E-03 0.  1.
        -12    1    3    3    0    0 -0.17235847650E+02  0.32896690289E+00 -0.57717340162E+01  0.18179537315E+02  0.00000000000E+00 0.  1.
</event>
<event>
 7    1  0.6830263E-012  0.5930193E+02  0.7816164E-02  0.1266605E+00
        -11   -1    0    0    0    0  0.00000000000E+00  0.00000000000E+00  0.45593999997E+02  0.45594000000E+02  0.51100000000E-03 0. -1.
         11   -1    0    0    0    0 -0.00000000000E+00 -0.00000000000E+00 -0.45593999997E+02  0.45594000000E+02  0.51100000000E-03 0.  1.
    9900012    2    1    2    0    0 -0.16622267759E+02  0.13989914932E+01  0.27174708004E+02  0.59301925959E+02  0.49999967046E+02 0.  0.
        -12    1    1    2    0    0  0.16622267759E+02 -0.13989914932E+01 -0.27174708004E+02  0.31886074041E+02  0.00000000000E+00 0.  1.
         11    1    3    3    0    0 -0.25025860350E+02  0.97374683641E+00  0.42475197958E+01  0.25402426928E+02  0.51100000000E-03 0. -1.
        -11    1    3    3    0    0 -0.56738450970E+01  0.31560308927E+00 -0.13455120968E+01  0.58397368569E+01  0.51100000000E-03 0.  1.
         12    1    3    3    0    0  0.14077437688E+02  0.10964156754E+00  0.24272700305E+02  0.28059762174E+02  0.00000000000E+00 0. -1.
</event>
<event>
 7    1  0.6830263E-012  0.5930194E+02  0.7816164E-02  0.1266605E+00
        -11   -1    0    0    0    0  0.00000000000E+00  0.00000000000E+00  0.45593999997E+02  0.45594000000E+02  0.51100000000E-03 0.  1.
         11   -1    0    0    0    0 -0.00000000000E+00 -0.00000000000E+00 -0.45593999997E+02  0.45594000000E+02  0.51100000000E-03 0. -1.
    9900012    2    1    2    0    0  0.12821375337E+02  0.27315331346E+02 -0.10305621777E+02  0.59301939844E+02  0.49999992370E+02 0.  0.
        -12    1    1    2    0    0 -0.12821375337E+02 -0.27315331346E+02  0.10305621777E+02  0.31886060156E+02  0.00000000000E+00 0.  1.
         11    1    3    3    0    0 -0.20296700130E+01  0.45888693846E+01  0.69694089185E+01  0.85877787306E+01  0.51100000000E-03 0. -1.
        -11    1    3    3    0    0 -0.89475680976E+01 -0.52582420309E+01 -0.67005096852E+00  0.10399858301E+02  0.51100000000E-03 0.  1.
         12    1    3    3    0    0  0.23798613448E+02  0.27984703992E+02 -0.16604979727E+02  0.40314302813E+02  0.00000000000E+00 0. -1.
</event>
<event>
 7    1  0.6830263E-012  0.5930192E+02  0.7816164E-02  0.1266605E+00
        -11   -1    0    0    0    0  0.00000000000E+00  0.00000000000E+00  0.45593999997E+02  0.45594000000E+02  0.51100000000E-03 0.  1.
         11   -1    0    0    0    0 -0.00000000000E+00 -0.00000000000E+00 -0.45593999997E+02  0.45594000000E+02  0.51100000000E-03 0. -1.
    9900012    2    1    2    0    0 -0.99037115537E+01  0.30106489308E+02  0.34982782602E+01  0.59301919153E+02  0.49999954635E+02 0.  0.
        -12    1    1    2    0    0  0.99037115537E+01 -0.30106489308E+02 -0.34982782602E+01  0.31886080847E+02  0.00000000000E+00 0.  1.
         11    1    3    3    0    0  0.62565944615E+01  0.75373082959E+01 -0.16037096850E+01  0.99261208746E+01  0.51100000000E-03 0. -1.
        -11    1    3    3    0    0 -0.20713545724E+02 -0.68018296613E+00  0.12927128569E+02  0.24425893610E+02  0.51100000000E-03 0.  1.
         12    1    3    3    0    0  0.45532397086E+01  0.23249363978E+02 -0.78251406242E+01  0.24949904669E+02  0.00000000000E+00 0. -1.
</event>
<event>
 7    1  0.6830263E-012  0.5930194E+02  0.7816164E-02  0.1266605E+00
        -11   -1    0    0    0    0  0.00000000000E+00  0.00000000000E+00  0.45593999997E+02  0.45594000000E+02  0.51100000000E-03 0.  1.
         11   -1    0    0    0    0 -0.00000000000E+00 -0.00000000000E+00 -0.45593999997E+02  0.45594000000E+02  0.51100000000E-03 0. -1.
    9900012    2    1    2    0    0  0.10306346097E+02 -0.17423211093E+02 -0.24635987696E+02  0.59301938086E+02  0.49999989163E+02 0.  0.
        -12    1    1    2    0    0 -0.10306346097E+02  0.17423211093E+02  0.24635987696E+02  0.31886061914E+02  0.00000000000E+00 0.  1.
         11    1    3    3    0    0  0.88965054547E+01  0.61162288783E+00 -0.21620695062E+01  0.91758616311E+01  0.51100000000E-03 0. -1.
        -11    1    3    3    0    0 -0.85426625106E+01  0.99348466164E+01 -0.36022301199E+00  0.13107555872E+02  0.51100000000E-03 0.  1.
        -12    1    3    3    0    0  0.99525031531E+01 -0.27969680597E+02 -0.22113695178E+02  0.37018520582E+02  0.00000000000E+00 0.  1.
</event>
<event>
 7    1  0.6830263E-012  0.5930195E+02  0.7816164E-02  0.1266605E+00
        -11   -1    0    0    0    0  0.00000000000E+00  0.00000000000E+00  0.45593999997E+02  0.45594000000E+02  0.51100000000E-03 0.  1.
         11   -1    0    0    0    0 -0.00000000000E+00 -0.00000000000E+00 -0.45593999997E+02  0.45594000000E+02  0.51100000000E-03 0. -1.
    9900012    2    1    2    0    0 -0.13858942106E+02 -0.64531281610E+01 -0.27982266215E+02  0.59301947220E+02  0.50000005822E+02 0.  0.
        -12    1    1    2    0    0  0.13858942106E+02  0.64531281610E+01  0.27982266215E+02  0.31886052780E+02  0.00000000000E+00 0.  1.
         11    1    3    3    0    0 -0.35177871605E+01  0.49586658455E+01 -0.22077183489E+02  0.22899022349E+02  0.51100000000E-03 0. -1.
        -11    1    3    3    0    0  0.23657475160E+01 -0.19928921212E+02 -0.64966865859E+01  0.21094207709E+02  0.51100000000E-03 0.  1.
        -12    1    3    3    0    0 -0.12706902462E+02  0.85171272059E+01  0.59160386002E+00  0.15308717162E+02  0.00000000000E+00 0.  1.
</event>
<event>
 7    1  0.6830263E-012  0.5930202E+02  0.7816164E-02  0.1266605E+00
        -11   -1    0    0    0    0  0.00000000000E+00  0.00000000000E+00  0.45593999997E+02  0.45594000000E+02  0.51100000000E-03 0. -1.
         11   -1    0    0    0    0 -0.00000000000E+00 -0.00000000000E+00 -0.45593999997E+02  0.45594000000E+02  0.51100000000E-03 0.  1.
    9900012    2    1    2    0    0 -0.23286072838E+02 -0.17133920173E+02  0.13450040116E+02  0.59302015809E+02  0.50000130912E+02 0.  0.
        -12    1    1    2    0    0  0.23286072838E+02  0.17133920173E+02 -0.13450040116E+02  0.31885984191E+02  0.00000000000E+00 0.  1.
         11    1    3    3    0    0 -0.12531858746E+02 -0.25093518095E+02  0.99969736595E+01  0.29777031696E+02  0.51100000000E-03 0. -1.
        -11    1    3    3    0    0  0.78408219267E+01  0.54640072418E+01  0.48389611915E+01  0.10712115071E+02  0.51100000000E-03 0.  1.
         12    1    3    3    0    0 -0.18595036019E+02  0.24955906800E+01 -0.13858947345E+01  0.18812869042E+02  0.00000000000E+00 0. -1.
</event>
<event>
 7    1  0.6830263E-012  0.5930194E+02  0.7816164E-02  0.1266605E+00
        -11   -1    0    0    0    0  0.00000000000E+00  0.00000000000E+00  0.45593999997E+02  0.45594000000E+02  0.51100000000E-03 0. -1.
         11   -1    0    0    0    0 -0.00000000000E+00 -0.00000000000E+00 -0.45593999997E+02  0.45594000000E+02  0.51100000000E-03 0.  1.
    9900012    2    1    2    0    0  0.18488119735E+02 -0.15957560126E+02  0.20500407059E+02  0.59301937432E+02  0.49999987970E+02 0.  0.
        -12    1    1    2    0    0 -0.18488119735E+02  0.15957560126E+02 -0.20500407059E+02  0.31886062568E+02  0.00000000000E+00 0.  1.
         11    1    3    3    0    0  0.22462444392E+02 -0.19684957674E+02  0.74758871270E+01  0.30788761834E+02  0.51100000000E-03 0. -1.
        -11    1    3    3    0    0  0.24427637817E+00 -0.71949899904E+01 -0.37024197163E+01  0.80953977004E+01  0.51100000000E-03 0.  1.
        -12    1    3    3    0    0 -0.42186010351E+01  0.10922387538E+02  0.16726939649E+02  0.20417777897E+02  0.00000000000E+00 0.  1.
</event>
<event>
 7    1  0.6830263E-012  0.5930194E+02  0.7816164E-02  0.1266605E+00
        -11   -1    0    0    0    0  0.00000000000E+00  0.00000000000E+00  0.45593999997E+02  0.45594000000E+02  0.51100000000E-03 0. -1.
         11   -1    0    0    0    0 -0.00000000000E+00 -0.00000000000E+00 -0.45593999997E+02  0.45594000000E+02  0.51100000000E-03 0.  1.
    9900012    2    1    2    0    0  0.16802696124E+02  0.22634182213E+02 -0.14902479039E+02  0.59301942185E+02  0.49999996639E+02 0.  0.
        -12    1    1    2    0    0 -0.16802696124E+02 -0.22634182213E+02  0.14902479039E+02  0.31886057815E+02  0.00000000000E+00 0.  1.
         11    1    3    3    0    0  0.20808104509E+02 -0.17611257772E+01 -0.29609435432E+01  0.21091371794E+02  0.51100000000E-03 0. -1.
        -11    1    3    3    0    0 -0.14632133932E+01 -0.23947185175E+01 -0.10926415441E+02  0.11281056017E+02  0.51100000000E-03 0.  1.
        -12    1    3    3    0    0 -0.25421949912E+01  0.26790026508E+02 -0.10151200545E+01  0.26929514373E+02  0.00000000000E+00 0.  1.
</event>
<event>
 7    1  0.6830263E-012  0.5930203E+02  0.7816164E-02  0.1266604E+00
        -11   -1    0    0    0    0  0.00000000000E+00  0.00000000000E+00  0.45593999997E+02  0.45594000000E+02  0.51100000000E-03 0. -1.
         11   -1    0    0    0    0 -0.00000000000E+00 -0.00000000000E+00 -0.45593999997E+02  0.45594000000E+02  0.51100000000E-03 0.  1.
    9900012    2    1    2    0    0  0.72755073293E+01  0.30558170433E+02  0.54754276493E+01  0.59302029809E+02  0.50000156444E+02 0.  0.
        -12    1    1    2    0    0 -0.72755073293E+01 -0.30558170433E+02 -0.54754276493E+01  0.31885970191E+02  0.00000000000E+00 0.  1.
         11    1    3    3    0    0  0.33664847029E+01  0.23615614023E+02  0.56392029747E+00  0.23861023685E+02  0.51100000000E-03 0. -1.
        -11    1    3    3    0    0 -0.13482244502E+01  0.17090588312E+02 -0.73732009508E+01  0.18661993745E+02  0.51100000000E-03 0.  1.
         12    1    3    3    0    0  0.52572470767E+01 -0.10148031902E+02  0.12284708303E+02  0.16779012378E+02  0.00000000000E+00 0. -1.
</event>
<event>
 7    1  0.6830263E-012  0.5930192E+02  0.7816164E-02  0.1266605E+00
        -11   -1    0    0    0    0  0.00000000000E+00  0.00000000000E+00  0.45593999997E+02  0.45594000000E+02  0.51100000000E-03 0. -1.
         11   -1    0    0    0    0 -0.00000000000E+00 -0.00000000000E+00 -0.45593999997E+02  0.45594000000E+02  0.51100000000E-03 0.  1.
    9900012    2    1    2    0    0 -0.10466231657E+02  0.28828284330E+02 -0.87241097591E+01  0.59301920379E+02  0.49999956870E+02 0.  0.
        -12    1    1    2    0    0  0.10466231657E+02 -0.28828284330E+02  0.87241097591E+01  0.31886079621E+02  0.00000000000E+00 0.  1.
         11    1    3    3    0    0  0.72115130585E+01  0.50434160140E+01 -0.19588135139E+01  0.90154820352E+01  0.51100000000E-03 0.  1.
        -11    1    3    3    0    0 -0.29690704275E+01  0.30218145200E+02  0.44707204216E+01  0.30691025071E+02  0.51100000000E-03 0. -1.
         12    1    3    3    0    0 -0.14708674288E+02 -0.64332768843E+01 -0.11236016667E+02  0.19595413273E+02  0.00000000000E+00 0. -1.
</event>
<event>
 7    1  0.6830263E-012  0.5930187E+02  0.7816164E-02  0.1266605E+00
        -11   -1    0    0    0    0  0.00000000000E+00  0.00000000000E+00  0.45593999997E+02  0.45594000000E+02  0.51100000000E-03 0. -1.
         11   -1    0    0    0    0 -0.00000000000E+00 -0.00000000000E+00 -0.45593999997E+02  0.45594000000E+02  0.51100000000E-03 0.  1.
    9900012    2    1    2    0    0  0.91025934637E+01  0.20827696956E+02  0.22362362442E+02  0.59301867869E+02  0.49999861105E+02 0.  0.
        -12    1    1    2    0    0 -0.91025934637E+01 -0.20827696956E+02 -0.22362362442E+02  0.31886132131E+02  0.00000000000E+00 0.  1.
         11    1    3    3    0    0 -0.23577895229E+01  0.21693181308E+02  0.77604502134E+01  0.23159833213E+02  0.51100000000E-03 0. -1.
        -11    1    3    3    0    0  0.17514808861E+02  0.99014429543E+01  0.12285869504E+02  0.23574343930E+02  0.51100000000E-03 0.  1.
        -12    1    3    3    0    0 -0.60544258746E+01 -0.10766927306E+02  0.23160427245E+01  0.12567690726E+02  0.00000000000E+00 0.  1.
</event>
<event>
 7    1  0.6830263E-012  0.5930195E+02  0.7816164E-02  0.1266605E+00
        -11   -1    0    0    0    0  0.00000000000E+00  0.00000000000E+00  0.45593999997E+02  0.45594000000E+02  0.51100000000E-03 0.  1.
         11   -1    0    0    0    0 -0.00000000000E+00 -0.00000000000E+00 -0.45593999997E+02  0.45594000000E+02  0.51100000000E-03 0. -1.
    9900012    2    1    2    0    0 -0.20942642314E+02  0.19386118288E+02 -0.14223381021E+02  0.59301946355E+02  0.50000004245E+02 0.  0.
        -12    1    1    2    0    0  0.20942642314E+02 -0.19386118288E+02  0.14223381021E+02  0.31886053645E+02  0.00000000000E+00 0.  1.
         11    1    3    3    0    0 -0.30001124751E+02  0.77666572930E+01 -0.15411196021E+02  0.34610596858E+02  0.51100000000E-03 0. -1.
        -11    1    3    3    0    0 -0.53815124218E+01  0.19073570971E+01  0.41239659171E+01  0.70431372405E+01  0.51100000000E-03 0.  1.
         12    1    3    3    0    0  0.14439994859E+02  0.97121038977E+01 -0.29361509173E+01  0.17648212256E+02  0.00000000000E+00 0. -1.
</event>
<event>
 7    1  0.6830263E-012  0.5930195E+02  0.7816164E-02  0.1266605E+00
        -11   -1    0    0    0    0  0.00000000000E+00  0.00000000000E+00  0.45593999997E+02  0.45594000000E+02  0.51100000000E-03 0.  1.
         11   -1    0    0    0    0 -0.00000000000E+00 -0.00000000000E+00 -0.45593999997E+02  0.45594000000E+02  0.51100000000E-03 0. -1.
    9900012    2    1    2    0    0  0.17071366677E+02  0.12565486941E+02 -0.23820093911E+02  0.59301954523E+02  0.50000019140E+02 0.  0.
        -12    1    1    2    0    0 -0.17071366677E+02 -0.12565486941E+02  0.23820093911E+02  0.31886045477E+02  0.00000000000E+00 0.  1.
         11    1    3    3    0    0  0.50541252860E+01 -0.33688739268E+01 -0.49983966824E+01  0.78662229562E+01  0.51100000000E-03 0. -1.
        -11    1    3    3    0    0  0.75369804109E+01 -0.30031062082E+01 -0.28549239762E+02  0.29679686856E+02  0.51100000000E-03 0.  1.
        -12    1    3    3    0    0  0.44802609796E+01  0.18937467076E+02  0.97275425340E+01  0.21756044710E+02  0.00000000000E+00 0.  1.
</event>
<event>
 7    1  0.6830263E-012  0.5930195E+02  0.7816164E-02  0.1266605E+00
        -11   -1    0    0    0    0  0.00000000000E+00  0.00000000000E+00  0.45593999997E+02  0.45594000000E+02  0.51100000000E-03 0. -1.
         11   -1    0    0    0    0 -0.00000000000E+00 -0.00000000000E+00 -0.45593999997E+02  0.45594000000E+02  0.51100000000E-03 0.  1.
    9900012    2    1    2    0    0 -0.12985831640E+00  0.24449399197E+02 -0.20467782586E+02  0.59301951197E+02  0.50000013075E+02 0.  0.
        -12    1    1    2    0    0  0.12985831640E+00 -0.24449399197E+02  0.20467782586E+02  0.31886048803E+02  0.00000000000E+00 0.  1.
         11    1    3    3    0    0 -0.17770327805E+01  0.28012499281E+02 -0.70135065163E+01  0.28931768618E+02  0.51100000000E-03 0. -1.
        -11    1    3    3    0    0  0.83063895629E+01  0.53416027775E+01  0.31683095345E+01  0.10371451845E+02  0.51100000000E-03 0.  1.
        -12    1    3    3    0    0 -0.66592150988E+01 -0.89047028620E+01 -0.16622585604E+02  0.19998730734E+02  0.00000000000E+00 0.  1.
</event>
<event>
 7    1  0.6830263E-012  0.5930193E+02  0.7816164E-02  0.1266605E+00
        -11   -1    0    0    0    0  0.00000000000E+00  0.00000000000E+00  0.45593999997E+02  0.45594000000E+02  0.51100000000E-03 0.  1.
         11   -1    0    0    0    0 -0.00000000000E+00 -0.00000000000E+00 -0.45593999997E+02  0.45594000000E+02  0.51100000000E-03 0. -1.
    9900012    2    1    2    0    0  0.29772017642E+02  0.90770398779E+01 -0.69250225861E+01  0.59301927410E+02  0.49999969693E+02 0.  0.
        -12    1    1    2    0    0 -0.29772017642E+02 -0.90770398779E+01  0.69250225861E+01  0.31886072590E+02  0.00000000000E+00 0.  1.
         11    1    3    3    0    0  0.99778267398E+01 -0.85961464826E+01  0.31105375951E+01  0.13532413133E+02  0.51100000000E-03 0.  1.
        -11    1    3    3    0    0  0.30315071348E+02  0.13178020372E+02 -0.57477236617E+01  0.33551454503E+02  0.51100000000E-03 0. -1.
        -12    1    3    3    0    0 -0.10520880446E+02  0.44951659888E+01 -0.42878365195E+01  0.12218059774E+02  0.00000000000E+00 0.  1.
</event>
<event>
 7    1  0.6830263E-012  0.5930192E+02  0.7816164E-02  0.1266605E+00
        -11   -1    0    0    0    0  0.00000000000E+00  0.00000000000E+00  0.45593999997E+02  0.45594000000E+02  0.51100000000E-03 0.  1.
         11   -1    0    0    0    0 -0.00000000000E+00 -0.00000000000E+00 -0.45593999997E+02  0.45594000000E+02  0.51100000000E-03 0. -1.
    9900012    2    1    2    0    0 -0.31691427006E+02 -0.34778506266E+01 -0.52915526901E+00  0.59301921596E+02  0.49999959090E+02 0.  0.
        -12    1    1    2    0    0  0.31691427006E+02  0.34778506266E+01  0.52915526901E+00  0.31886078404E+02  0.00000000000E+00 0.  1.
         11    1    3    3    0    0 -0.29593279810E+02 -0.43131170219E+01  0.15392177488E+01  0.29945523537E+02  0.51100000000E-03 0. -1.
        -11    1    3    3    0    0 -0.89003070742E+01 -0.11852941727E+02 -0.76571045146E-01  0.14822737837E+02  0.51100000000E-03 0.  1.
         12    1    3    3    0    0  0.68021598777E+01  0.12688208122E+02 -0.19918019727E+01  0.14533660222E+02  0.00000000000E+00 0. -1.
</event>
<event>
 7    1  0.6830263E-012  0.5930197E+02  0.7816164E-02  0.1266605E+00
        -11   -1    0    0    0    0  0.00000000000E+00  0.00000000000E+00  0.45593999997E+02  0.45594000000E+02  0.51100000000E-03 0.  1.
         11   -1    0    0    0    0 -0.00000000000E+00 -0.00000000000E+00 -0.45593999997E+02  0.45594000000E+02  0.51100000000E-03 0. -1.
    9900012    2    1    2    0    0  0.80091045815E+01  0.26180884391E+02 -0.16344254801E+02  0.59301966558E+02  0.50000041090E+02 0.  0.
        -12    1    1    2    0    0 -0.80091045815E+01 -0.26180884391E+02  0.16344254801E+02  0.31886033442E+02  0.00000000000E+00 0.  1.
         11    1    3    3    0    0 -0.52482338648E+01  0.81798556008E+01 -0.23083188798E+02  0.25045710246E+02  0.51100000000E-03 0. -1.
        -11    1    3    3    0    0  0.17402385073E+02  0.14983759657E+02 -0.30893531525E+01  0.23171106207E+02  0.51100000000E-03 0.  1.
         12    1    3    3    0    0 -0.41450466270E+01  0.30172691326E+01  0.98282871499E+01  0.11085150105E+02  0.00000000000E+00 0. -1.
</event>
<event>
 7    1  0.6830263E-012  0.5930208E+02  0.7816164E-02  0.1266604E+00
        -11   -1    0    0    0    0  0.00000000000E+00  0.00000000000E+00  0.45593999997E+02  0.45594000000E+02  0.51100000000E-03 0.  1.
         11   -1    0    0    0    0 -0.00000000000E+00 -0.00000000000E+00 -0.45593999997E+02  0.45594000000E+02  0.51100000000E-03 0. -1.
    9900012    2    1    2    0    0  0.28880548918E+02  0.10880671667E+02 -0.80147683596E+01  0.59302084087E+02  0.50000255434E+02 0.  0.
        -12    1    1    2    0    0 -0.28880548918E+02 -0.10880671667E+02  0.80147683596E+01  0.31885915913E+02  0.00000000000E+00 0.  1.
         11    1    3    3    0    0  0.23462437653E+02 -0.61639526279E+01 -0.39153528402E+01  0.24572551369E+02  0.51100000000E-03 0. -1.
        -11    1    3    3    0    0  0.98817511385E+01 -0.47689086910E+01  0.29726324999E+01  0.11367851156E+02  0.51100000000E-03 0.  1.
         12    1    3    3    0    0 -0.44636398734E+01  0.21813532986E+02 -0.70720480193E+01  0.23361681562E+02  0.00000000000E+00 0. -1.
</event>
<event>
 7    1  0.6830263E-012  0.5930193E+02  0.7816164E-02  0.1266605E+00
        -11   -1    0    0    0    0  0.00000000000E+00  0.00000000000E+00  0.45593999997E+02  0.45594000000E+02  0.51100000000E-03 0. -1.
         11   -1    0    0    0    0 -0.00000000000E+00 -0.00000000000E+00 -0.45593999997E+02  0.45594000000E+02  0.51100000000E-03 0.  1.
    9900012    2    1    2    0    0 -0.27627117404E+02  0.55061031473E+01 -0.14938100563E+02  0.59301927236E+02  0.49999969375E+02 0.  0.
        -12    1    1    2    0    0  0.27627117404E+02 -0.55061031473E+01  0.14938100563E+02  0.31886072764E+02  0.00000000000E+00 0.  1.
         11    1    3    3    0    0 -0.18122164226E+02  0.12564961938E+02 -0.56148452068E+01  0.22755605720E+02  0.51100000000E-03 0. -1.
        -11    1    3    3    0    0  0.82588627780E+01  0.82635616134E+01 -0.49235876770E+01  0.12678208896E+02  0.51100000000E-03 0.  1.
         12    1    3    3    0    0 -0.17763815956E+02 -0.15322420404E+02 -0.43996676790E+01  0.23868112620E+02  0.00000000000E+00 0. -1.
</event>
<event>
 7    1  0.6830263E-012  0.5930221E+02  0.7816164E-02  0.1266604E+00
        -11   -1    0    0    0    0  0.00000000000E+00  0.00000000000E+00  0.45593999997E+02  0.45594000000E+02  0.51100000000E-03 0.  1.
         11   -1    0    0    0    0 -0.00000000000E+00 -0.00000000000E+00 -0.45593999997E+02  0.45594000000E+02  0.51100000000E-03 0. -1.
    9900012    2    1    2    0    0  0.27722617155E+02 -0.11068201981E+02 -0.11209584791E+02  0.59302213383E+02  0.50000491237E+02 0.  0.
        -12    1    1    2    0    0 -0.27722617155E+02  0.11068201981E+02  0.11209584791E+02  0.31885786617E+02  0.00000000000E+00 0.  1.
         11    1    3    3    0    0  0.18348663405E+02  0.63193452444E+00 -0.14813229449E+02  0.23590348810E+02  0.51100000000E-03 0. -1.
        -11    1    3    3    0    0  0.17206842238E+01  0.98296879157E+01 -0.51661119067E+01  0.11237091760E+02  0.51100000000E-03 0.  1.
         12    1    3    3    0    0  0.76532695253E+01 -0.21529824422E+02  0.87697565653E+01  0.24474772813E+02  0.00000000000E+00 0. -1.
</event>
<event>
 7    1  0.6830263E-012  0.5930195E+02  0.7816164E-02  0.1266605E+00
        -11   -1    0    0    0    0  0.00000000000E+00  0.00000000000E+00  0.45593999997E+02  0.45594000000E+02  0.51100000000E-03 0.  1.
         11   -1    0    0    0    0 -0.00000000000E+00 -0.00000000000E+00 -0.45593999997E+02  0.45594000000E+02  0.51100000000E-03 0. -1.
    9900012    2    1    2    0    0  0.29010916361E+02  0.24580387350E+00 -0.13229750575E+02  0.59301953085E+02  0.50000016518E+02 0.  0.
        -12    1    1    2    0    0 -0.29010916361E+02 -0.24580387350E+00  0.13229750575E+02  0.31886046915E+02  0.00000000000E+00 0.  1.
         11    1    3    3    0    0  0.19673825043E+02  0.15389298011E+02 -0.21713133036E+02  0.33096072752E+02  0.51100000000E-03 0. -1.
        -11    1    3    3    0    0  0.10661153914E+01  0.35609299791E+01 -0.70792693868E+00  0.37839113567E+01  0.51100000000E-03 0.  1.
        -12    1    3    3    0    0  0.82709759257E+01 -0.18704424116E+02  0.91913093996E+01  0.22421968976E+02  0.00000000000E+00 0.  1.
</event>
<event>
 7    1  0.6830263E-012  0.5930194E+02  0.7816164E-02  0.1266605E+00
        -11   -1    0    0    0    0  0.00000000000E+00  0.00000000000E+00  0.45593999997E+02  0.45594000000E+02  0.51100000000E-03 0.  1.
         11   -1    0    0    0    0 -0.00000000000E+00 -0.00000000000E+00 -0.45593999997E+02  0.45594000000E+02  0.51100000000E-03 0. -1.
    9900012    2    1    2    0    0 -0.15514855738E+02 -0.20028775519E+02 -0.19361259428E+02  0.59301937778E+02  0.49999988603E+02 0.  0.
        -12    1    1    2    0    0  0.15514855738E+02  0.20028775519E+02  0.19361259428E+02  0.31886062222E+02  0.00000000000E+00 0.  1.
         11    1    3    3    0    0  0.40896372608E+01 -0.19729394332E+01  0.57215815698E+00  0.45765694739E+01  0.51100000000E-03 0. -1.
        -11    1    3    3    0    0  0.93613039159E+01  0.76435710937E+01 -0.66055128570E+01  0.13772835236E+02  0.51100000000E-03 0.  1.
         12    1    3    3    0    0 -0.28965796915E+02 -0.25699407180E+02 -0.13327904728E+02  0.40952533069E+02  0.00000000000E+00 0. -1.
</event>
<event>
 7    1  0.6830263E-012  0.5930194E+02  0.7816164E-02  0.1266605E+00
        -11   -1    0    0    0    0  0.00000000000E+00  0.00000000000E+00  0.45593999997E+02  0.45594000000E+02  0.51100000000E-03 0.  1.
         11   -1    0    0    0    0 -0.00000000000E+00 -0.00000000000E+00 -0.45593999997E+02  0.45594000000E+02  0.51100000000E-03 0. -1.
    9900012    2    1    2    0    0 -0.23824619173E+02 -0.62250792188E+01 -0.20257261340E+02  0.59301941494E+02  0.49999995379E+02 0.  0.
        -12    1    1    2    0    0  0.23824619173E+02  0.62250792188E+01  0.20257261340E+02  0.31886058506E+02  0.00000000000E+00 0.  1.
         11    1    3    3    0    0 -0.98356825247E+01 -0.55382374057E+01 -0.14517025426E+02  0.18389038903E+02  0.51100000000E-03 0. -1.
        -11    1    3    3    0    0 -0.42590617479E+01 -0.11061558352E+02 -0.18389449465E+02  0.21878517592E+02  0.51100000000E-03 0.  1.
        -12    1    3    3    0    0 -0.97298749006E+01  0.10374716539E+02  0.12649213550E+02  0.19034384999E+02  0.00000000000E+00 0.  1.
</event>
<event>
 7    1  0.6895178E-012  0.5930197E+02  0.7816164E-02  0.1266605E+00
        -11   -1    0    0    0    0  0.00000000000E+00  0.00000000000E+00  0.45593999997E+02  0.45594000000E+02  0.51100000000E-03 0. -1.
         11   -1    0    0    0    0 -0.00000000000E+00 -0.00000000000E+00 -0.45593999997E+02  0.45594000000E+02  0.51100000000E-03 0.  1.
    9900012    2    1    2    0    0  0.22781312925E+02 -0.12660818307E+02  0.18369384356E+02  0.59301971392E+02  0.50000049906E+02 0.  0.
        -12    1    1    2    0    0 -0.22781312925E+02  0.12660818307E+02 -0.18369384356E+02  0.31886028608E+02  0.00000000000E+00 0.  1.
         11    1    3    3    0    0  0.19170789572E+01  0.67093123648E+01  0.10677518838E+02  0.12755370357E+02  0.51100000000E-03 0. -1.
        -11    1    3    3    0    0 -0.34605069921E+01  0.59149583046E+00 -0.98944968111E+01  0.10498859146E+02  0.51100000000E-03 0.  1.
         12    1    3    3    0    0  0.24324740960E+02 -0.19961626502E+02  0.17586362329E+02  0.36047741889E+02  0.00000000000E+00 0. -1.
</event>
<event>
 7    1  0.6830263E-012  0.5930178E+02  0.7816164E-02  0.1266605E+00
        -11   -1    0    0    0    0  0.00000000000E+00  0.00000000000E+00  0.45593999997E+02  0.45594000000E+02  0.51100000000E-03 0. -1.
         11   -1    0    0    0    0 -0.00000000000E+00 -0.00000000000E+00 -0.45593999997E+02  0.45594000000E+02  0.51100000000E-03 0.  1.
    9900012    2    1    2    0    0 -0.56484835039E+01 -0.19369624306E+02  0.24690953763E+02  0.59301781827E+02  0.49999704184E+02 0.  0.
        -12    1    1    2    0    0  0.56484835039E+01  0.19369624306E+02 -0.24690953763E+02  0.31886218173E+02  0.00000000000E+00 0.  1.
         11    1    3    3    0    0 -0.97915089022E+01 -0.35781573519E+01  0.10719266147E+02  0.14952575819E+02  0.51100000000E-03 0. -1.
        -11    1    3    3    0    0 -0.69118047189E+01  0.11054330864E+02  0.36883546891E+01  0.13548993907E+02  0.51100000000E-03 0.  1.
         12    1    3    3    0    0  0.11054830117E+02 -0.26845797818E+02  0.10283332926E+02  0.30800212101E+02  0.00000000000E+00 0. -1.
</event>
<event>
 7    1  0.6830263E-012  0.5930195E+02  0.7816164E-02  0.1266605E+00
        -11   -1    0    0    0    0  0.00000000000E+00  0.00000000000E+00  0.45593999997E+02  0.45594000000E+02  0.51100000000E-03 0.  1.
         11   -1    0    0    0    0 -0.00000000000E+00 -0.00000000000E+00 -0.45593999997E+02  0.45594000000E+02  0.51100000000E-03 0. -1.
    9900012    2    1    2    0    0 -0.23945064370E+02 -0.19215390532E+02  0.86094481687E+01  0.59301953855E+02  0.50000017923E+02 0.  0.
        -12    1    1    2    0    0  0.23945064370E+02  0.19215390532E+02 -0.86094481687E+01  0.31886046145E+02  0.00000000000E+00 0.  1.
         11    1    3    3    0    0  0.70382900190E+01 -0.76493552259E+01  0.64082194830E+01  0.12211283264E+02  0.51100000000E-03 0. -1.
        -11    1    3    3    0    0 -0.59324098393E+01 -0.19480624895E+02  0.40177827309E+01  0.20756464322E+02  0.51100000000E-03 0.  1.
        -12    1    3    3    0    0 -0.25050944550E+02  0.79145895894E+01 -0.18165540452E+01  0.26334206269E+02  0.00000000000E+00 0.  1.
</event>
<event>
 7    1  0.6830263E-012  0.5930195E+02  0.7816164E-02  0.1266605E+00
        -11   -1    0    0    0    0  0.00000000000E+00  0.00000000000E+00  0.45593999997E+02  0.45594000000E+02  0.51100000000E-03 0.  1.
         11   -1    0    0    0    0 -0.00000000000E+00 -0.00000000000E+00 -0.45593999997E+02  0.45594000000E+02  0.51100000000E-03 0. -1.
    9900012    2    1    2    0    0 -0.76554494324E+01  0.10480576863E+02 -0.29125105708E+02  0.59301950074E+02  0.50000011027E+02 0.  0.
        -12    1    1    2    0    0  0.76554494324E+01 -0.10480576863E+02  0.29125105708E+02  0.31886049926E+02  0.00000000000E+00 0.  1.
         11    1    3    3    0    0 -0.45910323409E+01 -0.11522092718E+02  0.29911250418E+01  0.12758645219E+02  0.51100000000E-03 0.  1.
        -11    1    3    3    0    0 -0.46955656677E+01 -0.35737613871E+01 -0.13899721300E+02  0.15100409261E+02  0.51100000000E-03 0. -1.
        -12    1    3    3    0    0  0.16311485762E+01  0.25576430968E+02 -0.18216509450E+02  0.31442895593E+02  0.00000000000E+00 0.  1.
</event>
<event>
 7    1  0.6830263E-012  0.5930196E+02  0.7816164E-02  0.1266605E+00
        -11   -1    0    0    0    0  0.00000000000E+00  0.00000000000E+00  0.45593999997E+02  0.45594000000E+02  0.51100000000E-03 0.  1.
         11   -1    0    0    0    0 -0.00000000000E+00 -0.00000000000E+00 -0.45593999997E+02  0.45594000000E+02  0.51100000000E-03 0. -1.
    9900012    2    1    2    0    0 -0.25453396852E+02  0.14474867300E+02  0.12622291532E+02  0.59301961704E+02  0.50000032238E+02 0.  0.
        -12    1    1    2    0    0  0.25453396852E+02 -0.14474867300E+02 -0.12622291532E+02  0.31886038296E+02  0.00000000000E+00 0.  1.
         11    1    3    3    0    0  0.77881390180E+01 -0.59943115003E+01 -0.30526868779E+01  0.10291053258E+02  0.51100000000E-03 0. -1.
        -11    1    3    3    0    0 -0.11525103493E+02  0.92185006674E+01  0.19289281719E+02  0.24287551432E+02  0.51100000000E-03 0.  1.
        -12    1    3    3    0    0 -0.21716432377E+02  0.11250678133E+02 -0.36143033093E+01  0.24723357014E+02  0.00000000000E+00 0.  1.
</event>
<event>
 7    1  0.6830263E-012  0.5930193E+02  0.7816164E-02  0.1266605E+00
        -11   -1    0    0    0    0  0.00000000000E+00  0.00000000000E+00  0.45593999997E+02  0.45594000000E+02  0.51100000000E-03 0.  1.
         11   -1    0    0    0    0 -0.00000000000E+00 -0.00000000000E+00 -0.45593999997E+02  0.45594000000E+02  0.51100000000E-03 0. -1.
    9900012    2    1    2    0    0  0.54857385566E+00 -0.20809044096E+01 -0.31813371985E+02  0.59301925712E+02  0.49999966597E+02 0.  0.
        -12    1    1    2    0    0 -0.54857385566E+00  0.20809044096E+01  0.31813371985E+02  0.31886074288E+02  0.00000000000E+00 0.  1.
         11    1    3    3    0    0  0.21548516032E+01 -0.14247115815E+02 -0.24756529003E+02  0.28644535657E+02  0.51100000000E-03 0. -1.
        -11    1    3    3    0    0 -0.67550467478E+01 -0.46361444734E+01  0.47647282677E+01  0.94777174398E+01  0.51100000000E-03 0.  1.
        -12    1    3    3    0    0  0.51487690003E+01  0.16802355879E+02 -0.11821571249E+02  0.21179672616E+02  0.00000000000E+00 0.  1.
</event>
<event>
 7    1  0.6830263E-012  0.5930193E+02  0.7816164E-02  0.1266605E+00
        -11   -1    0    0    0    0  0.00000000000E+00  0.00000000000E+00  0.45593999997E+02  0.45594000000E+02  0.51100000000E-03 0. -1.
         11   -1    0    0    0    0 -0.00000000000E+00 -0.00000000000E+00 -0.45593999997E+02  0.45594000000E+02  0.51100000000E-03 0.  1.
    9900012    2    1    2    0    0  0.83375129350E+01 -0.11082428961E+02  0.28712139569E+02  0.59301932318E+02  0.49999978644E+02 0.  0.
        -12    1    1    2    0    0 -0.83375129350E+01  0.11082428961E+02 -0.28712139569E+02  0.31886067682E+02  0.00000000000E+00 0.  1.
         11    1    3    3    0    0 -0.45203727286E+01  0.89337424244E+01  0.53625240178E+01  0.11357912987E+02  0.51100000000E-03 0. -1.
        -11    1    3    3    0    0  0.17410205547E+02 -0.72746118193E+01 -0.22361442720E+01  0.19000936182E+02  0.51100000000E-03 0.  1.
         12    1    3    3    0    0 -0.45523198834E+01 -0.12741559566E+02  0.25585759823E+02  0.28943083150E+02  0.00000000000E+00 0. -1.
</event>
<event>
 7    1  0.6830263E-012  0.5930195E+02  0.7816164E-02  0.1266605E+00
        -11   -1    0    0    0    0  0.00000000000E+00  0.00000000000E+00  0.45593999997E+02  0.45594000000E+02  0.51100000000E-03 0.  1.
         11   -1    0    0    0    0 -0.00000000000E+00 -0.00000000000E+00 -0.45593999997E+02  0.45594000000E+02  0.51100000000E-03 0. -1.
    9900012    2    1    2    0    0  0.10876363440E+02 -0.18381158784E+02 -0.23676107693E+02  0.59301947321E+02  0.50000006007E+02 0.  0.
        -12    1    1    2    0    0 -0.10876363440E+02  0.18381158784E+02  0.23676107693E+02  0.31886052679E+02  0.00000000000E+00 0.  1.
         11    1    3    3    0    0  0.29445898760E+01  0.25717048315E+00 -0.28087503429E+02  0.28242602488E+02  0.51100000000E-03 0. -1.
        -11    1    3    3    0    0  0.28216659342E+01  0.50241911222E+01  0.36861484287E+01  0.68404667660E+01  0.51100000000E-03 0.  1.
         12    1    3    3    0    0  0.51101076298E+01 -0.23662520390E+02  0.72524730670E+00  0.24218878067E+02  0.00000000000E+00 0. -1.
</event>
<event>
 7    1  0.6830263E-012  0.5930194E+02  0.7816164E-02  0.1266605E+00
        -11   -1    0    0    0    0  0.00000000000E+00  0.00000000000E+00  0.45593999997E+02  0.45594000000E+02  0.51100000000E-03 0.  1.
         11   -1    0    0    0    0 -0.00000000000E+00 -0.00000000000E+00 -0.45593999997E+02  0.45594000000E+02  0.51100000000E-03 0. -1.
    9900012    2    1    2    0    0 -0.27660853867E+01 -0.29101529997E+02 -0.12734613048E+02  0.59301942765E+02  0.49999997698E+02 0.  0.
        -12    1    1    2    0    0  0.27660853867E+01  0.29101529997E+02  0.12734613048E+02  0.31886057235E+02  0.00000000000E+00 0.  1.
         11    1    3    3    0    0  0.16947032125E+02 -0.29618457242E+01 -0.16599592620E+02  0.23906503369E+02  0.51100000000E-03 0.  1.
        -11    1    3    3    0    0 -0.22344492144E+01 -0.73587106672E+01 -0.38557686154E+01  0.86029261215E+01  0.51100000000E-03 0. -1.
        -12    1    3    3    0    0 -0.17478668297E+02 -0.18780973605E+02  0.77207481874E+01  0.26792513275E+02  0.00000000000E+00 0.  1.
</event>
<event>
 7    1  0.6830263E-012  0.5930193E+02  0.7816164E-02  0.1266605E+00
        -11   -1    0    0    0    0  0.00000000000E+00  0.00000000000E+00  0.45593999997E+02  0.45594000000E+02  0.51100000000E-03 0.  1.
         11   -1    0    0    0    0 -0.00000000000E+00 -0.00000000000E+00 -0.45593999997E+02  0.45594000000E+02  0.51100000000E-03 0. -1.
    9900012    2    1    2    0    0 -0.26016738680E+01 -0.43177000701E+01 -0.31485082128E+02  0.59301927219E+02  0.49999969345E+02 0.  0.
        -12    1    1    2    0    0  0.26016738680E+01  0.43177000701E+01  0.31485082128E+02  0.31886072781E+02  0.00000000000E+00 0.  1.
         11    1    3    3    0    0 -0.97814419873E+01  0.15954592700E+02 -0.60923729647E+01  0.19681022437E+02  0.51100000000E-03 0. -1.
        -11    1    3    3    0    0 -0.33153247547E+01  0.17636993358E+01  0.77788574217E+00  0.38349863187E+01  0.51100000000E-03 0.  1.
        -12    1    3    3    0    0  0.10495092874E+02 -0.22035992106E+02 -0.26170594905E+02  0.35785918463E+02  0.00000000000E+00 0.  1.
</event>
<event>
 7    1  0.6830263E-012  0.5930193E+02  0.7816164E-02  0.1266605E+00
        -11   -1    0    0    0    0  0.00000000000E+00  0.00000000000E+00  0.45593999997E+02  0.45594000000E+02  0.51100000000E-03 0.  1.
         11   -1    0    0    0    0 -0.00000000000E+00 -0.00000000000E+00 -0.45593999997E+02  0.45594000000E+02  0.51100000000E-03 0. -1.
    9900012    2    1    2    0    0  0.13850427864E+02 -0.17476537631E+02 -0.22791608591E+02  0.59301934991E+02  0.49999983519E+02 0.  0.
        -12    1    1    2    0    0 -0.13850427864E+02  0.17476537631E+02  0.22791608591E+02  0.31886065009E+02  0.00000000000E+00 0.  1.
         11    1    3    3    0    0  0.10634341209E+02 -0.32437990725E+01 -0.27040773252E+02  0.29237217099E+02  0.51100000000E-03 0. -1.
        -11    1    3    3    0    0  0.14026211754E+02 -0.11228141466E+02 -0.27014504231E+00  0.17968827328E+02  0.51100000000E-03 0.  1.
        -12    1    3    3    0    0 -0.10810125098E+02 -0.30045970922E+01  0.45193097035E+01  0.12095890564E+02  0.00000000000E+00 0.  1.
</event>
<event>
 7    1  0.6830263E-012  0.5930194E+02  0.7816164E-02  0.1266605E+00
        -11   -1    0    0    0    0  0.00000000000E+00  0.00000000000E+00  0.45593999997E+02  0.45594000000E+02  0.51100000000E-03 0.  1.
         11   -1    0    0    0    0 -0.00000000000E+00 -0.00000000000E+00 -0.45593999997E+02  0.45594000000E+02  0.51100000000E-03 0. -1.
    9900012    2    1    2    0    0 -0.11772293016E+02  0.29509694910E+02  0.27040381967E+01  0.59301940364E+02  0.49999993318E+02 0.  0.
        -12    1    1    2    0    0  0.11772293016E+02 -0.29509694910E+02 -0.27040381967E+01  0.31886059636E+02  0.00000000000E+00 0.  1.
         11    1    3    3    0    0 -0.79076435212E+01 -0.30805289310E+00  0.34468056792E+01  0.86316969534E+01  0.51100000000E-03 0. -1.
        -11    1    3    3    0    0  0.40389523879E+01 -0.92024790483E+01  0.34777362115E+01  0.10634538375E+02  0.51100000000E-03 0.  1.
        -12    1    3    3    0    0 -0.79036018831E+01  0.39020226852E+02 -0.42205036939E+01  0.40035705036E+02  0.00000000000E+00 0.  1.
</event>
<event>
 7    1  0.6830263E-012  0.5930195E+02  0.7816164E-02  0.1266605E+00
        -11   -1    0    0    0    0  0.00000000000E+00  0.00000000000E+00  0.45593999997E+02  0.45594000000E+02  0.51100000000E-03 0.  1.
         11   -1    0    0    0    0 -0.00000000000E+00 -0.00000000000E+00 -0.45593999997E+02  0.45594000000E+02  0.51100000000E-03 0. -1.
    9900012    2    1    2    0    0 -0.40670162543E+01  0.31397448919E+02 -0.37920280525E+01  0.59301954516E+02  0.50000019128E+02 0.  0.
        -12    1    1    2    0    0  0.40670162543E+01 -0.31397448919E+02  0.37920280525E+01  0.31886045484E+02  0.00000000000E+00 0.  1.
         11    1    3    3    0    0 -0.24497921161E+01  0.60278685096E+01 -0.20054747869E+02  0.21083870436E+02  0.51100000000E-03 0. -1.
        -11    1    3    3    0    0 -0.38812144195E+01 -0.34642475824E+01  0.36724047158E+00  0.52153334033E+01  0.51100000000E-03 0.  1.
        -12    1    3    3    0    0  0.22639902813E+01  0.28833827992E+02  0.15895479345E+02  0.33002750677E+02  0.00000000000E+00 0.  1.
</event>
<event>
 7    1  0.6830263E-012  0.5930208E+02  0.7816164E-02  0.1266604E+00
        -11   -1    0    0    0    0  0.00000000000E+00  0.00000000000E+00  0.45593999997E+02  0.45594000000E+02  0.51100000000E-03 0.  1.
         11   -1    0    0    0    0 -0.00000000000E+00 -0.00000000000E+00 -0.45593999997E+02  0.45594000000E+02  0.51100000000E-03 0. -1.
    9900012    2    1    2    0    0 -0.27255283715E+02 -0.12369768280E+02 -0.10993201922E+02  0.59302076050E+02  0.50000240776E+02 0.  0.
        -12    1    1    2    0    0  0.27255283715E+02  0.12369768280E+02  0.10993201922E+02  0.31885923950E+02  0.00000000000E+00 0.  1.
         11    1    3    3    0    0 -0.12515221907E+00  0.11065699343E+02 -0.11566884711E+02  0.16008066317E+02  0.51100000000E-03 0. -1.
        -11    1    3    3    0    0  0.25912948029E+01 -0.69930663461E+01  0.50892966047E+01  0.90287721130E+01  0.51100000000E-03 0.  1.
         12    1    3    3    0    0 -0.29721426299E+02 -0.16442401277E+02 -0.45156138155E+01  0.34265237619E+02  0.00000000000E+00 0. -1.
</event>
<event>
 7    1  0.6830263E-012  0.5930197E+02  0.7816164E-02  0.1266605E+00
        -11   -1    0    0    0    0  0.00000000000E+00  0.00000000000E+00  0.45593999997E+02  0.45594000000E+02  0.51100000000E-03 0.  1.
         11   -1    0    0    0    0 -0.00000000000E+00 -0.00000000000E+00 -0.45593999997E+02  0.45594000000E+02  0.51100000000E-03 0. -1.
    9900012    2    1    2    0    0 -0.30320146422E+02  0.79935297029E+01 -0.57888965941E+01  0.59301966694E+02  0.50000041338E+02 0.  0.
        -12    1    1    2    0    0  0.30320146422E+02 -0.79935297029E+01  0.57888965941E+01  0.31886033306E+02  0.00000000000E+00 0.  1.
         11    1    3    3    0    0 -0.17552772982E+02 -0.11771134142E+02 -0.90100717005E+01  0.22974786847E+02  0.51100000000E-03 0. -1.
        -11    1    3    3    0    0  0.15702759146E+01 -0.55699791651E+01  0.42795993182E+01  0.71975971638E+01  0.51100000000E-03 0.  1.
         12    1    3    3    0    0 -0.14337649355E+02  0.25334643010E+02 -0.10584242118E+01  0.29129582683E+02  0.00000000000E+00 0. -1.
</event>
<event>
 7    1  0.6830263E-012  0.5930194E+02  0.7816164E-02  0.1266605E+00
        -11   -1    0    0    0    0  0.00000000000E+00  0.00000000000E+00  0.45593999997E+02  0.45594000000E+02  0.51100000000E-03 0. -1.
         11   -1    0    0    0    0 -0.00000000000E+00 -0.00000000000E+00 -0.45593999997E+02  0.45594000000E+02  0.51100000000E-03 0.  1.
    9900012    2    1    2    0    0  0.74075218025E+01 -0.90176013595E+01  0.29673765543E+02  0.59301939174E+02  0.49999991147E+02 0.  0.
        -12    1    1    2    0    0 -0.74075218025E+01  0.90176013595E+01 -0.29673765543E+02  0.31886060826E+02  0.00000000000E+00 0.  1.
         11    1    3    3    0    0  0.81494763520E+01 -0.61272628574E+01  0.20318528500E+02  0.22733233726E+02  0.51100000000E-03 0. -1.
        -11    1    3    3    0    0  0.12883968370E+02 -0.62902272147E+00  0.16559336485E+02  0.20990567778E+02  0.51100000000E-03 0.  1.
        -12    1    3    3    0    0 -0.13625922920E+02 -0.22613157806E+01 -0.72040994429E+01  0.15578137670E+02  0.00000000000E+00 0.  1.
</event>
<event>
 7    1  0.6830263E-012  0.5930195E+02  0.7816164E-02  0.1266605E+00
        -11   -1    0    0    0    0  0.00000000000E+00  0.00000000000E+00  0.45593999997E+02  0.45594000000E+02  0.51100000000E-03 0. -1.
         11   -1    0    0    0    0 -0.00000000000E+00 -0.00000000000E+00 -0.45593999997E+02  0.45594000000E+02  0.51100000000E-03 0.  1.
    9900012    2    1    2    0    0  0.22051495418E+02 -0.11115994671E+02 -0.20171426744E+02  0.59301949059E+02  0.50000009176E+02 0.  0.
        -12    1    1    2    0    0 -0.22051495418E+02  0.11115994671E+02  0.20171426744E+02  0.31886050941E+02  0.00000000000E+00 0.  1.
         11    1    3    3    0    0  0.97987048645E+00 -0.35184356054E+01  0.98311982760E+01  0.10487706855E+02  0.51100000000E-03 0. -1.
        -11    1    3    3    0    0  0.87918264960E+01  0.76926713667E+01  0.14262047139E+01  0.11768919493E+02  0.51100000000E-03 0.  1.
         12    1    3    3    0    0  0.12279798436E+02 -0.15290230433E+02 -0.31428829734E+02  0.37045322711E+02  0.00000000000E+00 0. -1.
</event>
<event>
 7    1  0.6830263E-012  0.5930192E+02  0.7816164E-02  0.1266605E+00
        -11   -1    0    0    0    0  0.00000000000E+00  0.00000000000E+00  0.45593999997E+02  0.45594000000E+02  0.51100000000E-03 0.  1.
         11   -1    0    0    0    0 -0.00000000000E+00 -0.00000000000E+00 -0.45593999997E+02  0.45594000000E+02  0.51100000000E-03 0. -1.
    9900012    2    1    2    0    0  0.23230870993E+02  0.20082754366E+02  0.85867095028E+01  0.59301922001E+02  0.49999959829E+02 0.  0.
        -12    1    1    2    0    0 -0.23230870993E+02 -0.20082754366E+02 -0.85867095028E+01  0.31886077999E+02  0.00000000000E+00 0.  1.
         11    1    3    3    0    0  0.22096196420E+02  0.23354532173E+02 -0.95786510303E+01  0.33547378810E+02  0.51100000000E-03 0.  1.
        -11    1    3    3    0    0 -0.22959588850E+01  0.64983190421E+01  0.33080824516E+01  0.76448013279E+01  0.51100000000E-03 0. -1.
        -12    1    3    3    0    0  0.34306334584E+01 -0.97700968483E+01  0.14857278082E+02  0.18109741863E+02  0.00000000000E+00 0.  1.
</event>
<event>
 7    1  0.6830263E-012  0.5930196E+02  0.7816164E-02  0.1266605E+00
        -11   -1    0    0    0    0  0.00000000000E+00  0.00000000000E+00  0.45593999997E+02  0.45594000000E+02  0.51100000000E-03 0. -1.
         11   -1    0    0    0    0 -0.00000000000E+00 -0.00000000000E+00 -0.45593999997E+02  0.45594000000E+02  0.51100000000E-03 0.  1.
    9900012    2    1    2    0    0  0.20475014602E+02  0.24443007386E+02 -0.18095802707E+00  0.59301959499E+02  0.50000028216E+02 0.  0.
        -12    1    1    2    0    0 -0.20475014602E+02 -0.24443007386E+02  0.18095802707E+00  0.31886040501E+02  0.00000000000E+00 0.  1.
         11    1    3    3    0    0  0.16276946027E+02  0.94852864096E+00  0.15834288456E+02  0.22728030485E+02  0.51100000000E-03 0. -1.
        -11    1    3    3    0    0  0.85443757554E+01  0.33425824451E+01  0.17734760133E+01  0.93447542441E+01  0.51100000000E-03 0.  1.
         12    1    3    3    0    0 -0.43463071808E+01  0.20151896300E+02 -0.17788722497E+02  0.27229174770E+02  0.00000000000E+00 0. -1.
</event>
<event>
 7    1  0.6830263E-012  0.5930197E+02  0.7816164E-02  0.1266605E+00
        -11   -1    0    0    0    0  0.00000000000E+00  0.00000000000E+00  0.45593999997E+02  0.45594000000E+02  0.51100000000E-03 0. -1.
         11   -1    0    0    0    0 -0.00000000000E+00 -0.00000000000E+00 -0.45593999997E+02  0.45594000000E+02  0.51100000000E-03 0.  1.
    9900012    2    1    2    0    0 -0.30267046286E+02 -0.95177396369E+01  0.31681512717E+01  0.59301974203E+02  0.50000055032E+02 0.  0.
        -12    1    1    2    0    0  0.30267046286E+02  0.95177396369E+01 -0.31681512717E+01  0.31886025797E+02  0.00000000000E+00 0.  1.
         11    1    3    3    0    0 -0.17023166699E+02 -0.18435763019E+02 -0.33506731988E+01  0.25315856172E+02  0.51100000000E-03 0. -1.
        -11    1    3    3    0    0  0.79257628015E+01 -0.28450649073E+01 -0.13352571893E+01  0.85261375977E+01  0.51100000000E-03 0.  1.
         12    1    3    3    0    0 -0.21169642388E+02  0.11763088290E+02  0.78540816599E+01  0.25459980433E+02  0.00000000000E+00 0. -1.
</event>
<event>
 7    1  0.6830263E-012  0.5930164E+02  0.7816164E-02  0.1266606E+00
        -11   -1    0    0    0    0  0.00000000000E+00  0.00000000000E+00  0.45593999997E+02  0.45594000000E+02  0.51100000000E-03 0.  1.
         11   -1    0    0    0    0 -0.00000000000E+00 -0.00000000000E+00 -0.45593999997E+02  0.45594000000E+02  0.51100000000E-03 0. -1.
    9900012    2    1    2    0    0  0.19293084738E+02  0.70535635200E+01 -0.24387782289E+02  0.59301642384E+02  0.49999449871E+02 0.  0.
        -12    1    1    2    0    0 -0.19293084738E+02 -0.70535635200E+01  0.24387782289E+02  0.31886357616E+02  0.00000000000E+00 0.  1.
         11    1    3    3    0    0  0.16534754916E+02  0.60795005990E+01 -0.20164691781E+01  0.17732021765E+02  0.51100000000E-03 0. -1.
        -11    1    3    3    0    0  0.29299297526E+01 -0.11844067705E+02  0.35028215201E+01  0.12693942926E+02  0.51100000000E-03 0.  1.
         12    1    3    3    0    0 -0.17159993020E+00  0.12818130626E+02 -0.25874134631E+02  0.28875677692E+02  0.00000000000E+00 0. -1.
</event>
<event>
 7    1  0.6830263E-012  0.5930195E+02  0.7816164E-02  0.1266605E+00
        -11   -1    0    0    0    0  0.00000000000E+00  0.00000000000E+00  0.45593999997E+02  0.45594000000E+02  0.51100000000E-03 0.  1.
         11   -1    0    0    0    0 -0.00000000000E+00 -0.00000000000E+00 -0.45593999997E+02  0.45594000000E+02  0.51100000000E-03 0. -1.
    9900012    2    1    2    0    0 -0.23545856214E+02  0.17244848462E+02 -0.12842429823E+02  0.59301950588E+02  0.50000011965E+02 0.  0.
        -12    1    1    2    0    0  0.23545856214E+02 -0.17244848462E+02  0.12842429823E+02  0.31886049412E+02  0.00000000000E+00 0.  1.
         11    1    3    3    0    0 -0.13448094859E+02 -0.11169419255E+01  0.71767404216E+01  0.15284123068E+02  0.51100000000E-03 0. -1.
        -11    1    3    3    0    0  0.10904567181E+02  0.12011682587E+02 -0.36118156680E+01  0.16620328415E+02  0.51100000000E-03 0.  1.
         12    1    3    3    0    0 -0.21002328535E+02  0.63501078009E+01 -0.16407354577E+02  0.27397499105E+02  0.00000000000E+00 0. -1.
</event>
<event>
 7    1  0.6830263E-012  0.5930191E+02  0.7816164E-02  0.1266605E+00
        -11   -1    0    0    0    0  0.00000000000E+00  0.00000000000E+00  0.45593999997E+02  0.45594000000E+02  0.51100000000E-03 0. -1.
         11   -1    0    0    0    0 -0.00000000000E+00 -0.00000000000E+00 -0.45593999997E+02  0.45594000000E+02  0.51100000000E-03 0.  1.
    9900012    2    1    2    0    0 -0.82085481334E+01 -0.26310362173E+02 -0.16034569292E+02  0.59301908478E+02  0.49999935166E+02 0.  0.
        -12    1    1    2    0    0  0.82085481334E+01  0.26310362173E+02  0.16034569292E+02  0.31886091522E+02  0.00000000000E+00 0.  1.
         11    1    3    3    0    0 -0.21804118833E+01  0.75610184521E+01  0.21627816542E+01  0.81609325912E+01  0.51100000000E-03 0. -1.
        -11    1    3    3    0    0 -0.18274871733E+02 -0.13398345240E+02 -0.30069052704E+01  0.22858872929E+02  0.51100000000E-03 0.  1.
        -12    1    3    3    0    0  0.12246735483E+02 -0.20473035385E+02 -0.15190445676E+02  0.28282102958E+02  0.00000000000E+00 0.  1.
</event>
<event>
 7    1  0.6830263E-012  0.5930194E+02  0.7816164E-02  0.1266605E+00
        -11   -1    0    0    0    0  0.00000000000E+00  0.00000000000E+00  0.45593999997E+02  0.45594000000E+02  0.51100000000E-03 0.  1.
         11   -1    0    0    0    0 -0.00000000000E+00 -0.00000000000E+00 -0.45593999997E+02  0.45594000000E+02  0.51100000000E-03 0. -1.
    9900012    2    1    2    0    0 -0.59640952196E+01 -0.51517563994E+01 -0.30896756622E+02  0.59301943556E+02  0.49999999140E+02 0.  0.
        -12    1    1    2    0    0  0.59640952196E+01  0.51517563994E+01  0.30896756622E+02  0.31886056444E+02  0.00000000000E+00 0.  1.
         11    1    3    3    0    0  0.10713491847E+02  0.35365019089E+01  0.28342018487E+01  0.11632646031E+02  0.51100000000E-03 0. -1.
        -11    1    3    3    0    0  0.95677215824E+00  0.85442155474E+00  0.44025850721E+01  0.45856520511E+01  0.51100000000E-03 0.  1.
         12    1    3    3    0    0 -0.17634359225E+02 -0.95426798631E+01 -0.38133543543E+02  0.43083645474E+02  0.00000000000E+00 0. -1.
</event>
<event>
 7    1  0.6830263E-012  0.5930184E+02  0.7816164E-02  0.1266605E+00
        -11   -1    0    0    0    0  0.00000000000E+00  0.00000000000E+00  0.45593999997E+02  0.45594000000E+02  0.51100000000E-03 0.  1.
         11   -1    0    0    0    0 -0.00000000000E+00 -0.00000000000E+00 -0.45593999997E+02  0.45594000000E+02  0.51100000000E-03 0. -1.
    9900012    2    1    2    0    0 -0.18240129797E+02  0.25062961675E+02 -0.74748332578E+01  0.59301835051E+02  0.49999801252E+02 0.  0.
        -12    1    1    2    0    0  0.18240129797E+02 -0.25062961675E+02  0.74748332578E+01  0.31886164949E+02  0.00000000000E+00 0.  1.
         11    1    3    3    0    0 -0.16170472050E+02  0.50730937028E+01  0.10172324029E+02  0.19766047214E+02  0.51100000000E-03 0. -1.
        -11    1    3    3    0    0 -0.13490890105E+01 -0.72038471097E+01 -0.42959813847E+00  0.73416625611E+01  0.51100000000E-03 0.  1.
         12    1    3    3    0    0 -0.72056873637E+00  0.27193715082E+02 -0.17217559148E+02  0.32194125276E+02  0.00000000000E+00 0. -1.
</event>
<event>
 7    1  0.6830263E-012  0.5930196E+02  0.7816164E-02  0.1266605E+00
        -11   -1    0    0    0    0  0.00000000000E+00  0.00000000000E+00  0.45593999997E+02  0.45594000000E+02  0.51100000000E-03 0. -1.
         11   -1    0    0    0    0 -0.00000000000E+00 -0.00000000000E+00 -0.45593999997E+02  0.45594000000E+02  0.51100000000E-03 0.  1.
    9900012    2    1    2    0    0  0.27243624484E+02 -0.19891685985E+01  0.16448341471E+02  0.59301955970E+02  0.50000021780E+02 0.  0.
        -12    1    1    2    0    0 -0.27243624484E+02  0.19891685985E+01 -0.16448341471E+02  0.31886044030E+02  0.00000000000E+00 0.  1.
         11    1    3    3    0    0  0.16898860730E+02  0.30620128703E+01  0.14057662398E+02  0.22193811956E+02  0.51100000000E-03 0. -1.
        -11    1    3    3    0    0  0.14879939518E+02 -0.14595000046E+02 -0.79651697580E+01  0.22313013152E+02  0.51100000000E-03 0.  1.
         12    1    3    3    0    0 -0.45351757634E+01  0.95438185769E+01  0.10355848831E+02  0.14795130863E+02  0.00000000000E+00 0. -1.
</event>
<event>
 7    1  0.6830263E-012  0.5930194E+02  0.7816164E-02  0.1266605E+00
        -11   -1    0    0    0    0  0.00000000000E+00  0.00000000000E+00  0.45593999997E+02  0.45594000000E+02  0.51100000000E-03 0.  1.
         11   -1    0    0    0    0 -0.00000000000E+00 -0.00000000000E+00 -0.45593999997E+02  0.45594000000E+02  0.51100000000E-03 0. -1.
    9900012    2    1    2    0    0  0.28833499826E+02  0.76226979862E+01 -0.11280268322E+02  0.59301942071E+02  0.49999996432E+02 0.  0.
        -12    1    1    2    0    0 -0.28833499826E+02 -0.76226979862E+01  0.11280268322E+02  0.31886057929E+02  0.00000000000E+00 0.  1.
         11    1    3    3    0    0  0.86118977169E+01 -0.99040033849E+01 -0.11967433274E+02  0.17761574389E+02  0.51100000000E-03 0.  1.
        -11    1    3    3    0    0  0.20599167061E+02 -0.22745878051E+01  0.48922445940E+01  0.21293977804E+02  0.51100000000E-03 0. -1.
        -12    1    3    3    0    0 -0.37756495183E+00  0.19801289176E+02 -0.42050796421E+01  0.20246389879E+02  0.00000000000E+00 0.  1.
</event>
<event>
 7    1  0.6830263E-012  0.5930197E+02  0.7816164E-02  0.1266605E+00
        -11   -1    0    0    0    0  0.00000000000E+00  0.00000000000E+00  0.45593999997E+02  0.45594000000E+02  0.51100000000E-03 0.  1.
         11   -1    0    0    0    0 -0.00000000000E+00 -0.00000000000E+00 -0.45593999997E+02  0.45594000000E+02  0.51100000000E-03 0. -1.
    9900012    2    1    2    0    0  0.27854066767E+01  0.28667940728E+02 -0.13678790002E+02  0.59301974662E+02  0.50000055870E+02 0.  0.
        -12    1    1    2    0    0 -0.27854066767E+01 -0.28667940728E+02  0.13678790002E+02  0.31886025338E+02  0.00000000000E+00 0.  1.
         11    1    3    3    0    0  0.11819859375E+02  0.14526582411E+01  0.27077274504E+01  0.12212742518E+02  0.51100000000E-03 0. -1.
        -11    1    3    3    0    0 -0.11880920419E+02 -0.83948104757E+00  0.36952525197E+01  0.12470601023E+02  0.51100000000E-03 0.  1.
         12    1    3    3    0    0  0.28464677205E+01  0.28054763535E+02 -0.20081769972E+02  0.34618631121E+02  0.00000000000E+00 0. -1.
</event>
<event>
 7    1  0.6830263E-012  0.5930192E+02  0.7816164E-02  0.1266605E+00
        -11   -1    0    0    0    0  0.00000000000E+00  0.00000000000E+00  0.45593999997E+02  0.45594000000E+02  0.51100000000E-03 0.  1.
         11   -1    0    0    0    0 -0.00000000000E+00 -0.00000000000E+00 -0.45593999997E+02  0.45594000000E+02  0.51100000000E-03 0. -1.
    9900012    2    1    2    0    0 -0.80959857425E+01 -0.11284347937E+02 -0.28702622178E+02  0.59301921323E+02  0.49999958591E+02 0.  0.
        -12    1    1    2    0    0  0.80959857425E+01  0.11284347937E+02  0.28702622178E+02  0.31886078677E+02  0.00000000000E+00 0.  1.
         11    1    3    3    0    0  0.20409701984E+01 -0.17747029860E+02 -0.35965065079E+01  0.18222444609E+02  0.51100000000E-03 0. -1.
        -11    1    3    3    0    0 -0.43770930449E+01 -0.62830766860E+01  0.41079978870E+01  0.86897435558E+01  0.51100000000E-03 0.  1.
         12    1    3    3    0    0 -0.57598628960E+01  0.12745758609E+02 -0.29214113557E+02  0.32389733158E+02  0.00000000000E+00 0. -1.
</event>
<event>
 7    1  0.6830263E-012  0.5930195E+02  0.7816164E-02  0.1266605E+00
        -11   -1    0    0    0    0  0.00000000000E+00  0.00000000000E+00  0.45593999997E+02  0.45594000000E+02  0.51100000000E-03 0.  1.
         11   -1    0    0    0    0 -0.00000000000E+00 -0.00000000000E+00 -0.45593999997E+02  0.45594000000E+02  0.51100000000E-03 0. -1.
    9900012    2    1    2    0    0  0.16436839182E+00 -0.27371533973E+02 -0.16355194441E+02  0.59301948595E+02  0.50000008329E+02 0.  0.
        -12    1    1    2    0    0 -0.16436839182E+00  0.27371533973E+02  0.16355194441E+02  0.31886051405E+02  0.00000000000E+00 0.  1.
         11    1    3    3    0    0 -0.17057516793E+02 -0.17785125765E+02  0.32882862648E+01  0.24861263130E+02  0.51100000000E-03 0. -1.
        -11    1    3    3    0    0 -0.24351248670E+01 -0.33599674828E+00  0.24392405758E+01  0.34630364972E+01  0.51100000000E-03 0.  1.
         12    1    3    3    0    0  0.19657010052E+02 -0.92504114601E+01 -0.22082721282E+02  0.30977648968E+02  0.00000000000E+00 0. -1.
</event>
<event>
 7    1  0.6830263E-012  0.5930195E+02  0.7816164E-02  0.1266605E+00
        -11   -1    0    0    0    0  0.00000000000E+00  0.00000000000E+00  0.45593999997E+02  0.45594000000E+02  0.51100000000E-03 0.  1.
         11   -1    0    0    0    0 -0.00000000000E+00 -0.00000000000E+00 -0.45593999997E+02  0.45594000000E+02  0.51100000000E-03 0. -1.
    9900012    2    1    2    0    0 -0.30666463961E+02 -0.83122111047E+01 -0.26824180657E+01  0.59301949256E+02  0.50000009536E+02 0.  0.
        -12    1    1    2    0    0  0.30666463961E+02  0.83122111047E+01  0.26824180657E+01  0.31886050744E+02  0.00000000000E+00 0.  1.
         11    1    3    3    0    0 -0.24586219179E+02  0.10004245672E+02 -0.14842011625E+02  0.30411386261E+02  0.51100000000E-03 0. -1.
        -11    1    3    3    0    0 -0.64365263137E+01 -0.13808592567E+02 -0.70807753414E+00  0.15251474477E+02  0.51100000000E-03 0.  1.
        -12    1    3    3    0    0  0.35628153130E+00 -0.45078642098E+01  0.12867671093E+02  0.13639088519E+02  0.00000000000E+00 0.  1.
</event>
<event>
 7    1  0.6830263E-012  0.5930194E+02  0.7816164E-02  0.1266605E+00
        -11   -1    0    0    0    0  0.00000000000E+00  0.00000000000E+00  0.45593999997E+02  0.45594000000E+02  0.51100000000E-03 0.  1.
         11   -1    0    0    0    0 -0.00000000000E+00 -0.00000000000E+00 -0.45593999997E+02  0.45594000000E+02  0.51100000000E-03 0. -1.
    9900012    2    1    2    0    0 -0.21231834255E+00  0.31110226839E+02  0.69878000578E+01  0.59301942816E+02  0.49999997791E+02 0.  0.
        -12    1    1    2    0    0  0.21231834255E+00 -0.31110226839E+02 -0.69878000578E+01  0.31886057184E+02  0.00000000000E+00 0.  1.
         11    1    3    3    0    0 -0.17594868998E+01  0.40599437047E+02  0.88839318474E+01  0.41597287508E+02  0.51100000000E-03 0. -1.
        -11    1    3    3    0    0 -0.55743738130E+01 -0.15725914064E+01  0.23369983906E+01  0.62456584022E+01  0.51100000000E-03 0.  1.
        -12    1    3    3    0    0  0.71215423703E+01 -0.79166188013E+01 -0.42331301801E+01  0.11458996906E+02  0.00000000000E+00 0.  1.
</event>
<event>
 7    1  0.6830263E-012  0.5930194E+02  0.7816164E-02  0.1266605E+00
        -11   -1    0    0    0    0  0.00000000000E+00  0.00000000000E+00  0.45593999997E+02  0.45594000000E+02  0.51100000000E-03 0. -1.
         11   -1    0    0    0    0 -0.00000000000E+00 -0.00000000000E+00 -0.45593999997E+02  0.45594000000E+02  0.51100000000E-03 0.  1.
    9900012    2    1    2    0    0  0.17324633398E+02  0.17998885315E+02  0.19814591189E+02  0.59301940053E+02  0.49999992752E+02 0.  0.
        -12    1    1    2    0    0 -0.17324633398E+02 -0.17998885315E+02 -0.19814591189E+02  0.31886059947E+02  0.00000000000E+00 0.  1.
         11    1    3    3    0    0  0.12848688883E+02  0.22268476573E+02  0.66479664019E+01  0.26555024241E+02  0.51100000000E-03 0. -1.
        -11    1    3    3    0    0  0.10025863556E+02  0.19461883649E+01 -0.60015173606E+01  0.11845834714E+02  0.51100000000E-03 0.  1.
        -12    1    3    3    0    0 -0.55499190410E+01 -0.62157796229E+01  0.19168142148E+02  0.20901081098E+02  0.00000000000E+00 0.  1.
</event>
<event>
 7    1  0.6830263E-012  0.5930198E+02  0.7816164E-02  0.1266605E+00
        -11   -1    0    0    0    0  0.00000000000E+00  0.00000000000E+00  0.45593999997E+02  0.45594000000E+02  0.51100000000E-03 0.  1.
         11   -1    0    0    0    0 -0.00000000000E+00 -0.00000000000E+00 -0.45593999997E+02  0.45594000000E+02  0.51100000000E-03 0. -1.
    9900012    2    1    2    0    0  0.17406864474E+02  0.25449264763E+02  0.81273750435E+01  0.59301980605E+02  0.50000066708E+02 0.  0.
        -12    1    1    2    0    0 -0.17406864474E+02 -0.25449264763E+02 -0.81273750435E+01  0.31886019395E+02  0.00000000000E+00 0.  1.
         11    1    3    3    0    0  0.11379096674E+02  0.22600763861E+02 -0.11319535192E+02  0.27720213662E+02  0.51100000000E-03 0. -1.
        -11    1    3    3    0    0  0.21198522980E+01  0.23070958976E+01 -0.54973147293E+01  0.63274745942E+01  0.51100000000E-03 0.  1.
        -12    1    3    3    0    0  0.39079155022E+01  0.54140500393E+00  0.24944224965E+02  0.25254292349E+02  0.00000000000E+00 0.  1.
</event>
<event>
 7    1  0.6830263E-012  0.5930193E+02  0.7816164E-02  0.1266605E+00
        -11   -1    0    0    0    0  0.00000000000E+00  0.00000000000E+00  0.45593999997E+02  0.45594000000E+02  0.51100000000E-03 0.  1.
         11   -1    0    0    0    0 -0.00000000000E+00 -0.00000000000E+00 -0.45593999997E+02  0.45594000000E+02  0.51100000000E-03 0. -1.
    9900012    2    1    2    0    0 -0.20305815746E+02  0.23218690599E+02 -0.80800654641E+01  0.59301934013E+02  0.49999981735E+02 0.  0.
        -12    1    1    2    0    0  0.20305815746E+02 -0.23218690599E+02  0.80800654641E+01  0.31886065987E+02  0.00000000000E+00 0.  1.
         11    1    3    3    0    0 -0.17200530230E+02  0.43752247989E+01  0.91733109713E+01  0.19978750378E+02  0.51100000000E-03 0. -1.
        -11    1    3    3    0    0 -0.50008489350E+01  0.66471875943E+01  0.77944494096E+01  0.11399431339E+02  0.51100000000E-03 0.  1.
         12    1    3    3    0    0  0.18955634185E+01  0.12196278206E+02 -0.25047825845E+02  0.27923752296E+02  0.00000000000E+00 0. -1.
</event>
<event>
 7    1  0.6830263E-012  0.5930192E+02  0.7816164E-02  0.1266605E+00
        -11   -1    0    0    0    0  0.00000000000E+00  0.00000000000E+00  0.45593999997E+02  0.45594000000E+02  0.51100000000E-03 0. -1.
         11   -1    0    0    0    0 -0.00000000000E+00 -0.00000000000E+00 -0.45593999997E+02  0.45594000000E+02  0.51100000000E-03 0.  1.
    9900012    2    1    2    0    0 -0.21831614813E+02  0.15786382634E+02  0.17055574222E+02  0.59301923195E+02  0.49999962006E+02 0.  0.
        -12    1    1    2    0    0  0.21831614813E+02 -0.15786382634E+02 -0.17055574222E+02  0.31886076805E+02  0.00000000000E+00 0.  1.
         11    1    3    3    0    0  0.10324271858E+01 -0.11136091580E+02  0.20406792853E+01  0.11368500947E+02  0.51100000000E-03 0. -1.
        -11    1    3    3    0    0 -0.24792956487E+01 -0.49886316881E+01  0.74770676459E+01  0.93241564699E+01  0.51100000000E-03 0.  1.
        -12    1    3    3    0    0 -0.20384746350E+02  0.31911105902E+02  0.75378272905E+01  0.38609265778E+02  0.00000000000E+00 0.  1.
</event>
<event>
 7    1  0.6830263E-012  0.5930195E+02  0.7816164E-02  0.1266605E+00
        -11   -1    0    0    0    0  0.00000000000E+00  0.00000000000E+00  0.45593999997E+02  0.45594000000E+02  0.51100000000E-03 0.  1.
         11   -1    0    0    0    0 -0.00000000000E+00 -0.00000000000E+00 -0.45593999997E+02  0.45594000000E+02  0.51100000000E-03 0. -1.
    9900012    2    1    2    0    0  0.16886988581E+01  0.76931507888E+01 -0.30897963832E+02  0.59301945966E+02  0.50000003535E+02 0.  0.
        -12    1    1    2    0    0 -0.16886988581E+01 -0.76931507888E+01  0.30897963832E+02  0.31886054034E+02  0.00000000000E+00 0.  1.
         11    1    3    3    0    0  0.48492647445E+01  0.12989773814E+02 -0.14477737139E+02  0.20046308020E+02  0.51100000000E-03 0.  1.
        -11    1    3    3    0    0 -0.10388624768E+02  0.97745858419E+01 -0.17415172261E+02  0.22511203390E+02  0.51100000000E-03 0. -1.
        -12    1    3    3    0    0  0.72280588814E+01 -0.15071208867E+02  0.99494556734E+00  0.16744434556E+02  0.00000000000E+00 0.  1.
</event>
<event>
 7    1  0.6830263E-012  0.5930204E+02  0.7816164E-02  0.1266604E+00
        -11   -1    0    0    0    0  0.00000000000E+00  0.00000000000E+00  0.45593999997E+02  0.45594000000E+02  0.51100000000E-03 0.  1.
         11   -1    0    0    0    0 -0.00000000000E+00 -0.00000000000E+00 -0.45593999997E+02  0.45594000000E+02  0.51100000000E-03 0. -1.
    9900012    2    1    2    0    0 -0.21412049963E+01  0.30489304240E+02 -0.90847222654E+01  0.59302037407E+02  0.50000170301E+02 0.  0.
        -12    1    1    2    0    0  0.21412049963E+01 -0.30489304240E+02  0.90847222654E+01  0.31885962593E+02  0.00000000000E+00 0.  1.
         11    1    3    3    0    0 -0.17853062013E+01 -0.38331179003E+01  0.14407287055E+02  0.15014993560E+02  0.51100000000E-03 0.  1.
        -11    1    3    3    0    0 -0.47106198399E+01  0.25265377607E+02 -0.10263848829E+02  0.27674461837E+02  0.51100000000E-03 0. -1.
        -12    1    3    3    0    0  0.43547210449E+01  0.90570445331E+01 -0.13228160491E+02  0.16612582010E+02  0.00000000000E+00 0.  1.
</event>
<event>
 7    1  0.6830263E-012  0.5930206E+02  0.7816164E-02  0.1266604E+00
        -11   -1    0    0    0    0  0.00000000000E+00  0.00000000000E+00  0.45593999997E+02  0.45594000000E+02  0.51100000000E-03 0. -1.
         11   -1    0    0    0    0 -0.00000000000E+00 -0.00000000000E+00 -0.45593999997E+02  0.45594000000E+02  0.51100000000E-03 0.  1.
    9900012    2    1    2    0    0  0.30107598520E+02 -0.92387007293E+01  0.49892034080E+01  0.59302059047E+02  0.50000209768E+02 0.  0.
        -12    1    1    2    0    0 -0.30107598520E+02  0.92387007293E+01 -0.49892034080E+01  0.31885940953E+02  0.00000000000E+00 0.  1.
         11    1    3    3    0    0  0.22086671219E+02 -0.30523192593E+01  0.14812743795E+02  0.26768546419E+02  0.51100000000E-03 0. -1.
        -11    1    3    3    0    0 -0.53601867327E+01 -0.13785241896E+02 -0.10689112760E+01  0.14829263890E+02  0.51100000000E-03 0.  1.
        -12    1    3    3    0    0  0.13381114033E+02  0.75988604255E+01 -0.87546291108E+01  0.17704248739E+02  0.00000000000E+00 0.  1.
</event>
<event>
 7    1  0.6830263E-012  0.5930193E+02  0.7816164E-02  0.1266605E+00
        -11   -1    0    0    0    0  0.00000000000E+00  0.00000000000E+00  0.45593999997E+02  0.45594000000E+02  0.51100000000E-03 0.  1.
         11   -1    0    0    0    0 -0.00000000000E+00 -0.00000000000E+00 -0.45593999997E+02  0.45594000000E+02  0.51100000000E-03 0. -1.
    9900012    2    1    2    0    0  0.14501026964E+02  0.26837227174E+02 -0.92846692238E+01  0.59301927366E+02  0.49999969613E+02 0.  0.
        -12    1    1    2    0    0 -0.14501026964E+02 -0.26837227174E+02  0.92846692238E+01  0.31886072634E+02  0.00000000000E+00 0.  1.
         11    1    3    3    0    0  0.16555213346E+02  0.21215264475E+02 -0.20998777615E+02  0.34133725218E+02  0.51100000000E-03 0. -1.
        -11    1    3    3    0    0  0.42276438226E+01  0.40933444186E+01 -0.46971564795E+01  0.75293904185E+01  0.51100000000E-03 0.  1.
        -12    1    3    3    0    0 -0.62818302051E+01  0.15286182807E+01  0.16411264871E+02  0.17638811729E+02  0.00000000000E+00 0.  1.
</event>
<event>
 7    1  0.6830263E-012  0.5930191E+02  0.7816164E-02  0.1266605E+00
        -11   -1    0    0    0    0  0.00000000000E+00  0.00000000000E+00  0.45593999997E+02  0.45594000000E+02  0.51100000000E-03 0. -1.
         11   -1    0    0    0    0 -0.00000000000E+00 -0.00000000000E+00 -0.45593999997E+02  0.45594000000E+02  0.51100000000E-03 0.  1.
    9900012    2    1    2    0    0 -0.28392182334E+02  0.49897514564E+01  0.13627510844E+02  0.59301910728E+02  0.49999939268E+02 0.  0.
        -12    1    1    2    0    0  0.28392182334E+02 -0.49897514564E+01 -0.13627510844E+02  0.31886089272E+02  0.00000000000E+00 0.  1.
         11    1    3    3    0    0 -0.70509074424E+01  0.18167457344E+02  0.51665825044E+00  0.19494582276E+02  0.51100000000E-03 0. -1.
        -11    1    3    3    0    0 -0.83120729796E+01 -0.48509882600E+01 -0.87657886395E+01  0.13017745390E+02  0.51100000000E-03 0.  1.
         12    1    3    3    0    0 -0.13029201912E+02 -0.83267176281E+01  0.21876641233E+02  0.26789583061E+02  0.00000000000E+00 0. -1.
</event>
<event>
 7    1  0.6830263E-012  0.5930192E+02  0.7816164E-02  0.1266605E+00
        -11   -1    0    0    0    0  0.00000000000E+00  0.00000000000E+00  0.45593999997E+02  0.45594000000E+02  0.51100000000E-03 0.  1.
         11   -1    0    0    0    0 -0.00000000000E+00 -0.00000000000E+00 -0.45593999997E+02  0.45594000000E+02  0.51100000000E-03 0. -1.
    9900012    2    1    2    0    0  0.11227705910E+02 -0.29795357263E+02  0.17022468887E+01  0.59301916219E+02  0.49999949283E+02 0.  0.
        -12    1    1    2    0    0 -0.11227705910E+02  0.29795357263E+02 -0.17022468887E+01  0.31886083781E+02  0.00000000000E+00 0.  1.
         11    1    3    3    0    0  0.19882842334E+02 -0.99261341932E+01  0.33682740927E+01  0.22476673017E+02  0.51100000000E-03 0. -1.
        -11    1    3    3    0    0 -0.13012171011E+02 -0.18890836712E+02  0.94781594847E+01  0.24819665863E+02  0.51100000000E-03 0.  1.
         12    1    3    3    0    0  0.43570345871E+01 -0.97838635828E+00 -0.11144186689E+02  0.12005577338E+02  0.00000000000E+00 0. -1.
</event>
<event>
 7    1  0.6830263E-012  0.5930193E+02  0.7816164E-02  0.1266605E+00
        -11   -1    0    0    0    0  0.00000000000E+00  0.00000000000E+00  0.45593999997E+02  0.45594000000E+02  0.51100000000E-03 0. -1.
         11   -1    0    0    0    0 -0.00000000000E+00 -0.00000000000E+00 -0.45593999997E+02  0.45594000000E+02  0.51100000000E-03 0.  1.
    9900012    2    1    2    0    0 -0.15444756299E+02 -0.25707364384E+02  0.10831083544E+02  0.59301930135E+02  0.49999974663E+02 0.  0.
        -12    1    1    2    0    0  0.15444756299E+02  0.25707364384E+02 -0.10831083544E+02  0.31886069865E+02  0.00000000000E+00 0.  1.
         11    1    3    3    0    0  0.55482013944E+01 -0.20339634086E+02  0.11651780004E+02  0.24088321465E+02  0.51100000000E-03 0. -1.
        -11    1    3    3    0    0 -0.95485363278E+01 -0.11567928799E+02  0.10216031665E+02  0.18148245809E+02  0.51100000000E-03 0.  1.
        -12    1    3    3    0    0 -0.11444421366E+02  0.62001985009E+01 -0.11036728126E+02  0.17065362861E+02  0.00000000000E+00 0.  1.
</event>
<event>
 7    1  0.6830263E-012  0.5930195E+02  0.7816164E-02  0.1266605E+00
        -11   -1    0    0    0    0  0.00000000000E+00  0.00000000000E+00  0.45593999997E+02  0.45594000000E+02  0.51100000000E-03 0.  1.
         11   -1    0    0    0    0 -0.00000000000E+00 -0.00000000000E+00 -0.45593999997E+02  0.45594000000E+02  0.51100000000E-03 0. -1.
    9900012    2    1    2    0    0 -0.46541116618E+01 -0.27468329604E+02 -0.15509691292E+02  0.59301946456E+02  0.50000004429E+02 0.  0.
        -12    1    1    2    0    0  0.46541116618E+01  0.27468329604E+02  0.15509691292E+02  0.31886053544E+02  0.00000000000E+00 0.  1.
         11    1    3    3    0    0 -0.15410867126E+01 -0.35463978246E+01  0.56353465920E+01  0.68343995537E+01  0.51100000000E-03 0.  1.
        -11    1    3    3    0    0 -0.17981491013E+02 -0.20980142970E+02 -0.24517026609E+02  0.36940289821E+02  0.51100000000E-03 0. -1.
         12    1    3    3    0    0  0.14868466064E+02 -0.29417888102E+01  0.33719887249E+01  0.15527257081E+02  0.00000000000E+00 0. -1.
</event>
<event>
 7    1  0.6830263E-012  0.5930189E+02  0.7816164E-02  0.1266605E+00
        -11   -1    0    0    0    0  0.00000000000E+00  0.00000000000E+00  0.45593999997E+02  0.45594000000E+02  0.51100000000E-03 0. -1.
         11   -1    0    0    0    0 -0.00000000000E+00 -0.00000000000E+00 -0.45593999997E+02  0.45594000000E+02  0.51100000000E-03 0.  1.
    9900012    2    1    2    0    0  0.22272364595E+02 -0.22815120103E+02  0.36909780848E+00  0.59301887613E+02  0.49999897113E+02 0.  0.
        -12    1    1    2    0    0 -0.22272364595E+02  0.22815120103E+02 -0.36909780848E+00  0.31886112387E+02  0.00000000000E+00 0.  1.
         11    1    3    3    0    0  0.23006924974E+01 -0.36494966854E+00  0.21116265100E+02  0.21244364576E+02  0.51100000000E-03 0. -1.
        -11    1    3    3    0    0  0.15299265774E+02 -0.15048929561E+02 -0.86772834842E+01  0.23148068236E+02  0.51100000000E-03 0.  1.
        -12    1    3    3    0    0  0.46724063237E+01 -0.74012408740E+01 -0.12069883807E+02  0.14909454800E+02  0.00000000000E+00 0.  1.
</event>
<event>
 7    1  0.6830263E-012  0.5930196E+02  0.7816164E-02  0.1266605E+00
        -11   -1    0    0    0    0  0.00000000000E+00  0.00000000000E+00  0.45593999997E+02  0.45594000000E+02  0.51100000000E-03 0. -1.
         11   -1    0    0    0    0 -0.00000000000E+00 -0.00000000000E+00 -0.45593999997E+02  0.45594000000E+02  0.51100000000E-03 0.  1.
    9900012    2    1    2    0    0 -0.48436561361E+01  0.13266732502E+02  0.28587622620E+02  0.59301962882E+02  0.50000034385E+02 0.  0.
        -12    1    1    2    0    0  0.48436561361E+01 -0.13266732502E+02 -0.28587622620E+02  0.31886037118E+02  0.00000000000E+00 0.  1.
         11    1    3    3    0    0 -0.12861690165E+01  0.10365523318E+02  0.34327000294E+02  0.35880931619E+02  0.51100000000E-03 0.  1.
        -11    1    3    3    0    0  0.65405319160E+01  0.69168748009E+00  0.51896433791E+01  0.83779107167E+01  0.51100000000E-03 0. -1.
        -12    1    3    3    0    0 -0.10098019036E+02  0.22095217039E+01 -0.10929021053E+02  0.15043120546E+02  0.00000000000E+00 0.  1.
</event>
<event>
 7    1  0.6830263E-012  0.5930195E+02  0.7816164E-02  0.1266605E+00
        -11   -1    0    0    0    0  0.00000000000E+00  0.00000000000E+00  0.45593999997E+02  0.45594000000E+02  0.51100000000E-03 0. -1.
         11   -1    0    0    0    0 -0.00000000000E+00 -0.00000000000E+00 -0.45593999997E+02  0.45594000000E+02  0.51100000000E-03 0.  1.
    9900012    2    1    2    0    0 -0.62430673247E-01  0.31591784117E+02  0.43215004838E+01  0.59301951519E+02  0.50000013663E+02 0.  0.
        -12    1    1    2    0    0  0.62430673247E-01 -0.31591784117E+02 -0.43215004838E+01  0.31886048481E+02  0.00000000000E+00 0.  1.
         11    1    3    3    0    0  0.42023503226E+01  0.16885374492E+02  0.14926505763E+02  0.22925448622E+02  0.51100000000E-03 0. -1.
        -11    1    3    3    0    0  0.73412752585E+01  0.18891321035E+02 -0.12620011533E+02  0.23875531915E+02  0.51100000000E-03 0.  1.
         12    1    3    3    0    0 -0.11606056254E+02 -0.41849114099E+01  0.20150062539E+01  0.12500970982E+02  0.00000000000E+00 0. -1.
</event>
<event>
 7    1  0.6830263E-012  0.5930194E+02  0.7816164E-02  0.1266605E+00
        -11   -1    0    0    0    0  0.00000000000E+00  0.00000000000E+00  0.45593999997E+02  0.45594000000E+02  0.51100000000E-03 0. -1.
         11   -1    0    0    0    0 -0.00000000000E+00 -0.00000000000E+00 -0.45593999997E+02  0.45594000000E+02  0.51100000000E-03 0.  1.
    9900012    2    1    2    0    0 -0.14488192306E+02  0.11637458918E+02  0.25911047756E+02  0.59301944079E+02  0.50000000094E+02 0.  0.
        -12    1    1    2    0    0  0.14488192306E+02 -0.11637458918E+02 -0.25911047756E+02  0.31886055921E+02  0.00000000000E+00 0.  1.
         11    1    3    3    0    0  0.12192383179E+02 -0.36221863156E+01  0.46361736651E+01  0.13537671432E+02  0.51100000000E-03 0. -1.
        -11    1    3    3    0    0 -0.35191179451E+01  0.10354974439E+02 -0.35127836878E+01  0.11486920224E+02  0.51100000000E-03 0.  1.
         12    1    3    3    0    0 -0.23161457540E+02  0.49046707946E+01  0.24787657779E+02  0.34277352423E+02  0.00000000000E+00 0. -1.
</event>
<event>
 7    1  0.6830263E-012  0.5930194E+02  0.7816164E-02  0.1266605E+00
        -11   -1    0    0    0    0  0.00000000000E+00  0.00000000000E+00  0.45593999997E+02  0.45594000000E+02  0.51100000000E-03 0. -1.
         11   -1    0    0    0    0 -0.00000000000E+00 -0.00000000000E+00 -0.45593999997E+02  0.45594000000E+02  0.51100000000E-03 0.  1.
    9900012    2    1    2    0    0 -0.83610957906E+01  0.68743448051E+00  0.30762643552E+02  0.59301941490E+02  0.49999995372E+02 0.  0.
        -12    1    1    2    0    0  0.83610957906E+01 -0.68743448051E+00 -0.30762643552E+02  0.31886058510E+02  0.00000000000E+00 0.  1.
         11    1    3    3    0    0  0.32623536491E+01 -0.12469837197E+02 -0.41011657851E+01  0.13526246786E+02  0.51100000000E-03 0. -1.
        -11    1    3    3    0    0 -0.85883224008E+00  0.10745705562E+01 -0.37036434380E+01  0.39508568278E+01  0.51100000000E-03 0.  1.
        -12    1    3    3    0    0 -0.10764617200E+02  0.12082701122E+02  0.38567452775E+02  0.41824837876E+02  0.00000000000E+00 0.  1.
</event>
<event>
 7    1  0.6830263E-012  0.5930195E+02  0.7816164E-02  0.1266605E+00
        -11   -1    0    0    0    0  0.00000000000E+00  0.00000000000E+00  0.45593999997E+02  0.45594000000E+02  0.51100000000E-03 0.  1.
         11   -1    0    0    0    0 -0.00000000000E+00 -0.00000000000E+00 -0.45593999997E+02  0.45594000000E+02  0.51100000000E-03 0. -1.
    9900012    2    1    2    0    0 -0.14462962731E+02  0.25751120682E+02 -0.12017606806E+02  0.59301946925E+02  0.50000005284E+02 0.  0.
        -12    1    1    2    0    0  0.14462962731E+02 -0.25751120682E+02  0.12017606806E+02  0.31886053075E+02  0.00000000000E+00 0.  1.
         11    1    3    3    0    0  0.20647460306E+01  0.20447781455E+02 -0.17666110855E+02  0.27101040859E+02  0.51100000000E-03 0. -1.
        -11    1    3    3    0    0 -0.29869775907E-01 -0.90106283642E+01 -0.16727925756E+01  0.91646358893E+01  0.51100000000E-03 0.  1.
         12    1    3    3    0    0 -0.16497838986E+02  0.14313967591E+02  0.73212966248E+01  0.23036270177E+02  0.00000000000E+00 0. -1.
</event>
<event>
 7    1  0.6830263E-012  0.5930194E+02  0.7816164E-02  0.1266605E+00
        -11   -1    0    0    0    0  0.00000000000E+00  0.00000000000E+00  0.45593999997E+02  0.45594000000E+02  0.51100000000E-03 0.  1.
         11   -1    0    0    0    0 -0.00000000000E+00 -0.00000000000E+00 -0.45593999997E+02  0.45594000000E+02  0.51100000000E-03 0. -1.
    9900012    2    1    2    0    0  0.42314318502E+01 -0.13672541223E+02 -0.28493457742E+02  0.59301944535E+02  0.50000000926E+02 0.  0.
        -12    1    1    2    0    0 -0.42314318502E+01  0.13672541223E+02  0.28493457742E+02  0.31886055465E+02  0.00000000000E+00 0.  1.
         11    1    3    3    0    0 -0.78646416207E+01  0.76236712382E+00 -0.30051434979E+00  0.79072182586E+01  0.51100000000E-03 0.  1.
        -11    1    3    3    0    0  0.10222238486E+02 -0.12957253781E+02  0.56676666011E+01  0.17450129804E+02  0.51100000000E-03 0. -1.
         12    1    3    3    0    0  0.18738349847E+01 -0.14776545657E+01 -0.33860609993E+02  0.33944596472E+02  0.00000000000E+00 0. -1.
</event>
<event>
 7    1  0.6830263E-012  0.5930205E+02  0.7816164E-02  0.1266604E+00
        -11   -1    0    0    0    0  0.00000000000E+00  0.00000000000E+00  0.45593999997E+02  0.45594000000E+02  0.51100000000E-03 0.  1.
         11   -1    0    0    0    0 -0.00000000000E+00 -0.00000000000E+00 -0.45593999997E+02  0.45594000000E+02  0.51100000000E-03 0. -1.
    9900012    2    1    2    0    0 -0.11506791331E+02 -0.83288496748E+01 -0.28547121319E+02  0.59302045110E+02  0.50000184350E+02 0.  0.
        -12    1    1    2    0    0  0.11506791331E+02  0.83288496748E+01  0.28547121319E+02  0.31885954890E+02  0.00000000000E+00 0.  1.
         11    1    3    3    0    0 -0.61386333888E+01 -0.69944051615E+01 -0.90499819401E+01  0.12981012935E+02  0.51100000000E-03 0. -1.
        -11    1    3    3    0    0 -0.40816472799E+01 -0.76231906916E+01  0.11656103537E+02  0.14513360423E+02  0.51100000000E-03 0.  1.
         12    1    3    3    0    0 -0.12865106621E+01  0.62887461784E+01 -0.31153242915E+02  0.31807671753E+02  0.00000000000E+00 0. -1.
</event>
<event>
 7    1  0.6830263E-012  0.5930196E+02  0.7816164E-02  0.1266605E+00
        -11   -1    0    0    0    0  0.00000000000E+00  0.00000000000E+00  0.45593999997E+02  0.45594000000E+02  0.51100000000E-03 0. -1.
         11   -1    0    0    0    0 -0.00000000000E+00 -0.00000000000E+00 -0.45593999997E+02  0.45594000000E+02  0.51100000000E-03 0.  1.
    9900012    2    1    2    0    0 -0.11930164200E+02  0.28501174094E+02 -0.78787110399E+01  0.59301955557E+02  0.50000021028E+02 0.  0.
        -12    1    1    2    0    0  0.11930164200E+02 -0.28501174094E+02  0.78787110399E+01  0.31886044443E+02  0.00000000000E+00 0.  1.
         11    1    3    3    0    0 -0.18447491503E+01  0.65617523987E+01  0.78688325251E+01  0.10410486038E+02  0.51100000000E-03 0. -1.
        -11    1    3    3    0    0 -0.13503642538E+02 -0.69687466813E+01  0.11391711352E+01  0.15238421940E+02  0.51100000000E-03 0.  1.
        -12    1    3    3    0    0  0.34182274885E+01  0.28908168376E+02 -0.16886714700E+02  0.33653047580E+02  0.00000000000E+00 0.  1.
</event>
<event>
 7    1  0.6830263E-012  0.5930193E+02  0.7816164E-02  0.1266605E+00
        -11   -1    0    0    0    0  0.00000000000E+00  0.00000000000E+00  0.45593999997E+02  0.45594000000E+02  0.51100000000E-03 0. -1.
         11   -1    0    0    0    0 -0.00000000000E+00 -0.00000000000E+00 -0.45593999997E+02  0.45594000000E+02  0.51100000000E-03 0.  1.
    9900012    2    1    2    0    0 -0.27286404146E+02  0.19947604104E+01  0.16376636522E+02  0.59301934955E+02  0.49999983453E+02 0.  0.
        -12    1    1    2    0    0  0.27286404146E+02 -0.19947604104E+01 -0.16376636522E+02  0.31886065045E+02  0.00000000000E+00 0.  1.
         11    1    3    3    0    0 -0.14912262794E+02  0.20947046180E+02  0.50256521793E+01  0.26199456204E+02  0.51100000000E-03 0. -1.
        -11    1    3    3    0    0 -0.46212975644E+01  0.27399474696E+01 -0.28088966432E+01  0.60624750661E+01  0.51100000000E-03 0.  1.
        -12    1    3    3    0    0 -0.77528437873E+01 -0.21692233239E+02  0.14159880986E+02  0.27040003684E+02  0.00000000000E+00 0.  1.
</event>
<event>
 7    1  0.6830263E-012  0.5930195E+02  0.7816164E-02  0.1266605E+00
        -11   -1    0    0    0    0  0.00000000000E+00  0.00000000000E+00  0.45593999997E+02  0.45594000000E+02  0.51100000000E-03 0. -1.
         11   -1    0    0    0    0 -0.00000000000E+00 -0.00000000000E+00 -0.45593999997E+02  0.45594000000E+02  0.51100000000E-03 0.  1.
    9900012    2    1    2    0    0  0.19933494023E+02  0.20003370366E+02  0.14806786885E+02  0.59301953713E+02  0.50000017663E+02 0.  0.
        -12    1    1    2    0    0 -0.19933494023E+02 -0.20003370366E+02 -0.14806786885E+02  0.31886046287E+02  0.00000000000E+00 0.  1.
         11    1    3    3    0    0 -0.11405520951E+02  0.95975024166E+00 -0.58545201287E+01  0.12856221642E+02  0.51100000000E-03 0. -1.
        -11    1    3    3    0    0  0.11352237213E+01 -0.17992247453E+01 -0.23189197915E+01  0.31469559644E+01  0.51100000000E-03 0.  1.
         12    1    3    3    0    0  0.30203791253E+02  0.20842844869E+02  0.22980226806E+02  0.43298776107E+02  0.00000000000E+00 0. -1.
</event>
<event>
 7    1  0.6830263E-012  0.5930195E+02  0.7816164E-02  0.1266605E+00
        -11   -1    0    0    0    0  0.00000000000E+00  0.00000000000E+00  0.45593999997E+02  0.45594000000E+02  0.51100000000E-03 0.  1.
         11   -1    0    0    0    0 -0.00000000000E+00 -0.00000000000E+00 -0.45593999997E+02  0.45594000000E+02  0.51100000000E-03 0. -1.
    9900012    2    1    2    0    0  0.30477720397E+02 -0.16692892256E+01  0.92218192127E+01  0.59301954201E+02  0.50000018554E+02 0.  0.
        -12    1    1    2    0    0 -0.30477720397E+02  0.16692892256E+01 -0.92218192127E+01  0.31886045799E+02  0.00000000000E+00 0.  1.
         11    1    3    3    0    0  0.17080486367E+02 -0.43313378609E+01 -0.18090168691E+01  0.17713724749E+02  0.51100000000E-03 0. -1.
        -11    1    3    3    0    0  0.17676003445E+02  0.10103069004E+02  0.20441639489E+02  0.28850887791E+02  0.51100000000E-03 0.  1.
        -12    1    3    3    0    0 -0.42787694152E+01 -0.74410203687E+01 -0.94108034067E+01  0.12737341661E+02  0.00000000000E+00 0.  1.
</event>
<event>
 7    1  0.6830263E-012  0.5930193E+02  0.7816164E-02  0.1266605E+00
        -11   -1    0    0    0    0  0.00000000000E+00  0.00000000000E+00  0.45593999997E+02  0.45594000000E+02  0.51100000000E-03 0.  1.
         11   -1    0    0    0    0 -0.00000000000E+00 -0.00000000000E+00 -0.45593999997E+02  0.45594000000E+02  0.51100000000E-03 0. -1.
    9900012    2    1    2    0    0  0.45952433981E+01  0.28371920249E+02 -0.13807212940E+02  0.59301933299E+02  0.49999980434E+02 0.  0.
        -12    1    1    2    0    0 -0.45952433981E+01 -0.28371920249E+02  0.13807212940E+02  0.31886066701E+02  0.00000000000E+00 0.  1.
         11    1    3    3    0    0  0.10749741310E+02  0.54947402650E+01 -0.14501175487E+02  0.18868842030E+02  0.51100000000E-03 0. -1.
        -11    1    3    3    0    0  0.91861991722E+01  0.21324513966E+02 -0.54248860558E+01  0.23844297853E+02  0.51100000000E-03 0.  1.
        -12    1    3    3    0    0 -0.15340697084E+02  0.15526660179E+01  0.61188486031E+01  0.16588793416E+02  0.00000000000E+00 0.  1.
</event>
<event>
 7    1  0.6830263E-012  0.5930194E+02  0.7816164E-02  0.1266605E+00
        -11   -1    0    0    0    0  0.00000000000E+00  0.00000000000E+00  0.45593999997E+02  0.45594000000E+02  0.51100000000E-03 0.  1.
         11   -1    0    0    0    0 -0.00000000000E+00 -0.00000000000E+00 -0.45593999997E+02  0.45594000000E+02  0.51100000000E-03 0. -1.
    9900012    2    1    2    0    0  0.27806384550E+02  0.30673063334E+01  0.15300895731E+02  0.59301940349E+02  0.49999993292E+02 0.  0.
        -12    1    1    2    0    0 -0.27806384550E+02 -0.30673063334E+01 -0.15300895731E+02  0.31886059651E+02  0.00000000000E+00 0.  1.
         11    1    3    3    0    0  0.19944814916E+01  0.12440292197E+02  0.86743077907E+01  0.15296484638E+02  0.51100000000E-03 0. -1.
        -11    1    3    3    0    0 -0.48294560355E+01 -0.10206847844E+02  0.71194669744E+01  0.13348790161E+02  0.51100000000E-03 0.  1.
         12    1    3    3    0    0  0.30641359094E+02  0.83386198022E+00 -0.49287903431E+00  0.30656665550E+02  0.00000000000E+00 0. -1.
</event>
<event>
 7    1  0.6830263E-012  0.5930193E+02  0.7816164E-02  0.1266605E+00
        -11   -1    0    0    0    0  0.00000000000E+00  0.00000000000E+00  0.45593999997E+02  0.45594000000E+02  0.51100000000E-03 0.  1.
         11   -1    0    0    0    0 -0.00000000000E+00 -0.00000000000E+00 -0.45593999997E+02  0.45594000000E+02  0.51100000000E-03 0. -1.
    9900012    2    1    2    0    0  0.24927702346E+02  0.19869085006E+02  0.74213593646E+00  0.59301927038E+02  0.49999969014E+02 0.  0.
        -12    1    1    2    0    0 -0.24927702346E+02 -0.19869085006E+02 -0.74213593646E+00  0.31886072962E+02  0.00000000000E+00 0.  1.
         11    1    3    3    0    0  0.65226924428E+01  0.11067561305E+02 -0.65809280478E+01  0.14434162399E+02  0.51100000000E-03 0. -1.
        -11    1    3    3    0    0  0.29634843048E+02  0.63375620418E+00  0.11295827031E+01  0.29663134135E+02  0.51100000000E-03 0.  1.
         12    1    3    3    0    0 -0.11229833145E+02  0.81677674968E+01  0.61934812812E+01  0.15204630503E+02  0.00000000000E+00 0. -1.
</event>
<event>
 7    1  0.6830263E-012  0.5930194E+02  0.7816164E-02  0.1266605E+00
        -11   -1    0    0    0    0  0.00000000000E+00  0.00000000000E+00  0.45593999997E+02  0.45594000000E+02  0.51100000000E-03 0.  1.
         11   -1    0    0    0    0 -0.00000000000E+00 -0.00000000000E+00 -0.45593999997E+02  0.45594000000E+02  0.51100000000E-03 0. -1.
    9900012    2    1    2    0    0  0.15198543980E+02 -0.25011556038E+02 -0.12654918503E+02  0.59301942908E+02  0.49999997958E+02 0.  0.
        -12    1    1    2    0    0 -0.15198543980E+02  0.25011556038E+02  0.12654918503E+02  0.31886057092E+02  0.00000000000E+00 0.  1.
         11    1    3    3    0    0  0.47784153592E+01  0.10847659785E+02 -0.11891941066E+02  0.16790569935E+02  0.51100000000E-03 0. -1.
        -11    1    3    3    0    0  0.10222457906E+02 -0.10376769697E+02  0.65913367442E+01  0.15988174233E+02  0.51100000000E-03 0.  1.
         12    1    3    3    0    0  0.19767071497E+00 -0.25482446127E+02 -0.73543141809E+01  0.26523198740E+02  0.00000000000E+00 0. -1.
</event>
<event>
 7    1  0.6830263E-012  0.5930194E+02  0.7816164E-02  0.1266605E+00
        -11   -1    0    0    0    0  0.00000000000E+00  0.00000000000E+00  0.45593999997E+02  0.45594000000E+02  0.51100000000E-03 0.  1.
         11   -1    0    0    0    0 -0.00000000000E+00 -0.00000000000E+00 -0.45593999997E+02  0.45594000000E+02  0.51100000000E-03 0. -1.
    9900012    2    1    2    0    0  0.11351586277E+02 -0.64292496037E+01 -0.29095139316E+02  0.59301938887E+02  0.49999990624E+02 0.  0.
        -12    1    1    2    0    0 -0.11351586277E+02  0.64292496037E+01  0.29095139316E+02  0.31886061113E+02  0.00000000000E+00 0.  1.
         11    1    3    3    0    0  0.35004991733E+01  0.57610340355E+01 -0.73678684495E+01  0.99864154415E+01  0.51100000000E-03 0. -1.
        -11    1    3    3    0    0  0.23870298150E+02 -0.11525857732E+02 -0.66996245307E+01  0.27340839404E+02  0.51100000000E-03 0.  1.
         12    1    3    3    0    0 -0.16019211046E+02 -0.66442590760E+00 -0.15027646336E+02  0.21974684041E+02  0.00000000000E+00 0. -1.
</event>
<event>
 7    1  0.6830263E-012  0.5930184E+02  0.7816164E-02  0.1266605E+00
        -11   -1    0    0    0    0  0.00000000000E+00  0.00000000000E+00  0.45593999997E+02  0.45594000000E+02  0.51100000000E-03 0.  1.
         11   -1    0    0    0    0 -0.00000000000E+00 -0.00000000000E+00 -0.45593999997E+02  0.45594000000E+02  0.51100000000E-03 0. -1.
    9900012    2    1    2    0    0 -0.72701740140E+01 -0.22129868703E+02 -0.21774773883E+02  0.59301838478E+02  0.49999807501E+02 0.  0.
        -12    1    1    2    0    0  0.72701740140E+01  0.22129868703E+02  0.21774773883E+02  0.31886161522E+02  0.00000000000E+00 0.  1.
         11    1    3    3    0    0  0.27849225108E+01 -0.89781385740E+00 -0.12490722618E+02  0.12828874265E+02  0.51100000000E-03 0. -1.
        -11    1    3    3    0    0  0.13083488062E+02  0.11047014084E+01 -0.49002163111E+01  0.14014640388E+02  0.51100000000E-03 0.  1.
         12    1    3    3    0    0 -0.23138584586E+02 -0.22336756254E+02 -0.43838349535E+01  0.32458323825E+02  0.00000000000E+00 0. -1.
</event>
<event>
 7    1  0.6830263E-012  0.5930194E+02  0.7816164E-02  0.1266605E+00
        -11   -1    0    0    0    0  0.00000000000E+00  0.00000000000E+00  0.45593999997E+02  0.45594000000E+02  0.51100000000E-03 0. -1.
         11   -1    0    0    0    0 -0.00000000000E+00 -0.00000000000E+00 -0.45593999997E+02  0.45594000000E+02  0.51100000000E-03 0.  1.
    9900012    2    1    2    0    0 -0.14963785196E+02 -0.47475939653E+01  0.27753673795E+02  0.59301938390E+02  0.49999989718E+02 0.  0.
        -12    1    1    2    0    0  0.14963785196E+02  0.47475939653E+01 -0.27753673795E+02  0.31886061610E+02  0.00000000000E+00 0.  1.
         11    1    3    3    0    0 -0.11992774773E+02 -0.56658726606E+01 -0.43206279351E+01  0.13949788019E+02  0.51100000000E-03 0. -1.
        -11    1    3    3    0    0 -0.15183902904E+02  0.18348357946E+01  0.57883111439E+01  0.16353044853E+02  0.51100000000E-03 0.  1.
         12    1    3    3    0    0  0.12212892482E+02 -0.91655709927E+00  0.26285990587E+02  0.28999105517E+02  0.00000000000E+00 0. -1.
</event>
<event>
 7    1  0.6830263E-012  0.5930193E+02  0.7816164E-02  0.1266605E+00
        -11   -1    0    0    0    0  0.00000000000E+00  0.00000000000E+00  0.45593999997E+02  0.45594000000E+02  0.51100000000E-03 0. -1.
         11   -1    0    0    0    0 -0.00000000000E+00 -0.00000000000E+00 -0.45593999997E+02  0.45594000000E+02  0.51100000000E-03 0.  1.
    9900012    2    1    2    0    0  0.31575252686E+02 -0.35268125894E+01 -0.26993290417E+01  0.59301931467E+02  0.49999977092E+02 0.  0.
        -12    1    1    2    0    0 -0.31575252686E+02  0.35268125894E+01  0.26993290417E+01  0.31886068533E+02  0.00000000000E+00 0.  1.
         11    1    3    3    0    0  0.17356575079E+02  0.10437790679E+02  0.19574077488E+00  0.20254295530E+02  0.51100000000E-03 0. -1.
        -11    1    3    3    0    0  0.68784401820E+00 -0.70153177303E+01 -0.16937530320E+02  0.18345782781E+02  0.51100000000E-03 0.  1.
         12    1    3    3    0    0  0.13530833589E+02 -0.69492855377E+01  0.14042460503E+02  0.20701853156E+02  0.00000000000E+00 0. -1.
</event>
<event>
 7    1  0.6830263E-012  0.5930196E+02  0.7816164E-02  0.1266605E+00
        -11   -1    0    0    0    0  0.00000000000E+00  0.00000000000E+00  0.45593999997E+02  0.45594000000E+02  0.51100000000E-03 0.  1.
         11   -1    0    0    0    0 -0.00000000000E+00 -0.00000000000E+00 -0.45593999997E+02  0.45594000000E+02  0.51100000000E-03 0. -1.
    9900012    2    1    2    0    0  0.15099600592E+02 -0.70710995803E+01 -0.27179430225E+02  0.59301955801E+02  0.50000021472E+02 0.  0.
        -12    1    1    2    0    0 -0.15099600592E+02  0.70710995803E+01  0.27179430225E+02  0.31886044199E+02  0.00000000000E+00 0.  1.
         11    1    3    3    0    0  0.20644339440E+02  0.39112153338E+01 -0.88756299523E+01  0.22809278016E+02  0.51100000000E-03 0. -1.
        -11    1    3    3    0    0  0.95281826942E+01 -0.68610754297E+00  0.13749875069E+01  0.96513004263E+01  0.51100000000E-03 0.  1.
        -12    1    3    3    0    0 -0.15072921542E+02 -0.10296207371E+02 -0.19678787779E+02  0.26841377359E+02  0.00000000000E+00 0.  1.
</event>
<event>
 7    1  0.6830263E-012  0.5930195E+02  0.7816164E-02  0.1266605E+00
        -11   -1    0    0    0    0  0.00000000000E+00  0.00000000000E+00  0.45593999997E+02  0.45594000000E+02  0.51100000000E-03 0. -1.
         11   -1    0    0    0    0 -0.00000000000E+00 -0.00000000000E+00 -0.45593999997E+02  0.45594000000E+02  0.51100000000E-03 0.  1.
    9900012    2    1    2    0    0 -0.83716095359E+01  0.22620629792E+02  0.20855304321E+02  0.59301945733E+02  0.50000003110E+02 0.  0.
        -12    1    1    2    0    0  0.83716095359E+01 -0.22620629792E+02 -0.20855304321E+02  0.31886054267E+02  0.00000000000E+00 0.  1.
         11    1    3    3    0    0  0.88480435131E+01  0.93494827264E+01  0.46682071881E+01  0.13692803215E+02  0.51100000000E-03 0. -1.
        -11    1    3    3    0    0  0.24129386016E+01 -0.80183916312E+01  0.14320579561E+02  0.16589028792E+02  0.51100000000E-03 0.  1.
        -12    1    3    3    0    0 -0.19632591651E+02  0.21289538697E+02  0.18665175722E+01  0.29020113726E+02  0.00000000000E+00 0.  1.
</event>
<event>
 7    1  0.6830263E-012  0.5930194E+02  0.7816164E-02  0.1266605E+00
        -11   -1    0    0    0    0  0.00000000000E+00  0.00000000000E+00  0.45593999997E+02  0.45594000000E+02  0.51100000000E-03 0.  1.
         11   -1    0    0    0    0 -0.00000000000E+00 -0.00000000000E+00 -0.45593999997E+02  0.45594000000E+02  0.51100000000E-03 0. -1.
    9900012    2    1    2    0    0  0.23805686688E+01 -0.18466157829E+02 -0.25885410931E+02  0.59301943624E+02  0.49999999263E+02 0.  0.
        -12    1    1    2    0    0 -0.23805686688E+01  0.18466157829E+02  0.25885410931E+02  0.31886056376E+02  0.00000000000E+00 0.  1.
         11    1    3    3    0    0 -0.79426838997E+01 -0.94402886361E+00  0.45552692512E+01  0.92047757299E+01  0.51100000000E-03 0. -1.
        -11    1    3    3    0    0  0.16688269768E+02 -0.58469214823E+01 -0.90491342015E+00  0.17706035898E+02  0.51100000000E-03 0.  1.
        -12    1    3    3    0    0 -0.63650171992E+01 -0.11675207484E+02 -0.29535766762E+02  0.32391131996E+02  0.00000000000E+00 0.  1.
</event>
<event>
 7    1  0.6830263E-012  0.5930194E+02  0.7816164E-02  0.1266605E+00
        -11   -1    0    0    0    0  0.00000000000E+00  0.00000000000E+00  0.45593999997E+02  0.45594000000E+02  0.51100000000E-03 0.  1.
         11   -1    0    0    0    0 -0.00000000000E+00 -0.00000000000E+00 -0.45593999997E+02  0.45594000000E+02  0.51100000000E-03 0. -1.
    9900012    2    1    2    0    0  0.93418312642E-01 -0.18082193275E+02 -0.26263024683E+02  0.59301938686E+02  0.49999990258E+02 0.  0.
        -12    1    1    2    0    0 -0.93418312642E-01  0.18082193275E+02  0.26263024683E+02  0.31886061314E+02  0.00000000000E+00 0.  1.
         11    1    3    3    0    0  0.11772318939E+02 -0.10549763765E+02  0.25530076337E+01  0.16012584330E+02  0.51100000000E-03 0. -1.
        -11    1    3    3    0    0  0.67549090442E+01 -0.33851636983E+01  0.13686994238E+01  0.76786371078E+01  0.51100000000E-03 0.  1.
         12    1    3    3    0    0 -0.18433809671E+02 -0.41472658118E+01 -0.30184731740E+02  0.35610717248E+02  0.00000000000E+00 0. -1.
</event>
<event>
 7    1  0.6830263E-012  0.5930190E+02  0.7816164E-02  0.1266605E+00
        -11   -1    0    0    0    0  0.00000000000E+00  0.00000000000E+00  0.45593999997E+02  0.45594000000E+02  0.51100000000E-03 0. -1.
         11   -1    0    0    0    0 -0.00000000000E+00 -0.00000000000E+00 -0.45593999997E+02  0.45594000000E+02  0.51100000000E-03 0.  1.
    9900012    2    1    2    0    0 -0.39367856636E+01  0.15630740183E+02  0.27511907990E+02  0.59301899560E+02  0.49999918902E+02 0.  0.
        -12    1    1    2    0    0  0.39367856636E+01 -0.15630740183E+02 -0.27511907990E+02  0.31886100440E+02  0.00000000000E+00 0.  1.
         11    1    3    3    0    0 -0.21728179709E+02  0.40607855130E+01  0.10646578158E+02  0.24534738621E+02  0.51100000000E-03 0. -1.
        -11    1    3    3    0    0 -0.42997612733E+01  0.46540913602E+01  0.37820607441E+00  0.63475627994E+01  0.51100000000E-03 0.  1.
        -12    1    3    3    0    0  0.22091155319E+02  0.69158633099E+01  0.16487123758E+02  0.28419598140E+02  0.00000000000E+00 0.  1.
</event>
<event>
 7    1  0.7743141E-012  0.5930197E+02  0.7816164E-02  0.1266605E+00
        -11   -1    0    0    0    0  0.00000000000E+00  0.00000000000E+00  0.45593999997E+02  0.45594000000E+02  0.51100000000E-03 0. -1.
         11   -1    0    0    0    0 -0.00000000000E+00 -0.00000000000E+00 -0.45593999997E+02  0.45594000000E+02  0.51100000000E-03 0.  1.
    9900012    2    1    2    0    0  0.61766656756E+01 -0.17051977187E+02  0.26225900779E+02  0.59301968630E+02  0.50000044870E+02 0.  0.
        -12    1    1    2    0    0 -0.61766656756E+01  0.17051977187E+02 -0.26225900779E+02  0.31886031370E+02  0.00000000000E+00 0.  1.
         11    1    3    3    0    0  0.91248610694E+00 -0.19674899030E+02  0.15475670706E+02  0.25048566163E+02  0.51100000000E-03 0. -1.
        -11    1    3    3    0    0 -0.10141606642E+02  0.93895339192E+01 -0.80046310203E+00  0.13843997759E+02  0.51100000000E-03 0.  1.
         12    1    3    3    0    0  0.15405786211E+02 -0.67666120760E+01  0.11550693175E+02  0.20409404709E+02  0.00000000000E+00 0. -1.
</event>
<event>
 7    1  0.6830263E-012  0.5930193E+02  0.7816164E-02  0.1266605E+00
        -11   -1    0    0    0    0  0.00000000000E+00  0.00000000000E+00  0.45593999997E+02  0.45594000000E+02  0.51100000000E-03 0.  1.
         11   -1    0    0    0    0 -0.00000000000E+00 -0.00000000000E+00 -0.45593999997E+02  0.45594000000E+02  0.51100000000E-03 0. -1.
    9900012    2    1    2    0    0  0.15730844278E+01 -0.38194718303E+01 -0.31617373036E+02  0.59301933492E+02  0.49999980785E+02 0.  0.
        -12    1    1    2    0    0 -0.15730844278E+01  0.38194718303E+01  0.31617373036E+02  0.31886066508E+02  0.00000000000E+00 0.  1.
         11    1    3    3    0    0 -0.69146076001E+01 -0.18734229676E+02 -0.11035851437E+02  0.22816072779E+02  0.51100000000E-03 0.  1.
        -11    1    3    3    0    0 -0.73540411286E+01  0.96695197498E+01 -0.14029317023E+02  0.18558105224E+02  0.51100000000E-03 0. -1.
        -12    1    3    3    0    0  0.15841733156E+02  0.52452380963E+01 -0.65522045757E+01  0.17927755489E+02  0.00000000000E+00 0.  1.
</event>
