<event>
 8    1  0.7489580E-009  0.9118800E+02  0.7816164E-02  0.1184000E+00
        -11   -1    0    0    0    0  0.00000000000E+00  0.00000000000E+00  0.45593999997E+02  0.45594000000E+02  0.51100000000E-03 0. -1.
         11   -1    0    0    0    0 -0.00000000000E+00 -0.00000000000E+00 -0.45593999997E+02  0.45594000000E+02  0.51100000000E-03 0.  1.
         23    2    1    2    0    0  0.71054273576E-14 -0.88817841970E-15  0.00000000000E+00  0.91188000000E+02  0.91188000000E+02 0.  0.
    9900012    2    3    3    0    0  0.29209499333E+02 -0.46907178583E+01 -0.33969336157E+02  0.46142317807E+02  0.10000000416E+02 0.  0.
         12    1    3    3    0    0 -0.29209499333E+02  0.46907178583E+01  0.33969336157E+02  0.45045682193E+02  0.00000000000E+00 0. -1.
         11    1    4    4    0    0  0.27356725288E+01 -0.39311176995E+00 -0.69861559659E+00  0.28507025557E+01  0.51100000000E-03 0. -1.
        -11    1    4    4    0    0  0.11840367696E+02 -0.36354971392E+01 -0.10612238613E+02  0.16310449266E+02  0.51100000000E-03 0.  1.
        -12    1    4    4    0    0  0.14633459109E+02 -0.66210894906E+00 -0.22658481948E+02  0.26981165985E+02  0.00000000000E+00 0.  1.
</event>
<event>
 8    1  0.7489580E-009  0.9118800E+02  0.7816164E-02  0.1184000E+00
        -11   -1    0    0    0    0  0.00000000000E+00  0.00000000000E+00  0.45593999997E+02  0.45594000000E+02  0.51100000000E-03 0. -1.
         11   -1    0    0    0    0 -0.00000000000E+00 -0.00000000000E+00 -0.45593999997E+02  0.45594000000E+02  0.51100000000E-03 0.  1.
         23    2    1    2    0    0  0.00000000000E+00  0.00000000000E+00  0.00000000000E+00  0.91188000000E+02  0.91188000000E+02 0.  0.
    9900012    2    3    3    0    0 -0.23387086913E+02 -0.23827206936E+02  0.30239412974E+02  0.46142315172E+02  0.99999763877E+01 0.  0.
        -12    1    3    3    0    0  0.23387086913E+02  0.23827206936E+02 -0.30239412974E+02  0.45045684828E+02  0.00000000000E+00 0.  1.
         11    1    4    4    0    0 -0.16312968353E+02 -0.97179896094E+01  0.16297586974E+02  0.25023261178E+02  0.51100000000E-03 0. -1.
        -11    1    4    4    0    0 -0.40848705662E+01 -0.67246310290E+01  0.75593574779E+01  0.10911036420E+02  0.51100000000E-03 0.  1.
         12    1    4    4    0    0 -0.29892479937E+01 -0.73845862977E+01  0.63824685216E+01  0.10208017574E+02  0.00000000000E+00 0. -1.
</event>
<event>
 8    1  0.7489580E-009  0.9118800E+02  0.7816164E-02  0.1184000E+00
        -11   -1    0    0    0    0  0.00000000000E+00  0.00000000000E+00  0.45593999997E+02  0.45594000000E+02  0.51100000000E-03 0.  1.
         11   -1    0    0    0    0 -0.00000000000E+00 -0.00000000000E+00 -0.45593999997E+02  0.45594000000E+02  0.51100000000E-03 0. -1.
         23    2    1    2    0    0  0.00000000000E+00 -0.88817841970E-15  0.00000000000E+00  0.91188000000E+02  0.91188000000E+02 0.  0.
    9900012    2    3    3    0    0 -0.43177123962E+02 -0.61449731802E+01 -0.11273363591E+02  0.46142318124E+02  0.10000003311E+02 0.  0.
         12    1    3    3    0    0  0.43177123962E+02  0.61449731802E+01  0.11273363591E+02  0.45045681876E+02  0.00000000000E+00 0. -1.
         11    1    4    4    0    0 -0.10277445632E+02 -0.29325412258E+01  0.14689558246E+00  0.10688651241E+02  0.51100000000E-03 0. -1.
        -11    1    4    4    0    0 -0.20147962241E+02 -0.47501000629E+01 -0.64578271962E+01  0.21684265388E+02  0.51100000000E-03 0.  1.
        -12    1    4    4    0    0 -0.12751716089E+02  0.15376681085E+01 -0.49624319770E+01  0.13769401496E+02  0.00000000000E+00 0.  1.
</event>
<event>
 8    1  0.7489580E-009  0.9118800E+02  0.7816164E-02  0.1184000E+00
        -11   -1    0    0    0    0  0.00000000000E+00  0.00000000000E+00  0.45593999997E+02  0.45594000000E+02  0.51100000000E-03 0. -1.
         11   -1    0    0    0    0 -0.00000000000E+00 -0.00000000000E+00 -0.45593999997E+02  0.45594000000E+02  0.51100000000E-03 0.  1.
         23    2    1    2    0    0  0.00000000000E+00  0.00000000000E+00  0.00000000000E+00  0.91188000000E+02  0.91188000000E+02 0.  0.
    9900012    2    3    3    0    0 -0.61076820876E+01 -0.91226719703E+01  0.43687373455E+02  0.46142317368E+02  0.99999964161E+01 0.  0.
        -12    1    3    3    0    0  0.61076820876E+01  0.91226719703E+01 -0.43687373455E+02  0.45045682632E+02  0.00000000000E+00 0.  1.
         11    1    4    4    0    0 -0.34502383696E+01 -0.27934711131E+01  0.19380793914E+02  0.19882726138E+02  0.51100000000E-03 0. -1.
        -11    1    4    4    0    0 -0.42846516177E+01 -0.53366098672E+01  0.22872099441E+02  0.23874056578E+02  0.51100000000E-03 0.  1.
        -12    1    4    4    0    0  0.16272078997E+01 -0.99259099005E+00  0.14344800999E+01  0.23855346527E+01  0.00000000000E+00 0.  1.
</event>
<event>
 8    1  0.7489580E-009  0.9118800E+02  0.7816164E-02  0.1184000E+00
        -11   -1    0    0    0    0  0.00000000000E+00  0.00000000000E+00  0.45593999997E+02  0.45594000000E+02  0.51100000000E-03 0. -1.
         11   -1    0    0    0    0 -0.00000000000E+00 -0.00000000000E+00 -0.45593999997E+02  0.45594000000E+02  0.51100000000E-03 0.  1.
         23    2    1    2    0    0  0.00000000000E+00  0.00000000000E+00 -0.71054273576E-14  0.91188000000E+02  0.91188000000E+02 0.  0.
    9900012    2    3    3    0    0  0.17627340080E+02  0.18124960869E+00  0.41453076304E+02  0.46142317579E+02  0.99999983400E+01 0.  0.
        -12    1    3    3    0    0 -0.17627340080E+02 -0.18124960869E+00 -0.41453076304E+02  0.45045682421E+02  0.00000000000E+00 0.  1.
         11    1    4    4    0    0  0.45083813980E+01 -0.14643274114E+01  0.10554707676E+02  0.11570290056E+02  0.51100000000E-03 0. -1.
        -11    1    4    4    0    0  0.10220585589E+02  0.85706557636E+00  0.13702999833E+02  0.17116282770E+02  0.51100000000E-03 0.  1.
        -12    1    4    4    0    0  0.28983730932E+01  0.78851144374E+00  0.17195368794E+02  0.17455744752E+02  0.00000000000E+00 0.  1.
</event>
<event>
 8    1  0.7489580E-009  0.9118800E+02  0.7816164E-02  0.1184000E+00
        -11   -1    0    0    0    0  0.00000000000E+00  0.00000000000E+00  0.45593999997E+02  0.45594000000E+02  0.51100000000E-03 0. -1.
         11   -1    0    0    0    0 -0.00000000000E+00 -0.00000000000E+00 -0.45593999997E+02  0.45594000000E+02  0.51100000000E-03 0.  1.
         23    2    1    2    0    0  0.00000000000E+00  0.35527136788E-14  0.00000000000E+00  0.91188000000E+02  0.91188000000E+02 0.  0.
    9900012    2    3    3    0    0  0.30609954945E+02  0.31334243625E+02  0.10502824796E+02  0.46142317699E+02  0.99999994325E+01 0.  0.
        -12    1    3    3    0    0 -0.30609954945E+02 -0.31334243625E+02 -0.10502824796E+02  0.45045682301E+02  0.00000000000E+00 0.  1.
         11    1    4    4    0    0  0.21091079378E+02  0.25063783482E+02  0.10013389733E+02  0.34253391744E+02  0.51100000000E-03 0. -1.
        -11    1    4    4    0    0  0.74428132954E+01  0.63339194441E+01  0.88368416800E-01  0.97735262067E+01  0.51100000000E-03 0.  1.
        -12    1    4    4    0    0  0.20760622718E+01 -0.63459301619E-01  0.40106664654E+00  0.21153997481E+01  0.00000000000E+00 0.  1.
</event>
<event>
 8    1  0.7489580E-009  0.9118800E+02  0.7816164E-02  0.1184000E+00
        -11   -1    0    0    0    0  0.00000000000E+00  0.00000000000E+00  0.45593999997E+02  0.45594000000E+02  0.51100000000E-03 0. -1.
         11   -1    0    0    0    0 -0.00000000000E+00 -0.00000000000E+00 -0.45593999997E+02  0.45594000000E+02  0.51100000000E-03 0.  1.
         23    2    1    2    0    0  0.00000000000E+00  0.00000000000E+00  0.00000000000E+00  0.91188000000E+02  0.91188000000E+02 0.  0.
    9900012    2    3    3    0    0 -0.42625375972E+02  0.43540944060E+01  0.13900818383E+02  0.46142316893E+02  0.99999920884E+01 0.  0.
        -12    1    3    3    0    0  0.42625375972E+02 -0.43540944060E+01 -0.13900818383E+02  0.45045683107E+02  0.00000000000E+00 0.  1.
         11    1    4    4    0    0 -0.29710147808E+02 -0.13995489803E+01  0.10883135128E+02  0.31671663212E+02  0.51100000000E-03 0. -1.
        -11    1    4    4    0    0 -0.70475214402E+00  0.28276484284E+00  0.30524703768E+00  0.81841771485E+00  0.51100000000E-03 0.  1.
         12    1    4    4    0    0 -0.12210476020E+02  0.54708785434E+01  0.27124362165E+01  0.13652235967E+02  0.00000000000E+00 0. -1.
</event>
<event>
 8    1  0.7489580E-009  0.9118800E+02  0.7816164E-02  0.1184000E+00
        -11   -1    0    0    0    0  0.00000000000E+00  0.00000000000E+00  0.45593999997E+02  0.45594000000E+02  0.51100000000E-03 0.  1.
         11   -1    0    0    0    0 -0.00000000000E+00 -0.00000000000E+00 -0.45593999997E+02  0.45594000000E+02  0.51100000000E-03 0. -1.
         23    2    1    2    0    0  0.00000000000E+00  0.71054273576E-14 -0.35527136788E-14  0.91188000000E+02  0.91188000000E+02 0.  0.
    9900012    2    3    3    0    0 -0.53210649473E+01  0.40661728521E+02 -0.18639295941E+02  0.46142320388E+02  0.10000023957E+02 0.  0.
        -12    1    3    3    0    0  0.53210649473E+01 -0.40661728521E+02  0.18639295941E+02  0.45045679612E+02  0.00000000000E+00 0.  1.
         11    1    4    4    0    0 -0.19282689278E+01  0.19651097597E+02 -0.89981484565E+01  0.21699090620E+02  0.51100000000E-03 0. -1.
        -11    1    4    4    0    0  0.11226806637E+01  0.69640726173E+01 -0.46770496625E+00  0.70694743431E+01  0.51100000000E-03 0.  1.
        -12    1    4    4    0    0 -0.45154766832E+01  0.14046558307E+02 -0.91734425181E+01  0.17373755426E+02  0.00000000000E+00 0.  1.
</event>
<event>
 8    1  0.7489580E-009  0.9118800E+02  0.7816164E-02  0.1184000E+00
        -11   -1    0    0    0    0  0.00000000000E+00  0.00000000000E+00  0.45593999997E+02  0.45594000000E+02  0.51100000000E-03 0.  1.
         11   -1    0    0    0    0 -0.00000000000E+00 -0.00000000000E+00 -0.45593999997E+02  0.45594000000E+02  0.51100000000E-03 0. -1.
         23    2    1    2    0    0  0.00000000000E+00  0.00000000000E+00 -0.35527136788E-14  0.91188000000E+02  0.91188000000E+02 0.  0.
    9900012    2    3    3    0    0  0.39620151892E+02 -0.36065051560E+01  0.21127001661E+02  0.46142317470E+02  0.99999973440E+01 0.  0.
         12    1    3    3    0    0 -0.39620151892E+02  0.36065051560E+01 -0.21127001661E+02  0.45045682530E+02  0.00000000000E+00 0. -1.
         11    1    4    4    0    0  0.10255436495E+00  0.53276847508E+00  0.13167832104E+00  0.55830017657E+00  0.51100000000E-03 0. -1.
        -11    1    4    4    0    0  0.18159686358E+02 -0.56816151377E+01  0.91670739915E+01  0.21120847640E+02  0.51100000000E-03 0.  1.
        -12    1    4    4    0    0  0.21357911169E+02  0.15423415066E+01  0.11828249349E+02  0.24463169653E+02  0.00000000000E+00 0.  1.
</event>
<event>
 8    1  0.7489580E-009  0.9118800E+02  0.7816164E-02  0.1184000E+00
        -11   -1    0    0    0    0  0.00000000000E+00  0.00000000000E+00  0.45593999997E+02  0.45594000000E+02  0.51100000000E-03 0. -1.
         11   -1    0    0    0    0 -0.00000000000E+00 -0.00000000000E+00 -0.45593999997E+02  0.45594000000E+02  0.51100000000E-03 0.  1.
         23    2    1    2    0    0  0.00000000000E+00  0.00000000000E+00 -0.71054273576E-14  0.91188000000E+02  0.91188000000E+02 0.  0.
    9900012    2    3    3    0    0 -0.31794038731E+01  0.13098048935E+02  0.42981926250E+02  0.46142317864E+02  0.10000000943E+02 0.  0.
        -12    1    3    3    0    0  0.31794038731E+01 -0.13098048935E+02 -0.42981926250E+02  0.45045682136E+02  0.00000000000E+00 0.  1.
         11    1    4    4    0    0  0.89738903267E+00  0.83158905537E+00  0.70625601446E+01  0.71677474489E+01  0.51100000000E-03 0. -1.
        -11    1    4    4    0    0 -0.49142571735E+00  0.46103189941E+01  0.45883110159E+01  0.65229700829E+01  0.51100000000E-03 0.  1.
        -12    1    4    4    0    0 -0.35853671884E+01  0.76561408857E+01  0.31331055089E+02  0.32451600333E+02  0.00000000000E+00 0.  1.
</event>
<event>
 8    1  0.7489580E-009  0.9118800E+02  0.7816164E-02  0.1184000E+00
        -11   -1    0    0    0    0  0.00000000000E+00  0.00000000000E+00  0.45593999997E+02  0.45594000000E+02  0.51100000000E-03 0.  1.
         11   -1    0    0    0    0 -0.00000000000E+00 -0.00000000000E+00 -0.45593999997E+02  0.45594000000E+02  0.51100000000E-03 0. -1.
         23    2    1    2    0    0  0.00000000000E+00  0.00000000000E+00  0.00000000000E+00  0.91188000000E+02  0.91188000000E+02 0.  0.
    9900012    2    3    3    0    0  0.15249917210E+02 -0.41755019701E+02  0.72850108276E+01  0.46142322872E+02  0.10000046603E+02 0.  0.
        -12    1    3    3    0    0 -0.15249917210E+02  0.41755019701E+02 -0.72850108276E+01  0.45045677128E+02  0.00000000000E+00 0.  1.
         11    1    4    4    0    0  0.57940534370E+01 -0.11620917944E+02  0.35284675110E+01  0.13456109108E+02  0.51100000000E-03 0. -1.
        -11    1    4    4    0    0  0.38791683860E+00 -0.49187281956E+01  0.32062385395E+01  0.58842444179E+01  0.51100000000E-03 0.  1.
        -12    1    4    4    0    0  0.90679469346E+01 -0.25215373562E+02  0.55030477707E+00  0.26801969346E+02  0.00000000000E+00 0.  1.
</event>
<event>
 8    1  0.7489580E-009  0.9118800E+02  0.7816164E-02  0.1184000E+00
        -11   -1    0    0    0    0  0.00000000000E+00  0.00000000000E+00  0.45593999997E+02  0.45594000000E+02  0.51100000000E-03 0. -1.
         11   -1    0    0    0    0 -0.00000000000E+00 -0.00000000000E+00 -0.45593999997E+02  0.45594000000E+02  0.51100000000E-03 0.  1.
         23    2    1    2    0    0  0.00000000000E+00  0.00000000000E+00  0.71054273576E-14  0.91188000000E+02  0.91188000000E+02 0.  0.
    9900012    2    3    3    0    0 -0.81730403407E+01  0.84430262566E+01 -0.43485976606E+02  0.46142318274E+02  0.10000004681E+02 0.  0.
         12    1    3    3    0    0  0.81730403407E+01 -0.84430262566E+01  0.43485976606E+02  0.45045681726E+02  0.00000000000E+00 0. -1.
         11    1    4    4    0    0 -0.77446158297E+00  0.21894064070E+01 -0.23406463931E+01  0.32972590067E+01  0.51100000000E-03 0. -1.
        -11    1    4    4    0    0 -0.12162554884E+01  0.52447418312E+01 -0.14335977055E+02  0.15313615924E+02  0.51100000000E-03 0.  1.
        -12    1    4    4    0    0 -0.61823232694E+01  0.10088780185E+01 -0.26809353157E+02  0.27531443344E+02  0.00000000000E+00 0.  1.
</event>
<event>
 8    1  0.7489580E-009  0.9118800E+02  0.7816164E-02  0.1184000E+00
        -11   -1    0    0    0    0  0.00000000000E+00  0.00000000000E+00  0.45593999997E+02  0.45594000000E+02  0.51100000000E-03 0. -1.
         11   -1    0    0    0    0 -0.00000000000E+00 -0.00000000000E+00 -0.45593999997E+02  0.45594000000E+02  0.51100000000E-03 0.  1.
         23    2    1    2    0    0  0.00000000000E+00  0.00000000000E+00  0.00000000000E+00  0.91188000000E+02  0.91188000000E+02 0.  0.
    9900012    2    3    3    0    0 -0.18968568669E+02 -0.34435155294E+02 -0.21989247728E+02  0.46142317264E+02  0.99999954680E+01 0.  0.
         12    1    3    3    0    0  0.18968568669E+02  0.34435155294E+02  0.21989247728E+02  0.45045682736E+02  0.00000000000E+00 0. -1.
         11    1    4    4    0    0 -0.69765127515E+01 -0.13585076699E+02 -0.12270091249E+02  0.19590333805E+02  0.51100000000E-03 0. -1.
        -11    1    4    4    0    0 -0.19103091138E+01 -0.37390583443E+01 -0.42006567863E+01  0.59393060124E+01  0.51100000000E-03 0.  1.
         12    1    4    4    0    0 -0.10081746804E+02 -0.17111020251E+02 -0.55184996932E+01  0.20612677447E+02  0.00000000000E+00 0. -1.
</event>
<event>
 8    1  0.7489580E-009  0.9118800E+02  0.7816164E-02  0.1184000E+00
        -11   -1    0    0    0    0  0.00000000000E+00  0.00000000000E+00  0.45593999997E+02  0.45594000000E+02  0.51100000000E-03 0. -1.
         11   -1    0    0    0    0 -0.00000000000E+00 -0.00000000000E+00 -0.45593999997E+02  0.45594000000E+02  0.51100000000E-03 0.  1.
         23    2    1    2    0    0  0.00000000000E+00  0.00000000000E+00  0.00000000000E+00  0.91188000000E+02  0.91188000000E+02 0.  0.
    9900012    2    3    3    0    0 -0.17770322181E+01  0.36108814524E+02 -0.26872089316E+02  0.46142317476E+02  0.99999973999E+01 0.  0.
         12    1    3    3    0    0  0.17770322181E+01 -0.36108814524E+02  0.26872089316E+02  0.45045682524E+02  0.00000000000E+00 0. -1.
         11    1    4    4    0    0  0.18268318952E+01  0.31837433068E+01 -0.41460767926E+01  0.55374623474E+01  0.51100000000E-03 0. -1.
        -11    1    4    4    0    0 -0.45603835231E+00  0.22785107352E+02 -0.17711676897E+02  0.28862996843E+02  0.51100000000E-03 0.  1.
        -12    1    4    4    0    0 -0.31478257610E+01  0.10139963866E+02 -0.50143356262E+01  0.11741858285E+02  0.00000000000E+00 0.  1.
</event>
<event>
 8    1  0.7489580E-009  0.9118800E+02  0.7816164E-02  0.1184000E+00
        -11   -1    0    0    0    0  0.00000000000E+00  0.00000000000E+00  0.45593999997E+02  0.45594000000E+02  0.51100000000E-03 0. -1.
         11   -1    0    0    0    0 -0.00000000000E+00 -0.00000000000E+00 -0.45593999997E+02  0.45594000000E+02  0.51100000000E-03 0.  1.
         23    2    1    2    0    0  0.00000000000E+00  0.00000000000E+00 -0.35527136788E-14  0.91188000000E+02  0.91188000000E+02 0.  0.
    9900012    2    3    3    0    0 -0.84463116918E+01  0.33902510291E+02  0.28432256051E+02  0.46142316862E+02  0.99999917985E+01 0.  0.
        -12    1    3    3    0    0  0.84463116918E+01 -0.33902510291E+02 -0.28432256051E+02  0.45045683138E+02  0.00000000000E+00 0.  1.
         11    1    4    4    0    0 -0.38685180601E+01  0.10581414884E+02  0.51460158921E+01  0.12386010365E+02  0.51100000000E-03 0. -1.
        -11    1    4    4    0    0 -0.24139015241E+01  0.23975431915E+01  0.31315624737E+01  0.46240477626E+01  0.51100000000E-03 0.  1.
        -12    1    4    4    0    0 -0.21638921076E+01  0.20923552216E+02  0.20154677685E+02  0.29132258734E+02  0.00000000000E+00 0.  1.
</event>
<event>
 8    1  0.7489580E-009  0.9118800E+02  0.7816164E-02  0.1184000E+00
        -11   -1    0    0    0    0  0.00000000000E+00  0.00000000000E+00  0.45593999997E+02  0.45594000000E+02  0.51100000000E-03 0. -1.
         11   -1    0    0    0    0 -0.00000000000E+00 -0.00000000000E+00 -0.45593999997E+02  0.45594000000E+02  0.51100000000E-03 0.  1.
         23    2    1    2    0    0  0.00000000000E+00 -0.88817841970E-15  0.00000000000E+00  0.91188000000E+02  0.91188000000E+02 0.  0.
    9900012    2    3    3    0    0 -0.21221240702E+02 -0.53425267863E+01  0.39372958093E+02  0.46142317872E+02  0.10000001010E+02 0.  0.
        -12    1    3    3    0    0  0.21221240702E+02  0.53425267863E+01 -0.39372958093E+02  0.45045682128E+02  0.00000000000E+00 0.  1.
         11    1    4    4    0    0 -0.76343731280E+01 -0.51321929304E+00  0.18880103973E+02  0.20371680672E+02  0.51100000000E-03 0. -1.
        -11    1    4    4    0    0 -0.12550718509E+02 -0.61048204276E+01  0.17851050138E+02  0.22659420973E+02  0.51100000000E-03 0.  1.
         12    1    4    4    0    0 -0.10361490647E+01  0.12755129343E+01  0.26418039824E+01  0.31112162270E+01  0.00000000000E+00 0. -1.
</event>
<event>
 8    1  0.8102413E-009  0.9118800E+02  0.7816164E-02  0.1184000E+00
        -11   -1    0    0    0    0  0.00000000000E+00  0.00000000000E+00  0.45593999997E+02  0.45594000000E+02  0.51100000000E-03 0. -1.
         11   -1    0    0    0    0 -0.00000000000E+00 -0.00000000000E+00 -0.45593999997E+02  0.45594000000E+02  0.51100000000E-03 0.  1.
         23    2    1    2    0    0  0.00000000000E+00  0.00000000000E+00  0.00000000000E+00  0.91188000000E+02  0.91188000000E+02 0.  0.
    9900012    2    3    3    0    0 -0.34397924727E+02  0.11272306869E+02 -0.26811030883E+02  0.46142317580E+02  0.99999983449E+01 0.  0.
         12    1    3    3    0    0  0.34397924727E+02 -0.11272306869E+02  0.26811030883E+02  0.45045682420E+02  0.00000000000E+00 0. -1.
         11    1    4    4    0    0 -0.11532085621E+02  0.39549941268E+01 -0.70098279968E+01  0.14063024786E+02  0.51100000000E-03 0. -1.
        -11    1    4    4    0    0 -0.21702887133E+02  0.78590911073E+01 -0.16047312595E+02  0.28112219135E+02  0.51100000000E-03 0.  1.
         12    1    4    4    0    0 -0.11629519734E+01 -0.54177836558E+00 -0.37538902920E+01  0.39670736588E+01  0.00000000000E+00 0. -1.
</event>
<event>
 8    1  0.7489583E-009  0.9118800E+02  0.7816164E-02  0.1184000E+00
        -11   -1    0    0    0    0  0.00000000000E+00  0.00000000000E+00  0.45593999997E+02  0.45594000000E+02  0.51100000000E-03 0. -1.
         11   -1    0    0    0    0 -0.00000000000E+00 -0.00000000000E+00 -0.45593999997E+02  0.45594000000E+02  0.51100000000E-03 0.  1.
         23    2    1    2    0    0  0.35527136788E-14  0.17763568394E-14 -0.71054273576E-14  0.91188000000E+02  0.91188000000E+02 0.  0.
    9900012    2    3    3    0    0  0.18060356318E+02  0.15832810741E+02 -0.38108516789E+02  0.46142318540E+02  0.10000007106E+02 0.  0.
         12    1    3    3    0    0 -0.18060356318E+02 -0.15832810741E+02  0.38108516789E+02  0.45045681460E+02  0.00000000000E+00 0. -1.
         11    1    4    4    0    0  0.10189925058E+02  0.75076996689E+01 -0.14419795668E+02  0.19186730685E+02  0.51100000000E-03 0. -1.
        -11    1    4    4    0    0  0.65443635436E+01  0.76633851158E+01 -0.14559912413E+02  0.17707264480E+02  0.51100000000E-03 0.  1.
         12    1    4    4    0    0  0.13260677157E+01  0.66172595669E+00 -0.91288087081E+01  0.92483233755E+01  0.00000000000E+00 0. -1.
</event>
<event>
 8    1  0.7489580E-009  0.9118800E+02  0.7816164E-02  0.1184000E+00
        -11   -1    0    0    0    0  0.00000000000E+00  0.00000000000E+00  0.45593999997E+02  0.45594000000E+02  0.51100000000E-03 0.  1.
         11   -1    0    0    0    0 -0.00000000000E+00 -0.00000000000E+00 -0.45593999997E+02  0.45594000000E+02  0.51100000000E-03 0. -1.
         23    2    1    2    0    0 -0.35527136788E-14  0.71054273576E-14  0.00000000000E+00  0.91188000000E+02  0.91188000000E+02 0.  0.
    9900012    2    3    3    0    0  0.19502889208E+02 -0.39902252329E+02  0.75207179217E+01  0.46142316229E+02  0.99999860265E+01 0.  0.
         12    1    3    3    0    0 -0.19502889208E+02  0.39902252329E+02 -0.75207179217E+01  0.45045683771E+02  0.00000000000E+00 0. -1.
         11    1    4    4    0    0  0.62901213071E+01 -0.21862489165E+02  0.31475750067E+01  0.22966089943E+02  0.51100000000E-03 0. -1.
        -11    1    4    4    0    0  0.10701869484E+02 -0.16785575326E+02  0.43134633393E+01  0.20368885972E+02  0.51100000000E-03 0.  1.
        -12    1    4    4    0    0  0.25108984165E+01 -0.12541878370E+01  0.59679575723E-01  0.28073403142E+01  0.00000000000E+00 0.  1.
</event>
<event>
 8    1  0.7489580E-009  0.9118800E+02  0.7816164E-02  0.1184000E+00
        -11   -1    0    0    0    0  0.00000000000E+00  0.00000000000E+00  0.45593999997E+02  0.45594000000E+02  0.51100000000E-03 0. -1.
         11   -1    0    0    0    0 -0.00000000000E+00 -0.00000000000E+00 -0.45593999997E+02  0.45594000000E+02  0.51100000000E-03 0.  1.
         23    2    1    2    0    0  0.88817841970E-15  0.00000000000E+00 -0.35527136788E-14  0.91188000000E+02  0.91188000000E+02 0.  0.
    9900012    2    3    3    0    0  0.73959742130E+01  0.31603412992E+02 -0.31235193210E+02  0.46142318274E+02  0.10000004679E+02 0.  0.
         12    1    3    3    0    0 -0.73959742130E+01 -0.31603412992E+02  0.31235193210E+02  0.45045681726E+02  0.00000000000E+00 0. -1.
         11    1    4    4    0    0 -0.32701013188E+00  0.11804703623E+01  0.39589934374E+00  0.12873159884E+01  0.51100000000E-03 0. -1.
        -11    1    4    4    0    0  0.53418903444E+01  0.15007599576E+02 -0.18922500002E+02  0.24735093371E+02  0.51100000000E-03 0.  1.
         12    1    4    4    0    0  0.23810940005E+01  0.15415343053E+02 -0.12708592551E+02  0.20119908914E+02  0.00000000000E+00 0. -1.
</event>
<event>
 8    1  0.7489580E-009  0.9118800E+02  0.7816164E-02  0.1184000E+00
        -11   -1    0    0    0    0  0.00000000000E+00  0.00000000000E+00  0.45593999997E+02  0.45594000000E+02  0.51100000000E-03 0. -1.
         11   -1    0    0    0    0 -0.00000000000E+00 -0.00000000000E+00 -0.45593999997E+02  0.45594000000E+02  0.51100000000E-03 0.  1.
         23    2    1    2    0    0  0.00000000000E+00 -0.35527136788E-14  0.00000000000E+00  0.91188000000E+02  0.91188000000E+02 0.  0.
    9900012    2    3    3    0    0  0.22058074807E+02  0.29991045565E+02 -0.25359256363E+02  0.46142319168E+02  0.10000012831E+02 0.  0.
         12    1    3    3    0    0 -0.22058074807E+02 -0.29991045565E+02  0.25359256363E+02  0.45045680832E+02  0.00000000000E+00 0. -1.
         11    1    4    4    0    0  0.39036788196E+01  0.57295698058E+01 -0.35692319096E+01  0.77978263107E+01  0.51100000000E-03 0. -1.
        -11    1    4    4    0    0  0.82141031008E+01  0.50984853862E+01 -0.92432465093E+01  0.13375486880E+02  0.51100000000E-03 0.  1.
        -12    1    4    4    0    0  0.99402928866E+01  0.19162990373E+02 -0.12546777945E+02  0.24969005978E+02  0.00000000000E+00 0.  1.
</event>
<event>
 8    1  0.7489580E-009  0.9118800E+02  0.7816164E-02  0.1184000E+00
        -11   -1    0    0    0    0  0.00000000000E+00  0.00000000000E+00  0.45593999997E+02  0.45594000000E+02  0.51100000000E-03 0. -1.
         11   -1    0    0    0    0 -0.00000000000E+00 -0.00000000000E+00 -0.45593999997E+02  0.45594000000E+02  0.51100000000E-03 0.  1.
         23    2    1    2    0    0 -0.35527136788E-14  0.00000000000E+00  0.35527136788E-14  0.91188000000E+02  0.91188000000E+02 0.  0.
    9900012    2    3    3    0    0 -0.26057277637E+02  0.28963346319E+02 -0.22610983657E+02  0.46142315082E+02  0.99999755654E+01 0.  0.
         12    1    3    3    0    0  0.26057277637E+02 -0.28963346319E+02  0.22610983657E+02  0.45045684918E+02  0.00000000000E+00 0. -1.
         11    1    4    4    0    0 -0.80566924655E+00  0.39807871614E+01 -0.44735691375E+00  0.40860614078E+01  0.51100000000E-03 0. -1.
        -11    1    4    4    0    0 -0.10156716074E+02  0.74546123166E+01 -0.73085155487E+01  0.14565181976E+02  0.51100000000E-03 0.  1.
         12    1    4    4    0    0 -0.15094892317E+02  0.17527946841E+02 -0.14855111195E+02  0.27491071698E+02  0.00000000000E+00 0. -1.
</event>
<event>
 8    1  0.7489580E-009  0.9118800E+02  0.7816164E-02  0.1184000E+00
        -11   -1    0    0    0    0  0.00000000000E+00  0.00000000000E+00  0.45593999997E+02  0.45594000000E+02  0.51100000000E-03 0.  1.
         11   -1    0    0    0    0 -0.00000000000E+00 -0.00000000000E+00 -0.45593999997E+02  0.45594000000E+02  0.51100000000E-03 0. -1.
         23    2    1    2    0    0 -0.35527136788E-14  0.00000000000E+00  0.00000000000E+00  0.91188000000E+02  0.91188000000E+02 0.  0.
    9900012    2    3    3    0    0 -0.28440972626E+02 -0.33766868689E+02  0.89455669802E+01  0.46142317481E+02  0.99999974446E+01 0.  0.
         12    1    3    3    0    0  0.28440972626E+02  0.33766868689E+02 -0.89455669802E+01  0.45045682519E+02  0.00000000000E+00 0. -1.
         11    1    4    4    0    0 -0.49014149957E+01 -0.46178000040E+01  0.34410492317E+01  0.75623254302E+01  0.51100000000E-03 0. -1.
        -11    1    4    4    0    0 -0.15323698310E+02 -0.14284647472E+02  0.52379240528E+01  0.21594043900E+02  0.51100000000E-03 0.  1.
         12    1    4    4    0    0 -0.82158593203E+01 -0.14864421214E+02  0.26659369572E+00  0.16985948151E+02  0.00000000000E+00 0. -1.
</event>
<event>
 8    1  0.7489580E-009  0.9118800E+02  0.7816164E-02  0.1184000E+00
        -11   -1    0    0    0    0  0.00000000000E+00  0.00000000000E+00  0.45593999997E+02  0.45594000000E+02  0.51100000000E-03 0. -1.
         11   -1    0    0    0    0 -0.00000000000E+00 -0.00000000000E+00 -0.45593999997E+02  0.45594000000E+02  0.51100000000E-03 0.  1.
         23    2    1    2    0    0  0.00000000000E+00  0.00000000000E+00  0.00000000000E+00  0.91188000000E+02  0.91188000000E+02 0.  0.
    9900012    2    3    3    0    0  0.35231398941E+02 -0.14560200325E+02  0.23997135026E+02  0.46142318805E+02  0.10000009521E+02 0.  0.
        -12    1    3    3    0    0 -0.35231398941E+02  0.14560200325E+02 -0.23997135026E+02  0.45045681195E+02  0.00000000000E+00 0.  1.
         11    1    4    4    0    0  0.22530842285E+02 -0.11064808428E+02  0.17103589452E+02  0.30374357804E+02  0.51100000000E-03 0. -1.
        -11    1    4    4    0    0  0.80067716142E+01  0.21749064432E+00  0.51947494117E+01  0.95467856147E+01  0.51100000000E-03 0.  1.
        -12    1    4    4    0    0  0.46937850412E+01 -0.37128825418E+01  0.16987961628E+01  0.62211753861E+01  0.00000000000E+00 0.  1.
</event>
<event>
 8    1  0.7489580E-009  0.9118800E+02  0.7816164E-02  0.1184000E+00
        -11   -1    0    0    0    0  0.00000000000E+00  0.00000000000E+00  0.45593999997E+02  0.45594000000E+02  0.51100000000E-03 0. -1.
         11   -1    0    0    0    0 -0.00000000000E+00 -0.00000000000E+00 -0.45593999997E+02  0.45594000000E+02  0.51100000000E-03 0.  1.
         23    2    1    2    0    0  0.00000000000E+00  0.00000000000E+00 -0.17763568394E-14  0.91188000000E+02  0.91188000000E+02 0.  0.
    9900012    2    3    3    0    0  0.42184030099E+02  0.89644121036E+01  0.13010012865E+02  0.46142317471E+02  0.99999973513E+01 0.  0.
        -12    1    3    3    0    0 -0.42184030099E+02 -0.89644121036E+01 -0.13010012865E+02  0.45045682529E+02  0.00000000000E+00 0.  1.
         11    1    4    4    0    0  0.11108547747E+02  0.22383402550E+01  0.23286921369E+01  0.11568613031E+02  0.51100000000E-03 0. -1.
        -11    1    4    4    0    0 -0.33643442802E+00  0.50196666331E+00  0.91202571244E+00  0.10940520174E+01  0.51100000000E-03 0.  1.
        -12    1    4    4    0    0  0.31411916781E+02  0.62241051853E+01  0.97692950156E+01  0.33479652422E+02  0.00000000000E+00 0.  1.
</event>
<event>
 8    1  0.7489580E-009  0.9118800E+02  0.7816164E-02  0.1184000E+00
        -11   -1    0    0    0    0  0.00000000000E+00  0.00000000000E+00  0.45593999997E+02  0.45594000000E+02  0.51100000000E-03 0. -1.
         11   -1    0    0    0    0 -0.00000000000E+00 -0.00000000000E+00 -0.45593999997E+02  0.45594000000E+02  0.51100000000E-03 0.  1.
         23    2    1    2    0    0  0.00000000000E+00  0.00000000000E+00 -0.71054273576E-14  0.91188000000E+02  0.91188000000E+02 0.  0.
    9900012    2    3    3    0    0 -0.15524190657E+02  0.15930832569E+02 -0.39170416078E+02  0.46142318547E+02  0.10000007163E+02 0.  0.
         12    1    3    3    0    0  0.15524190657E+02 -0.15930832569E+02  0.39170416078E+02  0.45045681453E+02  0.00000000000E+00 0. -1.
         11    1    4    4    0    0 -0.74478347758E+01  0.38514241239E+01 -0.12940951227E+02  0.15419855043E+02  0.51100000000E-03 0. -1.
        -11    1    4    4    0    0 -0.34115948507E+01  0.33757847955E+01 -0.34985590035E+01  0.59392607093E+01  0.51100000000E-03 0.  1.
        -12    1    4    4    0    0 -0.46647610301E+01  0.87036236496E+01 -0.22730905847E+02  0.24783202794E+02  0.00000000000E+00 0.  1.
</event>
<event>
 8    1  0.7489580E-009  0.9118800E+02  0.7816164E-02  0.1184000E+00
        -11   -1    0    0    0    0  0.00000000000E+00  0.00000000000E+00  0.45593999997E+02  0.45594000000E+02  0.51100000000E-03 0. -1.
         11   -1    0    0    0    0 -0.00000000000E+00 -0.00000000000E+00 -0.45593999997E+02  0.45594000000E+02  0.51100000000E-03 0.  1.
         23    2    1    2    0    0 -0.35527136788E-14  0.22204460493E-15  0.00000000000E+00  0.91188000000E+02  0.91188000000E+02 0.  0.
    9900012    2    3    3    0    0 -0.29974573175E+02  0.18119180529E+01  0.33576113627E+02  0.46142317740E+02  0.99999998039E+01 0.  0.
        -12    1    3    3    0    0  0.29974573175E+02 -0.18119180529E+01 -0.33576113627E+02  0.45045682260E+02  0.00000000000E+00 0.  1.
         11    1    4    4    0    0 -0.16121201713E+02  0.14516548715E+01  0.14164325674E+02  0.21508802119E+02  0.51100000000E-03 0. -1.
        -11    1    4    4    0    0 -0.79243344353E+01  0.26060506431E+01  0.14004536014E+02  0.16300724077E+02  0.51100000000E-03 0.  1.
        -12    1    4    4    0    0 -0.59290370261E+01 -0.22457874617E+01  0.54072519384E+01  0.83327915433E+01  0.00000000000E+00 0.  1.
</event>
<event>
 8    1  0.7489580E-009  0.9118800E+02  0.7816164E-02  0.1184000E+00
        -11   -1    0    0    0    0  0.00000000000E+00  0.00000000000E+00  0.45593999997E+02  0.45594000000E+02  0.51100000000E-03 0. -1.
         11   -1    0    0    0    0 -0.00000000000E+00 -0.00000000000E+00 -0.45593999997E+02  0.45594000000E+02  0.51100000000E-03 0.  1.
         23    2    1    2    0    0  0.00000000000E+00  0.11102230246E-15  0.35527136788E-14  0.91188000000E+02  0.91188000000E+02 0.  0.
    9900012    2    3    3    0    0 -0.34621454514E+02 -0.53019315186E+00 -0.28812971089E+02  0.46142317405E+02  0.99999967521E+01 0.  0.
         12    1    3    3    0    0  0.34621454514E+02  0.53019315186E+00  0.28812971089E+02  0.45045682595E+02  0.00000000000E+00 0. -1.
         11    1    4    4    0    0 -0.28356839227E+02  0.26446032148E+01 -0.24183728520E+02  0.37362507712E+02  0.51100000000E-03 0. -1.
        -11    1    4    4    0    0 -0.17188697219E+01 -0.16340782910E+01 -0.44661497475E+00  0.24133359026E+01  0.51100000000E-03 0.  1.
        -12    1    4    4    0    0 -0.45457455656E+01 -0.15407180756E+01 -0.41826275940E+01  0.63664737906E+01  0.00000000000E+00 0.  1.
</event>
<event>
 8    1  0.7680717E-009  0.9118800E+02  0.7816164E-02  0.1184000E+00
        -11   -1    0    0    0    0  0.00000000000E+00  0.00000000000E+00  0.45593999997E+02  0.45594000000E+02  0.51100000000E-03 0. -1.
         11   -1    0    0    0    0 -0.00000000000E+00 -0.00000000000E+00 -0.45593999997E+02  0.45594000000E+02  0.51100000000E-03 0.  1.
         23    2    1    2    0    0  0.00000000000E+00 -0.35527136788E-14 -0.71054273576E-14  0.91188000000E+02  0.91188000000E+02 0.  0.
    9900012    2    3    3    0    0  0.21294643252E+01 -0.25416949114E+02 -0.37128932566E+02  0.46142317032E+02  0.99999933492E+01 0.  0.
         12    1    3    3    0    0 -0.21294643252E+01  0.25416949114E+02  0.37128932566E+02  0.45045682968E+02  0.00000000000E+00 0. -1.
         11    1    4    4    0    0  0.11628846264E+01 -0.16547872687E+02 -0.22208959017E+02  0.27720430228E+02  0.51100000000E-03 0.  1.
        -11    1    4    4    0    0  0.16899336669E+01 -0.94365084044E+01 -0.14564064270E+02  0.17436041265E+02  0.51100000000E-03 0. -1.
         12    1    4    4    0    0 -0.72335396816E+00  0.56743197757E+00 -0.35590927901E+00  0.98584553928E+00  0.00000000000E+00 0. -1.
</event>
<event>
 8    1  0.7489580E-009  0.9118800E+02  0.7816164E-02  0.1184000E+00
        -11   -1    0    0    0    0  0.00000000000E+00  0.00000000000E+00  0.45593999997E+02  0.45594000000E+02  0.51100000000E-03 0. -1.
         11   -1    0    0    0    0 -0.00000000000E+00 -0.00000000000E+00 -0.45593999997E+02  0.45594000000E+02  0.51100000000E-03 0.  1.
         23    2    1    2    0    0  0.00000000000E+00  0.24980018054E-15  0.00000000000E+00  0.91188000000E+02  0.91188000000E+02 0.  0.
    9900012    2    3    3    0    0 -0.39488379426E+02  0.87113264586E-01  0.21674267711E+02  0.46142316753E+02  0.99999908093E+01 0.  0.
        -12    1    3    3    0    0  0.39488379426E+02 -0.87113264586E-01 -0.21674267711E+02  0.45045683247E+02  0.00000000000E+00 0.  1.
         11    1    4    4    0    0 -0.19474799428E+02  0.19517134974E+01  0.89041221944E+01  0.21502567071E+02  0.51100000000E-03 0. -1.
        -11    1    4    4    0    0 -0.93625951727E+01 -0.54156697878E+00  0.23225463557E+01  0.96615581040E+01  0.51100000000E-03 0.  1.
         12    1    4    4    0    0 -0.10650984825E+02 -0.13230332540E+01  0.10447599161E+02  0.14978191578E+02  0.00000000000E+00 0. -1.
</event>
<event>
 8    1  0.1400714E-008  0.9118800E+02  0.7816164E-02  0.1184000E+00
        -11   -1    0    0    0    0  0.00000000000E+00  0.00000000000E+00  0.45593999997E+02  0.45594000000E+02  0.51100000000E-03 0. -1.
         11   -1    0    0    0    0 -0.00000000000E+00 -0.00000000000E+00 -0.45593999997E+02  0.45594000000E+02  0.51100000000E-03 0.  1.
         23    2    1    2    0    0  0.00000000000E+00  0.22204460493E-15  0.00000000000E+00  0.91188000000E+02  0.91188000000E+02 0.  0.
    9900012    2    3    3    0    0 -0.12780596457E+01  0.19246367855E+01 -0.44986393501E+02  0.46142320258E+02  0.10000022766E+02 0.  0.
         12    1    3    3    0    0  0.12780596457E+01 -0.19246367855E+01  0.44986393501E+02  0.45045679742E+02  0.00000000000E+00 0. -1.
         11    1    4    4    0    0  0.67783037121E+00 -0.14337706584E+01 -0.94334498642E+01  0.95658313237E+01  0.51100000000E-03 0. -1.
        -11    1    4    4    0    0 -0.89102244867E+00  0.14266235337E+00 -0.30378164484E+02  0.30391563817E+02  0.51100000000E-03 0.  1.
         12    1    4    4    0    0 -0.10648675683E+01  0.32157450905E+01 -0.51747791528E+01  0.61849251172E+01  0.00000000000E+00 0. -1.
</event>
<event>
 8    1  0.7489580E-009  0.9118800E+02  0.7816164E-02  0.1184000E+00
        -11   -1    0    0    0    0  0.00000000000E+00  0.00000000000E+00  0.45593999997E+02  0.45594000000E+02  0.51100000000E-03 0. -1.
         11   -1    0    0    0    0 -0.00000000000E+00 -0.00000000000E+00 -0.45593999997E+02  0.45594000000E+02  0.51100000000E-03 0.  1.
         23    2    1    2    0    0 -0.71054273576E-14 -0.35527136788E-14  0.88817841970E-15  0.91188000000E+02  0.91188000000E+02 0.  0.
    9900012    2    3    3    0    0  0.35325116039E+02  0.27090550062E+02 -0.68812560016E+01  0.46142318631E+02  0.10000007934E+02 0.  0.
         12    1    3    3    0    0 -0.35325116039E+02 -0.27090550062E+02  0.68812560016E+01  0.45045681369E+02  0.00000000000E+00 0. -1.
         11    1    4    4    0    0  0.95492957379E+01  0.53986210622E+01  0.70248070561E+00  0.10992162565E+02  0.51100000000E-03 0. -1.
        -11    1    4    4    0    0  0.16774173511E+01  0.37132028844E+01  0.24406666219E+00  0.40818100675E+01  0.51100000000E-03 0.  1.
        -12    1    4    4    0    0  0.24098402950E+02  0.17978726115E+02 -0.78278033694E+01  0.31068345998E+02  0.00000000000E+00 0.  1.
</event>
<event>
 8    1  0.7489580E-009  0.9118800E+02  0.7816164E-02  0.1184000E+00
        -11   -1    0    0    0    0  0.00000000000E+00  0.00000000000E+00  0.45593999997E+02  0.45594000000E+02  0.51100000000E-03 0. -1.
         11   -1    0    0    0    0 -0.00000000000E+00 -0.00000000000E+00 -0.45593999997E+02  0.45594000000E+02  0.51100000000E-03 0.  1.
         23    2    1    2    0    0  0.00000000000E+00  0.00000000000E+00  0.00000000000E+00  0.91188000000E+02  0.91188000000E+02 0.  0.
    9900012    2    3    3    0    0  0.28816293009E+01  0.75539721768E+01 -0.44314187168E+02  0.46142317994E+02  0.10000002122E+02 0.  0.
         12    1    3    3    0    0 -0.28816293009E+01 -0.75539721768E+01  0.44314187168E+02  0.45045682006E+02  0.00000000000E+00 0. -1.
         11    1    4    4    0    0  0.10285943577E+01  0.11154133133E+01 -0.82334737395E+00  0.17262833984E+01  0.51100000000E-03 0. -1.
        -11    1    4    4    0    0 -0.99674939295E-01  0.17253398228E+01 -0.29034560510E+02  0.29085949132E+02  0.51100000000E-03 0.  1.
        -12    1    4    4    0    0  0.19527098824E+01  0.47132190407E+01 -0.14456279283E+02  0.15330085464E+02  0.00000000000E+00 0.  1.
</event>
<event>
 8    1  0.7489580E-009  0.9118800E+02  0.7816164E-02  0.1184000E+00
        -11   -1    0    0    0    0  0.00000000000E+00  0.00000000000E+00  0.45593999997E+02  0.45594000000E+02  0.51100000000E-03 0. -1.
         11   -1    0    0    0    0 -0.00000000000E+00 -0.00000000000E+00 -0.45593999997E+02  0.45594000000E+02  0.51100000000E-03 0.  1.
         23    2    1    2    0    0  0.00000000000E+00  0.00000000000E+00  0.71054273576E-14  0.91188000000E+02  0.91188000000E+02 0.  0.
    9900012    2    3    3    0    0  0.17262350888E+02 -0.18596337768E+02  0.37219632864E+02  0.46142316443E+02  0.99999879818E+01 0.  0.
        -12    1    3    3    0    0 -0.17262350888E+02  0.18596337768E+02 -0.37219632864E+02  0.45045683557E+02  0.00000000000E+00 0.  1.
         11    1    4    4    0    0  0.99458415985E+01 -0.12219567719E+02  0.26240760199E+02  0.30607435313E+02  0.51100000000E-03 0. -1.
        -11    1    4    4    0    0  0.67215570805E+01 -0.68050893395E+01  0.11237932692E+02  0.14757360941E+02  0.51100000000E-03 0.  1.
        -12    1    4    4    0    0  0.59495220948E+00  0.42831929044E+00 -0.25906002733E+00  0.77752018874E+00  0.00000000000E+00 0.  1.
</event>
<event>
 8    1  0.7489580E-009  0.9118800E+02  0.7816164E-02  0.1184000E+00
        -11   -1    0    0    0    0  0.00000000000E+00  0.00000000000E+00  0.45593999997E+02  0.45594000000E+02  0.51100000000E-03 0.  1.
         11   -1    0    0    0    0 -0.00000000000E+00 -0.00000000000E+00 -0.45593999997E+02  0.45594000000E+02  0.51100000000E-03 0. -1.
         23    2    1    2    0    0  0.17763568394E-14  0.71054273576E-14  0.35527136788E-14  0.91188000000E+02  0.91188000000E+02 0.  0.
    9900012    2    3    3    0    0 -0.95050257851E+01 -0.33273155136E+02 -0.28838604855E+02  0.46142317656E+02  0.99999990379E+01 0.  0.
        -12    1    3    3    0    0  0.95050257851E+01  0.33273155136E+02  0.28838604855E+02  0.45045682344E+02  0.00000000000E+00 0.  1.
         11    1    4    4    0    0 -0.29669440142E+01 -0.93811970483E+01 -0.74510803762E+01  0.12342131659E+02  0.51100000000E-03 0. -1.
        -11    1    4    4    0    0 -0.34583579033E+01 -0.21925947093E+01 -0.48291122102E+01  0.63315113477E+01  0.51100000000E-03 0.  1.
        -12    1    4    4    0    0 -0.30797238677E+01 -0.21699363379E+02 -0.16558412268E+02  0.27468674649E+02  0.00000000000E+00 0.  1.
</event>
<event>
 8    1  0.7489580E-009  0.9118800E+02  0.7816164E-02  0.1184000E+00
        -11   -1    0    0    0    0  0.00000000000E+00  0.00000000000E+00  0.45593999997E+02  0.45594000000E+02  0.51100000000E-03 0. -1.
         11   -1    0    0    0    0 -0.00000000000E+00 -0.00000000000E+00 -0.45593999997E+02  0.45594000000E+02  0.51100000000E-03 0.  1.
         23    2    1    2    0    0 -0.88817841970E-15  0.00000000000E+00  0.00000000000E+00  0.91188000000E+02  0.91188000000E+02 0.  0.
    9900012    2    3    3    0    0  0.72041260702E+01  0.12006668356E+02  0.42814185841E+02  0.46142311786E+02  0.99999455144E+01 0.  0.
        -12    1    3    3    0    0 -0.72041260702E+01 -0.12006668356E+02 -0.42814185841E+02  0.45045688214E+02  0.00000000000E+00 0.  1.
         11    1    4    4    0    0  0.93959001947E+00  0.60552584932E+00  0.75732046843E-01  0.11203689405E+01  0.51100000000E-03 0. -1.
        -11    1    4    4    0    0  0.79052519451E+00  0.71289061535E+01  0.20026291088E+02  0.21272013728E+02  0.51100000000E-03 0.  1.
         12    1    4    4    0    0  0.54740108562E+01  0.42722363529E+01  0.22712162706E+02  0.23749929118E+02  0.00000000000E+00 0. -1.
</event>
<event>
 8    1  0.7489580E-009  0.9118800E+02  0.7816164E-02  0.1184000E+00
        -11   -1    0    0    0    0  0.00000000000E+00  0.00000000000E+00  0.45593999997E+02  0.45594000000E+02  0.51100000000E-03 0.  1.
         11   -1    0    0    0    0 -0.00000000000E+00 -0.00000000000E+00 -0.45593999997E+02  0.45594000000E+02  0.51100000000E-03 0. -1.
         23    2    1    2    0    0  0.00000000000E+00  0.88817841970E-15  0.35527136788E-14  0.91188000000E+02  0.91188000000E+02 0.  0.
    9900012    2    3    3    0    0  0.39548701210E+02 -0.66410634243E+01 -0.20516089965E+02  0.46142318318E+02  0.10000005074E+02 0.  0.
         12    1    3    3    0    0 -0.39548701210E+02  0.66410634243E+01  0.20516089965E+02  0.45045681682E+02  0.00000000000E+00 0. -1.
         11    1    4    4    0    0  0.16340032586E+02 -0.11914554785E+01 -0.12504105268E+02  0.20609921879E+02  0.51100000000E-03 0. -1.
        -11    1    4    4    0    0  0.10375622196E+02 -0.29858131280E+01 -0.58742541168E+01  0.12291276487E+02  0.51100000000E-03 0.  1.
        -12    1    4    4    0    0  0.12833046428E+02 -0.24637948178E+01 -0.21377305801E+01  0.13241119951E+02  0.00000000000E+00 0.  1.
</event>
<event>
 8    1  0.7489580E-009  0.9118800E+02  0.7816164E-02  0.1184000E+00
        -11   -1    0    0    0    0  0.00000000000E+00  0.00000000000E+00  0.45593999997E+02  0.45594000000E+02  0.51100000000E-03 0. -1.
         11   -1    0    0    0    0 -0.00000000000E+00 -0.00000000000E+00 -0.45593999997E+02  0.45594000000E+02  0.51100000000E-03 0.  1.
         23    2    1    2    0    0  0.88817841970E-15  0.00000000000E+00 -0.71054273576E-14  0.91188000000E+02  0.91188000000E+02 0.  0.
    9900012    2    3    3    0    0 -0.74384606546E+01  0.98662161064E+01  0.43317901973E+02  0.46142317093E+02  0.99999939110E+01 0.  0.
        -12    1    3    3    0    0  0.74384606546E+01 -0.98662161064E+01 -0.43317901973E+02  0.45045682907E+02  0.00000000000E+00 0.  1.
         11    1    4    4    0    0 -0.28295725524E+01  0.25505050901E+01  0.14483079099E+02  0.14975684876E+02  0.51100000000E-03 0. -1.
        -11    1    4    4    0    0 -0.55930445780E+01  0.38510277200E+01  0.24998981726E+02  0.25904857647E+02  0.51100000000E-03 0.  1.
        -12    1    4    4    0    0  0.98415647578E+00  0.34646832963E+01  0.38358411483E+01  0.52617745701E+01  0.00000000000E+00 0.  1.
</event>
<event>
 8    1  0.7489580E-009  0.9118800E+02  0.7816164E-02  0.1184000E+00
        -11   -1    0    0    0    0  0.00000000000E+00  0.00000000000E+00  0.45593999997E+02  0.45594000000E+02  0.51100000000E-03 0. -1.
         11   -1    0    0    0    0 -0.00000000000E+00 -0.00000000000E+00 -0.45593999997E+02  0.45594000000E+02  0.51100000000E-03 0.  1.
         23    2    1    2    0    0 -0.35527136788E-14  0.00000000000E+00  0.35527136788E-14  0.91188000000E+02  0.91188000000E+02 0.  0.
    9900012    2    3    3    0    0  0.31263608092E+02 -0.26428919371E+02 -0.18793944353E+02  0.46142319692E+02  0.10000017609E+02 0.  0.
         12    1    3    3    0    0 -0.31263608092E+02  0.26428919371E+02  0.18793944353E+02  0.45045680308E+02  0.00000000000E+00 0. -1.
         11    1    4    4    0    0  0.88765371534E+01 -0.84780498096E+01 -0.16106625491E+01  0.12380003010E+02  0.51100000000E-03 0. -1.
        -11    1    4    4    0    0  0.40892281387E+01 -0.22099017990E+01 -0.46115501284E+01  0.65476597025E+01  0.51100000000E-03 0.  1.
        -12    1    4    4    0    0  0.18297842800E+02 -0.15740967762E+02 -0.12571731675E+02  0.27214656980E+02  0.00000000000E+00 0.  1.
</event>
<event>
 8    1  0.7489580E-009  0.9118800E+02  0.7816164E-02  0.1184000E+00
        -11   -1    0    0    0    0  0.00000000000E+00  0.00000000000E+00  0.45593999997E+02  0.45594000000E+02  0.51100000000E-03 0. -1.
         11   -1    0    0    0    0 -0.00000000000E+00 -0.00000000000E+00 -0.45593999997E+02  0.45594000000E+02  0.51100000000E-03 0.  1.
         23    2    1    2    0    0  0.00000000000E+00 -0.13322676296E-14  0.00000000000E+00  0.91188000000E+02  0.91188000000E+02 0.  0.
    9900012    2    3    3    0    0 -0.39079121333E+02 -0.36766332681E+01  0.22100183755E+02  0.46142317872E+02  0.10000001013E+02 0.  0.
        -12    1    3    3    0    0  0.39079121333E+02  0.36766332681E+01 -0.22100183755E+02  0.45045682128E+02  0.00000000000E+00 0.  1.
         11    1    4    4    0    0 -0.27038826980E+01  0.52178672046E+00 -0.55536011703E+00  0.28092113034E+01  0.51100000000E-03 0. -1.
        -11    1    4    4    0    0 -0.83170117908E+01 -0.24340130796E+01  0.70991548132E+01  0.11202459735E+02  0.51100000000E-03 0.  1.
         12    1    4    4    0    0 -0.28058226845E+02 -0.17644069090E+01  0.15556389058E+02  0.32130646833E+02  0.00000000000E+00 0. -1.
</event>
<event>
 8    1  0.7489580E-009  0.9118800E+02  0.7816164E-02  0.1184000E+00
        -11   -1    0    0    0    0  0.00000000000E+00  0.00000000000E+00  0.45593999997E+02  0.45594000000E+02  0.51100000000E-03 0.  1.
         11   -1    0    0    0    0 -0.00000000000E+00 -0.00000000000E+00 -0.45593999997E+02  0.45594000000E+02  0.51100000000E-03 0. -1.
         23    2    1    2    0    0  0.00000000000E+00  0.00000000000E+00  0.00000000000E+00  0.91188000000E+02  0.91188000000E+02 0.  0.
    9900012    2    3    3    0    0 -0.37192986013E+02  0.24957601165E+02  0.47868039778E+01  0.46142317001E+02  0.99999930707E+01 0.  0.
        -12    1    3    3    0    0  0.37192986013E+02 -0.24957601165E+02 -0.47868039778E+01  0.45045682999E+02  0.00000000000E+00 0.  1.
         11    1    4    4    0    0 -0.12223239600E+02  0.13409069281E+02  0.14425283106E+01  0.18201417898E+02  0.51100000000E-03 0. -1.
        -11    1    4    4    0    0 -0.69705054878E-02 -0.15330679788E+00 -0.54294686972E-01  0.16278739624E+00  0.51100000000E-03 0.  1.
         12    1    4    4    0    0 -0.24962775908E+02  0.11701838682E+02  0.33985703542E+01  0.27778111707E+02  0.00000000000E+00 0. -1.
</event>
<event>
 8    1  0.7489580E-009  0.9118800E+02  0.7816164E-02  0.1184000E+00
        -11   -1    0    0    0    0  0.00000000000E+00  0.00000000000E+00  0.45593999997E+02  0.45594000000E+02  0.51100000000E-03 0. -1.
         11   -1    0    0    0    0 -0.00000000000E+00 -0.00000000000E+00 -0.45593999997E+02  0.45594000000E+02  0.51100000000E-03 0.  1.
         23    2    1    2    0    0 -0.88817841970E-15  0.00000000000E+00  0.00000000000E+00  0.91188000000E+02  0.91188000000E+02 0.  0.
    9900012    2    3    3    0    0  0.19744944098E+01  0.41153750019E+02  0.18209440545E+02  0.46142317702E+02  0.99999994581E+01 0.  0.
        -12    1    3    3    0    0 -0.19744944098E+01 -0.41153750019E+02 -0.18209440545E+02  0.45045682298E+02  0.00000000000E+00 0.  1.
         11    1    4    4    0    0 -0.14148974274E+01  0.12874348521E+02  0.36668452962E+01  0.13460926389E+02  0.51100000000E-03 0. -1.
        -11    1    4    4    0    0  0.37131286046E+00  0.72231391232E+00 -0.67620337943E+00  0.10568168714E+01  0.51100000000E-03 0.  1.
         12    1    4    4    0    0  0.30180789767E+01  0.27557087585E+02  0.15218798628E+02  0.31624574441E+02  0.00000000000E+00 0. -1.
</event>
<event>
 8    1  0.7489580E-009  0.9118800E+02  0.7816164E-02  0.1184000E+00
        -11   -1    0    0    0    0  0.00000000000E+00  0.00000000000E+00  0.45593999997E+02  0.45594000000E+02  0.51100000000E-03 0. -1.
         11   -1    0    0    0    0 -0.00000000000E+00 -0.00000000000E+00 -0.45593999997E+02  0.45594000000E+02  0.51100000000E-03 0.  1.
         23    2    1    2    0    0  0.00000000000E+00  0.00000000000E+00  0.00000000000E+00  0.91188000000E+02  0.91188000000E+02 0.  0.
    9900012    2    3    3    0    0  0.27131537929E+02  0.85364704824E+01  0.34930241625E+02  0.46142318091E+02  0.10000003008E+02 0.  0.
        -12    1    3    3    0    0 -0.27131537929E+02 -0.85364704824E+01 -0.34930241625E+02  0.45045681909E+02  0.00000000000E+00 0.  1.
         11    1    4    4    0    0  0.56466348626E+01 -0.90735763775E+00  0.94129123142E+01  0.11014113748E+02  0.51100000000E-03 0. -1.
        -11    1    4    4    0    0  0.90766904435E+01  0.28498012266E+01  0.66676454289E+01  0.11617451195E+02  0.51100000000E-03 0.  1.
        -12    1    4    4    0    0  0.12408212623E+02  0.65940268935E+01  0.18849683881E+02  0.23510753148E+02  0.00000000000E+00 0.  1.
</event>
<event>
 8    1  0.7489580E-009  0.9118800E+02  0.7816164E-02  0.1184000E+00
        -11   -1    0    0    0    0  0.00000000000E+00  0.00000000000E+00  0.45593999997E+02  0.45594000000E+02  0.51100000000E-03 0. -1.
         11   -1    0    0    0    0 -0.00000000000E+00 -0.00000000000E+00 -0.45593999997E+02  0.45594000000E+02  0.51100000000E-03 0.  1.
         23    2    1    2    0    0 -0.22204460493E-15  0.00000000000E+00  0.00000000000E+00  0.91188000000E+02  0.91188000000E+02 0.  0.
    9900012    2    3    3    0    0  0.10233886141E+01  0.17457623395E+02 -0.41512618772E+02  0.46142318118E+02  0.10000003255E+02 0.  0.
         12    1    3    3    0    0 -0.10233886141E+01 -0.17457623395E+02  0.41512618772E+02  0.45045681882E+02  0.00000000000E+00 0. -1.
         11    1    4    4    0    0  0.73950199521E+00  0.13690872656E+02 -0.27325909263E+02  0.30572735805E+02  0.51100000000E-03 0. -1.
        -11    1    4    4    0    0 -0.21565482977E+01  0.29404436848E+01 -0.63784949608E+01  0.73472517209E+01  0.51100000000E-03 0.  1.
         12    1    4    4    0    0  0.24404349166E+01  0.82630705408E+00 -0.78082145482E+01  0.82223305918E+01  0.00000000000E+00 0. -1.
</event>
<event>
 8    1  0.7489580E-009  0.9118800E+02  0.7816164E-02  0.1184000E+00
        -11   -1    0    0    0    0  0.00000000000E+00  0.00000000000E+00  0.45593999997E+02  0.45594000000E+02  0.51100000000E-03 0.  1.
         11   -1    0    0    0    0 -0.00000000000E+00 -0.00000000000E+00 -0.45593999997E+02  0.45594000000E+02  0.51100000000E-03 0. -1.
         23    2    1    2    0    0  0.35527136788E-14  0.35527136788E-14 -0.35527136788E-14  0.91188000000E+02  0.91188000000E+02 0.  0.
    9900012    2    3    3    0    0  0.29358188872E+02  0.24587688158E+02  0.23720366300E+02  0.46142318296E+02  0.10000004878E+02 0.  0.
        -12    1    3    3    0    0 -0.29358188872E+02 -0.24587688158E+02 -0.23720366300E+02  0.45045681704E+02  0.00000000000E+00 0.  1.
         11    1    4    4    0    0  0.64359733240E+01  0.44232701673E+01  0.12704810785E+01  0.79120916345E+01  0.51100000000E-03 0. -1.
        -11    1    4    4    0    0  0.82275400064E+01  0.58589343603E+01  0.10135496963E+02  0.14309012032E+02  0.51100000000E-03 0.  1.
        -12    1    4    4    0    0  0.14694675541E+02  0.14305483630E+02  0.12314388259E+02  0.23921214629E+02  0.00000000000E+00 0.  1.
</event>
<event>
 8    1  0.7489580E-009  0.9118800E+02  0.7816164E-02  0.1184000E+00
        -11   -1    0    0    0    0  0.00000000000E+00  0.00000000000E+00  0.45593999997E+02  0.45594000000E+02  0.51100000000E-03 0.  1.
         11   -1    0    0    0    0 -0.00000000000E+00 -0.00000000000E+00 -0.45593999997E+02  0.45594000000E+02  0.51100000000E-03 0. -1.
         23    2    1    2    0    0 -0.35527136788E-14 -0.14210854715E-13 -0.17763568394E-14  0.91188000000E+02  0.91188000000E+02 0.  0.
    9900012    2    3    3    0    0 -0.17309505711E+02 -0.39277311234E+02 -0.13667014678E+02  0.46142318121E+02  0.10000003283E+02 0.  0.
         12    1    3    3    0    0  0.17309505711E+02  0.39277311234E+02  0.13667014678E+02  0.45045681879E+02  0.00000000000E+00 0. -1.
         11    1    4    4    0    0  0.39607598918E-01 -0.60111798561E+00 -0.12236969853E+01  0.13639450749E+01  0.51100000000E-03 0.  1.
        -11    1    4    4    0    0 -0.74978951442E+00  0.10517311239E+00 -0.59093894223E+00  0.96044510206E+00  0.51100000000E-03 0. -1.
        -12    1    4    4    0    0 -0.16599323796E+02 -0.38781366361E+02 -0.11852378750E+02  0.43817927944E+02  0.00000000000E+00 0.  1.
</event>
<event>
 8    1  0.7489580E-009  0.9118800E+02  0.7816164E-02  0.1184000E+00
        -11   -1    0    0    0    0  0.00000000000E+00  0.00000000000E+00  0.45593999997E+02  0.45594000000E+02  0.51100000000E-03 0. -1.
         11   -1    0    0    0    0 -0.00000000000E+00 -0.00000000000E+00 -0.45593999997E+02  0.45594000000E+02  0.51100000000E-03 0.  1.
         23    2    1    2    0    0  0.00000000000E+00  0.00000000000E+00  0.71054273576E-14  0.91188000000E+02  0.91188000000E+02 0.  0.
    9900012    2    3    3    0    0 -0.18642748842E+02 -0.23349546840E+02  0.33709939749E+02  0.46142318077E+02  0.10000002880E+02 0.  0.
        -12    1    3    3    0    0  0.18642748842E+02  0.23349546840E+02 -0.33709939749E+02  0.45045681923E+02  0.00000000000E+00 0.  1.
         11    1    4    4    0    0 -0.14632028115E+02 -0.17151718865E+02  0.24558705904E+02  0.33337782510E+02  0.51100000000E-03 0. -1.
        -11    1    4    4    0    0 -0.45473084554E+01 -0.27029459205E+01  0.65255878759E+01  0.84004302404E+01  0.51100000000E-03 0.  1.
         12    1    4    4    0    0  0.53658772816E+00 -0.34948820548E+01  0.26256459693E+01  0.44041053261E+01  0.00000000000E+00 0. -1.
</event>
<event>
 8    1  0.7489580E-009  0.9118800E+02  0.7816164E-02  0.1184000E+00
        -11   -1    0    0    0    0  0.00000000000E+00  0.00000000000E+00  0.45593999997E+02  0.45594000000E+02  0.51100000000E-03 0. -1.
         11   -1    0    0    0    0 -0.00000000000E+00 -0.00000000000E+00 -0.45593999997E+02  0.45594000000E+02  0.51100000000E-03 0.  1.
         23    2    1    2    0    0 -0.35527136788E-14 -0.17763568394E-14  0.00000000000E+00  0.91188000000E+02  0.91188000000E+02 0.  0.
    9900012    2    3    3    0    0 -0.26494266289E+02 -0.11009861742E+02  0.34726793690E+02  0.46142318722E+02  0.10000008765E+02 0.  0.
        -12    1    3    3    0    0  0.26494266289E+02  0.11009861742E+02 -0.34726793690E+02  0.45045681278E+02  0.00000000000E+00 0.  1.
         11    1    4    4    0    0 -0.32897745612E+01  0.41786430438E-01  0.54993383433E+01  0.64083605739E+01  0.51100000000E-03 0. -1.
        -11    1    4    4    0    0 -0.74683928160E+01 -0.16975457507E+00  0.56258304067E+01  0.93517739439E+01  0.51100000000E-03 0.  1.
        -12    1    4    4    0    0 -0.15736098912E+02 -0.10881893597E+02  0.23601624940E+02  0.30382184205E+02  0.00000000000E+00 0.  1.
</event>
<event>
 8    1  0.7489580E-009  0.9118800E+02  0.7816164E-02  0.1184000E+00
        -11   -1    0    0    0    0  0.00000000000E+00  0.00000000000E+00  0.45593999997E+02  0.45594000000E+02  0.51100000000E-03 0.  1.
         11   -1    0    0    0    0 -0.00000000000E+00 -0.00000000000E+00 -0.45593999997E+02  0.45594000000E+02  0.51100000000E-03 0. -1.
         23    2    1    2    0    0 -0.17763568394E-14  0.00000000000E+00  0.00000000000E+00  0.91188000000E+02  0.91188000000E+02 0.  0.
    9900012    2    3    3    0    0 -0.83517211863E+01 -0.43714914422E+02  0.69547473434E+01  0.46142317628E+02  0.99999987886E+01 0.  0.
         12    1    3    3    0    0  0.83517211863E+01  0.43714914422E+02 -0.69547473434E+01  0.45045682372E+02  0.00000000000E+00 0. -1.
         11    1    4    4    0    0 -0.35482355650E+01 -0.10024897532E+02 -0.83422153678E-02  0.10634313143E+02  0.51100000000E-03 0.  1.
        -11    1    4    4    0    0 -0.49446352088E+01 -0.10316720398E+02  0.20233184394E+01  0.11618001330E+02  0.51100000000E-03 0. -1.
         12    1    4    4    0    0  0.14114958751E+00 -0.23373296492E+02  0.49397711194E+01  0.23890003156E+02  0.00000000000E+00 0. -1.
</event>
<event>
 8    1  0.7489580E-009  0.9118800E+02  0.7816164E-02  0.1184000E+00
        -11   -1    0    0    0    0  0.00000000000E+00  0.00000000000E+00  0.45593999997E+02  0.45594000000E+02  0.51100000000E-03 0. -1.
         11   -1    0    0    0    0 -0.00000000000E+00 -0.00000000000E+00 -0.45593999997E+02  0.45594000000E+02  0.51100000000E-03 0.  1.
         23    2    1    2    0    0 -0.22204460493E-15 -0.44408920985E-15  0.00000000000E+00  0.91188000000E+02  0.91188000000E+02 0.  0.
    9900012    2    3    3    0    0  0.14871056614E+01 -0.22874369885E+01  0.44962983537E+02  0.46142314971E+02  0.99999745550E+01 0.  0.
        -12    1    3    3    0    0 -0.14871056614E+01  0.22874369885E+01 -0.44962983537E+02  0.45045685029E+02  0.00000000000E+00 0.  1.
         11    1    4    4    0    0 -0.65228629661E+00 -0.96026480889E+00  0.21490535519E+02  0.21521865697E+02  0.51100000000E-03 0. -1.
        -11    1    4    4    0    0  0.32392441364E+01 -0.36380307926E+01  0.15404764633E+02  0.16156569694E+02  0.51100000000E-03 0.  1.
        -12    1    4    4    0    0 -0.10998521784E+01  0.23108586130E+01  0.80676833851E+01  0.84638795801E+01  0.00000000000E+00 0.  1.
</event>
<event>
 8    1  0.7489580E-009  0.9118800E+02  0.7816164E-02  0.1184000E+00
        -11   -1    0    0    0    0  0.00000000000E+00  0.00000000000E+00  0.45593999997E+02  0.45594000000E+02  0.51100000000E-03 0. -1.
         11   -1    0    0    0    0 -0.00000000000E+00 -0.00000000000E+00 -0.45593999997E+02  0.45594000000E+02  0.51100000000E-03 0.  1.
         23    2    1    2    0    0 -0.13322676296E-14  0.00000000000E+00  0.00000000000E+00  0.91188000000E+02  0.91188000000E+02 0.  0.
    9900012    2    3    3    0    0 -0.39860082878E+01 -0.28737621171E+02 -0.34458299291E+02  0.46142317380E+02  0.99999965266E+01 0.  0.
         12    1    3    3    0    0  0.39860082878E+01  0.28737621171E+02  0.34458299291E+02  0.45045682620E+02  0.00000000000E+00 0. -1.
         11    1    4    4    0    0  0.13215810547E+01 -0.33878176975E+01 -0.12371132632E+01  0.38411371653E+01  0.51100000000E-03 0. -1.
        -11    1    4    4    0    0 -0.25491082532E+01 -0.48663857545E+01 -0.77435942182E+01  0.94943622679E+01  0.51100000000E-03 0.  1.
         12    1    4    4    0    0 -0.27584810893E+01 -0.20483417719E+02 -0.25477591810E+02  0.32806817947E+02  0.00000000000E+00 0. -1.
</event>
<event>
 8    1  0.7489580E-009  0.9118800E+02  0.7816164E-02  0.1184000E+00
        -11   -1    0    0    0    0  0.00000000000E+00  0.00000000000E+00  0.45593999997E+02  0.45594000000E+02  0.51100000000E-03 0.  1.
         11   -1    0    0    0    0 -0.00000000000E+00 -0.00000000000E+00 -0.45593999997E+02  0.45594000000E+02  0.51100000000E-03 0. -1.
         23    2    1    2    0    0  0.71054273576E-14 -0.44408920985E-15  0.00000000000E+00  0.91188000000E+02  0.91188000000E+02 0.  0.
    9900012    2    3    3    0    0  0.42129339883E+02 -0.34501894530E+01  0.15566901959E+02  0.46142317379E+02  0.99999965131E+01 0.  0.
        -12    1    3    3    0    0 -0.42129339883E+02  0.34501894530E+01 -0.15566901959E+02  0.45045682621E+02  0.00000000000E+00 0.  1.
         11    1    4    4    0    0  0.25305244799E+02 -0.95183033075E+00  0.77997135307E+01  0.26497111668E+02  0.51100000000E-03 0. -1.
        -11    1    4    4    0    0  0.11056244791E+02  0.13057713530E+01  0.49368899645E+01  0.12178607083E+02  0.51100000000E-03 0.  1.
        -12    1    4    4    0    0  0.57678502925E+01 -0.38041304752E+01  0.28302984639E+01  0.74665986275E+01  0.00000000000E+00 0.  1.
</event>
<event>
 8    1  0.7489580E-009  0.9118800E+02  0.7816164E-02  0.1184000E+00
        -11   -1    0    0    0    0  0.00000000000E+00  0.00000000000E+00  0.45593999997E+02  0.45594000000E+02  0.51100000000E-03 0. -1.
         11   -1    0    0    0    0 -0.00000000000E+00 -0.00000000000E+00 -0.45593999997E+02  0.45594000000E+02  0.51100000000E-03 0.  1.
         23    2    1    2    0    0  0.00000000000E+00 -0.88817841970E-15  0.00000000000E+00  0.91188000000E+02  0.91188000000E+02 0.  0.
    9900012    2    3    3    0    0  0.19780523217E+02 -0.55728793754E+01 -0.40084752441E+02  0.46142318059E+02  0.10000002716E+02 0.  0.
         12    1    3    3    0    0 -0.19780523217E+02  0.55728793754E+01  0.40084752441E+02  0.45045681941E+02  0.00000000000E+00 0. -1.
         11    1    4    4    0    0 -0.25807099787E+00  0.30280003606E+00 -0.25152323208E+00  0.47069384867E+00  0.51100000000E-03 0. -1.
        -11    1    4    4    0    0  0.12066796678E+02 -0.28360330386E+00 -0.26887573959E+02  0.29472523587E+02  0.51100000000E-03 0.  1.
        -12    1    4    4    0    0  0.79717975367E+01 -0.55920761076E+01 -0.12945655250E+02  0.16199100624E+02  0.00000000000E+00 0.  1.
</event>
<event>
 8    1  0.7489580E-009  0.9118800E+02  0.7816164E-02  0.1184000E+00
        -11   -1    0    0    0    0  0.00000000000E+00  0.00000000000E+00  0.45593999997E+02  0.45594000000E+02  0.51100000000E-03 0. -1.
         11   -1    0    0    0    0 -0.00000000000E+00 -0.00000000000E+00 -0.45593999997E+02  0.45594000000E+02  0.51100000000E-03 0.  1.
         23    2    1    2    0    0  0.00000000000E+00  0.00000000000E+00  0.00000000000E+00  0.91188000000E+02  0.91188000000E+02 0.  0.
    9900012    2    3    3    0    0  0.12764343603E+02 -0.27120996891E+02 -0.33624939695E+02  0.46142317527E+02  0.99999978640E+01 0.  0.
         12    1    3    3    0    0 -0.12764343603E+02  0.27120996891E+02  0.33624939695E+02  0.45045682473E+02  0.00000000000E+00 0. -1.
         11    1    4    4    0    0  0.71958931688E+01 -0.75642276809E+01 -0.94324267781E+01  0.14070149043E+02  0.51100000000E-03 0. -1.
        -11    1    4    4    0    0  0.60061701414E+01 -0.18262839046E+02 -0.20354899442E+02  0.27998701779E+02  0.51100000000E-03 0.  1.
        -12    1    4    4    0    0 -0.43771970685E+00 -0.12939301649E+01 -0.38376134748E+01  0.40734667049E+01  0.00000000000E+00 0.  1.
</event>
<event>
 8    1  0.7489580E-009  0.9118800E+02  0.7816164E-02  0.1184000E+00
        -11   -1    0    0    0    0  0.00000000000E+00  0.00000000000E+00  0.45593999997E+02  0.45594000000E+02  0.51100000000E-03 0. -1.
         11   -1    0    0    0    0 -0.00000000000E+00 -0.00000000000E+00 -0.45593999997E+02  0.45594000000E+02  0.51100000000E-03 0.  1.
         23    2    1    2    0    0  0.35527136788E-14  0.00000000000E+00 -0.35527136788E-14  0.91188000000E+02  0.91188000000E+02 0.  0.
    9900012    2    3    3    0    0  0.26269195543E+02  0.30680106674E+02 -0.19944270841E+02  0.46142317417E+02  0.99999968613E+01 0.  0.
         12    1    3    3    0    0 -0.26269195543E+02 -0.30680106674E+02  0.19944270841E+02  0.45045682583E+02  0.00000000000E+00 0. -1.
         11    1    4    4    0    0  0.40716139117E+01  0.92028282595E+01 -0.83878230822E+01  0.13100597854E+02  0.51100000000E-03 0. -1.
        -11    1    4    4    0    0  0.10628627402E+02  0.92770793120E+01 -0.60420058454E+01  0.15347239358E+02  0.51100000000E-03 0.  1.
         12    1    4    4    0    0  0.11568954230E+02  0.12200199102E+02 -0.55144419132E+01  0.17694480205E+02  0.00000000000E+00 0. -1.
</event>
<event>
 8    1  0.7489580E-009  0.9118800E+02  0.7816164E-02  0.1184000E+00
        -11   -1    0    0    0    0  0.00000000000E+00  0.00000000000E+00  0.45593999997E+02  0.45594000000E+02  0.51100000000E-03 0. -1.
         11   -1    0    0    0    0 -0.00000000000E+00 -0.00000000000E+00 -0.45593999997E+02  0.45594000000E+02  0.51100000000E-03 0.  1.
         23    2    1    2    0    0  0.35527136788E-14  0.35527136788E-14  0.35527136788E-14  0.91188000000E+02  0.91188000000E+02 0.  0.
    9900012    2    3    3    0    0 -0.26384462871E+02 -0.29718134834E+02 -0.21208631312E+02  0.46142318063E+02  0.10000002755E+02 0.  0.
         12    1    3    3    0    0  0.26384462871E+02  0.29718134834E+02  0.21208631312E+02  0.45045681937E+02  0.00000000000E+00 0. -1.
         11    1    4    4    0    0 -0.17020373361E+02 -0.16752758680E+02 -0.11896519771E+02  0.26680989780E+02  0.51100000000E-03 0.  1.
        -11    1    4    4    0    0 -0.83259679600E+01 -0.10942508042E+02 -0.10093694272E+02  0.17057048075E+02  0.51100000000E-03 0. -1.
        -12    1    4    4    0    0 -0.10381215503E+01 -0.20228681124E+01  0.78158273094E+00  0.24042802080E+01  0.00000000000E+00 0.  1.
</event>
<event>
 8    1  0.7489580E-009  0.9118800E+02  0.7816164E-02  0.1184000E+00
        -11   -1    0    0    0    0  0.00000000000E+00  0.00000000000E+00  0.45593999997E+02  0.45594000000E+02  0.51100000000E-03 0. -1.
         11   -1    0    0    0    0 -0.00000000000E+00 -0.00000000000E+00 -0.45593999997E+02  0.45594000000E+02  0.51100000000E-03 0.  1.
         23    2    1    2    0    0  0.00000000000E+00  0.00000000000E+00 -0.71054273576E-14  0.91188000000E+02  0.91188000000E+02 0.  0.
    9900012    2    3    3    0    0  0.47207619791E+01 -0.86426133092E+01 -0.43956038908E+02  0.46142315246E+02  0.99999770688E+01 0.  0.
         12    1    3    3    0    0 -0.47207619791E+01  0.86426133092E+01  0.43956038908E+02  0.45045684754E+02  0.00000000000E+00 0. -1.
         11    1    4    4    0    0  0.89873963513E-01 -0.82903016141E+00 -0.58542665064E+00  0.10188684715E+01  0.51100000000E-03 0. -1.
        -11    1    4    4    0    0  0.24223413922E+01 -0.11451309019E+00 -0.25288415622E+01  0.35036967585E+01  0.51100000000E-03 0.  1.
        -12    1    4    4    0    0  0.22085466234E+01 -0.76990700576E+01 -0.40841770695E+02  0.41619750016E+02  0.00000000000E+00 0.  1.
</event>
<event>
 8    1  0.7489580E-009  0.9118800E+02  0.7816164E-02  0.1184000E+00
        -11   -1    0    0    0    0  0.00000000000E+00  0.00000000000E+00  0.45593999997E+02  0.45594000000E+02  0.51100000000E-03 0. -1.
         11   -1    0    0    0    0 -0.00000000000E+00 -0.00000000000E+00 -0.45593999997E+02  0.45594000000E+02  0.51100000000E-03 0.  1.
         23    2    1    2    0    0  0.35527136788E-14  0.35527136788E-14 -0.35527136788E-14  0.91188000000E+02  0.91188000000E+02 0.  0.
    9900012    2    3    3    0    0  0.22561996688E+02  0.24602987358E+02 -0.30245042536E+02  0.46142320079E+02  0.10000021140E+02 0.  0.
         12    1    3    3    0    0 -0.22561996688E+02 -0.24602987358E+02  0.30245042536E+02  0.45045679921E+02  0.00000000000E+00 0. -1.
         11    1    4    4    0    0  0.32681059735E+01  0.72400300699E+01 -0.10250875347E+02  0.12968384545E+02  0.51100000000E-03 0. -1.
        -11    1    4    4    0    0  0.52360552106E+01  0.77631681447E+01 -0.83833682683E+01  0.12568369727E+02  0.51100000000E-03 0.  1.
        -12    1    4    4    0    0  0.14057835504E+02  0.95997891434E+01 -0.11610798921E+02  0.20605565807E+02  0.00000000000E+00 0.  1.
</event>
<event>
 8    1  0.7489580E-009  0.9118800E+02  0.7816164E-02  0.1184000E+00
        -11   -1    0    0    0    0  0.00000000000E+00  0.00000000000E+00  0.45593999997E+02  0.45594000000E+02  0.51100000000E-03 0. -1.
         11   -1    0    0    0    0 -0.00000000000E+00 -0.00000000000E+00 -0.45593999997E+02  0.45594000000E+02  0.51100000000E-03 0.  1.
         23    2    1    2    0    0  0.35527136788E-14  0.00000000000E+00  0.00000000000E+00  0.91188000000E+02  0.91188000000E+02 0.  0.
    9900012    2    3    3    0    0  0.19105988888E+02 -0.14616163304E+02  0.38084673838E+02  0.46142318493E+02  0.10000006674E+02 0.  0.
        -12    1    3    3    0    0 -0.19105988888E+02  0.14616163304E+02 -0.38084673838E+02  0.45045681507E+02  0.00000000000E+00 0.  1.
         11    1    4    4    0    0  0.23836620635E+01 -0.29599270396E+01  0.33255030399E+01  0.50499488752E+01  0.51100000000E-03 0.  1.
        -11    1    4    4    0    0  0.66039846848E+01 -0.46258783799E+01  0.68326619622E+01  0.10568662841E+02  0.51100000000E-03 0. -1.
         12    1    4    4    0    0  0.10118342139E+02 -0.70303578848E+01  0.27926508835E+02  0.30523706776E+02  0.00000000000E+00 0. -1.
</event>
<event>
 8    1  0.7489580E-009  0.9118800E+02  0.7816164E-02  0.1184000E+00
        -11   -1    0    0    0    0  0.00000000000E+00  0.00000000000E+00  0.45593999997E+02  0.45594000000E+02  0.51100000000E-03 0. -1.
         11   -1    0    0    0    0 -0.00000000000E+00 -0.00000000000E+00 -0.45593999997E+02  0.45594000000E+02  0.51100000000E-03 0.  1.
         23    2    1    2    0    0  0.00000000000E+00 -0.88817841970E-15 -0.14210854715E-13  0.91188000000E+02  0.91188000000E+02 0.  0.
    9900012    2    3    3    0    0 -0.10684005008E+02 -0.39123480823E+01 -0.43585077208E+02  0.46142318900E+02  0.10000010387E+02 0.  0.
         12    1    3    3    0    0  0.10684005008E+02  0.39123480823E+01  0.43585077208E+02  0.45045681100E+02  0.00000000000E+00 0. -1.
         11    1    4    4    0    0 -0.11149262716E+01 -0.21826363952E+01 -0.22421827932E+01  0.33217986339E+01  0.51100000000E-03 0. -1.
        -11    1    4    4    0    0 -0.17902324346E+01  0.38875186561E+00 -0.22330586604E+01  0.28883579115E+01  0.51100000000E-03 0.  1.
         12    1    4    4    0    0 -0.77788463019E+01 -0.21184635528E+01 -0.39109835754E+02  0.39932162355E+02  0.00000000000E+00 0. -1.
</event>
<event>
 8    1  0.7489580E-009  0.9118800E+02  0.7816164E-02  0.1184000E+00
        -11   -1    0    0    0    0  0.00000000000E+00  0.00000000000E+00  0.45593999997E+02  0.45594000000E+02  0.51100000000E-03 0. -1.
         11   -1    0    0    0    0 -0.00000000000E+00 -0.00000000000E+00 -0.45593999997E+02  0.45594000000E+02  0.51100000000E-03 0.  1.
         23    2    1    2    0    0  0.00000000000E+00  0.00000000000E+00  0.00000000000E+00  0.91188000000E+02  0.91188000000E+02 0.  0.
    9900012    2    3    3    0    0  0.16046190246E+02  0.34563600402E+02 -0.24020640764E+02  0.46142313449E+02  0.99999606790E+01 0.  0.
         12    1    3    3    0    0 -0.16046190246E+02 -0.34563600402E+02  0.24020640764E+02  0.45045686551E+02  0.00000000000E+00 0. -1.
         11    1    4    4    0    0  0.27422316470E+01  0.14626832168E+01 -0.28628310160E+01  0.42255269832E+01  0.51100000000E-03 0. -1.
        -11    1    4    4    0    0  0.12887768107E+02  0.26846451480E+02 -0.18812549313E+02  0.35224118665E+02  0.51100000000E-03 0.  1.
         12    1    4    4    0    0  0.41619049200E+00  0.62544657050E+01 -0.23452604356E+01  0.66926678008E+01  0.00000000000E+00 0. -1.
</event>
<event>
 8    1  0.7489580E-009  0.9118800E+02  0.7816164E-02  0.1184000E+00
        -11   -1    0    0    0    0  0.00000000000E+00  0.00000000000E+00  0.45593999997E+02  0.45594000000E+02  0.51100000000E-03 0. -1.
         11   -1    0    0    0    0 -0.00000000000E+00 -0.00000000000E+00 -0.45593999997E+02  0.45594000000E+02  0.51100000000E-03 0.  1.
         23    2    1    2    0    0  0.00000000000E+00  0.00000000000E+00 -0.71054273576E-14  0.91188000000E+02  0.91188000000E+02 0.  0.
    9900012    2    3    3    0    0  0.16441814128E+02  0.10960320751E+02  0.40480260465E+02  0.46142319074E+02  0.10000011973E+02 0.  0.
        -12    1    3    3    0    0 -0.16441814128E+02 -0.10960320751E+02 -0.40480260465E+02  0.45045680926E+02  0.00000000000E+00 0.  1.
         11    1    4    4    0    0  0.16388487612E+02  0.11553178161E+02  0.36429041030E+02  0.41582850822E+02  0.51100000000E-03 0. -1.
        -11    1    4    4    0    0 -0.64265258220E+00  0.47967000946E+00  0.13342371152E+01  0.15566870592E+01  0.51100000000E-03 0.  1.
         12    1    4    4    0    0  0.69597909842E+00 -0.10725274196E+01  0.27169823191E+01  0.30027811931E+01  0.00000000000E+00 0. -1.
</event>
<event>
 8    1  0.7489580E-009  0.9118800E+02  0.7816164E-02  0.1184000E+00
        -11   -1    0    0    0    0  0.00000000000E+00  0.00000000000E+00  0.45593999997E+02  0.45594000000E+02  0.51100000000E-03 0. -1.
         11   -1    0    0    0    0 -0.00000000000E+00 -0.00000000000E+00 -0.45593999997E+02  0.45594000000E+02  0.51100000000E-03 0.  1.
         23    2    1    2    0    0  0.00000000000E+00  0.00000000000E+00  0.00000000000E+00  0.91188000000E+02  0.91188000000E+02 0.  0.
    9900012    2    3    3    0    0 -0.79813307851E+01 -0.37685186033E+02  0.23350339642E+02  0.46142320420E+02  0.10000024244E+02 0.  0.
        -12    1    3    3    0    0  0.79813307851E+01  0.37685186033E+02 -0.23350339642E+02  0.45045679580E+02  0.00000000000E+00 0.  1.
         11    1    4    4    0    0 -0.10431859550E+01 -0.10189616958E+02  0.71185874392E+01  0.12473604855E+02  0.51100000000E-03 0. -1.
        -11    1    4    4    0    0  0.13150555678E+01 -0.78434961642E+00  0.10350197192E+01  0.18481995421E+01  0.51100000000E-03 0.  1.
         12    1    4    4    0    0 -0.82532003980E+01 -0.26711219458E+02  0.15196732483E+02  0.31820516022E+02  0.00000000000E+00 0. -1.
</event>
<event>
 8    1  0.7489580E-009  0.9118800E+02  0.7816164E-02  0.1184000E+00
        -11   -1    0    0    0    0  0.00000000000E+00  0.00000000000E+00  0.45593999997E+02  0.45594000000E+02  0.51100000000E-03 0. -1.
         11   -1    0    0    0    0 -0.00000000000E+00 -0.00000000000E+00 -0.45593999997E+02  0.45594000000E+02  0.51100000000E-03 0.  1.
         23    2    1    2    0    0  0.00000000000E+00  0.00000000000E+00 -0.35527136788E-14  0.91188000000E+02  0.91188000000E+02 0.  0.
    9900012    2    3    3    0    0  0.21988368025E+02 -0.32677035393E+02 -0.21859471810E+02  0.46142317873E+02  0.10000001020E+02 0.  0.
         12    1    3    3    0    0 -0.21988368025E+02  0.32677035393E+02  0.21859471810E+02  0.45045682127E+02  0.00000000000E+00 0. -1.
         11    1    4    4    0    0  0.76848908768E+01 -0.11096358172E+02 -0.36221576340E+01  0.13975218734E+02  0.51100000000E-03 0. -1.
        -11    1    4    4    0    0  0.11345040323E+02 -0.12295507864E+02 -0.12161126275E+02  0.20682902265E+02  0.51100000000E-03 0.  1.
        -12    1    4    4    0    0  0.29584368254E+01 -0.92851693565E+01 -0.60761879005E+01  0.11484196874E+02  0.00000000000E+00 0.  1.
</event>
<event>
 8    1  0.7489580E-009  0.9118800E+02  0.7816164E-02  0.1184000E+00
        -11   -1    0    0    0    0  0.00000000000E+00  0.00000000000E+00  0.45593999997E+02  0.45594000000E+02  0.51100000000E-03 0. -1.
         11   -1    0    0    0    0 -0.00000000000E+00 -0.00000000000E+00 -0.45593999997E+02  0.45594000000E+02  0.51100000000E-03 0.  1.
         23    2    1    2    0    0  0.00000000000E+00  0.00000000000E+00  0.00000000000E+00  0.91188000000E+02  0.91188000000E+02 0.  0.
    9900012    2    3    3    0    0  0.54851630848E+01 -0.34652680464E+02 -0.28252756174E+02  0.46142317533E+02  0.99999979244E+01 0.  0.
         12    1    3    3    0    0 -0.54851630848E+01  0.34652680464E+02  0.28252756174E+02  0.45045682467E+02  0.00000000000E+00 0. -1.
         11    1    4    4    0    0 -0.43765652030E-01 -0.48420208772E+00 -0.10177292761E+01  0.11278919428E+01  0.51100000000E-03 0. -1.
        -11    1    4    4    0    0  0.56781162201E+01 -0.14236006324E+02 -0.78929702897E+01  0.17239601507E+02  0.51100000000E-03 0.  1.
        -12    1    4    4    0    0 -0.14918748327E+00 -0.19932472053E+02 -0.19342056608E+02  0.27774824084E+02  0.00000000000E+00 0.  1.
</event>
<event>
 8    1  0.7489580E-009  0.9118800E+02  0.7816164E-02  0.1184000E+00
        -11   -1    0    0    0    0  0.00000000000E+00  0.00000000000E+00  0.45593999997E+02  0.45594000000E+02  0.51100000000E-03 0. -1.
         11   -1    0    0    0    0 -0.00000000000E+00 -0.00000000000E+00 -0.45593999997E+02  0.45594000000E+02  0.51100000000E-03 0.  1.
         23    2    1    2    0    0 -0.35527136788E-14 -0.88817841970E-15 -0.35527136788E-14  0.91188000000E+02  0.91188000000E+02 0.  0.
    9900012    2    3    3    0    0 -0.31493989178E+02  0.58519744545E+01  0.31670120147E+02  0.46142317971E+02  0.10000001913E+02 0.  0.
        -12    1    3    3    0    0  0.31493989178E+02 -0.58519744545E+01 -0.31670120147E+02  0.45045682029E+02  0.00000000000E+00 0.  1.
         11    1    4    4    0    0 -0.40481060045E+01  0.26629281987E+01  0.58705576582E+01  0.76119508862E+01  0.51100000000E-03 0. -1.
        -11    1    4    4    0    0 -0.17185518288E+00  0.65533636043E+00 -0.25749492435E+00  0.72477848090E+00  0.51100000000E-03 0.  1.
         12    1    4    4    0    0 -0.27274027990E+02  0.25337098953E+01  0.26057057413E+02  0.37805588604E+02  0.00000000000E+00 0. -1.
</event>
<event>
 8    1  0.7489580E-009  0.9118800E+02  0.7816164E-02  0.1184000E+00
        -11   -1    0    0    0    0  0.00000000000E+00  0.00000000000E+00  0.45593999997E+02  0.45594000000E+02  0.51100000000E-03 0. -1.
         11   -1    0    0    0    0 -0.00000000000E+00 -0.00000000000E+00 -0.45593999997E+02  0.45594000000E+02  0.51100000000E-03 0.  1.
         23    2    1    2    0    0 -0.35527136788E-14  0.00000000000E+00  0.00000000000E+00  0.91188000000E+02  0.91188000000E+02 0.  0.
    9900012    2    3    3    0    0 -0.27098641020E+02  0.10351541978E+02  0.34461902383E+02  0.46142317829E+02  0.10000000615E+02 0.  0.
        -12    1    3    3    0    0  0.27098641020E+02 -0.10351541978E+02 -0.34461902383E+02  0.45045682171E+02  0.00000000000E+00 0.  1.
         11    1    4    4    0    0 -0.21704974471E+02  0.94514514311E+01  0.32533580902E+02  0.40235180346E+02  0.51100000000E-03 0. -1.
        -11    1    4    4    0    0 -0.27380126461E+01  0.81162495859E+00  0.53001821035E+00  0.29045426297E+01  0.51100000000E-03 0.  1.
         12    1    4    4    0    0 -0.26556539028E+01  0.88465588378E-01  0.13983032705E+01  0.30025948525E+01  0.00000000000E+00 0. -1.
</event>
<event>
 8    1  0.7489580E-009  0.9118800E+02  0.7816164E-02  0.1184000E+00
        -11   -1    0    0    0    0  0.00000000000E+00  0.00000000000E+00  0.45593999997E+02  0.45594000000E+02  0.51100000000E-03 0.  1.
         11   -1    0    0    0    0 -0.00000000000E+00 -0.00000000000E+00 -0.45593999997E+02  0.45594000000E+02  0.51100000000E-03 0. -1.
         23    2    1    2    0    0  0.00000000000E+00  0.38857805862E-15 -0.35527136788E-14  0.91188000000E+02  0.91188000000E+02 0.  0.
    9900012    2    3    3    0    0 -0.40699781943E+02 -0.30543502523E+00  0.19301498595E+02  0.46142318867E+02  0.10000010085E+02 0.  0.
        -12    1    3    3    0    0  0.40699781943E+02  0.30543502523E+00 -0.19301498595E+02  0.45045681133E+02  0.00000000000E+00 0.  1.
         11    1    4    4    0    0 -0.13657354967E+02 -0.28401530789E+01  0.67321395034E+01  0.15489077337E+02  0.51100000000E-03 0. -1.
        -11    1    4    4    0    0 -0.61124419922E+01 -0.38106187934E+00  0.11756581412E+00  0.61254369025E+01  0.51100000000E-03 0.  1.
         12    1    4    4    0    0 -0.20929984984E+02  0.29157799330E+01  0.12451793277E+02  0.24527804628E+02  0.00000000000E+00 0. -1.
</event>
<event>
 8    1  0.7489580E-009  0.9118800E+02  0.7816164E-02  0.1184000E+00
        -11   -1    0    0    0    0  0.00000000000E+00  0.00000000000E+00  0.45593999997E+02  0.45594000000E+02  0.51100000000E-03 0. -1.
         11   -1    0    0    0    0 -0.00000000000E+00 -0.00000000000E+00 -0.45593999997E+02  0.45594000000E+02  0.51100000000E-03 0.  1.
         23    2    1    2    0    0  0.00000000000E+00  0.00000000000E+00  0.35527136788E-14  0.91188000000E+02  0.91188000000E+02 0.  0.
    9900012    2    3    3    0    0  0.33675320889E+02 -0.41635647747E+01 -0.29626847299E+02  0.46142327738E+02  0.10000090980E+02 0.  0.
         12    1    3    3    0    0 -0.33675320889E+02  0.41635647747E+01  0.29626847299E+02  0.45045672262E+02  0.00000000000E+00 0. -1.
         11    1    4    4    0    0  0.74919956986E+01  0.97669499877E+00 -0.11544998639E+02  0.13797497110E+02  0.51100000000E-03 0. -1.
        -11    1    4    4    0    0  0.93068002487E+01 -0.26501753481E+01 -0.77787284005E+01  0.12415658502E+02  0.51100000000E-03 0.  1.
        -12    1    4    4    0    0  0.16876524942E+02 -0.24900844254E+01 -0.10303120260E+02  0.19929172126E+02  0.00000000000E+00 0.  1.
</event>
<event>
 8    1  0.7489580E-009  0.9118800E+02  0.7816164E-02  0.1184000E+00
        -11   -1    0    0    0    0  0.00000000000E+00  0.00000000000E+00  0.45593999997E+02  0.45594000000E+02  0.51100000000E-03 0. -1.
         11   -1    0    0    0    0 -0.00000000000E+00 -0.00000000000E+00 -0.45593999997E+02  0.45594000000E+02  0.51100000000E-03 0.  1.
         23    2    1    2    0    0  0.00000000000E+00 -0.35527136788E-14  0.00000000000E+00  0.91188000000E+02  0.91188000000E+02 0.  0.
    9900012    2    3    3    0    0 -0.35219488958E+02 -0.22816672942E+02 -0.16373774729E+02  0.46142318015E+02  0.10000002315E+02 0.  0.
         12    1    3    3    0    0  0.35219488958E+02  0.22816672942E+02  0.16373774729E+02  0.45045681985E+02  0.00000000000E+00 0. -1.
         11    1    4    4    0    0 -0.38710439783E+01 -0.65746176005E+01 -0.40903536689E+01  0.86568800080E+01  0.51100000000E-03 0. -1.
        -11    1    4    4    0    0 -0.17579374410E+02 -0.85221654321E+01 -0.81475830991E+01  0.21167069209E+02  0.51100000000E-03 0.  1.
         12    1    4    4    0    0 -0.13769070570E+02 -0.77198899097E+01 -0.41358379609E+01  0.16318368798E+02  0.00000000000E+00 0. -1.
</event>
<event>
 8    1  0.7489580E-009  0.9118800E+02  0.7816164E-02  0.1184000E+00
        -11   -1    0    0    0    0  0.00000000000E+00  0.00000000000E+00  0.45593999997E+02  0.45594000000E+02  0.51100000000E-03 0. -1.
         11   -1    0    0    0    0 -0.00000000000E+00 -0.00000000000E+00 -0.45593999997E+02  0.45594000000E+02  0.51100000000E-03 0.  1.
         23    2    1    2    0    0 -0.17763568394E-14 -0.35527136788E-14  0.35527136788E-14  0.91188000000E+02  0.91188000000E+02 0.  0.
    9900012    2    3    3    0    0  0.13637753227E+02  0.29883856612E+02 -0.30823376897E+02  0.46142314720E+02  0.99999722655E+01 0.  0.
         12    1    3    3    0    0 -0.13637753227E+02 -0.29883856612E+02  0.30823376897E+02  0.45045685280E+02  0.00000000000E+00 0. -1.
         11    1    4    4    0    0  0.55597033587E+01  0.16724237980E+02 -0.15863393639E+02  0.23711973672E+02  0.51100000000E-03 0. -1.
        -11    1    4    4    0    0  0.96666586733E+00  0.39273195542E+00 -0.40795640697E+01  0.42108816830E+01  0.51100000000E-03 0.  1.
         12    1    4    4    0    0  0.71113840008E+01  0.12766886676E+02 -0.10880419188E+02  0.18219459364E+02  0.00000000000E+00 0. -1.
</event>
<event>
 8    1  0.7489580E-009  0.9118800E+02  0.7816164E-02  0.1184000E+00
        -11   -1    0    0    0    0  0.00000000000E+00  0.00000000000E+00  0.45593999997E+02  0.45594000000E+02  0.51100000000E-03 0. -1.
         11   -1    0    0    0    0 -0.00000000000E+00 -0.00000000000E+00 -0.45593999997E+02  0.45594000000E+02  0.51100000000E-03 0.  1.
         23    2    1    2    0    0  0.17763568394E-14  0.00000000000E+00  0.00000000000E+00  0.91188000000E+02  0.91188000000E+02 0.  0.
    9900012    2    3    3    0    0 -0.12052413152E+02 -0.16479560069E+02  0.40153167334E+02  0.46142318633E+02  0.10000007954E+02 0.  0.
        -12    1    3    3    0    0  0.12052413152E+02  0.16479560069E+02 -0.40153167334E+02  0.45045681367E+02  0.00000000000E+00 0.  1.
         11    1    4    4    0    0 -0.35575855346E+01 -0.48441201015E+01  0.45179598901E+01  0.75189012644E+01  0.51100000000E-03 0. -1.
        -11    1    4    4    0    0 -0.16156662623E+01 -0.51668609087E+01  0.14372793401E+02  0.15358516189E+02  0.51100000000E-03 0.  1.
         12    1    4    4    0    0 -0.68791613548E+01 -0.64685790588E+01  0.21262414043E+02  0.23264901180E+02  0.00000000000E+00 0. -1.
</event>
<event>
 8    1  0.7489580E-009  0.9118800E+02  0.7816164E-02  0.1184000E+00
        -11   -1    0    0    0    0  0.00000000000E+00  0.00000000000E+00  0.45593999997E+02  0.45594000000E+02  0.51100000000E-03 0. -1.
         11   -1    0    0    0    0 -0.00000000000E+00 -0.00000000000E+00 -0.45593999997E+02  0.45594000000E+02  0.51100000000E-03 0.  1.
         23    2    1    2    0    0  0.35527136788E-14  0.00000000000E+00 -0.35527136788E-14  0.91188000000E+02  0.91188000000E+02 0.  0.
    9900012    2    3    3    0    0 -0.30772122710E+02 -0.14062647703E+02  0.29739395153E+02  0.46142320733E+02  0.10000027103E+02 0.  0.
        -12    1    3    3    0    0  0.30772122710E+02  0.14062647703E+02 -0.29739395153E+02  0.45045679267E+02  0.00000000000E+00 0.  1.
         11    1    4    4    0    0 -0.16256859227E+02 -0.55671687658E+01  0.11409207807E+02  0.20626411783E+02  0.51100000000E-03 0. -1.
        -11    1    4    4    0    0 -0.41089893528E+01 -0.36871551453E+01  0.27358348179E+01  0.61614688978E+01  0.51100000000E-03 0.  1.
        -12    1    4    4    0    0 -0.10406274130E+02 -0.48083237924E+01  0.15594352529E+02  0.19354440053E+02  0.00000000000E+00 0.  1.
</event>
<event>
 8    1  0.7489580E-009  0.9118800E+02  0.7816164E-02  0.1184000E+00
        -11   -1    0    0    0    0  0.00000000000E+00  0.00000000000E+00  0.45593999997E+02  0.45594000000E+02  0.51100000000E-03 0. -1.
         11   -1    0    0    0    0 -0.00000000000E+00 -0.00000000000E+00 -0.45593999997E+02  0.45594000000E+02  0.51100000000E-03 0.  1.
         23    2    1    2    0    0  0.00000000000E+00  0.00000000000E+00  0.00000000000E+00  0.91188000000E+02  0.91188000000E+02 0.  0.
    9900012    2    3    3    0    0  0.89767084769E+01 -0.82714360047E+01 -0.43360298649E+02  0.46142318213E+02  0.10000004124E+02 0.  0.
         12    1    3    3    0    0 -0.89767084769E+01  0.82714360047E+01  0.43360298649E+02  0.45045681787E+02  0.00000000000E+00 0. -1.
         11    1    4    4    0    0  0.14422190543E+01 -0.39187644611E+01 -0.73924056202E+01  0.84902515756E+01  0.51100000000E-03 0. -1.
        -11    1    4    4    0    0  0.50862133555E+01 -0.34952332106E+01 -0.33526641546E+02  0.34089909286E+02  0.51100000000E-03 0.  1.
        -12    1    4    4    0    0  0.24482760671E+01 -0.85743833302E+00 -0.24412514831E+01  0.35621573519E+01  0.00000000000E+00 0.  1.
</event>
<event>
 8    1  0.7489580E-009  0.9118800E+02  0.7816164E-02  0.1184000E+00
        -11   -1    0    0    0    0  0.00000000000E+00  0.00000000000E+00  0.45593999997E+02  0.45594000000E+02  0.51100000000E-03 0. -1.
         11   -1    0    0    0    0 -0.00000000000E+00 -0.00000000000E+00 -0.45593999997E+02  0.45594000000E+02  0.51100000000E-03 0.  1.
         23    2    1    2    0    0  0.00000000000E+00 -0.17763568394E-14  0.00000000000E+00  0.91188000000E+02  0.91188000000E+02 0.  0.
    9900012    2    3    3    0    0  0.23139856062E+01  0.13007344300E+02  0.43064696068E+02  0.46142316715E+02  0.99999904623E+01 0.  0.
        -12    1    3    3    0    0 -0.23139856062E+01 -0.13007344300E+02 -0.43064696068E+02  0.45045683285E+02  0.00000000000E+00 0.  1.
         11    1    4    4    0    0  0.29947515200E+01  0.48094779418E+01  0.14744405057E+02  0.15795477058E+02  0.51100000000E-03 0. -1.
        -11    1    4    4    0    0 -0.19537166346E+00  0.57897408778E+01  0.79924097434E+01  0.98710629259E+01  0.51100000000E-03 0.  1.
         12    1    4    4    0    0 -0.48539425031E+00  0.24081254808E+01  0.20327881268E+02  0.20475776732E+02  0.00000000000E+00 0. -1.
</event>
<event>
 8    1  0.7489580E-009  0.9118800E+02  0.7816164E-02  0.1184000E+00
        -11   -1    0    0    0    0  0.00000000000E+00  0.00000000000E+00  0.45593999997E+02  0.45594000000E+02  0.51100000000E-03 0. -1.
         11   -1    0    0    0    0 -0.00000000000E+00 -0.00000000000E+00 -0.45593999997E+02  0.45594000000E+02  0.51100000000E-03 0.  1.
         23    2    1    2    0    0  0.00000000000E+00  0.88817841970E-15 -0.71054273576E-14  0.91188000000E+02  0.91188000000E+02 0.  0.
    9900012    2    3    3    0    0  0.22992448275E+02 -0.53462448966E+01  0.38365069338E+02  0.46142316994E+02  0.99999930061E+01 0.  0.
        -12    1    3    3    0    0 -0.22992448275E+02  0.53462448966E+01 -0.38365069338E+02  0.45045683006E+02  0.00000000000E+00 0.  1.
         11    1    4    4    0    0  0.85334190751E+01 -0.25138179601E+01  0.15584651517E+02  0.17944912511E+02  0.51100000000E-03 0. -1.
        -11    1    4    4    0    0 -0.44670300705E+00  0.75533544014E+00  0.32600354554E+01  0.33760785884E+01  0.51100000000E-03 0.  1.
        -12    1    4    4    0    0  0.14905732207E+02 -0.35877623767E+01  0.19520382365E+02  0.24821325895E+02  0.00000000000E+00 0.  1.
</event>
<event>
 8    1  0.7489580E-009  0.9118800E+02  0.7816164E-02  0.1184000E+00
        -11   -1    0    0    0    0  0.00000000000E+00  0.00000000000E+00  0.45593999997E+02  0.45594000000E+02  0.51100000000E-03 0. -1.
         11   -1    0    0    0    0 -0.00000000000E+00 -0.00000000000E+00 -0.45593999997E+02  0.45594000000E+02  0.51100000000E-03 0.  1.
         23    2    1    2    0    0  0.35527136788E-14  0.00000000000E+00  0.00000000000E+00  0.91188000000E+02  0.91188000000E+02 0.  0.
    9900012    2    3    3    0    0 -0.24500987890E+02 -0.27314486319E+02  0.26129178938E+02  0.46142316939E+02  0.99999925040E+01 0.  0.
        -12    1    3    3    0    0  0.24500987890E+02  0.27314486319E+02 -0.26129178938E+02  0.45045683061E+02  0.00000000000E+00 0.  1.
         11    1    4    4    0    0 -0.14698699945E+02 -0.13353537521E+02  0.85013430307E+01  0.21601888297E+02  0.51100000000E-03 0. -1.
        -11    1    4    4    0    0 -0.36222236330E+01 -0.46618141282E+01  0.63524709646E+01  0.86721913396E+01  0.51100000000E-03 0.  1.
         12    1    4    4    0    0 -0.61800643122E+01 -0.92991346697E+01  0.11275364943E+02  0.15868237303E+02  0.00000000000E+00 0. -1.
</event>
<event>
 8    1  0.7489580E-009  0.9118800E+02  0.7816164E-02  0.1184000E+00
        -11   -1    0    0    0    0  0.00000000000E+00  0.00000000000E+00  0.45593999997E+02  0.45594000000E+02  0.51100000000E-03 0. -1.
         11   -1    0    0    0    0 -0.00000000000E+00 -0.00000000000E+00 -0.45593999997E+02  0.45594000000E+02  0.51100000000E-03 0.  1.
         23    2    1    2    0    0 -0.44408920985E-15 -0.71054273576E-14  0.35527136788E-14  0.91188000000E+02  0.91188000000E+02 0.  0.
    9900012    2    3    3    0    0  0.24332904357E+01 -0.33638166584E+02  0.29860783360E+02  0.46142317229E+02  0.99999951449E+01 0.  0.
        -12    1    3    3    0    0 -0.24332904357E+01  0.33638166584E+02 -0.29860783360E+02  0.45045682771E+02  0.00000000000E+00 0.  1.
         11    1    4    4    0    0  0.23855365918E+01 -0.12725526627E+02  0.15853831577E+02  0.20468849227E+02  0.51100000000E-03 0. -1.
        -11    1    4    4    0    0 -0.40098207369E+00 -0.17437567897E+02  0.13655812630E+02  0.22151992678E+02  0.51100000000E-03 0.  1.
        -12    1    4    4    0    0  0.44873591763E+00 -0.34750720602E+01  0.35113915364E+00  0.35214753233E+01  0.00000000000E+00 0.  1.
</event>
<event>
 8    1  0.7489580E-009  0.9118800E+02  0.7816164E-02  0.1184000E+00
        -11   -1    0    0    0    0  0.00000000000E+00  0.00000000000E+00  0.45593999997E+02  0.45594000000E+02  0.51100000000E-03 0. -1.
         11   -1    0    0    0    0 -0.00000000000E+00 -0.00000000000E+00 -0.45593999997E+02  0.45594000000E+02  0.51100000000E-03 0.  1.
         23    2    1    2    0    0  0.00000000000E+00  0.00000000000E+00  0.00000000000E+00  0.91188000000E+02  0.91188000000E+02 0.  0.
    9900012    2    3    3    0    0  0.25117549935E+02  0.28364557784E+02 -0.24365428726E+02  0.46142316855E+02  0.99999917347E+01 0.  0.
         12    1    3    3    0    0 -0.25117549935E+02 -0.28364557784E+02  0.24365428726E+02  0.45045683145E+02  0.00000000000E+00 0. -1.
         11    1    4    4    0    0  0.32110919783E+01  0.11239682061E+01 -0.10416115584E+01  0.35580010007E+01  0.51100000000E-03 0. -1.
        -11    1    4    4    0    0  0.15922793348E+02  0.14671671926E+02 -0.13015442623E+02  0.25262522677E+02  0.51100000000E-03 0.  1.
         12    1    4    4    0    0  0.59836646090E+01  0.12568917652E+02 -0.10308374545E+02  0.17321793177E+02  0.00000000000E+00 0. -1.
</event>
<event>
 8    1  0.7489580E-009  0.9118800E+02  0.7816164E-02  0.1184000E+00
        -11   -1    0    0    0    0  0.00000000000E+00  0.00000000000E+00  0.45593999997E+02  0.45594000000E+02  0.51100000000E-03 0. -1.
         11   -1    0    0    0    0 -0.00000000000E+00 -0.00000000000E+00 -0.45593999997E+02  0.45594000000E+02  0.51100000000E-03 0.  1.
         23    2    1    2    0    0 -0.44408920985E-15  0.00000000000E+00  0.00000000000E+00  0.91188000000E+02  0.91188000000E+02 0.  0.
    9900012    2    3    3    0    0 -0.14230937900E+01  0.26367291619E+02  0.36494577905E+02  0.46142317857E+02  0.10000000875E+02 0.  0.
        -12    1    3    3    0    0  0.14230937900E+01 -0.26367291619E+02 -0.36494577905E+02  0.45045682143E+02  0.00000000000E+00 0.  1.
         11    1    4    4    0    0 -0.46684156324E+01  0.19568159792E+02  0.27781716070E+02  0.34300593730E+02  0.51100000000E-03 0. -1.
        -11    1    4    4    0    0 -0.11399911632E+00  0.23476701731E+01  0.34439105136E+01  0.41695408533E+01  0.51100000000E-03 0.  1.
        -12    1    4    4    0    0  0.33593209588E+01  0.44514616539E+01  0.52689513210E+01  0.76721832736E+01  0.00000000000E+00 0.  1.
</event>
<event>
 8    1  0.7489580E-009  0.9118800E+02  0.7816164E-02  0.1184000E+00
        -11   -1    0    0    0    0  0.00000000000E+00  0.00000000000E+00  0.45593999997E+02  0.45594000000E+02  0.51100000000E-03 0. -1.
         11   -1    0    0    0    0 -0.00000000000E+00 -0.00000000000E+00 -0.45593999997E+02  0.45594000000E+02  0.51100000000E-03 0.  1.
         23    2    1    2    0    0  0.88817841970E-15  0.71054273576E-14 -0.35527136788E-14  0.91188000000E+02  0.91188000000E+02 0.  0.
    9900012    2    3    3    0    0  0.18108590958E+01  0.36278730962E+02 -0.26639967860E+02  0.46142318537E+02  0.10000007077E+02 0.  0.
         12    1    3    3    0    0 -0.18108590958E+01 -0.36278730962E+02  0.26639967860E+02  0.45045681463E+02  0.00000000000E+00 0. -1.
         11    1    4    4    0    0 -0.61448546070E+00  0.12581195346E+01 -0.23255351956E+01  0.27145112547E+01  0.51100000000E-03 0. -1.
        -11    1    4    4    0    0 -0.22465683428E+01  0.21280631097E+02 -0.15823619203E+02  0.26613892128E+02  0.51100000000E-03 0.  1.
        -12    1    4    4    0    0  0.46719128993E+01  0.13739980330E+02 -0.84908134605E+01  0.16813915155E+02  0.00000000000E+00 0.  1.
</event>
<event>
 8    1  0.7489580E-009  0.9118800E+02  0.7816164E-02  0.1184000E+00
        -11   -1    0    0    0    0  0.00000000000E+00  0.00000000000E+00  0.45593999997E+02  0.45594000000E+02  0.51100000000E-03 0. -1.
         11   -1    0    0    0    0 -0.00000000000E+00 -0.00000000000E+00 -0.45593999997E+02  0.45594000000E+02  0.51100000000E-03 0.  1.
         23    2    1    2    0    0  0.00000000000E+00  0.00000000000E+00  0.00000000000E+00  0.91188000000E+02  0.91188000000E+02 0.  0.
    9900012    2    3    3    0    0 -0.20468684444E+02  0.81896450206E+01  0.39282008881E+02  0.46142317075E+02  0.99999937453E+01 0.  0.
        -12    1    3    3    0    0  0.20468684444E+02 -0.81896450206E+01 -0.39282008881E+02  0.45045682925E+02  0.00000000000E+00 0.  1.
         11    1    4    4    0    0 -0.10180707982E+02  0.90662848695E+00  0.22916783032E+02  0.25092782528E+02  0.51100000000E-03 0.  1.
        -11    1    4    4    0    0 -0.24196838546E+00  0.16818252368E+01  0.16084896207E+01  0.23397273234E+01  0.51100000000E-03 0. -1.
         12    1    4    4    0    0 -0.10046008077E+02  0.56011912968E+01  0.14756736228E+02  0.18709807223E+02  0.00000000000E+00 0. -1.
</event>
<event>
 8    1  0.7489580E-009  0.9118800E+02  0.7816164E-02  0.1184000E+00
        -11   -1    0    0    0    0  0.00000000000E+00  0.00000000000E+00  0.45593999997E+02  0.45594000000E+02  0.51100000000E-03 0.  1.
         11   -1    0    0    0    0 -0.00000000000E+00 -0.00000000000E+00 -0.45593999997E+02  0.45594000000E+02  0.51100000000E-03 0. -1.
         23    2    1    2    0    0  0.00000000000E+00  0.00000000000E+00 -0.11102230246E-15  0.91188000000E+02  0.91188000000E+02 0.  0.
    9900012    2    3    3    0    0 -0.26190490276E+02 -0.36637803989E+02 -0.91813467614E+00  0.46142318372E+02  0.10000005572E+02 0.  0.
         12    1    3    3    0    0  0.26190490276E+02  0.36637803989E+02  0.91813467614E+00  0.45045681628E+02  0.00000000000E+00 0. -1.
         11    1    4    4    0    0 -0.64870358736E+01 -0.14594697686E+02  0.62807193433E+00  0.15983782706E+02  0.51100000000E-03 0. -1.
        -11    1    4    4    0    0 -0.95860150729E+01 -0.10335419632E+02  0.21238675627E+01  0.14255644413E+02  0.51100000000E-03 0.  1.
        -12    1    4    4    0    0 -0.10117439330E+02 -0.11707686670E+02 -0.36700741731E+01  0.15902891253E+02  0.00000000000E+00 0.  1.
</event>
<event>
 8    1  0.7489580E-009  0.9118800E+02  0.7816164E-02  0.1184000E+00
        -11   -1    0    0    0    0  0.00000000000E+00  0.00000000000E+00  0.45593999997E+02  0.45594000000E+02  0.51100000000E-03 0. -1.
         11   -1    0    0    0    0 -0.00000000000E+00 -0.00000000000E+00 -0.45593999997E+02  0.45594000000E+02  0.51100000000E-03 0.  1.
         23    2    1    2    0    0 -0.27755575616E-15  0.00000000000E+00  0.00000000000E+00  0.91188000000E+02  0.91188000000E+02 0.  0.
    9900012    2    3    3    0    0  0.43957544750E+00  0.37113602943E+02 -0.25524509059E+02  0.46142319711E+02  0.10000017781E+02 0.  0.
         12    1    3    3    0    0 -0.43957544750E+00 -0.37113602943E+02  0.25524509059E+02  0.45045680289E+02  0.00000000000E+00 0. -1.
         11    1    4    4    0    0  0.86836108681E+00  0.35984587892E+01 -0.60478716095E+01  0.70908185635E+01  0.51100000000E-03 0. -1.
        -11    1    4    4    0    0  0.15333206902E+01  0.78471766441E+01 -0.59849280845E+01  0.99874229940E+01  0.51100000000E-03 0.  1.
        -12    1    4    4    0    0 -0.19621063295E+01  0.25667967509E+02 -0.13491709365E+02  0.29064078154E+02  0.00000000000E+00 0.  1.
</event>
<event>
 8    1  0.7489580E-009  0.9118800E+02  0.7816164E-02  0.1184000E+00
        -11   -1    0    0    0    0  0.00000000000E+00  0.00000000000E+00  0.45593999997E+02  0.45594000000E+02  0.51100000000E-03 0. -1.
         11   -1    0    0    0    0 -0.00000000000E+00 -0.00000000000E+00 -0.45593999997E+02  0.45594000000E+02  0.51100000000E-03 0.  1.
         23    2    1    2    0    0  0.17763568394E-14  0.00000000000E+00  0.00000000000E+00  0.91188000000E+02  0.91188000000E+02 0.  0.
    9900012    2    3    3    0    0  0.11059265078E+02 -0.90469919272E+01 -0.42719527375E+02  0.46142318452E+02  0.10000006298E+02 0.  0.
         12    1    3    3    0    0 -0.11059265078E+02  0.90469919272E+01  0.42719527375E+02  0.45045681548E+02  0.00000000000E+00 0. -1.
         11    1    4    4    0    0  0.30280471640E+01 -0.20137502509E+01 -0.92304473960E+01  0.99209585773E+01  0.51100000000E-03 0.  1.
        -11    1    4    4    0    0  0.98329497472E+00 -0.29518758426E+00 -0.17244932981E+02  0.17275465797E+02  0.51100000000E-03 0. -1.
         12    1    4    4    0    0  0.70479229392E+01 -0.67380540921E+01 -0.16244146998E+02  0.18945894078E+02  0.00000000000E+00 0. -1.
</event>
<event>
 8    1  0.7489580E-009  0.9118800E+02  0.7816164E-02  0.1184000E+00
        -11   -1    0    0    0    0  0.00000000000E+00  0.00000000000E+00  0.45593999997E+02  0.45594000000E+02  0.51100000000E-03 0. -1.
         11   -1    0    0    0    0 -0.00000000000E+00 -0.00000000000E+00 -0.45593999997E+02  0.45594000000E+02  0.51100000000E-03 0.  1.
         23    2    1    2    0    0  0.35527136788E-14  0.17763568394E-14 -0.71054273576E-14  0.91188000000E+02  0.91188000000E+02 0.  0.
    9900012    2    3    3    0    0  0.17122848039E+02  0.10214530374E+02 -0.40392882712E+02  0.46142317304E+02  0.99999958315E+01 0.  0.
         12    1    3    3    0    0 -0.17122848039E+02 -0.10214530374E+02  0.40392882712E+02  0.45045682696E+02  0.00000000000E+00 0. -1.
         11    1    4    4    0    0  0.41281809760E+00  0.20773851705E+00 -0.22087726986E+01  0.22566016858E+01  0.51100000000E-03 0. -1.
        -11    1    4    4    0    0  0.30732370382E+01 -0.18277046502E+01 -0.62676624561E+01  0.72158771543E+01  0.51100000000E-03 0.  1.
        -12    1    4    4    0    0  0.13636792904E+02  0.11834496507E+02 -0.31916447558E+02  0.36669838464E+02  0.00000000000E+00 0.  1.
</event>
<event>
 8    1  0.7489580E-009  0.9118800E+02  0.7816164E-02  0.1184000E+00
        -11   -1    0    0    0    0  0.00000000000E+00  0.00000000000E+00  0.45593999997E+02  0.45594000000E+02  0.51100000000E-03 0. -1.
         11   -1    0    0    0    0 -0.00000000000E+00 -0.00000000000E+00 -0.45593999997E+02  0.45594000000E+02  0.51100000000E-03 0.  1.
         23    2    1    2    0    0  0.00000000000E+00  0.00000000000E+00  0.35527136788E-14  0.91188000000E+02  0.91188000000E+02 0.  0.
    9900012    2    3    3    0    0 -0.36060801247E+02 -0.18475080487E+02 -0.19682569946E+02  0.46142317130E+02  0.99999942435E+01 0.  0.
         12    1    3    3    0    0  0.36060801247E+02  0.18475080487E+02  0.19682569946E+02  0.45045682870E+02  0.00000000000E+00 0. -1.
         11    1    4    4    0    0 -0.82116261975E+00 -0.14635945865E+01  0.45205352485E+00  0.17380361941E+01  0.51100000000E-03 0. -1.
        -11    1    4    4    0    0 -0.51236891904E+01 -0.49760008559E+01 -0.38389821417E+01  0.81086718754E+01  0.51100000000E-03 0.  1.
        -12    1    4    4    0    0 -0.30115949437E+02 -0.12035485044E+02 -0.16295641329E+02  0.36295609060E+02  0.00000000000E+00 0.  1.
</event>
<event>
 8    1  0.7489580E-009  0.9118800E+02  0.7816164E-02  0.1184000E+00
        -11   -1    0    0    0    0  0.00000000000E+00  0.00000000000E+00  0.45593999997E+02  0.45594000000E+02  0.51100000000E-03 0. -1.
         11   -1    0    0    0    0 -0.00000000000E+00 -0.00000000000E+00 -0.45593999997E+02  0.45594000000E+02  0.51100000000E-03 0.  1.
         23    2    1    2    0    0  0.00000000000E+00  0.00000000000E+00  0.35527136788E-14  0.91188000000E+02  0.91188000000E+02 0.  0.
    9900012    2    3    3    0    0  0.38927980796E+02 -0.80923209521E+01  0.21171655584E+02  0.46142330425E+02  0.10000115481E+02 0.  0.
        -12    1    3    3    0    0 -0.38927980796E+02  0.80923209521E+01 -0.21171655584E+02  0.45045669575E+02  0.00000000000E+00 0.  1.
         11    1    4    4    0    0  0.21912382531E+02 -0.71974565686E+01  0.14436029546E+02  0.27209462298E+02  0.51100000000E-03 0. -1.
        -11    1    4    4    0    0  0.14445861461E+02 -0.23163601276E+01  0.64275820758E+01  0.15980057860E+02  0.51100000000E-03 0.  1.
        -12    1    4    4    0    0  0.25697368036E+01  0.14214957442E+01  0.30804396244E+00  0.29528102671E+01  0.00000000000E+00 0.  1.
</event>
<event>
 8    1  0.7489580E-009  0.9118800E+02  0.7816164E-02  0.1184000E+00
        -11   -1    0    0    0    0  0.00000000000E+00  0.00000000000E+00  0.45593999997E+02  0.45594000000E+02  0.51100000000E-03 0. -1.
         11   -1    0    0    0    0 -0.00000000000E+00 -0.00000000000E+00 -0.45593999997E+02  0.45594000000E+02  0.51100000000E-03 0.  1.
         23    2    1    2    0    0  0.00000000000E+00  0.71054273576E-14  0.00000000000E+00  0.91188000000E+02  0.91188000000E+02 0.  0.
    9900012    2    3    3    0    0  0.10104008893E+02  0.25278524016E+02  0.35888975286E+02  0.46142319638E+02  0.10000017118E+02 0.  0.
        -12    1    3    3    0    0 -0.10104008893E+02 -0.25278524016E+02 -0.35888975286E+02  0.45045680362E+02  0.00000000000E+00 0.  1.
         11    1    4    4    0    0  0.24186638639E-01 -0.33642728844E+00  0.10452718557E+00  0.35312109472E+00  0.51100000000E-03 0. -1.
        -11    1    4    4    0    0  0.36253382419E+01  0.45029573517E+01  0.37727470746E+01  0.69031386361E+01  0.51100000000E-03 0.  1.
         12    1    4    4    0    0  0.64544840120E+01  0.21111993953E+02  0.32011701026E+02  0.38886059907E+02  0.00000000000E+00 0. -1.
</event>
<event>
 8    1  0.7489580E-009  0.9118800E+02  0.7816164E-02  0.1184000E+00
        -11   -1    0    0    0    0  0.00000000000E+00  0.00000000000E+00  0.45593999997E+02  0.45594000000E+02  0.51100000000E-03 0. -1.
         11   -1    0    0    0    0 -0.00000000000E+00 -0.00000000000E+00 -0.45593999997E+02  0.45594000000E+02  0.51100000000E-03 0.  1.
         23    2    1    2    0    0  0.71054273576E-14 -0.88817841970E-15 -0.17763568394E-14  0.91188000000E+02  0.91188000000E+02 0.  0.
    9900012    2    3    3    0    0  0.42538695020E+02 -0.75049250821E+01 -0.12776908002E+02  0.46142313718E+02  0.99999631304E+01 0.  0.
         12    1    3    3    0    0 -0.42538695020E+02  0.75049250821E+01  0.12776908002E+02  0.45045686282E+02  0.00000000000E+00 0. -1.
         11    1    4    4    0    0  0.77500393523E+01 -0.27219182552E+01 -0.57525726031E+00  0.82342498217E+01  0.51100000000E-03 0. -1.
        -11    1    4    4    0    0  0.15290128840E+02 -0.36195008894E+00 -0.18859775337E+01  0.15410255005E+02  0.51100000000E-03 0.  1.
        -12    1    4    4    0    0  0.19498526828E+02 -0.44210567379E+01 -0.10315673208E+02  0.22497808891E+02  0.00000000000E+00 0.  1.
</event>
<event>
 8    1  0.7489580E-009  0.9118800E+02  0.7816164E-02  0.1184000E+00
        -11   -1    0    0    0    0  0.00000000000E+00  0.00000000000E+00  0.45593999997E+02  0.45594000000E+02  0.51100000000E-03 0. -1.
         11   -1    0    0    0    0 -0.00000000000E+00 -0.00000000000E+00 -0.45593999997E+02  0.45594000000E+02  0.51100000000E-03 0.  1.
         23    2    1    2    0    0  0.00000000000E+00  0.00000000000E+00  0.00000000000E+00  0.91188000000E+02  0.91188000000E+02 0.  0.
    9900012    2    3    3    0    0  0.14971835635E+02  0.20250951204E+01  0.42436500792E+02  0.46142317943E+02  0.10000001655E+02 0.  0.
        -12    1    3    3    0    0 -0.14971835635E+02 -0.20250951204E+01 -0.42436500792E+02  0.45045682057E+02  0.00000000000E+00 0.  1.
         11    1    4    4    0    0 -0.38824468675E+00 -0.11117855265E+00  0.20001517927E+01  0.20405151463E+01  0.51100000000E-03 0. -1.
        -11    1    4    4    0    0  0.72533454282E+00 -0.13714758704E+01  0.10306419814E+02  0.10422540280E+02  0.51100000000E-03 0.  1.
        -12    1    4    4    0    0  0.14634745778E+02  0.35077495435E+01  0.30129929186E+02  0.33679262516E+02  0.00000000000E+00 0.  1.
</event>
<event>
 8    1  0.7489580E-009  0.9118800E+02  0.7816164E-02  0.1184000E+00
        -11   -1    0    0    0    0  0.00000000000E+00  0.00000000000E+00  0.45593999997E+02  0.45594000000E+02  0.51100000000E-03 0. -1.
         11   -1    0    0    0    0 -0.00000000000E+00 -0.00000000000E+00 -0.45593999997E+02  0.45594000000E+02  0.51100000000E-03 0.  1.
         23    2    1    2    0    0  0.00000000000E+00  0.00000000000E+00  0.00000000000E+00  0.91188000000E+02  0.91188000000E+02 0.  0.
    9900012    2    3    3    0    0  0.10518270094E+02  0.38166806008E+02 -0.21488913362E+02  0.46142328908E+02  0.10000101650E+02 0.  0.
         12    1    3    3    0    0 -0.10518270094E+02 -0.38166806008E+02  0.21488913362E+02  0.45045671092E+02  0.00000000000E+00 0. -1.
         11    1    4    4    0    0  0.83881142808E+00 -0.27047066436E+00 -0.82463216899E+00  0.12069703672E+01  0.51100000000E-03 0. -1.
        -11    1    4    4    0    0  0.58743249261E+01  0.25786524420E+02 -0.16080267813E+02  0.30952020099E+02  0.51100000000E-03 0.  1.
         12    1    4    4    0    0  0.38051337400E+01  0.12650752253E+02 -0.45840133794E+01  0.13983338443E+02  0.00000000000E+00 0. -1.
</event>
<event>
 8    1  0.7489580E-009  0.9118800E+02  0.7816164E-02  0.1184000E+00
        -11   -1    0    0    0    0  0.00000000000E+00  0.00000000000E+00  0.45593999997E+02  0.45594000000E+02  0.51100000000E-03 0. -1.
         11   -1    0    0    0    0 -0.00000000000E+00 -0.00000000000E+00 -0.45593999997E+02  0.45594000000E+02  0.51100000000E-03 0.  1.
         23    2    1    2    0    0  0.00000000000E+00  0.00000000000E+00  0.00000000000E+00  0.91188000000E+02  0.91188000000E+02 0.  0.
    9900012    2    3    3    0    0 -0.29505049729E+02 -0.15213178777E+02  0.30448720079E+02  0.46142319602E+02  0.10000016791E+02 0.  0.
        -12    1    3    3    0    0  0.29505049729E+02  0.15213178777E+02 -0.30448720079E+02  0.45045680398E+02  0.00000000000E+00 0.  1.
         11    1    4    4    0    0 -0.12718940401E+02 -0.47013825474E+01  0.13461491961E+02  0.19107229231E+02  0.51100000000E-03 0. -1.
        -11    1    4    4    0    0 -0.50827061269E+01 -0.39659489079E+01  0.16348919990E+01  0.66509792078E+01  0.51100000000E-03 0.  1.
        -12    1    4    4    0    0 -0.11703403201E+02 -0.65458473215E+01  0.15352336119E+02  0.20384111164E+02  0.00000000000E+00 0.  1.
</event>
<event>
 8    1  0.7489580E-009  0.9118800E+02  0.7816164E-02  0.1184000E+00
        -11   -1    0    0    0    0  0.00000000000E+00  0.00000000000E+00  0.45593999997E+02  0.45594000000E+02  0.51100000000E-03 0. -1.
         11   -1    0    0    0    0 -0.00000000000E+00 -0.00000000000E+00 -0.45593999997E+02  0.45594000000E+02  0.51100000000E-03 0.  1.
         23    2    1    2    0    0  0.00000000000E+00 -0.35527136788E-14 -0.71054273576E-14  0.91188000000E+02  0.91188000000E+02 0.  0.
    9900012    2    3    3    0    0 -0.10829017717E+02 -0.28928902235E+02  0.32786651419E+02  0.46142317404E+02  0.99999967480E+01 0.  0.
        -12    1    3    3    0    0  0.10829017717E+02  0.28928902235E+02 -0.32786651419E+02  0.45045682596E+02  0.00000000000E+00 0.  1.
         11    1    4    4    0    0 -0.10027674262E+01 -0.83550952593E+01  0.44839579569E+01  0.95351475355E+01  0.51100000000E-03 0. -1.
        -11    1    4    4    0    0 -0.49175652675E+01 -0.55696429868E+01  0.89268973618E+01  0.11614338893E+02  0.51100000000E-03 0.  1.
         12    1    4    4    0    0 -0.49086850233E+01 -0.15004163989E+02  0.19375796100E+02  0.24992830976E+02  0.00000000000E+00 0. -1.
</event>
<event>
 8    1  0.7489580E-009  0.9118800E+02  0.7816164E-02  0.1184000E+00
        -11   -1    0    0    0    0  0.00000000000E+00  0.00000000000E+00  0.45593999997E+02  0.45594000000E+02  0.51100000000E-03 0. -1.
         11   -1    0    0    0    0 -0.00000000000E+00 -0.00000000000E+00 -0.45593999997E+02  0.45594000000E+02  0.51100000000E-03 0.  1.
         23    2    1    2    0    0  0.00000000000E+00  0.00000000000E+00  0.35527136788E-14  0.91188000000E+02  0.91188000000E+02 0.  0.
    9900012    2    3    3    0    0  0.20199579513E+02 -0.35864359688E+02  0.18298582946E+02  0.46142318229E+02  0.10000004270E+02 0.  0.
        -12    1    3    3    0    0 -0.20199579513E+02  0.35864359688E+02 -0.18298582946E+02  0.45045681771E+02  0.00000000000E+00 0.  1.
         11    1    4    4    0    0  0.18171483127E+02 -0.30176398031E+02  0.16629654072E+02  0.38953346352E+02  0.51100000000E-03 0. -1.
        -11    1    4    4    0    0  0.26978310592E+01 -0.23186394562E+01  0.85898444114E+00  0.36595403923E+01  0.51100000000E-03 0.  1.
         12    1    4    4    0    0 -0.66973467357E+00 -0.33693222008E+01  0.80994443331E+00  0.35294314855E+01  0.00000000000E+00 0. -1.
</event>
<event>
 8    1  0.7489580E-009  0.9118800E+02  0.7816164E-02  0.1184000E+00
        -11   -1    0    0    0    0  0.00000000000E+00  0.00000000000E+00  0.45593999997E+02  0.45594000000E+02  0.51100000000E-03 0. -1.
         11   -1    0    0    0    0 -0.00000000000E+00 -0.00000000000E+00 -0.45593999997E+02  0.45594000000E+02  0.51100000000E-03 0.  1.
         23    2    1    2    0    0  0.00000000000E+00 -0.17763568394E-14  0.00000000000E+00  0.91188000000E+02  0.91188000000E+02 0.  0.
    9900012    2    3    3    0    0  0.32398690993E+02 -0.13749169480E+02 -0.28114029676E+02  0.46142317587E+02  0.99999984126E+01 0.  0.
         12    1    3    3    0    0 -0.32398690993E+02  0.13749169480E+02  0.28114029676E+02  0.45045682413E+02  0.00000000000E+00 0. -1.
         11    1    4    4    0    0  0.43085684432E+01 -0.44172797741E+01 -0.29355809074E+01  0.68332831170E+01  0.51100000000E-03 0. -1.
        -11    1    4    4    0    0  0.16235168579E+02 -0.56938902440E+01 -0.18344620384E+02  0.25150073204E+02  0.51100000000E-03 0.  1.
         12    1    4    4    0    0  0.11854953971E+02 -0.36379994617E+01 -0.68338283846E+01  0.14158961266E+02  0.00000000000E+00 0. -1.
</event>
<event>
 8    1  0.7489580E-009  0.9118800E+02  0.7816164E-02  0.1184000E+00
        -11   -1    0    0    0    0  0.00000000000E+00  0.00000000000E+00  0.45593999997E+02  0.45594000000E+02  0.51100000000E-03 0. -1.
         11   -1    0    0    0    0 -0.00000000000E+00 -0.00000000000E+00 -0.45593999997E+02  0.45594000000E+02  0.51100000000E-03 0.  1.
         23    2    1    2    0    0  0.00000000000E+00  0.00000000000E+00  0.00000000000E+00  0.91188000000E+02  0.91188000000E+02 0.  0.
    9900012    2    3    3    0    0  0.12863714282E+02  0.41793690654E+02  0.10813220894E+02  0.46142317968E+02  0.10000001883E+02 0.  0.
        -12    1    3    3    0    0 -0.12863714282E+02 -0.41793690654E+02 -0.10813220894E+02  0.45045682032E+02  0.00000000000E+00 0.  1.
         11    1    4    4    0    0  0.65022235486E+01  0.10076619085E+02  0.49338654983E+01  0.12967659476E+02  0.51100000000E-03 0. -1.
        -11    1    4    4    0    0  0.50732009470E+00  0.20236609664E+01 -0.70411051154E+00  0.22018967412E+01  0.51100000000E-03 0.  1.
         12    1    4    4    0    0  0.58541706389E+01  0.29693410603E+02  0.65834659075E+01  0.30972761751E+02  0.00000000000E+00 0. -1.
</event>
<event>
 8    1  0.7489580E-009  0.9118800E+02  0.7816164E-02  0.1184000E+00
        -11   -1    0    0    0    0  0.00000000000E+00  0.00000000000E+00  0.45593999997E+02  0.45594000000E+02  0.51100000000E-03 0. -1.
         11   -1    0    0    0    0 -0.00000000000E+00 -0.00000000000E+00 -0.45593999997E+02  0.45594000000E+02  0.51100000000E-03 0.  1.
         23    2    1    2    0    0  0.00000000000E+00  0.35527136788E-14  0.00000000000E+00  0.91188000000E+02  0.91188000000E+02 0.  0.
    9900012    2    3    3    0    0  0.18147218783E+02 -0.25021188984E+02  0.32767850718E+02  0.46142317760E+02  0.99999999920E+01 0.  0.
        -12    1    3    3    0    0 -0.18147218783E+02  0.25021188984E+02 -0.32767850718E+02  0.45045682240E+02  0.00000000000E+00 0.  1.
         11    1    4    4    0    0  0.14263885883E+01 -0.52281792451E+01  0.33873102126E+01  0.63907991176E+01  0.51100000000E-03 0.  1.
        -11    1    4    4    0    0  0.27698605494E+00  0.19333791428E+00 -0.24172395679E+00  0.41536918053E+00  0.51100000000E-03 0. -1.
         12    1    4    4    0    0  0.16443844140E+02 -0.19986347654E+02  0.29622264462E+02  0.39336149462E+02  0.00000000000E+00 0. -1.
</event>
<event>
 8    1  0.7489580E-009  0.9118800E+02  0.7816164E-02  0.1184000E+00
        -11   -1    0    0    0    0  0.00000000000E+00  0.00000000000E+00  0.45593999997E+02  0.45594000000E+02  0.51100000000E-03 0. -1.
         11   -1    0    0    0    0 -0.00000000000E+00 -0.00000000000E+00 -0.45593999997E+02  0.45594000000E+02  0.51100000000E-03 0.  1.
         23    2    1    2    0    0  0.00000000000E+00  0.00000000000E+00  0.00000000000E+00  0.91188000000E+02  0.91188000000E+02 0.  0.
    9900012    2    3    3    0    0 -0.32882546391E+02 -0.17423232575E+02  0.25382724417E+02  0.46142316640E+02  0.99999897798E+01 0.  0.
        -12    1    3    3    0    0  0.32882546391E+02  0.17423232575E+02 -0.25382724417E+02  0.45045683360E+02  0.00000000000E+00 0.  1.
         11    1    4    4    0    0 -0.92062570765E+01 -0.60354552181E+01  0.57453379419E+01  0.12417358712E+02  0.51100000000E-03 0. -1.
        -11    1    4    4    0    0 -0.78048959947E+01 -0.35710524570E+01  0.11237182860E+02  0.14140123621E+02  0.51100000000E-03 0.  1.
        -12    1    4    4    0    0 -0.15871393320E+02 -0.78167248996E+01  0.84002036156E+01  0.19584834307E+02  0.00000000000E+00 0.  1.
</event>
<event>
 8    1  0.7489580E-009  0.9118800E+02  0.7816164E-02  0.1184000E+00
        -11   -1    0    0    0    0  0.00000000000E+00  0.00000000000E+00  0.45593999997E+02  0.45594000000E+02  0.51100000000E-03 0. -1.
         11   -1    0    0    0    0 -0.00000000000E+00 -0.00000000000E+00 -0.45593999997E+02  0.45594000000E+02  0.51100000000E-03 0.  1.
         23    2    1    2    0    0 -0.35527136788E-14  0.71054273576E-14  0.00000000000E+00  0.91188000000E+02  0.91188000000E+02 0.  0.
    9900012    2    3    3    0    0 -0.26455694176E+02  0.32957237667E+02  0.15589424967E+02  0.46142318301E+02  0.10000004919E+02 0.  0.
        -12    1    3    3    0    0  0.26455694176E+02 -0.32957237667E+02 -0.15589424967E+02  0.45045681699E+02  0.00000000000E+00 0.  1.
         11    1    4    4    0    0 -0.51756725032E+00  0.21087887333E+01 -0.21520669206E+00  0.21820128234E+01  0.51100000000E-03 0. -1.
        -11    1    4    4    0    0 -0.36640515774E+01  0.18121699612E+01  0.34080867256E+01  0.53220568693E+01  0.51100000000E-03 0.  1.
         12    1    4    4    0    0 -0.22274075348E+02  0.29036278973E+02  0.12396544933E+02  0.38638248608E+02  0.00000000000E+00 0. -1.
</event>
<event>
 8    1  0.7489580E-009  0.9118800E+02  0.7816164E-02  0.1184000E+00
        -11   -1    0    0    0    0  0.00000000000E+00  0.00000000000E+00  0.45593999997E+02  0.45594000000E+02  0.51100000000E-03 0. -1.
         11   -1    0    0    0    0 -0.00000000000E+00 -0.00000000000E+00 -0.45593999997E+02  0.45594000000E+02  0.51100000000E-03 0.  1.
         23    2    1    2    0    0  0.00000000000E+00 -0.71054273576E-14  0.00000000000E+00  0.91188000000E+02  0.91188000000E+02 0.  0.
    9900012    2    3    3    0    0 -0.99964465626E+01 -0.35464489095E+02  0.25912441405E+02  0.46142317074E+02  0.99999937364E+01 0.  0.
        -12    1    3    3    0    0  0.99964465626E+01  0.35464489095E+02 -0.25912441405E+02  0.45045682926E+02  0.00000000000E+00 0.  1.
         11    1    4    4    0    0 -0.52603692486E+01 -0.14439280040E+02  0.15316313230E+02  0.21696860232E+02  0.51100000000E-03 0. -1.
        -11    1    4    4    0    0 -0.67231465555E+00 -0.12575892291E+02  0.69613961843E+01  0.14389791903E+02  0.51100000000E-03 0.  1.
        -12    1    4    4    0    0 -0.40637626584E+01 -0.84493167639E+01  0.36347319908E+01  0.10055664939E+02  0.00000000000E+00 0.  1.
</event>
<event>
 8    1  0.7489580E-009  0.9118800E+02  0.7816164E-02  0.1184000E+00
        -11   -1    0    0    0    0  0.00000000000E+00  0.00000000000E+00  0.45593999997E+02  0.45594000000E+02  0.51100000000E-03 0. -1.
         11   -1    0    0    0    0 -0.00000000000E+00 -0.00000000000E+00 -0.45593999997E+02  0.45594000000E+02  0.51100000000E-03 0.  1.
         23    2    1    2    0    0 -0.35527136788E-14  0.35527136788E-14  0.00000000000E+00  0.91188000000E+02  0.91188000000E+02 0.  0.
    9900012    2    3    3    0    0  0.31245983721E+02  0.25238840941E+02 -0.20391245238E+02  0.46142317931E+02  0.10000001547E+02 0.  0.
         12    1    3    3    0    0 -0.31245983721E+02 -0.25238840941E+02  0.20391245238E+02  0.45045682069E+02  0.00000000000E+00 0. -1.
         11    1    4    4    0    0  0.67723124715E+00  0.13764813689E+01 -0.18089486604E+01  0.23718428780E+01  0.51100000000E-03 0. -1.
        -11    1    4    4    0    0  0.21154848877E+02  0.11537648307E+02 -0.12060740537E+02  0.26946361944E+02  0.51100000000E-03 0.  1.
         12    1    4    4    0    0  0.94139035963E+01  0.12324711265E+02 -0.65215560405E+01  0.16824113108E+02  0.00000000000E+00 0. -1.
</event>
<event>
 8    1  0.7489580E-009  0.9118800E+02  0.7816164E-02  0.1184000E+00
        -11   -1    0    0    0    0  0.00000000000E+00  0.00000000000E+00  0.45593999997E+02  0.45594000000E+02  0.51100000000E-03 0. -1.
         11   -1    0    0    0    0 -0.00000000000E+00 -0.00000000000E+00 -0.45593999997E+02  0.45594000000E+02  0.51100000000E-03 0.  1.
         23    2    1    2    0    0  0.00000000000E+00  0.00000000000E+00  0.00000000000E+00  0.91188000000E+02  0.91188000000E+02 0.  0.
    9900012    2    3    3    0    0  0.17322585902E+02  0.10685461954E+02  0.40185351286E+02  0.46142317216E+02  0.99999950321E+01 0.  0.
        -12    1    3    3    0    0 -0.17322585902E+02 -0.10685461954E+02 -0.40185351286E+02  0.45045682784E+02  0.00000000000E+00 0.  1.
         11    1    4    4    0    0  0.10433946190E+02  0.69981242881E+01  0.17927483958E+02  0.21891451710E+02  0.51100000000E-03 0.  1.
        -11    1    4    4    0    0  0.22954395447E+01  0.42684637885E+01  0.92347251966E+01  0.10429236575E+02  0.51100000000E-03 0. -1.
         12    1    4    4    0    0  0.45932001665E+01 -0.58112612297E+00  0.13023142131E+02  0.13821628931E+02  0.00000000000E+00 0. -1.
</event>
<event>
 8    1  0.7489580E-009  0.9118800E+02  0.7816164E-02  0.1184000E+00
        -11   -1    0    0    0    0  0.00000000000E+00  0.00000000000E+00  0.45593999997E+02  0.45594000000E+02  0.51100000000E-03 0.  1.
         11   -1    0    0    0    0 -0.00000000000E+00 -0.00000000000E+00 -0.45593999997E+02  0.45594000000E+02  0.51100000000E-03 0. -1.
         23    2    1    2    0    0  0.00000000000E+00  0.00000000000E+00  0.00000000000E+00  0.91188000000E+02  0.91188000000E+02 0.  0.
    9900012    2    3    3    0    0  0.39779644864E+02 -0.16573452615E+02 -0.13115409621E+02  0.46142318224E+02  0.10000004224E+02 0.  0.
         12    1    3    3    0    0 -0.39779644864E+02  0.16573452615E+02  0.13115409621E+02  0.45045681776E+02  0.00000000000E+00 0. -1.
         11    1    4    4    0    0  0.90829979589E+01 -0.24611341601E+01 -0.98575520537E-01  0.94110440797E+01  0.51100000000E-03 0. -1.
        -11    1    4    4    0    0  0.26448256749E+02 -0.11565091907E+02 -0.86678885852E+01  0.30139574129E+02  0.51100000000E-03 0.  1.
         12    1    4    4    0    0  0.42483901566E+01 -0.25472265476E+01 -0.43489455149E+01  0.65917000159E+01  0.00000000000E+00 0. -1.
</event>
<event>
 8    1  0.7489580E-009  0.9118800E+02  0.7816164E-02  0.1184000E+00
        -11   -1    0    0    0    0  0.00000000000E+00  0.00000000000E+00  0.45593999997E+02  0.45594000000E+02  0.51100000000E-03 0. -1.
         11   -1    0    0    0    0 -0.00000000000E+00 -0.00000000000E+00 -0.45593999997E+02  0.45594000000E+02  0.51100000000E-03 0.  1.
         23    2    1    2    0    0  0.88817841970E-15 -0.35527136788E-14 -0.71054273576E-14  0.91188000000E+02  0.91188000000E+02 0.  0.
    9900012    2    3    3    0    0 -0.51994824930E+01  0.28844351960E+02  0.34206467701E+02  0.46142315514E+02  0.99999795130E+01 0.  0.
        -12    1    3    3    0    0  0.51994824930E+01 -0.28844351960E+02 -0.34206467701E+02  0.45045684486E+02  0.00000000000E+00 0.  1.
         11    1    4    4    0    0 -0.52814738109E+01  0.69898393065E+01  0.77730092239E+01  0.11712023386E+02  0.51100000000E-03 0.  1.
        -11    1    4    4    0    0  0.39574897038E-01  0.20929913277E+02  0.24098948384E+02  0.31918993553E+02  0.51100000000E-03 0. -1.
         12    1    4    4    0    0  0.42416420919E-01  0.92459937721E+00  0.23345100929E+01  0.25112985754E+01  0.00000000000E+00 0. -1.
</event>
<event>
 8    1  0.7489580E-009  0.9118800E+02  0.7816164E-02  0.1184000E+00
        -11   -1    0    0    0    0  0.00000000000E+00  0.00000000000E+00  0.45593999997E+02  0.45594000000E+02  0.51100000000E-03 0. -1.
         11   -1    0    0    0    0 -0.00000000000E+00 -0.00000000000E+00 -0.45593999997E+02  0.45594000000E+02  0.51100000000E-03 0.  1.
         23    2    1    2    0    0  0.00000000000E+00  0.00000000000E+00 -0.88817841970E-15  0.91188000000E+02  0.91188000000E+02 0.  0.
    9900012    2    3    3    0    0  0.28372371341E+02  0.34480985798E+02 -0.59315739401E+01  0.46142318669E+02  0.10000008282E+02 0.  0.
         12    1    3    3    0    0 -0.28372371341E+02 -0.34480985798E+02  0.59315739401E+01  0.45045681331E+02  0.00000000000E+00 0. -1.
         11    1    4    4    0    0  0.10543974096E+02  0.80043224302E+01  0.13743734780E+01  0.13309149861E+02  0.51100000000E-03 0. -1.
        -11    1    4    4    0    0  0.70719641784E+01  0.12523885320E+02 -0.36865587485E+01  0.14847595648E+02  0.51100000000E-03 0.  1.
         12    1    4    4    0    0  0.10756433067E+02  0.13952778048E+02 -0.36193886697E+01  0.17985573161E+02  0.00000000000E+00 0. -1.
</event>
<event>
 8    1  0.7489580E-009  0.9118800E+02  0.7816164E-02  0.1184000E+00
        -11   -1    0    0    0    0  0.00000000000E+00  0.00000000000E+00  0.45593999997E+02  0.45594000000E+02  0.51100000000E-03 0. -1.
         11   -1    0    0    0    0 -0.00000000000E+00 -0.00000000000E+00 -0.45593999997E+02  0.45594000000E+02  0.51100000000E-03 0.  1.
         23    2    1    2    0    0  0.00000000000E+00  0.00000000000E+00  0.00000000000E+00  0.91188000000E+02  0.91188000000E+02 0.  0.
    9900012    2    3    3    0    0  0.20333265345E+02 -0.30769532066E+02 -0.25863250373E+02  0.46142317599E+02  0.99999985179E+01 0.  0.
         12    1    3    3    0    0 -0.20333265345E+02  0.30769532066E+02  0.25863250373E+02  0.45045682401E+02  0.00000000000E+00 0. -1.
         11    1    4    4    0    0  0.48201389315E+01 -0.11249390977E+02 -0.74260127533E+01  0.14315313561E+02  0.51100000000E-03 0. -1.
        -11    1    4    4    0    0  0.12976688944E+02 -0.10964429511E+02 -0.11349519120E+02  0.20430975380E+02  0.51100000000E-03 0.  1.
        -12    1    4    4    0    0  0.25364374695E+01 -0.85557115778E+01 -0.70877184994E+01  0.11396028658E+02  0.00000000000E+00 0.  1.
</event>
<event>
 8    1  0.7489580E-009  0.9118800E+02  0.7816164E-02  0.1184000E+00
        -11   -1    0    0    0    0  0.00000000000E+00  0.00000000000E+00  0.45593999997E+02  0.45594000000E+02  0.51100000000E-03 0. -1.
         11   -1    0    0    0    0 -0.00000000000E+00 -0.00000000000E+00 -0.45593999997E+02  0.45594000000E+02  0.51100000000E-03 0.  1.
         23    2    1    2    0    0  0.00000000000E+00  0.00000000000E+00  0.00000000000E+00  0.91188000000E+02  0.91188000000E+02 0.  0.
    9900012    2    3    3    0    0 -0.24648231230E+02  0.80957368765E+01  0.36824417629E+02  0.46142312170E+02  0.99999490170E+01 0.  0.
        -12    1    3    3    0    0  0.24648231230E+02 -0.80957368765E+01 -0.36824417629E+02  0.45045687830E+02  0.00000000000E+00 0.  1.
         11    1    4    4    0    0 -0.15263420880E+02  0.65614130733E+00  0.20297733627E+02  0.25404734382E+02  0.51100000000E-03 0. -1.
        -11    1    4    4    0    0 -0.76434533443E+00  0.12939139298E+01  0.43491111409E+01  0.46014351050E+01  0.51100000000E-03 0.  1.
         12    1    4    4    0    0 -0.86204650154E+01  0.61456816393E+01  0.12177572861E+02  0.16136142683E+02  0.00000000000E+00 0. -1.
</event>
<event>
 8    1  0.7489580E-009  0.9118800E+02  0.7816164E-02  0.1184000E+00
        -11   -1    0    0    0    0  0.00000000000E+00  0.00000000000E+00  0.45593999997E+02  0.45594000000E+02  0.51100000000E-03 0. -1.
         11   -1    0    0    0    0 -0.00000000000E+00 -0.00000000000E+00 -0.45593999997E+02  0.45594000000E+02  0.51100000000E-03 0.  1.
         23    2    1    2    0    0 -0.35527136788E-14  0.00000000000E+00  0.00000000000E+00  0.91188000000E+02  0.91188000000E+02 0.  0.
    9900012    2    3    3    0    0 -0.29007321020E+02 -0.40599914895E+01 -0.34222876968E+02  0.46142317502E+02  0.99999976416E+01 0.  0.
         12    1    3    3    0    0  0.29007321020E+02  0.40599914895E+01  0.34222876968E+02  0.45045682498E+02  0.00000000000E+00 0. -1.
         11    1    4    4    0    0 -0.26355537664E+02 -0.19510872860E+01 -0.28339082876E+02  0.38749512586E+02  0.51100000000E-03 0. -1.
        -11    1    4    4    0    0 -0.23436917182E+01 -0.28215740290E+01 -0.44943866838E+01  0.58011794315E+01  0.51100000000E-03 0.  1.
         12    1    4    4    0    0 -0.30809163869E+00  0.71266982555E+00 -0.13894074083E+01  0.15916254849E+01  0.00000000000E+00 0. -1.
</event>
<event>
 8    1  0.7489580E-009  0.9118800E+02  0.7816164E-02  0.1184000E+00
        -11   -1    0    0    0    0  0.00000000000E+00  0.00000000000E+00  0.45593999997E+02  0.45594000000E+02  0.51100000000E-03 0. -1.
         11   -1    0    0    0    0 -0.00000000000E+00 -0.00000000000E+00 -0.45593999997E+02  0.45594000000E+02  0.51100000000E-03 0.  1.
         23    2    1    2    0    0  0.71054273576E-14 -0.35527136788E-14  0.00000000000E+00  0.91188000000E+02  0.91188000000E+02 0.  0.
    9900012    2    3    3    0    0  0.35747513529E+02 -0.21788517008E+02  0.16627966186E+02  0.46142318116E+02  0.10000003236E+02 0.  0.
        -12    1    3    3    0    0 -0.35747513529E+02  0.21788517008E+02 -0.16627966186E+02  0.45045681884E+02  0.00000000000E+00 0.  1.
         11    1    4    4    0    0  0.10733408544E+02 -0.71363397165E+01  0.95108987100E+01  0.16018445557E+02  0.51100000000E-03 0. -1.
        -11    1    4    4    0    0  0.33632259087E+01 -0.34537960484E+01  0.38664081808E+00  0.48362678834E+01  0.51100000000E-03 0.  1.
         12    1    4    4    0    0  0.21650879076E+02 -0.11198381243E+02  0.67304266582E+01  0.25287604676E+02  0.00000000000E+00 0. -1.
</event>
<event>
 8    1  0.7489580E-009  0.9118800E+02  0.7816164E-02  0.1184000E+00
        -11   -1    0    0    0    0  0.00000000000E+00  0.00000000000E+00  0.45593999997E+02  0.45594000000E+02  0.51100000000E-03 0.  1.
         11   -1    0    0    0    0 -0.00000000000E+00 -0.00000000000E+00 -0.45593999997E+02  0.45594000000E+02  0.51100000000E-03 0. -1.
         23    2    1    2    0    0  0.71054273576E-14  0.00000000000E+00 -0.44408920985E-15  0.91188000000E+02  0.91188000000E+02 0.  0.
    9900012    2    3    3    0    0 -0.41584547699E+02 -0.17062160785E+02 -0.29532266791E+01  0.46142317789E+02  0.10000000258E+02 0.  0.
        -12    1    3    3    0    0  0.41584547699E+02  0.17062160785E+02  0.29532266791E+01  0.45045682211E+02  0.00000000000E+00 0.  1.
         11    1    4    4    0    0 -0.67511773839E-01 -0.10287761570E+00 -0.21394096365E+00  0.24680486314E+00  0.51100000000E-03 0. -1.
        -11    1    4    4    0    0 -0.77355315359E+00 -0.19499176460E+01 -0.12663586738E+01  0.24503525991E+01  0.51100000000E-03 0.  1.
         12    1    4    4    0    0 -0.40743482772E+02 -0.15009365523E+02 -0.14729270416E+01  0.43445160327E+02  0.00000000000E+00 0. -1.
</event>
<event>
 8    1  0.7489580E-009  0.9118800E+02  0.7816164E-02  0.1184000E+00
        -11   -1    0    0    0    0  0.00000000000E+00  0.00000000000E+00  0.45593999997E+02  0.45594000000E+02  0.51100000000E-03 0. -1.
         11   -1    0    0    0    0 -0.00000000000E+00 -0.00000000000E+00 -0.45593999997E+02  0.45594000000E+02  0.51100000000E-03 0.  1.
         23    2    1    2    0    0 -0.17763568394E-14  0.00000000000E+00  0.00000000000E+00  0.91188000000E+02  0.91188000000E+02 0.  0.
    9900012    2    3    3    0    0 -0.12763890468E+02  0.14746061968E+02 -0.40604806484E+02  0.46142317043E+02  0.99999934551E+01 0.  0.
         12    1    3    3    0    0  0.12763890468E+02 -0.14746061968E+02  0.40604806484E+02  0.45045682957E+02  0.00000000000E+00 0. -1.
         11    1    4    4    0    0 -0.25289447025E+00  0.36166108036E+01 -0.14440207683E+02  0.14888365509E+02  0.51100000000E-03 0. -1.
        -11    1    4    4    0    0 -0.33110087521E+01  0.37341960613E+01 -0.10633334311E+02  0.11746267408E+02  0.51100000000E-03 0.  1.
        -12    1    4    4    0    0 -0.91999872461E+01  0.73952551034E+01 -0.15531264489E+02  0.19507684127E+02  0.00000000000E+00 0.  1.
</event>
<event>
 8    1  0.7489580E-009  0.9118800E+02  0.7816164E-02  0.1184000E+00
        -11   -1    0    0    0    0  0.00000000000E+00  0.00000000000E+00  0.45593999997E+02  0.45594000000E+02  0.51100000000E-03 0. -1.
         11   -1    0    0    0    0 -0.00000000000E+00 -0.00000000000E+00 -0.45593999997E+02  0.45594000000E+02  0.51100000000E-03 0.  1.
         23    2    1    2    0    0 -0.71054273576E-14  0.35527136788E-14  0.00000000000E+00  0.91188000000E+02  0.91188000000E+02 0.  0.
    9900012    2    3    3    0    0  0.40746690161E+02  0.18225633064E+02  0.60536705303E+01  0.46142318892E+02  0.10000010308E+02 0.  0.
        -12    1    3    3    0    0 -0.40746690161E+02 -0.18225633064E+02 -0.60536705303E+01  0.45045681108E+02  0.00000000000E+00 0.  1.
         11    1    4    4    0    0  0.62066743810E+01  0.23647340485E+01  0.47459454011E-01  0.66420649390E+01  0.51100000000E-03 0. -1.
        -11    1    4    4    0    0  0.33078532248E+02  0.13775697873E+02  0.36272325228E+01  0.36015496160E+02  0.51100000000E-03 0.  1.
         12    1    4    4    0    0  0.14614835312E+01  0.20852011426E+01  0.23789785535E+01  0.34847577929E+01  0.00000000000E+00 0. -1.
</event>
<event>
 8    1  0.7489580E-009  0.9118800E+02  0.7816164E-02  0.1184000E+00
        -11   -1    0    0    0    0  0.00000000000E+00  0.00000000000E+00  0.45593999997E+02  0.45594000000E+02  0.51100000000E-03 0. -1.
         11   -1    0    0    0    0 -0.00000000000E+00 -0.00000000000E+00 -0.45593999997E+02  0.45594000000E+02  0.51100000000E-03 0.  1.
         23    2    1    2    0    0  0.00000000000E+00 -0.35527136788E-14  0.00000000000E+00  0.91188000000E+02  0.91188000000E+02 0.  0.
    9900012    2    3    3    0    0  0.19022504866E+02 -0.26323254142E+02 -0.31214484323E+02  0.46142318392E+02  0.10000005753E+02 0.  0.
         12    1    3    3    0    0 -0.19022504866E+02  0.26323254142E+02  0.31214484323E+02  0.45045681608E+02  0.00000000000E+00 0. -1.
         11    1    4    4    0    0  0.21743145195E+01 -0.29346538859E+01 -0.55425983559E+01  0.66377883256E+01  0.51100000000E-03 0. -1.
        -11    1    4    4    0    0  0.14330649739E+02 -0.23062387677E+02 -0.21554830799E+02  0.34667736851E+02  0.51100000000E-03 0.  1.
        -12    1    4    4    0    0  0.25175406072E+01 -0.32621257914E+00 -0.41170551681E+01  0.48367932158E+01  0.00000000000E+00 0.  1.
</event>
<event>
 8    1  0.7489580E-009  0.9118800E+02  0.7816164E-02  0.1184000E+00
        -11   -1    0    0    0    0  0.00000000000E+00  0.00000000000E+00  0.45593999997E+02  0.45594000000E+02  0.51100000000E-03 0. -1.
         11   -1    0    0    0    0 -0.00000000000E+00 -0.00000000000E+00 -0.45593999997E+02  0.45594000000E+02  0.51100000000E-03 0.  1.
         23    2    1    2    0    0  0.71054273576E-14  0.17763568394E-14  0.35527136788E-14  0.91188000000E+02  0.91188000000E+02 0.  0.
    9900012    2    3    3    0    0 -0.40793323679E+02 -0.80530454154E+01 -0.17325316331E+02  0.46142318929E+02  0.10000010648E+02 0.  0.
         12    1    3    3    0    0  0.40793323679E+02  0.80530454154E+01  0.17325316331E+02  0.45045681071E+02  0.00000000000E+00 0. -1.
         11    1    4    4    0    0 -0.25268666010E+01 -0.38713913492E+00  0.66630467641E+00  0.26417595863E+01  0.51100000000E-03 0. -1.
        -11    1    4    4    0    0 -0.16427364458E+01  0.61641742366E+00 -0.20761400373E+01  0.27182551731E+01  0.51100000000E-03 0.  1.
        -12    1    4    4    0    0 -0.36623720632E+02 -0.82823237041E+01 -0.15915480970E+02  0.40782304169E+02  0.00000000000E+00 0.  1.
</event>
<event>
 8    1  0.7489580E-009  0.9118800E+02  0.7816164E-02  0.1184000E+00
        -11   -1    0    0    0    0  0.00000000000E+00  0.00000000000E+00  0.45593999997E+02  0.45594000000E+02  0.51100000000E-03 0. -1.
         11   -1    0    0    0    0 -0.00000000000E+00 -0.00000000000E+00 -0.45593999997E+02  0.45594000000E+02  0.51100000000E-03 0.  1.
         23    2    1    2    0    0 -0.44408920985E-15  0.35527136788E-14  0.00000000000E+00  0.91188000000E+02  0.91188000000E+02 0.  0.
    9900012    2    3    3    0    0 -0.22668355786E+01  0.13467204255E+02  0.42925626518E+02  0.46142317122E+02  0.99999941754E+01 0.  0.
        -12    1    3    3    0    0  0.22668355786E+01 -0.13467204255E+02 -0.42925626518E+02  0.45045682878E+02  0.00000000000E+00 0.  1.
         11    1    4    4    0    0  0.11369556209E+01  0.31580773142E+00  0.14842829626E+01  0.18961800498E+01  0.51100000000E-03 0. -1.
        -11    1    4    4    0    0 -0.20052092676E+01  0.45771267315E+00  0.11693425002E+02  0.11872933658E+02  0.51100000000E-03 0.  1.
         12    1    4    4    0    0 -0.13985819320E+01  0.12693683850E+02  0.29747918553E+02  0.32373203415E+02  0.00000000000E+00 0. -1.
</event>
<event>
 8    1  0.7489580E-009  0.9118800E+02  0.7816164E-02  0.1184000E+00
        -11   -1    0    0    0    0  0.00000000000E+00  0.00000000000E+00  0.45593999997E+02  0.45594000000E+02  0.51100000000E-03 0.  1.
         11   -1    0    0    0    0 -0.00000000000E+00 -0.00000000000E+00 -0.45593999997E+02  0.45594000000E+02  0.51100000000E-03 0. -1.
         23    2    1    2    0    0  0.00000000000E+00  0.00000000000E+00  0.35527136788E-14  0.91188000000E+02  0.91188000000E+02 0.  0.
    9900012    2    3    3    0    0 -0.32491865083E+02  0.23629176622E+02 -0.20372879441E+02  0.46142317620E+02  0.99999987103E+01 0.  0.
         12    1    3    3    0    0  0.32491865083E+02 -0.23629176622E+02  0.20372879441E+02  0.45045682380E+02  0.00000000000E+00 0. -1.
         11    1    4    4    0    0 -0.15864067212E+02  0.13516154681E+02 -0.80011736876E+01  0.22324288264E+02  0.51100000000E-03 0. -1.
        -11    1    4    4    0    0 -0.14113647032E+02  0.10762291507E+02 -0.10575283623E+02  0.20660556019E+02  0.51100000000E-03 0.  1.
         12    1    4    4    0    0 -0.25141508385E+01 -0.64926956467E+00 -0.17964221297E+01  0.31574733371E+01  0.00000000000E+00 0. -1.
</event>
<event>
 8    1  0.7489580E-009  0.9118800E+02  0.7816164E-02  0.1184000E+00
        -11   -1    0    0    0    0  0.00000000000E+00  0.00000000000E+00  0.45593999997E+02  0.45594000000E+02  0.51100000000E-03 0. -1.
         11   -1    0    0    0    0 -0.00000000000E+00 -0.00000000000E+00 -0.45593999997E+02  0.45594000000E+02  0.51100000000E-03 0.  1.
         23    2    1    2    0    0 -0.88817841970E-15  0.00000000000E+00  0.00000000000E+00  0.91188000000E+02  0.91188000000E+02 0.  0.
    9900012    2    3    3    0    0 -0.59270453971E+01 -0.24080124978E+02  0.37604936104E+02  0.46142317571E+02  0.99999982655E+01 0.  0.
        -12    1    3    3    0    0  0.59270453971E+01  0.24080124978E+02 -0.37604936104E+02  0.45045682429E+02  0.00000000000E+00 0.  1.
         11    1    4    4    0    0 -0.21606206913E+00 -0.68461828408E+01  0.76855354479E+01  0.10294870455E+02  0.51100000000E-03 0. -1.
        -11    1    4    4    0    0 -0.60581255229E+00 -0.10699279702E+02  0.11915574436E+02  0.16025682806E+02  0.51100000000E-03 0.  1.
        -12    1    4    4    0    0 -0.51051707757E+01 -0.65346624356E+01  0.18003826220E+02  0.19821764310E+02  0.00000000000E+00 0.  1.
</event>
<event>
 8    1  0.7489580E-009  0.9118800E+02  0.7816164E-02  0.1184000E+00
        -11   -1    0    0    0    0  0.00000000000E+00  0.00000000000E+00  0.45593999997E+02  0.45594000000E+02  0.51100000000E-03 0. -1.
         11   -1    0    0    0    0 -0.00000000000E+00 -0.00000000000E+00 -0.45593999997E+02  0.45594000000E+02  0.51100000000E-03 0.  1.
         23    2    1    2    0    0 -0.22204460493E-15  0.00000000000E+00  0.35527136788E-14  0.91188000000E+02  0.91188000000E+02 0.  0.
    9900012    2    3    3    0    0 -0.10691477585E+01 -0.35242014184E+02  0.28035164141E+02  0.46142322415E+02  0.10000042437E+02 0.  0.
        -12    1    3    3    0    0  0.10691477585E+01  0.35242014184E+02 -0.28035164141E+02  0.45045677585E+02  0.00000000000E+00 0.  1.
         11    1    4    4    0    0  0.15069463509E+01 -0.15949535168E+02  0.16569260993E+02  0.23047754109E+02  0.51100000000E-03 0. -1.
        -11    1    4    4    0    0  0.38051834021E+00 -0.23929605077E+01  0.33002325124E+01  0.40942140999E+01  0.51100000000E-03 0.  1.
        -12    1    4    4    0    0 -0.29566124495E+01 -0.16899518509E+02  0.81656706351E+01  0.19000354206E+02  0.00000000000E+00 0.  1.
</event>
<event>
 8    1  0.7489580E-009  0.9118800E+02  0.7816164E-02  0.1184000E+00
        -11   -1    0    0    0    0  0.00000000000E+00  0.00000000000E+00  0.45593999997E+02  0.45594000000E+02  0.51100000000E-03 0. -1.
         11   -1    0    0    0    0 -0.00000000000E+00 -0.00000000000E+00 -0.45593999997E+02  0.45594000000E+02  0.51100000000E-03 0.  1.
         23    2    1    2    0    0  0.44408920985E-15  0.44408920985E-15  0.00000000000E+00  0.91188000000E+02  0.91188000000E+02 0.  0.
    9900012    2    3    3    0    0  0.11925567415E+01 -0.36706811012E+01 -0.44880033370E+02  0.46142317780E+02  0.10000000173E+02 0.  0.
         12    1    3    3    0    0 -0.11925567415E+01  0.36706811012E+01  0.44880033370E+02  0.45045682220E+02  0.00000000000E+00 0. -1.
         11    1    4    4    0    0  0.89367241827E+00  0.90240595253E+00 -0.25701951079E+02  0.25733310638E+02  0.51100000000E-03 0. -1.
        -11    1    4    4    0    0  0.26591198761E+01 -0.23776880329E+01 -0.76862256745E+01  0.84736287550E+01  0.51100000000E-03 0.  1.
         12    1    4    4    0    0 -0.23602355530E+01 -0.21953990209E+01 -0.11491856617E+02  0.11935378387E+02  0.00000000000E+00 0. -1.
</event>
<event>
 8    1  0.7489580E-009  0.9118800E+02  0.7816164E-02  0.1184000E+00
        -11   -1    0    0    0    0  0.00000000000E+00  0.00000000000E+00  0.45593999997E+02  0.45594000000E+02  0.51100000000E-03 0. -1.
         11   -1    0    0    0    0 -0.00000000000E+00 -0.00000000000E+00 -0.45593999997E+02  0.45594000000E+02  0.51100000000E-03 0.  1.
         23    2    1    2    0    0 -0.17763568394E-14  0.00000000000E+00 -0.71054273576E-14  0.91188000000E+02  0.91188000000E+02 0.  0.
    9900012    2    3    3    0    0 -0.12588834234E+02 -0.15793720330E+02 -0.40264042390E+02  0.46142318089E+02  0.10000002993E+02 0.  0.
         12    1    3    3    0    0  0.12588834234E+02  0.15793720330E+02  0.40264042390E+02  0.45045681911E+02  0.00000000000E+00 0. -1.
         11    1    4    4    0    0 -0.57935018557E+01 -0.28239740771E+01 -0.60704497023E+01  0.88538044472E+01  0.51100000000E-03 0. -1.
        -11    1    4    4    0    0 -0.24894781698E+01 -0.32878520284E+01 -0.73276203182E+01  0.84084179432E+01  0.51100000000E-03 0.  1.
         12    1    4    4    0    0 -0.43058542088E+01 -0.96818942241E+01 -0.26865972369E+02  0.28880095699E+02  0.00000000000E+00 0. -1.
</event>
<event>
 8    1  0.7489580E-009  0.9118800E+02  0.7816164E-02  0.1184000E+00
        -11   -1    0    0    0    0  0.00000000000E+00  0.00000000000E+00  0.45593999997E+02  0.45594000000E+02  0.51100000000E-03 0. -1.
         11   -1    0    0    0    0 -0.00000000000E+00 -0.00000000000E+00 -0.45593999997E+02  0.45594000000E+02  0.51100000000E-03 0.  1.
         23    2    1    2    0    0 -0.22204460493E-15  0.71054273576E-14  0.00000000000E+00  0.91188000000E+02  0.91188000000E+02 0.  0.
    9900012    2    3    3    0    0  0.34321684598E+00  0.34366581221E+02 -0.29119301768E+02  0.46142318319E+02  0.10000005091E+02 0.  0.
         12    1    3    3    0    0 -0.34321684598E+00 -0.34366581221E+02  0.29119301768E+02  0.45045681681E+02  0.00000000000E+00 0. -1.
         11    1    4    4    0    0  0.14893942418E+00  0.40641331245E+01 -0.79004405177E+01  0.88857369779E+01  0.51100000000E-03 0. -1.
        -11    1    4    4    0    0  0.20455086666E+01  0.87140380575E+01 -0.65166377474E+01  0.11071817049E+02  0.51100000000E-03 0.  1.
        -12    1    4    4    0    0 -0.18512312448E+01  0.21588410039E+02 -0.14702223502E+02  0.26184764293E+02  0.00000000000E+00 0.  1.
</event>
<event>
 8    1  0.7489580E-009  0.9118800E+02  0.7816164E-02  0.1184000E+00
        -11   -1    0    0    0    0  0.00000000000E+00  0.00000000000E+00  0.45593999997E+02  0.45594000000E+02  0.51100000000E-03 0. -1.
         11   -1    0    0    0    0 -0.00000000000E+00 -0.00000000000E+00 -0.45593999997E+02  0.45594000000E+02  0.51100000000E-03 0.  1.
         23    2    1    2    0    0  0.00000000000E+00  0.00000000000E+00  0.71054273576E-14  0.91188000000E+02  0.91188000000E+02 0.  0.
    9900012    2    3    3    0    0  0.23500636545E+02  0.41696852240E+01  0.38202712177E+02  0.46142318624E+02  0.10000007871E+02 0.  0.
        -12    1    3    3    0    0 -0.23500636545E+02 -0.41696852240E+01 -0.38202712177E+02  0.45045681376E+02  0.00000000000E+00 0.  1.
         11    1    4    4    0    0  0.12700701767E+02  0.71458797500E-02  0.25072652530E+02  0.28105974127E+02  0.51100000000E-03 0. -1.
        -11    1    4    4    0    0  0.15418034330E+00 -0.50202120657E+00  0.33751428836E-01  0.52624736595E+00  0.51100000000E-03 0.  1.
         12    1    4    4    0    0  0.10645754434E+02  0.46645605508E+01  0.13096308218E+02  0.17510097132E+02  0.00000000000E+00 0. -1.
</event>
<event>
 8    1  0.7493291E-009  0.9118800E+02  0.7816164E-02  0.1184000E+00
        -11   -1    0    0    0    0  0.00000000000E+00  0.00000000000E+00  0.45593999997E+02  0.45594000000E+02  0.51100000000E-03 0. -1.
         11   -1    0    0    0    0 -0.00000000000E+00 -0.00000000000E+00 -0.45593999997E+02  0.45594000000E+02  0.51100000000E-03 0.  1.
         23    2    1    2    0    0  0.00000000000E+00  0.00000000000E+00  0.00000000000E+00  0.91188000000E+02  0.91188000000E+02 0.  0.
    9900012    2    3    3    0    0 -0.86396874868E+01  0.18110632128E+02 -0.40329571216E+02  0.46142317516E+02  0.99999977668E+01 0.  0.
         12    1    3    3    0    0  0.86396874868E+01 -0.18110632128E+02  0.40329571216E+02  0.45045682484E+02  0.00000000000E+00 0. -1.
         11    1    4    4    0    0 -0.15689434379E+01  0.24144874832E+01 -0.33241255843E+01  0.43978568052E+01  0.51100000000E-03 0. -1.
        -11    1    4    4    0    0 -0.79054074932E+01  0.99263814751E+01 -0.19248547528E+02  0.23055044980E+02  0.51100000000E-03 0.  1.
         12    1    4    4    0    0  0.83466344427E+00  0.57697631701E+01 -0.17756898104E+02  0.18689415731E+02  0.00000000000E+00 0. -1.
</event>
<event>
 8    1  0.1044807E-008  0.9118800E+02  0.7816164E-02  0.1184000E+00
        -11   -1    0    0    0    0  0.00000000000E+00  0.00000000000E+00  0.45593999997E+02  0.45594000000E+02  0.51100000000E-03 0. -1.
         11   -1    0    0    0    0 -0.00000000000E+00 -0.00000000000E+00 -0.45593999997E+02  0.45594000000E+02  0.51100000000E-03 0.  1.
         23    2    1    2    0    0  0.00000000000E+00  0.17763568394E-14  0.00000000000E+00  0.91188000000E+02  0.91188000000E+02 0.  0.
    9900012    2    3    3    0    0  0.73405780476E+01 -0.12920901751E+02 -0.42523871776E+02  0.46142318088E+02  0.10000002982E+02 0.  0.
         12    1    3    3    0    0 -0.73405780476E+01  0.12920901751E+02  0.42523871776E+02  0.45045681912E+02  0.00000000000E+00 0. -1.
         11    1    4    4    0    0  0.23835743105E+01 -0.12838829512E+01 -0.39066369806E+01  0.47530616118E+01  0.51100000000E-03 0. -1.
        -11    1    4    4    0    0  0.69933965420E+01 -0.95636081711E+01 -0.33044297947E+02  0.35104071324E+02  0.51100000000E-03 0.  1.
         12    1    4    4    0    0 -0.20363928050E+01 -0.20734106282E+01 -0.55729368478E+01  0.62851851523E+01  0.00000000000E+00 0. -1.
</event>
<event>
 8    1  0.7489580E-009  0.9118800E+02  0.7816164E-02  0.1184000E+00
        -11   -1    0    0    0    0  0.00000000000E+00  0.00000000000E+00  0.45593999997E+02  0.45594000000E+02  0.51100000000E-03 0. -1.
         11   -1    0    0    0    0 -0.00000000000E+00 -0.00000000000E+00 -0.45593999997E+02  0.45594000000E+02  0.51100000000E-03 0.  1.
         23    2    1    2    0    0  0.00000000000E+00  0.00000000000E+00  0.00000000000E+00  0.91188000000E+02  0.91188000000E+02 0.  0.
    9900012    2    3    3    0    0  0.26647593623E+02 -0.22220952682E+02  0.28727139252E+02  0.46142317481E+02  0.99999974448E+01 0.  0.
        -12    1    3    3    0    0 -0.26647593623E+02  0.22220952682E+02 -0.28727139252E+02  0.45045682519E+02  0.00000000000E+00 0.  1.
         11    1    4    4    0    0  0.14327180697E+02 -0.13998058524E+02  0.16698038307E+02  0.26077542689E+02  0.51100000000E-03 0. -1.
        -11    1    4    4    0    0  0.20309994388E+01 -0.43576497974E+01  0.20768446904E+01  0.52371131940E+01  0.51100000000E-03 0.  1.
         12    1    4    4    0    0  0.10289413487E+02 -0.38652443602E+01  0.99522562554E+01  0.14827661598E+02  0.00000000000E+00 0. -1.
</event>
<event>
 8    1  0.7489580E-009  0.9118800E+02  0.7816164E-02  0.1184000E+00
        -11   -1    0    0    0    0  0.00000000000E+00  0.00000000000E+00  0.45593999997E+02  0.45594000000E+02  0.51100000000E-03 0. -1.
         11   -1    0    0    0    0 -0.00000000000E+00 -0.00000000000E+00 -0.45593999997E+02  0.45594000000E+02  0.51100000000E-03 0.  1.
         23    2    1    2    0    0  0.00000000000E+00  0.00000000000E+00  0.00000000000E+00  0.91188000000E+02  0.91188000000E+02 0.  0.
    9900012    2    3    3    0    0  0.33397734628E+01 -0.16376694479E+02  0.41830171773E+02  0.46142317861E+02  0.10000000908E+02 0.  0.
        -12    1    3    3    0    0 -0.33397734628E+01  0.16376694479E+02 -0.41830171773E+02  0.45045682139E+02  0.00000000000E+00 0.  1.
         11    1    4    4    0    0 -0.15795525156E+01 -0.77075236571E+00  0.26481660111E+01  0.31783374336E+01  0.51100000000E-03 0.  1.
        -11    1    4    4    0    0  0.38097222155E+01 -0.70773931804E+01  0.11913329699E+02  0.14371183054E+02  0.51100000000E-03 0. -1.
         12    1    4    4    0    0  0.11096037629E+01 -0.85285489330E+01  0.27268676062E+02  0.28592797373E+02  0.00000000000E+00 0. -1.
</event>
<event>
 8    1  0.9165279E-009  0.9118800E+02  0.7816164E-02  0.1184000E+00
        -11   -1    0    0    0    0  0.00000000000E+00  0.00000000000E+00  0.45593999997E+02  0.45594000000E+02  0.51100000000E-03 0. -1.
         11   -1    0    0    0    0 -0.00000000000E+00 -0.00000000000E+00 -0.45593999997E+02  0.45594000000E+02  0.51100000000E-03 0.  1.
         23    2    1    2    0    0  0.00000000000E+00  0.88817841970E-15  0.00000000000E+00  0.91188000000E+02  0.91188000000E+02 0.  0.
    9900012    2    3    3    0    0 -0.26260282288E+02  0.74379544586E+01 -0.35835570575E+02  0.46142315292E+02  0.99999774887E+01 0.  0.
         12    1    3    3    0    0  0.26260282288E+02 -0.74379544586E+01  0.35835570575E+02  0.45045684708E+02  0.00000000000E+00 0. -1.
         11    1    4    4    0    0 -0.85111923004E+01  0.73878072774E+00 -0.98308738305E+01  0.13024295446E+02  0.51100000000E-03 0. -1.
        -11    1    4    4    0    0 -0.17493853457E+02  0.58584090860E+01 -0.26356342988E+02  0.32171612981E+02  0.51100000000E-03 0.  1.
         12    1    4    4    0    0 -0.25523653009E+00  0.84076464488E+00  0.35164624400E+00  0.94640686562E+00  0.00000000000E+00 0. -1.
</event>
<event>
 8    1  0.7489580E-009  0.9118800E+02  0.7816164E-02  0.1184000E+00
        -11   -1    0    0    0    0  0.00000000000E+00  0.00000000000E+00  0.45593999997E+02  0.45594000000E+02  0.51100000000E-03 0. -1.
         11   -1    0    0    0    0 -0.00000000000E+00 -0.00000000000E+00 -0.45593999997E+02  0.45594000000E+02  0.51100000000E-03 0.  1.
         23    2    1    2    0    0  0.00000000000E+00  0.71054273576E-14  0.35527136788E-14  0.91188000000E+02  0.91188000000E+02 0.  0.
    9900012    2    3    3    0    0 -0.19621155285E+02 -0.34379761544E+02 -0.21497807503E+02  0.46142318010E+02  0.10000002266E+02 0.  0.
         12    1    3    3    0    0  0.19621155285E+02  0.34379761544E+02  0.21497807503E+02  0.45045681990E+02  0.00000000000E+00 0. -1.
         11    1    4    4    0    0 -0.52051748799E+00 -0.35999252975E+00  0.71532336058E+00  0.95510253277E+00  0.51100000000E-03 0. -1.
        -11    1    4    4    0    0 -0.11502911207E+01 -0.57269515915E+01 -0.34785682500E+01  0.67986455655E+01  0.51100000000E-03 0.  1.
        -12    1    4    4    0    0 -0.17950346676E+02 -0.28292817423E+02 -0.18734562613E+02  0.38388569911E+02  0.00000000000E+00 0.  1.
</event>
<event>
 8    1  0.7489580E-009  0.9118800E+02  0.7816164E-02  0.1184000E+00
        -11   -1    0    0    0    0  0.00000000000E+00  0.00000000000E+00  0.45593999997E+02  0.45594000000E+02  0.51100000000E-03 0. -1.
         11   -1    0    0    0    0 -0.00000000000E+00 -0.00000000000E+00 -0.45593999997E+02  0.45594000000E+02  0.51100000000E-03 0.  1.
         23    2    1    2    0    0 -0.88817841970E-15  0.35527136788E-14  0.00000000000E+00  0.91188000000E+02  0.91188000000E+02 0.  0.
    9900012    2    3    3    0    0  0.53494734990E+01  0.22854894195E+02  0.38446722739E+02  0.46142317135E+02  0.99999942925E+01 0.  0.
        -12    1    3    3    0    0 -0.53494734990E+01 -0.22854894195E+02 -0.38446722739E+02  0.45045682865E+02  0.00000000000E+00 0.  1.
         11    1    4    4    0    0 -0.74124866797E+00  0.20693157251E+00  0.39799152747E+00  0.86641086127E+00  0.51100000000E-03 0. -1.
        -11    1    4    4    0    0  0.40266202727E+01  0.43557915801E+01  0.69488469066E+01  0.91363594884E+01  0.51100000000E-03 0.  1.
         12    1    4    4    0    0  0.20641018942E+01  0.18292171043E+02  0.31099884305E+02  0.36139546785E+02  0.00000000000E+00 0. -1.
</event>
<event>
 8    1  0.7489580E-009  0.9118800E+02  0.7816164E-02  0.1184000E+00
        -11   -1    0    0    0    0  0.00000000000E+00  0.00000000000E+00  0.45593999997E+02  0.45594000000E+02  0.51100000000E-03 0. -1.
         11   -1    0    0    0    0 -0.00000000000E+00 -0.00000000000E+00 -0.45593999997E+02  0.45594000000E+02  0.51100000000E-03 0.  1.
         23    2    1    2    0    0  0.00000000000E+00  0.00000000000E+00  0.71054273576E-14  0.91188000000E+02  0.91188000000E+02 0.  0.
    9900012    2    3    3    0    0  0.27402356760E+02  0.32046510478E+01 -0.35608350508E+02  0.46142316852E+02  0.99999917130E+01 0.  0.
         12    1    3    3    0    0 -0.27402356760E+02 -0.32046510478E+01  0.35608350508E+02  0.45045683148E+02  0.00000000000E+00 0. -1.
         11    1    4    4    0    0  0.11584870585E+02  0.16924654976E+01 -0.12455902136E+02  0.17094536092E+02  0.51100000000E-03 0. -1.
        -11    1    4    4    0    0  0.52439130872E+01  0.98122224431E+00 -0.26131699258E+01  0.59405453353E+01  0.51100000000E-03 0.  1.
        -12    1    4    4    0    0  0.10573573088E+02  0.53096330594E+00 -0.20539278446E+02  0.23107235425E+02  0.00000000000E+00 0.  1.
</event>
<event>
 8    1  0.7489580E-009  0.9118800E+02  0.7816164E-02  0.1184000E+00
        -11   -1    0    0    0    0  0.00000000000E+00  0.00000000000E+00  0.45593999997E+02  0.45594000000E+02  0.51100000000E-03 0. -1.
         11   -1    0    0    0    0 -0.00000000000E+00 -0.00000000000E+00 -0.45593999997E+02  0.45594000000E+02  0.51100000000E-03 0.  1.
         23    2    1    2    0    0  0.00000000000E+00  0.00000000000E+00  0.00000000000E+00  0.91188000000E+02  0.91188000000E+02 0.  0.
    9900012    2    3    3    0    0  0.32681473319E+02  0.22023354518E+02  0.21817580575E+02  0.46142315804E+02  0.99999821561E+01 0.  0.
        -12    1    3    3    0    0 -0.32681473319E+02 -0.22023354518E+02 -0.21817580575E+02  0.45045684196E+02  0.00000000000E+00 0.  1.
         11    1    4    4    0    0  0.79473568687E+01  0.53997967778E+01  0.28025045393E+01  0.10008612211E+02  0.51100000000E-03 0. -1.
        -11    1    4    4    0    0  0.70466995518E+01  0.13113673214E+01  0.29327525984E+01  0.77444623370E+01  0.51100000000E-03 0.  1.
         12    1    4    4    0    0  0.17687416898E+02  0.15312190419E+02  0.16082323437E+02  0.28389241256E+02  0.00000000000E+00 0. -1.
</event>
<event>
 8    1  0.7489580E-009  0.9118800E+02  0.7816164E-02  0.1184000E+00
        -11   -1    0    0    0    0  0.00000000000E+00  0.00000000000E+00  0.45593999997E+02  0.45594000000E+02  0.51100000000E-03 0.  1.
         11   -1    0    0    0    0 -0.00000000000E+00 -0.00000000000E+00 -0.45593999997E+02  0.45594000000E+02  0.51100000000E-03 0. -1.
         23    2    1    2    0    0  0.00000000000E+00  0.00000000000E+00  0.00000000000E+00  0.91188000000E+02  0.91188000000E+02 0.  0.
    9900012    2    3    3    0    0  0.31860493393E+02 -0.28592529792E+02 -0.14017490080E+02  0.46142313999E+02  0.99999656921E+01 0.  0.
        -12    1    3    3    0    0 -0.31860493393E+02  0.28592529792E+02  0.14017490080E+02  0.45045686001E+02  0.00000000000E+00 0.  1.
         11    1    4    4    0    0  0.10705082903E+02 -0.80111592173E+01 -0.17966636303E+01  0.13490940383E+02  0.51100000000E-03 0. -1.
        -11    1    4    4    0    0  0.68870430533E+01 -0.91554148682E+01 -0.77544140232E+01  0.13834157746E+02  0.51100000000E-03 0.  1.
        -12    1    4    4    0    0  0.14268367437E+02 -0.11425955707E+02 -0.44664124260E+01  0.18817215870E+02  0.00000000000E+00 0.  1.
</event>
<event>
 8    1  0.7489580E-009  0.9118800E+02  0.7816164E-02  0.1184000E+00
        -11   -1    0    0    0    0  0.00000000000E+00  0.00000000000E+00  0.45593999997E+02  0.45594000000E+02  0.51100000000E-03 0. -1.
         11   -1    0    0    0    0 -0.00000000000E+00 -0.00000000000E+00 -0.45593999997E+02  0.45594000000E+02  0.51100000000E-03 0.  1.
         23    2    1    2    0    0  0.00000000000E+00  0.00000000000E+00  0.71054273576E-14  0.91188000000E+02  0.91188000000E+02 0.  0.
    9900012    2    3    3    0    0  0.97825483665E+01 -0.75209867147E+01  0.43322626589E+02  0.46142317984E+02  0.10000002034E+02 0.  0.
        -12    1    3    3    0    0 -0.97825483665E+01  0.75209867147E+01 -0.43322626589E+02  0.45045682016E+02  0.00000000000E+00 0.  1.
         11    1    4    4    0    0  0.30981270038E+01 -0.15257956782E+01  0.11563365803E+02  0.12068051721E+02  0.51100000000E-03 0. -1.
        -11    1    4    4    0    0  0.57791108029E+01 -0.61638001623E+01  0.32020938975E+02  0.33116930522E+02  0.51100000000E-03 0.  1.
        -12    1    4    4    0    0  0.90531055977E+00  0.16860912573E+00 -0.26167818881E+00  0.95733574121E+00  0.00000000000E+00 0.  1.
</event>
<event>
 8    1  0.7489580E-009  0.9118800E+02  0.7816164E-02  0.1184000E+00
        -11   -1    0    0    0    0  0.00000000000E+00  0.00000000000E+00  0.45593999997E+02  0.45594000000E+02  0.51100000000E-03 0. -1.
         11   -1    0    0    0    0 -0.00000000000E+00 -0.00000000000E+00 -0.45593999997E+02  0.45594000000E+02  0.51100000000E-03 0.  1.
         23    2    1    2    0    0  0.35527136788E-14 -0.35527136788E-14  0.71054273576E-14  0.91188000000E+02  0.91188000000E+02 0.  0.
    9900012    2    3    3    0    0  0.19583914358E+02 -0.27340092887E+02  0.29968368058E+02  0.46142318024E+02  0.10000002393E+02 0.  0.
        -12    1    3    3    0    0 -0.19583914358E+02  0.27340092887E+02 -0.29968368058E+02  0.45045681976E+02  0.00000000000E+00 0.  1.
         11    1    4    4    0    0 -0.73926353491E+00 -0.13738697794E+01  0.12793635070E+01  0.20176223604E+01  0.51100000000E-03 0. -1.
        -11    1    4    4    0    0  0.64944602597E+01 -0.47376345111E+01  0.51868669819E+01  0.95669631637E+01  0.51100000000E-03 0.  1.
         12    1    4    4    0    0  0.13828717633E+02 -0.21228588596E+02  0.23502137570E+02  0.34557732499E+02  0.00000000000E+00 0. -1.
</event>
<event>
 8    1  0.7489580E-009  0.9118800E+02  0.7816164E-02  0.1184000E+00
        -11   -1    0    0    0    0  0.00000000000E+00  0.00000000000E+00  0.45593999997E+02  0.45594000000E+02  0.51100000000E-03 0. -1.
         11   -1    0    0    0    0 -0.00000000000E+00 -0.00000000000E+00 -0.45593999997E+02  0.45594000000E+02  0.51100000000E-03 0.  1.
         23    2    1    2    0    0  0.35527136788E-14  0.00000000000E+00  0.71054273576E-14  0.91188000000E+02  0.91188000000E+02 0.  0.
    9900012    2    3    3    0    0  0.19969934874E+02  0.21581038796E+02 -0.34125855944E+02  0.46142316763E+02  0.99999908981E+01 0.  0.
         12    1    3    3    0    0 -0.19969934874E+02 -0.21581038796E+02  0.34125855944E+02  0.45045683237E+02  0.00000000000E+00 0. -1.
         11    1    4    4    0    0 -0.86120604621E+00  0.41530781228E+00 -0.18088423861E+01  0.20459881407E+01  0.51100000000E-03 0. -1.
        -11    1    4    4    0    0  0.34496448534E+00  0.11207133105E+01 -0.23677462882E+01  0.26422001375E+01  0.51100000000E-03 0.  1.
        -12    1    4    4    0    0  0.20486176435E+02  0.20045017673E+02 -0.29949267270E+02  0.41454128485E+02  0.00000000000E+00 0.  1.
</event>
<event>
 8    1  0.7489580E-009  0.9118800E+02  0.7816164E-02  0.1184000E+00
        -11   -1    0    0    0    0  0.00000000000E+00  0.00000000000E+00  0.45593999997E+02  0.45594000000E+02  0.51100000000E-03 0. -1.
         11   -1    0    0    0    0 -0.00000000000E+00 -0.00000000000E+00 -0.45593999997E+02  0.45594000000E+02  0.51100000000E-03 0.  1.
         23    2    1    2    0    0  0.35527136788E-14  0.00000000000E+00  0.00000000000E+00  0.91188000000E+02  0.91188000000E+02 0.  0.
    9900012    2    3    3    0    0  0.29415233084E+02  0.13873048187E+02  0.31167222057E+02  0.46142321693E+02  0.10000035855E+02 0.  0.
        -12    1    3    3    0    0 -0.29415233084E+02 -0.13873048187E+02 -0.31167222057E+02  0.45045678307E+02  0.00000000000E+00 0.  1.
         11    1    4    4    0    0  0.15022738640E+02  0.46788170140E+01  0.13661388920E+02  0.20837647477E+02  0.51100000000E-03 0. -1.
        -11    1    4    4    0    0  0.42611685863E+01  0.51909193351E+01  0.35371446813E+01  0.75904277892E+01  0.51100000000E-03 0.  1.
        -12    1    4    4    0    0  0.10131325858E+02  0.40033118378E+01  0.13968688456E+02  0.17714246427E+02  0.00000000000E+00 0.  1.
</event>
<event>
 8    1  0.7489580E-009  0.9118800E+02  0.7816164E-02  0.1184000E+00
        -11   -1    0    0    0    0  0.00000000000E+00  0.00000000000E+00  0.45593999997E+02  0.45594000000E+02  0.51100000000E-03 0. -1.
         11   -1    0    0    0    0 -0.00000000000E+00 -0.00000000000E+00 -0.45593999997E+02  0.45594000000E+02  0.51100000000E-03 0.  1.
         23    2    1    2    0    0  0.35527136788E-14 -0.17763568394E-14  0.71054273576E-14  0.91188000000E+02  0.91188000000E+02 0.  0.
    9900012    2    3    3    0    0  0.19422516108E+02 -0.11489526849E+02  0.38985511189E+02  0.46142318278E+02  0.10000004709E+02 0.  0.
        -12    1    3    3    0    0 -0.19422516108E+02  0.11489526849E+02 -0.38985511189E+02  0.45045681722E+02  0.00000000000E+00 0.  1.
         11    1    4    4    0    0  0.10542622593E+02 -0.29482631215E+01  0.22160826132E+02  0.24717228034E+02  0.51100000000E-03 0. -1.
        -11    1    4    4    0    0  0.38942455755E+01 -0.40312790831E+01  0.11694756084E+02  0.12968565062E+02  0.51100000000E-03 0.  1.
        -12    1    4    4    0    0  0.49856479394E+01 -0.45099846449E+01  0.51299289722E+01  0.84565251807E+01  0.00000000000E+00 0.  1.
</event>
<event>
 8    1  0.8901428E-009  0.9118800E+02  0.7816164E-02  0.1184000E+00
        -11   -1    0    0    0    0  0.00000000000E+00  0.00000000000E+00  0.45593999997E+02  0.45594000000E+02  0.51100000000E-03 0. -1.
         11   -1    0    0    0    0 -0.00000000000E+00 -0.00000000000E+00 -0.45593999997E+02  0.45594000000E+02  0.51100000000E-03 0.  1.
         23    2    1    2    0    0  0.00000000000E+00  0.00000000000E+00  0.00000000000E+00  0.91188000000E+02  0.91188000000E+02 0.  0.
    9900012    2    3    3    0    0 -0.22827709133E+02 -0.25039027256E+02 -0.29682592119E+02  0.46142318020E+02  0.10000002356E+02 0.  0.
         12    1    3    3    0    0  0.22827709133E+02  0.25039027256E+02  0.29682592119E+02  0.45045681980E+02  0.00000000000E+00 0. -1.
         11    1    4    4    0    0 -0.10141040882E+02 -0.12292002825E+02 -0.18640175704E+02  0.24523258229E+02  0.51100000000E-03 0. -1.
        -11    1    4    4    0    0 -0.47635055504E+01 -0.73269826117E+01 -0.70245611265E+01  0.11212498321E+02  0.51100000000E-03 0.  1.
         12    1    4    4    0    0 -0.79231627003E+01 -0.54200418193E+01 -0.40178552883E+01  0.10406561469E+02  0.00000000000E+00 0. -1.
</event>
<event>
 8    1  0.7489580E-009  0.9118800E+02  0.7816164E-02  0.1184000E+00
        -11   -1    0    0    0    0  0.00000000000E+00  0.00000000000E+00  0.45593999997E+02  0.45594000000E+02  0.51100000000E-03 0. -1.
         11   -1    0    0    0    0 -0.00000000000E+00 -0.00000000000E+00 -0.45593999997E+02  0.45594000000E+02  0.51100000000E-03 0.  1.
         23    2    1    2    0    0  0.00000000000E+00  0.00000000000E+00  0.00000000000E+00  0.91188000000E+02  0.91188000000E+02 0.  0.
    9900012    2    3    3    0    0  0.43915618865E+02  0.78408663179E+01 -0.62492132751E+01  0.46142318393E+02  0.10000005759E+02 0.  0.
        -12    1    3    3    0    0 -0.43915618865E+02 -0.78408663179E+01  0.62492132751E+01  0.45045681607E+02  0.00000000000E+00 0.  1.
         11    1    4    4    0    0  0.18731692158E+02  0.11793032263E+01 -0.28973776726E+01  0.18991099096E+02  0.51100000000E-03 0. -1.
        -11    1    4    4    0    0  0.22041530538E+02  0.71526032891E+01 -0.47863288479E+01  0.23662158531E+02  0.51100000000E-03 0.  1.
         12    1    4    4    0    0  0.31423961689E+01 -0.49104019748E+00  0.14344932454E+01  0.34890607660E+01  0.00000000000E+00 0. -1.
</event>
<event>
 8    1  0.7489580E-009  0.9118800E+02  0.7816164E-02  0.1184000E+00
        -11   -1    0    0    0    0  0.00000000000E+00  0.00000000000E+00  0.45593999997E+02  0.45594000000E+02  0.51100000000E-03 0. -1.
         11   -1    0    0    0    0 -0.00000000000E+00 -0.00000000000E+00 -0.45593999997E+02  0.45594000000E+02  0.51100000000E-03 0.  1.
         23    2    1    2    0    0 -0.35527136788E-14  0.00000000000E+00  0.00000000000E+00  0.91188000000E+02  0.91188000000E+02 0.  0.
    9900012    2    3    3    0    0  0.28309400413E+02 -0.99196497991E+01 -0.33604937765E+02  0.46142318231E+02  0.10000004285E+02 0.  0.
         12    1    3    3    0    0 -0.28309400413E+02  0.99196497991E+01  0.33604937765E+02  0.45045681769E+02  0.00000000000E+00 0. -1.
         11    1    4    4    0    0  0.12907558070E+02 -0.51433256839E+01 -0.10498195030E+02  0.17414676384E+02  0.51100000000E-03 0. -1.
        -11    1    4    4    0    0  0.10407971988E+02 -0.84206399337E+00 -0.11804827083E+02  0.15760358352E+02  0.51100000000E-03 0.  1.
        -12    1    4    4    0    0  0.49938703549E+01 -0.39342601218E+01 -0.11301915652E+02  0.12967283495E+02  0.00000000000E+00 0.  1.
</event>
<event>
 8    1  0.7489580E-009  0.9118800E+02  0.7816164E-02  0.1184000E+00
        -11   -1    0    0    0    0  0.00000000000E+00  0.00000000000E+00  0.45593999997E+02  0.45594000000E+02  0.51100000000E-03 0. -1.
         11   -1    0    0    0    0 -0.00000000000E+00 -0.00000000000E+00 -0.45593999997E+02  0.45594000000E+02  0.51100000000E-03 0.  1.
         23    2    1    2    0    0  0.17763568394E-14  0.35527136788E-14  0.71054273576E-14  0.91188000000E+02  0.91188000000E+02 0.  0.
    9900012    2    3    3    0    0  0.10510855487E+02  0.19226311946E+02  0.39357137047E+02  0.46142318846E+02  0.10000009893E+02 0.  0.
        -12    1    3    3    0    0 -0.10510855487E+02 -0.19226311946E+02 -0.39357137047E+02  0.45045681154E+02  0.00000000000E+00 0.  1.
         11    1    4    4    0    0  0.19025767029E+01  0.59045759613E+01  0.14099010266E+02  0.15403438127E+02  0.51100000000E-03 0.  1.
        -11    1    4    4    0    0  0.69212578179E+01  0.10604944458E+02  0.24297776840E+02  0.27399828766E+02  0.51100000000E-03 0. -1.
        -12    1    4    4    0    0  0.16870209661E+01  0.27167915268E+01  0.96034994066E+00  0.33390519536E+01  0.00000000000E+00 0.  1.
</event>
<event>
 8    1  0.7489580E-009  0.9118800E+02  0.7816164E-02  0.1184000E+00
        -11   -1    0    0    0    0  0.00000000000E+00  0.00000000000E+00  0.45593999997E+02  0.45594000000E+02  0.51100000000E-03 0. -1.
         11   -1    0    0    0    0 -0.00000000000E+00 -0.00000000000E+00 -0.45593999997E+02  0.45594000000E+02  0.51100000000E-03 0.  1.
         23    2    1    2    0    0  0.71054273576E-14  0.00000000000E+00  0.35527136788E-14  0.91188000000E+02  0.91188000000E+02 0.  0.
    9900012    2    3    3    0    0 -0.32292674545E+02  0.19705860959E+02 -0.24453541679E+02  0.46142317787E+02  0.10000000234E+02 0.  0.
         12    1    3    3    0    0  0.32292674545E+02 -0.19705860959E+02  0.24453541679E+02  0.45045682213E+02  0.00000000000E+00 0. -1.
         11    1    4    4    0    0 -0.11620692680E+02  0.11151532557E+02 -0.10527378605E+02  0.19241176609E+02  0.51100000000E-03 0. -1.
        -11    1    4    4    0    0 -0.97303816877E+01  0.68313782803E+01 -0.80985599508E+01  0.14385226120E+02  0.51100000000E-03 0.  1.
        -12    1    4    4    0    0 -0.10941600178E+02  0.17229501212E+01 -0.58276031235E+01  0.12515915058E+02  0.00000000000E+00 0.  1.
</event>
<event>
 8    1  0.7489580E-009  0.9118800E+02  0.7816164E-02  0.1184000E+00
        -11   -1    0    0    0    0  0.00000000000E+00  0.00000000000E+00  0.45593999997E+02  0.45594000000E+02  0.51100000000E-03 0. -1.
         11   -1    0    0    0    0 -0.00000000000E+00 -0.00000000000E+00 -0.45593999997E+02  0.45594000000E+02  0.51100000000E-03 0.  1.
         23    2    1    2    0    0  0.35527136788E-14  0.00000000000E+00  0.00000000000E+00  0.91188000000E+02  0.91188000000E+02 0.  0.
    9900012    2    3    3    0    0  0.25964244262E+02 -0.36523769453E+02  0.45810277410E+01  0.46142317296E+02  0.99999957543E+01 0.  0.
         12    1    3    3    0    0 -0.25964244262E+02  0.36523769453E+02 -0.45810277410E+01  0.45045682704E+02  0.00000000000E+00 0. -1.
         11    1    4    4    0    0  0.10354419181E+02 -0.73757560290E+01 -0.21808256677E+00  0.12714689687E+02  0.51100000000E-03 0. -1.
        -11    1    4    4    0    0  0.10629227197E+02 -0.19105533243E+02  0.35279385776E+01  0.22146065614E+02  0.51100000000E-03 0.  1.
         12    1    4    4    0    0  0.49805978841E+01 -0.10042480181E+02  0.12711717302E+01  0.11281561994E+02  0.00000000000E+00 0. -1.
</event>
<event>
 8    1  0.7489580E-009  0.9118800E+02  0.7816164E-02  0.1184000E+00
        -11   -1    0    0    0    0  0.00000000000E+00  0.00000000000E+00  0.45593999997E+02  0.45594000000E+02  0.51100000000E-03 0. -1.
         11   -1    0    0    0    0 -0.00000000000E+00 -0.00000000000E+00 -0.45593999997E+02  0.45594000000E+02  0.51100000000E-03 0.  1.
         23    2    1    2    0    0  0.00000000000E+00  0.00000000000E+00  0.35527136788E-14  0.91188000000E+02  0.91188000000E+02 0.  0.
    9900012    2    3    3    0    0  0.19141952239E+02 -0.25697075637E+02 -0.31660061543E+02  0.46142317313E+02  0.99999959166E+01 0.  0.
         12    1    3    3    0    0 -0.19141952239E+02  0.25697075637E+02  0.31660061543E+02  0.45045682687E+02  0.00000000000E+00 0. -1.
         11    1    4    4    0    0  0.31714209597E+01 -0.26041291690E+01 -0.11122524757E+01  0.42516473823E+01  0.51100000000E-03 0.  1.
        -11    1    4    4    0    0  0.43619214933E+01 -0.11176907238E+02 -0.13763855327E+02  0.18259061538E+02  0.51100000000E-03 0. -1.
        -12    1    4    4    0    0  0.11608609786E+02 -0.11916039230E+02 -0.16783953740E+02  0.23631608393E+02  0.00000000000E+00 0.  1.
</event>
<event>
 8    1  0.7489580E-009  0.9118800E+02  0.7816164E-02  0.1184000E+00
        -11   -1    0    0    0    0  0.00000000000E+00  0.00000000000E+00  0.45593999997E+02  0.45594000000E+02  0.51100000000E-03 0. -1.
         11   -1    0    0    0    0 -0.00000000000E+00 -0.00000000000E+00 -0.45593999997E+02  0.45594000000E+02  0.51100000000E-03 0.  1.
         23    2    1    2    0    0  0.00000000000E+00  0.00000000000E+00  0.35527136788E-14  0.91188000000E+02  0.91188000000E+02 0.  0.
    9900012    2    3    3    0    0  0.30386373111E+02  0.21762407338E+02  0.25143178639E+02  0.46142317898E+02  0.10000001249E+02 0.  0.
        -12    1    3    3    0    0 -0.30386373111E+02 -0.21762407338E+02 -0.25143178639E+02  0.45045682102E+02  0.00000000000E+00 0.  1.
         11    1    4    4    0    0  0.52639307390E+01  0.42259565686E+01  0.75790326469E+01  0.10149355244E+02  0.51100000000E-03 0. -1.
        -11    1    4    4    0    0  0.30710031077E+01  0.17691319869E+01  0.49635534380E+01  0.60989959065E+01  0.51100000000E-03 0.  1.
         12    1    4    4    0    0  0.22051439264E+02  0.15767318782E+02  0.12600592554E+02  0.29893966748E+02  0.00000000000E+00 0. -1.
</event>
<event>
 8    1  0.7489580E-009  0.9118800E+02  0.7816164E-02  0.1184000E+00
        -11   -1    0    0    0    0  0.00000000000E+00  0.00000000000E+00  0.45593999997E+02  0.45594000000E+02  0.51100000000E-03 0. -1.
         11   -1    0    0    0    0 -0.00000000000E+00 -0.00000000000E+00 -0.45593999997E+02  0.45594000000E+02  0.51100000000E-03 0.  1.
         23    2    1    2    0    0 -0.35527136788E-14  0.00000000000E+00  0.00000000000E+00  0.91188000000E+02  0.91188000000E+02 0.  0.
    9900012    2    3    3    0    0 -0.30929898917E+02 -0.64207198478E+01  0.32112757595E+02  0.46142317734E+02  0.99999997545E+01 0.  0.
        -12    1    3    3    0    0  0.30929898917E+02  0.64207198478E+01 -0.32112757595E+02  0.45045682266E+02  0.00000000000E+00 0.  1.
         11    1    4    4    0    0 -0.11899227315E+02 -0.43468976212E+01  0.81895456970E+01  0.15084952390E+02  0.51100000000E-03 0. -1.
        -11    1    4    4    0    0 -0.72256407905E+00  0.40921719457E+00  0.56198002322E-04  0.83039618553E+00  0.51100000000E-03 0.  1.
        -12    1    4    4    0    0 -0.18308107524E+02 -0.24830394211E+01  0.23923155701E+02  0.30226969159E+02  0.00000000000E+00 0.  1.
</event>
<event>
 8    1  0.7489580E-009  0.9118800E+02  0.7816164E-02  0.1184000E+00
        -11   -1    0    0    0    0  0.00000000000E+00  0.00000000000E+00  0.45593999997E+02  0.45594000000E+02  0.51100000000E-03 0. -1.
         11   -1    0    0    0    0 -0.00000000000E+00 -0.00000000000E+00 -0.45593999997E+02  0.45594000000E+02  0.51100000000E-03 0.  1.
         23    2    1    2    0    0  0.00000000000E+00  0.35527136788E-14  0.71054273576E-14  0.91188000000E+02  0.91188000000E+02 0.  0.
    9900012    2    3    3    0    0  0.38629840714E+01 -0.14961833111E+02 -0.42312342646E+02  0.46142318340E+02  0.10000005282E+02 0.  0.
         12    1    3    3    0    0 -0.38629840714E+01  0.14961833111E+02  0.42312342646E+02  0.45045681660E+02  0.00000000000E+00 0. -1.
         11    1    4    4    0    0  0.20561916015E+01 -0.25943665426E+01 -0.11839843681E+02  0.12293923715E+02  0.51100000000E-03 0.  1.
        -11    1    4    4    0    0  0.34358563820E+01 -0.11691478946E+02 -0.21582090787E+02  0.24784721745E+02  0.51100000000E-03 0. -1.
         12    1    4    4    0    0 -0.16290639121E+01 -0.67598762320E+00 -0.88904081788E+01  0.90636728803E+01  0.00000000000E+00 0. -1.
</event>
<event>
 8    1  0.7489580E-009  0.9118800E+02  0.7816164E-02  0.1184000E+00
        -11   -1    0    0    0    0  0.00000000000E+00  0.00000000000E+00  0.45593999997E+02  0.45594000000E+02  0.51100000000E-03 0. -1.
         11   -1    0    0    0    0 -0.00000000000E+00 -0.00000000000E+00 -0.45593999997E+02  0.45594000000E+02  0.51100000000E-03 0.  1.
         23    2    1    2    0    0  0.44408920985E-15  0.00000000000E+00  0.00000000000E+00  0.91188000000E+02  0.91188000000E+02 0.  0.
    9900012    2    3    3    0    0  0.38190338857E+01 -0.17533903995E+02  0.41316947632E+02  0.46142323506E+02  0.10000052389E+02 0.  0.
        -12    1    3    3    0    0 -0.38190338857E+01  0.17533903995E+02 -0.41316947632E+02  0.45045676494E+02  0.00000000000E+00 0.  1.
         11    1    4    4    0    0  0.41066515246E+01 -0.88430776739E+01  0.13117526857E+02  0.16344238147E+02  0.51100000000E-03 0. -1.
        -11    1    4    4    0    0 -0.18277795535E+01 -0.54294036951E+01  0.13551826424E+02  0.14712960350E+02  0.51100000000E-03 0.  1.
         12    1    4    4    0    0  0.15401619145E+01 -0.32614226259E+01  0.14647594351E+02  0.15085125009E+02  0.00000000000E+00 0. -1.
</event>
<event>
 8    1  0.7489580E-009  0.9118800E+02  0.7816164E-02  0.1184000E+00
        -11   -1    0    0    0    0  0.00000000000E+00  0.00000000000E+00  0.45593999997E+02  0.45594000000E+02  0.51100000000E-03 0. -1.
         11   -1    0    0    0    0 -0.00000000000E+00 -0.00000000000E+00 -0.45593999997E+02  0.45594000000E+02  0.51100000000E-03 0.  1.
         23    2    1    2    0    0  0.00000000000E+00 -0.35527136788E-14 -0.71054273576E-14  0.91188000000E+02  0.91188000000E+02 0.  0.
    9900012    2    3    3    0    0  0.76308976407E+01 -0.20005692753E+02 -0.39631486603E+02  0.46142322385E+02  0.10000042169E+02 0.  0.
         12    1    3    3    0    0 -0.76308976407E+01  0.20005692753E+02  0.39631486603E+02  0.45045677615E+02  0.00000000000E+00 0. -1.
         11    1    4    4    0    0  0.75583373123E+01 -0.10174918078E+02 -0.21831822812E+02  0.25244522344E+02  0.51100000000E-03 0. -1.
        -11    1    4    4    0    0  0.23437444274E+01 -0.34349431004E+01 -0.70364389272E+01  0.81733374506E+01  0.51100000000E-03 0.  1.
        -12    1    4    4    0    0 -0.22711840990E+01 -0.63958315751E+01 -0.10763224864E+02  0.12724462591E+02  0.00000000000E+00 0.  1.
</event>
<event>
 8    1  0.7489580E-009  0.9118800E+02  0.7816164E-02  0.1184000E+00
        -11   -1    0    0    0    0  0.00000000000E+00  0.00000000000E+00  0.45593999997E+02  0.45594000000E+02  0.51100000000E-03 0. -1.
         11   -1    0    0    0    0 -0.00000000000E+00 -0.00000000000E+00 -0.45593999997E+02  0.45594000000E+02  0.51100000000E-03 0.  1.
         23    2    1    2    0    0  0.00000000000E+00  0.00000000000E+00  0.00000000000E+00  0.91188000000E+02  0.91188000000E+02 0.  0.
    9900012    2    3    3    0    0 -0.20525650186E+02  0.12244846963E+02 -0.38182130843E+02  0.46142315319E+02  0.99999777317E+01 0.  0.
         12    1    3    3    0    0  0.20525650186E+02 -0.12244846963E+02  0.38182130843E+02  0.45045684681E+02  0.00000000000E+00 0. -1.
         11    1    4    4    0    0 -0.18710065056E+01 -0.94695065268E+00 -0.16297047700E+01  0.26558084986E+01  0.51100000000E-03 0. -1.
        -11    1    4    4    0    0 -0.12455239363E+02  0.92636439312E+01 -0.29358946247E+02  0.33209875210E+02  0.51100000000E-03 0.  1.
        -12    1    4    4    0    0 -0.61994043170E+01  0.39281536842E+01 -0.71934798253E+01  0.10276631610E+02  0.00000000000E+00 0.  1.
</event>
<event>
 8    1  0.7489580E-009  0.9118800E+02  0.7816164E-02  0.1184000E+00
        -11   -1    0    0    0    0  0.00000000000E+00  0.00000000000E+00  0.45593999997E+02  0.45594000000E+02  0.51100000000E-03 0. -1.
         11   -1    0    0    0    0 -0.00000000000E+00 -0.00000000000E+00 -0.45593999997E+02  0.45594000000E+02  0.51100000000E-03 0.  1.
         23    2    1    2    0    0  0.00000000000E+00  0.00000000000E+00  0.00000000000E+00  0.91188000000E+02  0.91188000000E+02 0.  0.
    9900012    2    3    3    0    0  0.38672936895E+02 -0.17782760054E+01 -0.23029441273E+02  0.46142317865E+02  0.10000000951E+02 0.  0.
         12    1    3    3    0    0 -0.38672936895E+02  0.17782760054E+01  0.23029441273E+02  0.45045682135E+02  0.00000000000E+00 0. -1.
         11    1    4    4    0    0  0.60173674358E+01  0.30088903030E+01 -0.38230350080E+01  0.77380700854E+01  0.51100000000E-03 0. -1.
        -11    1    4    4    0    0  0.89712983749E+01 -0.15554121171E+01 -0.32668633508E+01  0.96734635886E+01  0.51100000000E-03 0.  1.
        -12    1    4    4    0    0  0.23684271084E+02 -0.32317541914E+01 -0.15939542914E+02  0.28730784191E+02  0.00000000000E+00 0.  1.
</event>
<event>
 8    1  0.7489580E-009  0.9118800E+02  0.7816164E-02  0.1184000E+00
        -11   -1    0    0    0    0  0.00000000000E+00  0.00000000000E+00  0.45593999997E+02  0.45594000000E+02  0.51100000000E-03 0. -1.
         11   -1    0    0    0    0 -0.00000000000E+00 -0.00000000000E+00 -0.45593999997E+02  0.45594000000E+02  0.51100000000E-03 0.  1.
         23    2    1    2    0    0  0.17763568394E-14  0.00000000000E+00  0.00000000000E+00  0.91188000000E+02  0.91188000000E+02 0.  0.
    9900012    2    3    3    0    0  0.10903497925E+02  0.19719564756E+02 -0.39004694363E+02  0.46142315595E+02  0.99999802472E+01 0.  0.
         12    1    3    3    0    0 -0.10903497925E+02 -0.19719564756E+02  0.39004694363E+02  0.45045684405E+02  0.00000000000E+00 0. -1.
         11    1    4    4    0    0  0.65713627341E+01  0.13548444698E+02 -0.19145347626E+02  0.24357493670E+02  0.51100000000E-03 0. -1.
        -11    1    4    4    0    0  0.13117868678E+00  0.41504017488E+01 -0.11292271576E+02  0.12031560171E+02  0.51100000000E-03 0.  1.
         12    1    4    4    0    0  0.42009565038E+01  0.20207183092E+01 -0.85670751614E+01  0.97532617546E+01  0.00000000000E+00 0. -1.
</event>
<event>
 8    1  0.7489580E-009  0.9118800E+02  0.7816164E-02  0.1184000E+00
        -11   -1    0    0    0    0  0.00000000000E+00  0.00000000000E+00  0.45593999997E+02  0.45594000000E+02  0.51100000000E-03 0. -1.
         11   -1    0    0    0    0 -0.00000000000E+00 -0.00000000000E+00 -0.45593999997E+02  0.45594000000E+02  0.51100000000E-03 0.  1.
         23    2    1    2    0    0  0.88817841970E-15  0.00000000000E+00  0.00000000000E+00  0.91188000000E+02  0.91188000000E+02 0.  0.
    9900012    2    3    3    0    0  0.41206553500E+01  0.36623693224E+02 -0.25900555238E+02  0.46142317992E+02  0.10000002109E+02 0.  0.
         12    1    3    3    0    0 -0.41206553500E+01 -0.36623693224E+02  0.25900555238E+02  0.45045682008E+02  0.00000000000E+00 0. -1.
         11    1    4    4    0    0 -0.26450070740E+00  0.17009133509E+02 -0.96832600046E+01  0.19574118318E+02  0.51100000000E-03 0.  1.
        -11    1    4    4    0    0 -0.13296836916E+01  0.78761316414E+01 -0.60180285467E+01  0.10000908769E+02  0.51100000000E-03 0. -1.
        -12    1    4    4    0    0  0.57148397490E+01  0.11738428074E+02 -0.10199266686E+02  0.16567290905E+02  0.00000000000E+00 0.  1.
</event>
<event>
 8    1  0.7489580E-009  0.9118800E+02  0.7816164E-02  0.1184000E+00
        -11   -1    0    0    0    0  0.00000000000E+00  0.00000000000E+00  0.45593999997E+02  0.45594000000E+02  0.51100000000E-03 0. -1.
         11   -1    0    0    0    0 -0.00000000000E+00 -0.00000000000E+00 -0.45593999997E+02  0.45594000000E+02  0.51100000000E-03 0.  1.
         23    2    1    2    0    0 -0.44408920985E-15 -0.71054273576E-14 -0.44408920985E-15  0.91188000000E+02  0.91188000000E+02 0.  0.
    9900012    2    3    3    0    0 -0.22648038917E+01  0.44914597569E+02  0.25813240819E+01  0.46142316017E+02  0.99999840981E+01 0.  0.
         12    1    3    3    0    0  0.22648038917E+01 -0.44914597569E+02 -0.25813240819E+01  0.45045683983E+02  0.00000000000E+00 0. -1.
         11    1    4    4    0    0  0.26904751418E+01  0.60705365160E+01  0.36338221048E+00  0.66499712009E+01  0.51100000000E-03 0.  1.
        -11    1    4    4    0    0  0.50647605582E+00  0.24959874408E+01 -0.63761450800E+00  0.26254568787E+01  0.51100000000E-03 0. -1.
        -12    1    4    4    0    0 -0.54617550893E+01  0.36348073612E+02  0.28555563794E+01  0.36866887938E+02  0.00000000000E+00 0.  1.
</event>
<event>
 8    1  0.7762232E-009  0.9118800E+02  0.7816164E-02  0.1184000E+00
        -11   -1    0    0    0    0  0.00000000000E+00  0.00000000000E+00  0.45593999997E+02  0.45594000000E+02  0.51100000000E-03 0. -1.
         11   -1    0    0    0    0 -0.00000000000E+00 -0.00000000000E+00 -0.45593999997E+02  0.45594000000E+02  0.51100000000E-03 0.  1.
         23    2    1    2    0    0  0.00000000000E+00  0.00000000000E+00  0.00000000000E+00  0.91188000000E+02  0.91188000000E+02 0.  0.
    9900012    2    3    3    0    0  0.35986467719E+02 -0.12616971490E+01 -0.27064660153E+02  0.46142316880E+02  0.99999919625E+01 0.  0.
         12    1    3    3    0    0 -0.35986467719E+02  0.12616971490E+01  0.27064660153E+02  0.45045683120E+02  0.00000000000E+00 0. -1.
         11    1    4    4    0    0  0.79827081021E+01  0.28527505942E+01 -0.62891729133E+01  0.10555354603E+02  0.51100000000E-03 0. -1.
        -11    1    4    4    0    0  0.17724462877E+02 -0.14296311406E+01 -0.16069358168E+02  0.23967158815E+02  0.51100000000E-03 0.  1.
         12    1    4    4    0    0  0.10279296739E+02 -0.26848166026E+01 -0.47061290719E+01  0.11619803462E+02  0.00000000000E+00 0. -1.
</event>
<event>
 8    1  0.7614262E-009  0.9118800E+02  0.7816164E-02  0.1184000E+00
        -11   -1    0    0    0    0  0.00000000000E+00  0.00000000000E+00  0.45593999997E+02  0.45594000000E+02  0.51100000000E-03 0. -1.
         11   -1    0    0    0    0 -0.00000000000E+00 -0.00000000000E+00 -0.45593999997E+02  0.45594000000E+02  0.51100000000E-03 0.  1.
         23    2    1    2    0    0  0.17763568394E-14 -0.17763568394E-14  0.71054273576E-14  0.91188000000E+02  0.91188000000E+02 0.  0.
    9900012    2    3    3    0    0 -0.98470114207E+01  0.15636600845E+02  0.41080974048E+02  0.46142319312E+02  0.10000014141E+02 0.  0.
        -12    1    3    3    0    0  0.98470114207E+01 -0.15636600845E+02 -0.41080974048E+02  0.45045680688E+02  0.00000000000E+00 0.  1.
         11    1    4    4    0    0 -0.17506359746E+01 -0.35230701299E+00  0.37949102545E+01  0.41940661235E+01  0.51100000000E-03 0. -1.
        -11    1    4    4    0    0 -0.25717051696E+01  0.44205151118E+00  0.36907972317E+01  0.45200731725E+01  0.51100000000E-03 0.  1.
         12    1    4    4    0    0 -0.55246702765E+01  0.15546856347E+02  0.33595266562E+02  0.37428180016E+02  0.00000000000E+00 0. -1.
</event>
<event>
 8    1  0.7489580E-009  0.9118800E+02  0.7816164E-02  0.1184000E+00
        -11   -1    0    0    0    0  0.00000000000E+00  0.00000000000E+00  0.45593999997E+02  0.45594000000E+02  0.51100000000E-03 0. -1.
         11   -1    0    0    0    0 -0.00000000000E+00 -0.00000000000E+00 -0.45593999997E+02  0.45594000000E+02  0.51100000000E-03 0.  1.
         23    2    1    2    0    0  0.00000000000E+00 -0.17763568394E-14  0.00000000000E+00  0.91188000000E+02  0.91188000000E+02 0.  0.
    9900012    2    3    3    0    0  0.32524394868E+02  0.11565890877E+02 -0.28939737079E+02  0.46142306804E+02  0.99999000829E+01 0.  0.
         12    1    3    3    0    0 -0.32524394868E+02 -0.11565890877E+02  0.28939737079E+02  0.45045693196E+02  0.00000000000E+00 0. -1.
         11    1    4    4    0    0  0.51478092941E+01  0.34506592975E+01 -0.98897398234E+01  0.11671072965E+02  0.51100000000E-03 0. -1.
        -11    1    4    4    0    0  0.94752046346E+01  0.13325071111E+01 -0.57864742866E+01  0.11182055401E+02  0.51100000000E-03 0.  1.
         12    1    4    4    0    0  0.17901380939E+02  0.67827244687E+01 -0.13263522969E+02  0.23289178438E+02  0.00000000000E+00 0. -1.
</event>
<event>
 8    1  0.7489580E-009  0.9118800E+02  0.7816164E-02  0.1184000E+00
        -11   -1    0    0    0    0  0.00000000000E+00  0.00000000000E+00  0.45593999997E+02  0.45594000000E+02  0.51100000000E-03 0. -1.
         11   -1    0    0    0    0 -0.00000000000E+00 -0.00000000000E+00 -0.45593999997E+02  0.45594000000E+02  0.51100000000E-03 0.  1.
         23    2    1    2    0    0  0.35527136788E-14 -0.71054273576E-14  0.22204460493E-15  0.91188000000E+02  0.91188000000E+02 0.  0.
    9900012    2    3    3    0    0 -0.26614871959E+02 -0.36322658594E+02 -0.11940822489E+01  0.46142325744E+02  0.10000072797E+02 0.  0.
        -12    1    3    3    0    0  0.26614871959E+02  0.36322658594E+02  0.11940822489E+01  0.45045674256E+02  0.00000000000E+00 0.  1.
         11    1    4    4    0    0 -0.69090202443E+01 -0.58762488493E+01 -0.51474356330E-01  0.90701439429E+01  0.51100000000E-03 0. -1.
        -11    1    4    4    0    0 -0.90760738203E+00 -0.10479769690E+00  0.94985847124E+00  0.13179397155E+01  0.51100000000E-03 0.  1.
        -12    1    4    4    0    0 -0.18798244333E+02 -0.30341612048E+02 -0.20924663638E+01  0.35754242086E+02  0.00000000000E+00 0.  1.
</event>
<event>
 8    1  0.7489580E-009  0.9118800E+02  0.7816164E-02  0.1184000E+00
        -11   -1    0    0    0    0  0.00000000000E+00  0.00000000000E+00  0.45593999997E+02  0.45594000000E+02  0.51100000000E-03 0. -1.
         11   -1    0    0    0    0 -0.00000000000E+00 -0.00000000000E+00 -0.45593999997E+02  0.45594000000E+02  0.51100000000E-03 0.  1.
         23    2    1    2    0    0 -0.88817841970E-15  0.00000000000E+00  0.35527136788E-14  0.91188000000E+02  0.91188000000E+02 0.  0.
    9900012    2    3    3    0    0  0.68245217367E+01  0.31028991313E+02  0.31933383820E+02  0.46142318730E+02  0.10000008839E+02 0.  0.
        -12    1    3    3    0    0 -0.68245217367E+01 -0.31028991313E+02 -0.31933383820E+02  0.45045681270E+02  0.00000000000E+00 0.  1.
         11    1    4    4    0    0  0.46554629829E+01  0.14217175478E+02  0.11816364094E+02  0.19063784378E+02  0.51100000000E-03 0. -1.
        -11    1    4    4    0    0 -0.57386431121E+00  0.45545651070E+01  0.19392124497E+01  0.49833652031E+01  0.51100000000E-03 0.  1.
         12    1    4    4    0    0  0.27429230650E+01  0.12257250728E+02  0.18177807277E+02  0.22095169149E+02  0.00000000000E+00 0. -1.
</event>
<event>
 8    1  0.7489580E-009  0.9118800E+02  0.7816164E-02  0.1184000E+00
        -11   -1    0    0    0    0  0.00000000000E+00  0.00000000000E+00  0.45593999997E+02  0.45594000000E+02  0.51100000000E-03 0. -1.
         11   -1    0    0    0    0 -0.00000000000E+00 -0.00000000000E+00 -0.45593999997E+02  0.45594000000E+02  0.51100000000E-03 0.  1.
         23    2    1    2    0    0  0.00000000000E+00  0.00000000000E+00  0.00000000000E+00  0.91188000000E+02  0.91188000000E+02 0.  0.
    9900012    2    3    3    0    0 -0.20877181558E+02  0.18257969186E+02 -0.35495116197E+02  0.46142318493E+02  0.10000006671E+02 0.  0.
         12    1    3    3    0    0  0.20877181558E+02 -0.18257969186E+02  0.35495116197E+02  0.45045681507E+02  0.00000000000E+00 0. -1.
         11    1    4    4    0    0 -0.27993141543E+01  0.31553825121E+00 -0.30157025899E+01  0.41267646522E+01  0.51100000000E-03 0. -1.
        -11    1    4    4    0    0 -0.18326297333E+01  0.31824655710E+01 -0.97478931897E+01  0.10416719289E+02  0.51100000000E-03 0.  1.
        -12    1    4    4    0    0 -0.16245237671E+02  0.14759965364E+02 -0.22731520417E+02  0.31598834551E+02  0.00000000000E+00 0.  1.
</event>
<event>
 8    1  0.7489580E-009  0.9118800E+02  0.7816164E-02  0.1184000E+00
        -11   -1    0    0    0    0  0.00000000000E+00  0.00000000000E+00  0.45593999997E+02  0.45594000000E+02  0.51100000000E-03 0. -1.
         11   -1    0    0    0    0 -0.00000000000E+00 -0.00000000000E+00 -0.45593999997E+02  0.45594000000E+02  0.51100000000E-03 0.  1.
         23    2    1    2    0    0 -0.35527136788E-14  0.00000000000E+00  0.00000000000E+00  0.91188000000E+02  0.91188000000E+02 0.  0.
    9900012    2    3    3    0    0  0.30407973811E+02  0.13839830726E+02 -0.30214692257E+02  0.46142318587E+02  0.10000007527E+02 0.  0.
         12    1    3    3    0    0 -0.30407973811E+02 -0.13839830726E+02  0.30214692257E+02  0.45045681413E+02  0.00000000000E+00 0. -1.
         11    1    4    4    0    0  0.95127102775E+00  0.13619643108E+01 -0.16445190925E+01  0.23375856474E+01  0.51100000000E-03 0. -1.
        -11    1    4    4    0    0  0.26859368567E+02  0.13426017361E+02 -0.23903659054E+02  0.38380575015E+02  0.51100000000E-03 0.  1.
         12    1    4    4    0    0  0.25973342165E+01 -0.94815094659E+00 -0.46665141103E+01  0.54241579246E+01  0.00000000000E+00 0. -1.
</event>
<event>
 8    1  0.7489580E-009  0.9118800E+02  0.7816164E-02  0.1184000E+00
        -11   -1    0    0    0    0  0.00000000000E+00  0.00000000000E+00  0.45593999997E+02  0.45594000000E+02  0.51100000000E-03 0.  1.
         11   -1    0    0    0    0 -0.00000000000E+00 -0.00000000000E+00 -0.45593999997E+02  0.45594000000E+02  0.51100000000E-03 0. -1.
         23    2    1    2    0    0 -0.71054273576E-14 -0.71054273576E-14  0.00000000000E+00  0.91188000000E+02  0.91188000000E+02 0.  0.
    9900012    2    3    3    0    0  0.26743723809E+02  0.36239905397E+02 -0.74572080506E+00  0.46142316457E+02  0.99999881058E+01 0.  0.
        -12    1    3    3    0    0 -0.26743723809E+02 -0.36239905397E+02  0.74572080506E+00  0.45045683543E+02  0.00000000000E+00 0.  1.
         11    1    4    4    0    0  0.24913915816E+02  0.29244531722E+02 -0.12689055545E+01  0.38438990082E+02  0.51100000000E-03 0. -1.
        -11    1    4    4    0    0  0.18674695736E+01  0.33852198872E+01  0.11617658505E+01  0.40369365174E+01  0.51100000000E-03 0.  1.
        -12    1    4    4    0    0 -0.37661580770E-01  0.36101537872E+01 -0.63858110106E+00  0.36663898571E+01  0.00000000000E+00 0.  1.
</event>
<event>
 8    1  0.7489580E-009  0.9118800E+02  0.7816164E-02  0.1184000E+00
        -11   -1    0    0    0    0  0.00000000000E+00  0.00000000000E+00  0.45593999997E+02  0.45594000000E+02  0.51100000000E-03 0. -1.
         11   -1    0    0    0    0 -0.00000000000E+00 -0.00000000000E+00 -0.45593999997E+02  0.45594000000E+02  0.51100000000E-03 0.  1.
         23    2    1    2    0    0  0.00000000000E+00  0.35527136788E-14  0.00000000000E+00  0.91188000000E+02  0.91188000000E+02 0.  0.
    9900012    2    3    3    0    0 -0.21866686445E+02  0.23480974127E+02  0.31616537638E+02  0.46142316808E+02  0.99999913083E+01 0.  0.
        -12    1    3    3    0    0  0.21866686445E+02 -0.23480974127E+02 -0.31616537638E+02  0.45045683192E+02  0.00000000000E+00 0.  1.
         11    1    4    4    0    0 -0.30043264539E+01  0.50206440579E+01  0.20189204324E+01  0.61894171108E+01  0.51100000000E-03 0.  1.
        -11    1    4    4    0    0 -0.13141341802E+02  0.97398260443E+01  0.16873141782E+02  0.23500255096E+02  0.51100000000E-03 0. -1.
         12    1    4    4    0    0 -0.57210181891E+01  0.87205040251E+01  0.12724475423E+02  0.16452644601E+02  0.00000000000E+00 0. -1.
</event>
<event>
 8    1  0.7489580E-009  0.9118800E+02  0.7816164E-02  0.1184000E+00
        -11   -1    0    0    0    0  0.00000000000E+00  0.00000000000E+00  0.45593999997E+02  0.45594000000E+02  0.51100000000E-03 0. -1.
         11   -1    0    0    0    0 -0.00000000000E+00 -0.00000000000E+00 -0.45593999997E+02  0.45594000000E+02  0.51100000000E-03 0.  1.
         23    2    1    2    0    0  0.88817841970E-15  0.00000000000E+00  0.00000000000E+00  0.91188000000E+02  0.91188000000E+02 0.  0.
    9900012    2    3    3    0    0  0.78472033199E+01 -0.71195573693E+01  0.43781805051E+02  0.46142321510E+02  0.10000034189E+02 0.  0.
        -12    1    3    3    0    0 -0.78472033199E+01  0.71195573693E+01 -0.43781805051E+02  0.45045678490E+02  0.00000000000E+00 0.  1.
         11    1    4    4    0    0  0.46020398663E+01 -0.55933731517E+01  0.29436180721E+02  0.30314243019E+02  0.51100000000E-03 0.  1.
        -11    1    4    4    0    0  0.17558145299E+01 -0.27681742006E+01  0.13144265488E+02  0.13546858992E+02  0.51100000000E-03 0. -1.
        -12    1    4    4    0    0  0.14893489237E+01  0.12419899830E+01  0.12013588416E+01  0.22812194986E+01  0.00000000000E+00 0.  1.
</event>
<event>
 8    1  0.7489580E-009  0.9118800E+02  0.7816164E-02  0.1184000E+00
        -11   -1    0    0    0    0  0.00000000000E+00  0.00000000000E+00  0.45593999997E+02  0.45594000000E+02  0.51100000000E-03 0. -1.
         11   -1    0    0    0    0 -0.00000000000E+00 -0.00000000000E+00 -0.45593999997E+02  0.45594000000E+02  0.51100000000E-03 0.  1.
         23    2    1    2    0    0  0.00000000000E+00  0.00000000000E+00 -0.35527136788E-14  0.91188000000E+02  0.91188000000E+02 0.  0.
    9900012    2    3    3    0    0  0.11735487305E+02 -0.32062107483E+02  0.29383892724E+02  0.46142317076E+02  0.99999937481E+01 0.  0.
        -12    1    3    3    0    0 -0.11735487305E+02  0.32062107483E+02 -0.29383892724E+02  0.45045682924E+02  0.00000000000E+00 0.  1.
         11    1    4    4    0    0  0.64874152464E+01 -0.12386898421E+02  0.97766063962E+01  0.17061765499E+02  0.51100000000E-03 0. -1.
        -11    1    4    4    0    0  0.16121816910E+01 -0.14082122592E+01  0.49047147014E+01  0.53514874694E+01  0.51100000000E-03 0.  1.
         12    1    4    4    0    0  0.36358903677E+01 -0.18266996803E+02  0.14702571626E+02  0.23729064107E+02  0.00000000000E+00 0. -1.
</event>
<event>
 8    1  0.7489580E-009  0.9118800E+02  0.7816164E-02  0.1184000E+00
        -11   -1    0    0    0    0  0.00000000000E+00  0.00000000000E+00  0.45593999997E+02  0.45594000000E+02  0.51100000000E-03 0. -1.
         11   -1    0    0    0    0 -0.00000000000E+00 -0.00000000000E+00 -0.45593999997E+02  0.45594000000E+02  0.51100000000E-03 0.  1.
         23    2    1    2    0    0  0.00000000000E+00  0.00000000000E+00  0.00000000000E+00  0.91188000000E+02  0.91188000000E+02 0.  0.
    9900012    2    3    3    0    0 -0.16001507234E+02  0.13932806726E+02  0.39735905434E+02  0.46142317435E+02  0.99999970289E+01 0.  0.
        -12    1    3    3    0    0  0.16001507234E+02 -0.13932806726E+02 -0.39735905434E+02  0.45045682565E+02  0.00000000000E+00 0.  1.
         11    1    4    4    0    0 -0.41573292391E+01  0.24283180591E+01  0.33724988193E+01  0.58782534435E+01  0.51100000000E-03 0. -1.
        -11    1    4    4    0    0 -0.31548446845E-01  0.22396214490E+01  0.38989055283E+01  0.44964835282E+01  0.51100000000E-03 0.  1.
         12    1    4    4    0    0 -0.11812629548E+02  0.92648672180E+01  0.32464501087E+02  0.35767580464E+02  0.00000000000E+00 0. -1.
</event>
<event>
 8    1  0.7489580E-009  0.9118800E+02  0.7816164E-02  0.1184000E+00
        -11   -1    0    0    0    0  0.00000000000E+00  0.00000000000E+00  0.45593999997E+02  0.45594000000E+02  0.51100000000E-03 0. -1.
         11   -1    0    0    0    0 -0.00000000000E+00 -0.00000000000E+00 -0.45593999997E+02  0.45594000000E+02  0.51100000000E-03 0.  1.
         23    2    1    2    0    0 -0.71054273576E-14  0.35527136788E-14  0.00000000000E+00  0.91188000000E+02  0.91188000000E+02 0.  0.
    9900012    2    3    3    0    0  0.36108935058E+02 -0.25290844890E+02  0.92537244133E+01  0.46142318278E+02  0.10000004712E+02 0.  0.
        -12    1    3    3    0    0 -0.36108935058E+02  0.25290844890E+02 -0.92537244133E+01  0.45045681722E+02  0.00000000000E+00 0.  1.
         11    1    4    4    0    0  0.80534008646E+01 -0.29480291496E+01 -0.10624554704E+00  0.85766794116E+01  0.51100000000E-03 0.  1.
        -11    1    4    4    0    0  0.19598960978E+02 -0.12752526796E+02  0.79723794865E+01  0.24704352775E+02  0.51100000000E-03 0. -1.
         12    1    4    4    0    0  0.84565732153E+01 -0.95902889451E+01  0.13875904739E+01  0.12861286091E+02  0.00000000000E+00 0. -1.
</event>
<event>
 8    1  0.7489580E-009  0.9118800E+02  0.7816164E-02  0.1184000E+00
        -11   -1    0    0    0    0  0.00000000000E+00  0.00000000000E+00  0.45593999997E+02  0.45594000000E+02  0.51100000000E-03 0. -1.
         11   -1    0    0    0    0 -0.00000000000E+00 -0.00000000000E+00 -0.45593999997E+02  0.45594000000E+02  0.51100000000E-03 0.  1.
         23    2    1    2    0    0  0.00000000000E+00  0.00000000000E+00  0.00000000000E+00  0.91188000000E+02  0.91188000000E+02 0.  0.
    9900012    2    3    3    0    0 -0.21264132873E+02  0.17350091094E+02 -0.35720084044E+02  0.46142318610E+02  0.10000007737E+02 0.  0.
         12    1    3    3    0    0  0.21264132873E+02 -0.17350091094E+02  0.35720084044E+02  0.45045681390E+02  0.00000000000E+00 0. -1.
         11    1    4    4    0    0 -0.96135207659E+01  0.61387178330E+01 -0.79297618352E+01  0.13891895521E+02  0.51100000000E-03 0. -1.
        -11    1    4    4    0    0 -0.67495642337E+01  0.51827426298E+01 -0.12881705670E+02  0.15438775202E+02  0.51100000000E-03 0.  1.
        -12    1    4    4    0    0 -0.49010478736E+01  0.60286306312E+01 -0.14908616538E+02  0.16811647886E+02  0.00000000000E+00 0.  1.
</event>
<event>
 8    1  0.7489580E-009  0.9118800E+02  0.7816164E-02  0.1184000E+00
        -11   -1    0    0    0    0  0.00000000000E+00  0.00000000000E+00  0.45593999997E+02  0.45594000000E+02  0.51100000000E-03 0.  1.
         11   -1    0    0    0    0 -0.00000000000E+00 -0.00000000000E+00 -0.45593999997E+02  0.45594000000E+02  0.51100000000E-03 0. -1.
         23    2    1    2    0    0  0.00000000000E+00  0.71054273576E-14  0.00000000000E+00  0.91188000000E+02  0.91188000000E+02 0.  0.
    9900012    2    3    3    0    0 -0.19379374607E+02 -0.39678270848E+02  0.88987761116E+01  0.46142317034E+02  0.99999933676E+01 0.  0.
         12    1    3    3    0    0  0.19379374607E+02  0.39678270848E+02 -0.88987761116E+01  0.45045682966E+02  0.00000000000E+00 0. -1.
         11    1    4    4    0    0 -0.48288730588E+01 -0.12538423762E+02  0.67607094122E+01  0.15041186039E+02  0.51100000000E-03 0. -1.
        -11    1    4    4    0    0 -0.42260342364E+01 -0.64413674589E+01  0.20437074357E+01  0.79704027785E+01  0.51100000000E-03 0.  1.
        -12    1    4    4    0    0 -0.10324467312E+02 -0.20698479627E+02  0.94359263712E-01  0.23130728216E+02  0.00000000000E+00 0.  1.
</event>
<event>
 8    1  0.7489580E-009  0.9118800E+02  0.7816164E-02  0.1184000E+00
        -11   -1    0    0    0    0  0.00000000000E+00  0.00000000000E+00  0.45593999997E+02  0.45594000000E+02  0.51100000000E-03 0. -1.
         11   -1    0    0    0    0 -0.00000000000E+00 -0.00000000000E+00 -0.45593999997E+02  0.45594000000E+02  0.51100000000E-03 0.  1.
         23    2    1    2    0    0  0.00000000000E+00  0.71054273576E-14 -0.35527136788E-14  0.91188000000E+02  0.91188000000E+02 0.  0.
    9900012    2    3    3    0    0  0.74949403211E+01  0.40842385312E+02 -0.17459638809E+02  0.46142317014E+02  0.99999931849E+01 0.  0.
         12    1    3    3    0    0 -0.74949403211E+01 -0.40842385312E+02  0.17459638809E+02  0.45045682986E+02  0.00000000000E+00 0. -1.
         11    1    4    4    0    0  0.33684850549E+01  0.83154251734E+01 -0.75373710646E+01  0.11717719497E+02  0.51100000000E-03 0. -1.
        -11    1    4    4    0    0  0.26579220292E+01  0.94854752723E+01 -0.35789473470E+01  0.10480823204E+02  0.51100000000E-03 0.  1.
        -12    1    4    4    0    0  0.14685332370E+01  0.23041484866E+02 -0.63433203971E+01  0.23943774313E+02  0.00000000000E+00 0.  1.
</event>
<event>
 8    1  0.7489580E-009  0.9118800E+02  0.7816164E-02  0.1184000E+00
        -11   -1    0    0    0    0  0.00000000000E+00  0.00000000000E+00  0.45593999997E+02  0.45594000000E+02  0.51100000000E-03 0. -1.
         11   -1    0    0    0    0 -0.00000000000E+00 -0.00000000000E+00 -0.45593999997E+02  0.45594000000E+02  0.51100000000E-03 0.  1.
         23    2    1    2    0    0  0.00000000000E+00  0.00000000000E+00  0.00000000000E+00  0.91188000000E+02  0.91188000000E+02 0.  0.
    9900012    2    3    3    0    0 -0.15800774704E+02 -0.28830184604E+02 -0.30793984081E+02  0.46142317842E+02  0.10000000735E+02 0.  0.
         12    1    3    3    0    0  0.15800774704E+02  0.28830184604E+02  0.30793984081E+02  0.45045682158E+02  0.00000000000E+00 0. -1.
         11    1    4    4    0    0 -0.26045410531E+01 -0.25051427537E+01 -0.46722027182E+01  0.59066786619E+01  0.51100000000E-03 0. -1.
        -11    1    4    4    0    0 -0.70301736446E+00 -0.87746216386E+01 -0.10037657163E+02  0.13350759525E+02  0.51100000000E-03 0.  1.
        -12    1    4    4    0    0 -0.12493216286E+02 -0.17550420211E+02 -0.16084124200E+02  0.26884879655E+02  0.00000000000E+00 0.  1.
</event>
<event>
 8    1  0.9548747E-009  0.9118800E+02  0.7816164E-02  0.1184000E+00
        -11   -1    0    0    0    0  0.00000000000E+00  0.00000000000E+00  0.45593999997E+02  0.45594000000E+02  0.51100000000E-03 0. -1.
         11   -1    0    0    0    0 -0.00000000000E+00 -0.00000000000E+00 -0.45593999997E+02  0.45594000000E+02  0.51100000000E-03 0.  1.
         23    2    1    2    0    0  0.00000000000E+00 -0.17763568394E-14 -0.71054273576E-14  0.91188000000E+02  0.91188000000E+02 0.  0.
    9900012    2    3    3    0    0 -0.17163950436E+02 -0.14379494146E+02 -0.39086345938E+02  0.46142317795E+02  0.10000000313E+02 0.  0.
         12    1    3    3    0    0  0.17163950436E+02  0.14379494146E+02  0.39086345938E+02  0.45045682205E+02  0.00000000000E+00 0. -1.
         11    1    4    4    0    0 -0.73476839194E+01 -0.36523119602E+01 -0.10852132310E+02  0.13605021778E+02  0.51100000000E-03 0. -1.
        -11    1    4    4    0    0 -0.10504548115E+02 -0.76121166075E+01 -0.23066522617E+02  0.26464208211E+02  0.51100000000E-03 0.  1.
         12    1    4    4    0    0  0.68828159893E+00 -0.31150655781E+01 -0.51676910114E+01  0.60730878064E+01  0.00000000000E+00 0. -1.
</event>
<event>
 8    1  0.7489580E-009  0.9118800E+02  0.7816164E-02  0.1184000E+00
        -11   -1    0    0    0    0  0.00000000000E+00  0.00000000000E+00  0.45593999997E+02  0.45594000000E+02  0.51100000000E-03 0. -1.
         11   -1    0    0    0    0 -0.00000000000E+00 -0.00000000000E+00 -0.45593999997E+02  0.45594000000E+02  0.51100000000E-03 0.  1.
         23    2    1    2    0    0 -0.22204460493E-15  0.00000000000E+00  0.00000000000E+00  0.91188000000E+02  0.91188000000E+02 0.  0.
    9900012    2    3    3    0    0  0.19593453870E+01  0.21713459077E+02  0.39418282245E+02  0.46142308590E+02  0.99999163693E+01 0.  0.
        -12    1    3    3    0    0 -0.19593453870E+01 -0.21713459077E+02 -0.39418282245E+02  0.45045691410E+02  0.00000000000E+00 0.  1.
         11    1    4    4    0    0  0.88229632501E+00  0.11873382452E+02  0.28767778945E+02  0.31134237800E+02  0.51100000000E-03 0. -1.
        -11    1    4    4    0    0  0.88013842775E+00  0.55017826449E+01  0.84965308189E+01  0.10160476964E+02  0.51100000000E-03 0.  1.
         12    1    4    4    0    0  0.19691063423E+00  0.43382939795E+01  0.21539724813E+01  0.48475938259E+01  0.00000000000E+00 0. -1.
</event>
<event>
 8    1  0.7489580E-009  0.9118800E+02  0.7816164E-02  0.1184000E+00
        -11   -1    0    0    0    0  0.00000000000E+00  0.00000000000E+00  0.45593999997E+02  0.45594000000E+02  0.51100000000E-03 0. -1.
         11   -1    0    0    0    0 -0.00000000000E+00 -0.00000000000E+00 -0.45593999997E+02  0.45594000000E+02  0.51100000000E-03 0.  1.
         23    2    1    2    0    0 -0.17763568394E-14  0.00000000000E+00 -0.71054273576E-14  0.91188000000E+02  0.91188000000E+02 0.  0.
    9900012    2    3    3    0    0  0.12803995688E+02 -0.29962751651E+01  0.43083563879E+02  0.46142318221E+02  0.10000004190E+02 0.  0.
        -12    1    3    3    0    0 -0.12803995688E+02  0.29962751651E+01 -0.43083563879E+02  0.45045681779E+02  0.00000000000E+00 0.  1.
         11    1    4    4    0    0  0.81863293262E+00 -0.31483206392E+01  0.88582150613E+01  0.94366337779E+01  0.51100000000E-03 0. -1.
        -11    1    4    4    0    0  0.12275761364E+01 -0.16545200587E+01  0.30819763440E+01  0.37071496114E+01  0.51100000000E-03 0.  1.
         12    1    4    4    0    0  0.10757786619E+02  0.18065655327E+01  0.31143372474E+02  0.32998534831E+02  0.00000000000E+00 0. -1.
</event>
<event>
 8    1  0.7489580E-009  0.9118800E+02  0.7816164E-02  0.1184000E+00
        -11   -1    0    0    0    0  0.00000000000E+00  0.00000000000E+00  0.45593999997E+02  0.45594000000E+02  0.51100000000E-03 0. -1.
         11   -1    0    0    0    0 -0.00000000000E+00 -0.00000000000E+00 -0.45593999997E+02  0.45594000000E+02  0.51100000000E-03 0.  1.
         23    2    1    2    0    0  0.00000000000E+00  0.71054273576E-14  0.00000000000E+00  0.91188000000E+02  0.91188000000E+02 0.  0.
    9900012    2    3    3    0    0  0.11705116203E+02 -0.27605365712E+02  0.33616186474E+02  0.46142312587E+02  0.99999528214E+01 0.  0.
        -12    1    3    3    0    0 -0.11705116203E+02  0.27605365712E+02 -0.33616186474E+02  0.45045687413E+02  0.00000000000E+00 0.  1.
         11    1    4    4    0    0  0.70822481639E+01 -0.92437425178E+01  0.13534402071E+02  0.17854552766E+02  0.51100000000E-03 0. -1.
        -11    1    4    4    0    0  0.32602188188E+00 -0.48467958738E+01  0.18690044923E+01  0.52048917917E+01  0.51100000000E-03 0.  1.
        -12    1    4    4    0    0  0.42968461568E+01 -0.13514827321E+02  0.18212779911E+02  0.23082868030E+02  0.00000000000E+00 0.  1.
</event>
<event>
 8    1  0.7489580E-009  0.9118800E+02  0.7816164E-02  0.1184000E+00
        -11   -1    0    0    0    0  0.00000000000E+00  0.00000000000E+00  0.45593999997E+02  0.45594000000E+02  0.51100000000E-03 0. -1.
         11   -1    0    0    0    0 -0.00000000000E+00 -0.00000000000E+00 -0.45593999997E+02  0.45594000000E+02  0.51100000000E-03 0.  1.
         23    2    1    2    0    0 -0.17763568394E-14  0.00000000000E+00  0.00000000000E+00  0.91188000000E+02  0.91188000000E+02 0.  0.
    9900012    2    3    3    0    0 -0.90385031052E+01 -0.15002882803E+02 -0.41500990373E+02  0.46142320598E+02  0.10000025871E+02 0.  0.
         12    1    3    3    0    0  0.90385031052E+01  0.15002882803E+02  0.41500990373E+02  0.45045679402E+02  0.00000000000E+00 0. -1.
         11    1    4    4    0    0  0.60069476769E+00 -0.33266454222E+00 -0.30302910346E+01  0.31071150473E+01  0.51100000000E-03 0. -1.
        -11    1    4    4    0    0 -0.31249301831E+01 -0.88918935124E+01 -0.27238276787E+02  0.28822815294E+02  0.51100000000E-03 0.  1.
        -12    1    4    4    0    0 -0.65142676898E+01 -0.57783247484E+01 -0.11232422552E+02  0.14212390257E+02  0.00000000000E+00 0.  1.
</event>
<event>
 8    1  0.7489580E-009  0.9118800E+02  0.7816164E-02  0.1184000E+00
        -11   -1    0    0    0    0  0.00000000000E+00  0.00000000000E+00  0.45593999997E+02  0.45594000000E+02  0.51100000000E-03 0. -1.
         11   -1    0    0    0    0 -0.00000000000E+00 -0.00000000000E+00 -0.45593999997E+02  0.45594000000E+02  0.51100000000E-03 0.  1.
         23    2    1    2    0    0  0.35527136788E-14 -0.66613381478E-15 -0.71054273576E-14  0.91188000000E+02  0.91188000000E+02 0.  0.
    9900012    2    3    3    0    0 -0.20164685849E+02  0.16829413242E+01  0.40245083106E+02  0.46142316954E+02  0.99999926357E+01 0.  0.
        -12    1    3    3    0    0  0.20164685849E+02 -0.16829413242E+01 -0.40245083106E+02  0.45045683046E+02  0.00000000000E+00 0.  1.
         11    1    4    4    0    0 -0.30335253085E+01 -0.19960373108E+01  0.11305515655E+02  0.11874389468E+02  0.51100000000E-03 0. -1.
        -11    1    4    4    0    0 -0.17443993795E+01 -0.89737621056E+00  0.14686858573E+01  0.24505615004E+01  0.51100000000E-03 0.  1.
         12    1    4    4    0    0 -0.15386761161E+02  0.45763548455E+01  0.27470881593E+02  0.31817365985E+02  0.00000000000E+00 0. -1.
</event>
<event>
 8    1  0.7489580E-009  0.9118800E+02  0.7816164E-02  0.1184000E+00
        -11   -1    0    0    0    0  0.00000000000E+00  0.00000000000E+00  0.45593999997E+02  0.45594000000E+02  0.51100000000E-03 0.  1.
         11   -1    0    0    0    0 -0.00000000000E+00 -0.00000000000E+00 -0.45593999997E+02  0.45594000000E+02  0.51100000000E-03 0. -1.
         23    2    1    2    0    0  0.00000000000E+00  0.00000000000E+00  0.35527136788E-14  0.91188000000E+02  0.91188000000E+02 0.  0.
    9900012    2    3    3    0    0 -0.14265310436E+02  0.37483520696E+02 -0.20508537894E+02  0.46142317274E+02  0.99999955624E+01 0.  0.
         12    1    3    3    0    0  0.14265310436E+02 -0.37483520696E+02  0.20508537894E+02  0.45045682726E+02  0.00000000000E+00 0. -1.
         11    1    4    4    0    0 -0.22344823062E+01  0.10146922563E+02 -0.27698477620E+01  0.10752906842E+02  0.51100000000E-03 0. -1.
        -11    1    4    4    0    0 -0.44332604570E+01  0.18229688703E+02 -0.11050604740E+02  0.21773635752E+02  0.51100000000E-03 0.  1.
         12    1    4    4    0    0 -0.75975676732E+01  0.91069094312E+01 -0.66880853924E+01  0.13615774681E+02  0.00000000000E+00 0. -1.
</event>
<event>
 8    1  0.7489580E-009  0.9118800E+02  0.7816164E-02  0.1184000E+00
        -11   -1    0    0    0    0  0.00000000000E+00  0.00000000000E+00  0.45593999997E+02  0.45594000000E+02  0.51100000000E-03 0. -1.
         11   -1    0    0    0    0 -0.00000000000E+00 -0.00000000000E+00 -0.45593999997E+02  0.45594000000E+02  0.51100000000E-03 0.  1.
         23    2    1    2    0    0 -0.17763568394E-14  0.35527136788E-14  0.00000000000E+00  0.91188000000E+02  0.91188000000E+02 0.  0.
    9900012    2    3    3    0    0  0.11996786002E+02 -0.30297870765E+02  0.31100316637E+02  0.46142317164E+02  0.99999945518E+01 0.  0.
        -12    1    3    3    0    0 -0.11996786002E+02  0.30297870765E+02 -0.31100316637E+02  0.45045682836E+02  0.00000000000E+00 0.  1.
         11    1    4    4    0    0  0.63556015115E+01 -0.24921424997E+02  0.22280584960E+02  0.34027864477E+02  0.51100000000E-03 0.  1.
        -11    1    4    4    0    0  0.16665516605E+00 -0.81751322577E+00  0.78848643301E-01  0.83804486058E+00  0.51100000000E-03 0. -1.
        -12    1    4    4    0    0  0.54745293240E+01 -0.45589325423E+01  0.87408830341E+01  0.11276407826E+02  0.00000000000E+00 0.  1.
</event>
<event>
 8    1  0.7489580E-009  0.9118800E+02  0.7816164E-02  0.1184000E+00
        -11   -1    0    0    0    0  0.00000000000E+00  0.00000000000E+00  0.45593999997E+02  0.45594000000E+02  0.51100000000E-03 0. -1.
         11   -1    0    0    0    0 -0.00000000000E+00 -0.00000000000E+00 -0.45593999997E+02  0.45594000000E+02  0.51100000000E-03 0.  1.
         23    2    1    2    0    0 -0.11102230246E-15  0.00000000000E+00  0.00000000000E+00  0.91188000000E+02  0.91188000000E+02 0.  0.
    9900012    2    3    3    0    0 -0.74200116846E+00  0.41153295129E+02  0.18302163045E+02  0.46142318322E+02  0.10000005114E+02 0.  0.
        -12    1    3    3    0    0  0.74200116846E+00 -0.41153295129E+02 -0.18302163045E+02  0.45045681678E+02  0.00000000000E+00 0.  1.
         11    1    4    4    0    0 -0.33270077440E+01  0.94282840190E+01  0.23432503041E+01  0.10268999090E+02  0.51100000000E-03 0. -1.
        -11    1    4    4    0    0  0.18797242688E+01  0.11221385002E+02  0.36525883924E+01  0.11949654677E+02  0.51100000000E-03 0.  1.
         12    1    4    4    0    0  0.70528230673E+00  0.20503626109E+02  0.12306324348E+02  0.23923664554E+02  0.00000000000E+00 0. -1.
</event>
<event>
 8    1  0.7489580E-009  0.9118800E+02  0.7816164E-02  0.1184000E+00
        -11   -1    0    0    0    0  0.00000000000E+00  0.00000000000E+00  0.45593999997E+02  0.45594000000E+02  0.51100000000E-03 0. -1.
         11   -1    0    0    0    0 -0.00000000000E+00 -0.00000000000E+00 -0.45593999997E+02  0.45594000000E+02  0.51100000000E-03 0.  1.
         23    2    1    2    0    0  0.00000000000E+00  0.00000000000E+00  0.71054273576E-14  0.91188000000E+02  0.91188000000E+02 0.  0.
    9900012    2    3    3    0    0 -0.99226638248E+01  0.10797740494E+02 -0.42591818944E+02  0.46142317653E+02  0.99999990154E+01 0.  0.
         12    1    3    3    0    0  0.99226638248E+01 -0.10797740494E+02  0.42591818944E+02  0.45045682347E+02  0.00000000000E+00 0. -1.
         11    1    4    4    0    0 -0.60807881924E+00  0.37493293409E+01 -0.58015162723E+01  0.69343220054E+01  0.51100000000E-03 0. -1.
        -11    1    4    4    0    0 -0.35070033354E+00 -0.71584691218E+00 -0.84366724338E+01  0.84742474322E+01  0.51100000000E-03 0.  1.
        -12    1    4    4    0    0 -0.89638846720E+01  0.77642580651E+01 -0.28353630238E+02  0.30733748215E+02  0.00000000000E+00 0.  1.
</event>
<event>
 8    1  0.7489580E-009  0.9118800E+02  0.7816164E-02  0.1184000E+00
        -11   -1    0    0    0    0  0.00000000000E+00  0.00000000000E+00  0.45593999997E+02  0.45594000000E+02  0.51100000000E-03 0. -1.
         11   -1    0    0    0    0 -0.00000000000E+00 -0.00000000000E+00 -0.45593999997E+02  0.45594000000E+02  0.51100000000E-03 0.  1.
         23    2    1    2    0    0 -0.17763568394E-14  0.00000000000E+00  0.00000000000E+00  0.91188000000E+02  0.91188000000E+02 0.  0.
    9900012    2    3    3    0    0  0.11656765362E+02  0.39396239719E+02 -0.18470778882E+02  0.46142317019E+02  0.99999932294E+01 0.  0.
         12    1    3    3    0    0 -0.11656765362E+02 -0.39396239719E+02  0.18470778882E+02  0.45045682981E+02  0.00000000000E+00 0. -1.
         11    1    4    4    0    0 -0.39881808785E+00  0.42455690328E-01 -0.14617971016E+00  0.42688068780E+00  0.51100000000E-03 0. -1.
        -11    1    4    4    0    0  0.58928404691E+01  0.11694617004E+02 -0.27535660595E+01  0.13381769763E+02  0.51100000000E-03 0.  1.
         12    1    4    4    0    0  0.61627429807E+01  0.27659167025E+02 -0.15571033113E+02  0.32333666568E+02  0.00000000000E+00 0. -1.
</event>
<event>
 8    1  0.7489580E-009  0.9118800E+02  0.7816164E-02  0.1184000E+00
        -11   -1    0    0    0    0  0.00000000000E+00  0.00000000000E+00  0.45593999997E+02  0.45594000000E+02  0.51100000000E-03 0. -1.
         11   -1    0    0    0    0 -0.00000000000E+00 -0.00000000000E+00 -0.45593999997E+02  0.45594000000E+02  0.51100000000E-03 0.  1.
         23    2    1    2    0    0  0.00000000000E+00  0.22204460493E-15  0.00000000000E+00  0.91188000000E+02  0.91188000000E+02 0.  0.
    9900012    2    3    3    0    0 -0.39017923366E+02 -0.12296550224E+01  0.22476723313E+02  0.46142317786E+02  0.10000000227E+02 0.  0.
        -12    1    3    3    0    0  0.39017923366E+02  0.12296550224E+01 -0.22476723313E+02  0.45045682214E+02  0.00000000000E+00 0.  1.
         11    1    4    4    0    0 -0.35162012031E+01 -0.21171086613E+01  0.23168706824E+01  0.47131422644E+01  0.51100000000E-03 0.  1.
        -11    1    4    4    0    0 -0.21351145359E+02 -0.23280041153E+01  0.98521909735E+01  0.23629572119E+02  0.51100000000E-03 0. -1.
        -12    1    4    4    0    0 -0.14150576804E+02  0.32154577542E+01  0.10307661657E+02  0.17799603403E+02  0.00000000000E+00 0.  1.
</event>
<event>
 8    1  0.7489580E-009  0.9118800E+02  0.7816164E-02  0.1184000E+00
        -11   -1    0    0    0    0  0.00000000000E+00  0.00000000000E+00  0.45593999997E+02  0.45594000000E+02  0.51100000000E-03 0. -1.
         11   -1    0    0    0    0 -0.00000000000E+00 -0.00000000000E+00 -0.45593999997E+02  0.45594000000E+02  0.51100000000E-03 0.  1.
         23    2    1    2    0    0  0.00000000000E+00 -0.66613381478E-15 -0.71054273576E-14  0.91188000000E+02  0.91188000000E+02 0.  0.
    9900012    2    3    3    0    0 -0.95821821444E+01 -0.10024077459E+01 -0.44003301307E+02  0.46142316945E+02  0.99999925608E+01 0.  0.
         12    1    3    3    0    0  0.95821821444E+01  0.10024077459E+01  0.44003301307E+02  0.45045683055E+02  0.00000000000E+00 0. -1.
         11    1    4    4    0    0 -0.70858405137E+01 -0.25631762111E+00 -0.15992745658E+02  0.17494077525E+02  0.51100000000E-03 0. -1.
        -11    1    4    4    0    0  0.13477220819E+01  0.10601306092E+01 -0.98057626090E+01  0.99545573645E+01  0.51100000000E-03 0.  1.
        -12    1    4    4    0    0 -0.38440637125E+01 -0.18062207341E+01 -0.18204793040E+02  0.18693682056E+02  0.00000000000E+00 0.  1.
</event>
<event>
 8    1  0.7489580E-009  0.9118800E+02  0.7816164E-02  0.1184000E+00
        -11   -1    0    0    0    0  0.00000000000E+00  0.00000000000E+00  0.45593999997E+02  0.45594000000E+02  0.51100000000E-03 0. -1.
         11   -1    0    0    0    0 -0.00000000000E+00 -0.00000000000E+00 -0.45593999997E+02  0.45594000000E+02  0.51100000000E-03 0.  1.
         23    2    1    2    0    0  0.00000000000E+00  0.00000000000E+00  0.00000000000E+00  0.91188000000E+02  0.91188000000E+02 0.  0.
    9900012    2    3    3    0    0 -0.26246991066E+02 -0.27508056390E+02  0.24156069760E+02  0.46142318601E+02  0.10000007663E+02 0.  0.
        -12    1    3    3    0    0  0.26246991066E+02  0.27508056390E+02 -0.24156069760E+02  0.45045681399E+02  0.00000000000E+00 0.  1.
         11    1    4    4    0    0 -0.55984241992E+01 -0.11447759964E+02  0.97707419670E+01  0.16058049712E+02  0.51100000000E-03 0. -1.
        -11    1    4    4    0    0 -0.83373477573E+00 -0.18052265315E+01  0.14329470923E+01  0.24509782000E+01  0.51100000000E-03 0.  1.
        -12    1    4    4    0    0 -0.19814832091E+02 -0.14255069895E+02  0.12952380701E+02  0.27633290689E+02  0.00000000000E+00 0.  1.
</event>
<event>
 8    1  0.7489580E-009  0.9118800E+02  0.7816164E-02  0.1184000E+00
        -11   -1    0    0    0    0  0.00000000000E+00  0.00000000000E+00  0.45593999997E+02  0.45594000000E+02  0.51100000000E-03 0. -1.
         11   -1    0    0    0    0 -0.00000000000E+00 -0.00000000000E+00 -0.45593999997E+02  0.45594000000E+02  0.51100000000E-03 0.  1.
         23    2    1    2    0    0  0.00000000000E+00  0.16653345369E-15  0.00000000000E+00  0.91188000000E+02  0.91188000000E+02 0.  0.
    9900012    2    3    3    0    0  0.31052800782E+02  0.18227475183E+00  0.32631327947E+02  0.46142320695E+02  0.10000026752E+02 0.  0.
        -12    1    3    3    0    0 -0.31052800782E+02 -0.18227475183E+00 -0.32631327947E+02  0.45045679305E+02  0.00000000000E+00 0.  1.
         11    1    4    4    0    0  0.16448229761E+02  0.28066527938E+01  0.13100713460E+02  0.21214387938E+02  0.51100000000E-03 0. -1.
        -11    1    4    4    0    0  0.48767554450E+01  0.75925525965E+00  0.85547863483E+01  0.98764154401E+01  0.51100000000E-03 0.  1.
        -12    1    4    4    0    0  0.97278155763E+01 -0.33836333017E+01  0.10975828138E+02  0.15051517316E+02  0.00000000000E+00 0.  1.
</event>
<event>
 8    1  0.7489580E-009  0.9118800E+02  0.7816164E-02  0.1184000E+00
        -11   -1    0    0    0    0  0.00000000000E+00  0.00000000000E+00  0.45593999997E+02  0.45594000000E+02  0.51100000000E-03 0. -1.
         11   -1    0    0    0    0 -0.00000000000E+00 -0.00000000000E+00 -0.45593999997E+02  0.45594000000E+02  0.51100000000E-03 0.  1.
         23    2    1    2    0    0  0.00000000000E+00 -0.44408920985E-15  0.71054273576E-14  0.91188000000E+02  0.91188000000E+02 0.  0.
    9900012    2    3    3    0    0  0.32032952075E+01 -0.11083372491E+01 -0.44917968468E+02  0.46142318710E+02  0.10000008651E+02 0.  0.
         12    1    3    3    0    0 -0.32032952075E+01  0.11083372491E+01  0.44917968468E+02  0.45045681290E+02  0.00000000000E+00 0. -1.
         11    1    4    4    0    0 -0.19302413051E+01  0.14955019073E+01 -0.16355372217E+02  0.16536642890E+02  0.51100000000E-03 0. -1.
        -11    1    4    4    0    0  0.10901358481E+01  0.14119175409E+01 -0.10942830873E+02  0.11087265447E+02  0.51100000000E-03 0.  1.
        -12    1    4    4    0    0  0.40434006646E+01 -0.40157566973E+01 -0.17619765377E+02  0.18518410372E+02  0.00000000000E+00 0.  1.
</event>
<event>
 8    1  0.7489580E-009  0.9118800E+02  0.7816164E-02  0.1184000E+00
        -11   -1    0    0    0    0  0.00000000000E+00  0.00000000000E+00  0.45593999997E+02  0.45594000000E+02  0.51100000000E-03 0. -1.
         11   -1    0    0    0    0 -0.00000000000E+00 -0.00000000000E+00 -0.45593999997E+02  0.45594000000E+02  0.51100000000E-03 0.  1.
         23    2    1    2    0    0  0.00000000000E+00  0.00000000000E+00  0.00000000000E+00  0.91188000000E+02  0.91188000000E+02 0.  0.
    9900012    2    3    3    0    0  0.74696475186E+01  0.10257904094E+02  0.43221444056E+02  0.46142318112E+02  0.10000003200E+02 0.  0.
        -12    1    3    3    0    0 -0.74696475186E+01 -0.10257904094E+02 -0.43221444056E+02  0.45045681888E+02  0.00000000000E+00 0.  1.
         11    1    4    4    0    0  0.72454244609E+01  0.59088377517E+01  0.26124248024E+02  0.27746835392E+02  0.51100000000E-03 0. -1.
        -11    1    4    4    0    0  0.21366369941E+01  0.42017487200E+01  0.10199914893E+02  0.11236466261E+02  0.51100000000E-03 0.  1.
         12    1    4    4    0    0 -0.19124139363E+01  0.14731762218E+00  0.68972811391E+01  0.71590164588E+01  0.00000000000E+00 0. -1.
</event>
<event>
 8    1  0.7489580E-009  0.9118800E+02  0.7816164E-02  0.1184000E+00
        -11   -1    0    0    0    0  0.00000000000E+00  0.00000000000E+00  0.45593999997E+02  0.45594000000E+02  0.51100000000E-03 0. -1.
         11   -1    0    0    0    0 -0.00000000000E+00 -0.00000000000E+00 -0.45593999997E+02  0.45594000000E+02  0.51100000000E-03 0.  1.
         23    2    1    2    0    0  0.00000000000E+00  0.00000000000E+00  0.00000000000E+00  0.91188000000E+02  0.91188000000E+02 0.  0.
    9900012    2    3    3    0    0  0.35529669422E+02  0.22829564154E+02  0.15670581624E+02  0.46142317220E+02  0.99999950649E+01 0.  0.
        -12    1    3    3    0    0 -0.35529669422E+02 -0.22829564154E+02 -0.15670581624E+02  0.45045682780E+02  0.00000000000E+00 0.  1.
         11    1    4    4    0    0  0.15699419282E+02  0.77361752787E+01  0.65333345194E+01  0.18681665716E+02  0.51100000000E-03 0. -1.
        -11    1    4    4    0    0  0.81459415494E+01  0.37861392919E+01  0.37581887343E+00  0.89906871011E+01  0.51100000000E-03 0.  1.
         12    1    4    4    0    0  0.11684308591E+02  0.11307249584E+02  0.87614282307E+01  0.18469964402E+02  0.00000000000E+00 0. -1.
</event>
<event>
 8    1  0.7489580E-009  0.9118800E+02  0.7816164E-02  0.1184000E+00
        -11   -1    0    0    0    0  0.00000000000E+00  0.00000000000E+00  0.45593999997E+02  0.45594000000E+02  0.51100000000E-03 0.  1.
         11   -1    0    0    0    0 -0.00000000000E+00 -0.00000000000E+00 -0.45593999997E+02  0.45594000000E+02  0.51100000000E-03 0. -1.
         23    2    1    2    0    0  0.00000000000E+00  0.00000000000E+00  0.00000000000E+00  0.91188000000E+02  0.91188000000E+02 0.  0.
    9900012    2    3    3    0    0  0.34866924634E+02  0.93520472974E+01 -0.26943463851E+02  0.46142318005E+02  0.10000002225E+02 0.  0.
         12    1    3    3    0    0 -0.34866924634E+02 -0.93520472974E+01  0.26943463851E+02  0.45045681995E+02  0.00000000000E+00 0. -1.
         11    1    4    4    0    0  0.57007934611E+00 -0.75015069423E+00  0.12600585689E+00  0.95057575290E+00  0.51100000000E-03 0. -1.
        -11    1    4    4    0    0  0.20184638036E+02  0.53530956759E+01 -0.12384221042E+02  0.24278471472E+02  0.51100000000E-03 0.  1.
        -12    1    4    4    0    0  0.14112207252E+02  0.47491023157E+01 -0.14685248666E+02  0.20913270780E+02  0.00000000000E+00 0.  1.
</event>
<event>
 8    1  0.7489580E-009  0.9118800E+02  0.7816164E-02  0.1184000E+00
        -11   -1    0    0    0    0  0.00000000000E+00  0.00000000000E+00  0.45593999997E+02  0.45594000000E+02  0.51100000000E-03 0. -1.
         11   -1    0    0    0    0 -0.00000000000E+00 -0.00000000000E+00 -0.45593999997E+02  0.45594000000E+02  0.51100000000E-03 0.  1.
         23    2    1    2    0    0 -0.17763568394E-14 -0.17763568394E-14  0.00000000000E+00  0.91188000000E+02  0.91188000000E+02 0.  0.
    9900012    2    3    3    0    0 -0.96241186142E+01 -0.14631539675E+02  0.41501901193E+02  0.46142318576E+02  0.10000007428E+02 0.  0.
        -12    1    3    3    0    0  0.96241186142E+01  0.14631539675E+02 -0.41501901193E+02  0.45045681424E+02  0.00000000000E+00 0.  1.
         11    1    4    4    0    0 -0.71637783315E+01 -0.87116327958E+01  0.27184293348E+02  0.29431243111E+02  0.51100000000E-03 0. -1.
        -11    1    4    4    0    0  0.37404778590E+00 -0.56479552204E+01  0.82075217295E+01  0.99700914299E+01  0.51100000000E-03 0.  1.
         12    1    4    4    0    0 -0.28343880685E+01 -0.27195165922E+00  0.61100861150E+01  0.67409840351E+01  0.00000000000E+00 0. -1.
</event>
<event>
 8    1  0.7489580E-009  0.9118800E+02  0.7816164E-02  0.1184000E+00
        -11   -1    0    0    0    0  0.00000000000E+00  0.00000000000E+00  0.45593999997E+02  0.45594000000E+02  0.51100000000E-03 0. -1.
         11   -1    0    0    0    0 -0.00000000000E+00 -0.00000000000E+00 -0.45593999997E+02  0.45594000000E+02  0.51100000000E-03 0.  1.
         23    2    1    2    0    0  0.22204460493E-15  0.00000000000E+00  0.00000000000E+00  0.91188000000E+02  0.91188000000E+02 0.  0.
    9900012    2    3    3    0    0 -0.66946477592E+00  0.42780094497E+02 -0.14090030490E+02  0.46142316217E+02  0.99999859201E+01 0.  0.
         12    1    3    3    0    0  0.66946477592E+00 -0.42780094497E+02  0.14090030490E+02  0.45045683783E+02  0.00000000000E+00 0. -1.
         11    1    4    4    0    0  0.14799162123E+01  0.18095308771E+01 -0.26346398441E+01  0.35221983703E+01  0.51100000000E-03 0. -1.
        -11    1    4    4    0    0 -0.14334116845E+01  0.14442982997E+02 -0.39401945910E+01  0.15039267289E+02  0.51100000000E-03 0.  1.
         12    1    4    4    0    0 -0.71596930373E+00  0.26527580623E+02 -0.75151960545E+01  0.27580850558E+02  0.00000000000E+00 0. -1.
</event>
<event>
 8    1  0.7489580E-009  0.9118800E+02  0.7816164E-02  0.1184000E+00
        -11   -1    0    0    0    0  0.00000000000E+00  0.00000000000E+00  0.45593999997E+02  0.45594000000E+02  0.51100000000E-03 0. -1.
         11   -1    0    0    0    0 -0.00000000000E+00 -0.00000000000E+00 -0.45593999997E+02  0.45594000000E+02  0.51100000000E-03 0.  1.
         23    2    1    2    0    0 -0.88817841970E-15  0.00000000000E+00  0.00000000000E+00  0.91188000000E+02  0.91188000000E+02 0.  0.
    9900012    2    3    3    0    0 -0.67564982207E+01  0.43762550056E+02  0.82645277701E+01  0.46142317910E+02  0.10000001362E+02 0.  0.
        -12    1    3    3    0    0  0.67564982207E+01 -0.43762550056E+02 -0.82645277701E+01  0.45045682090E+02  0.00000000000E+00 0.  1.
         11    1    4    4    0    0 -0.63979383433E+01  0.16042476847E+02  0.25022693621E+01  0.17451533762E+02  0.51100000000E-03 0. -1.
        -11    1    4    4    0    0 -0.27944609646E+00  0.63856686973E-01  0.44286106993E+00  0.52753576720E+00  0.51100000000E-03 0.  1.
         12    1    4    4    0    0 -0.79113780937E-01  0.27656216523E+02  0.53193973381E+01  0.28163248381E+02  0.00000000000E+00 0. -1.
</event>
<event>
 8    1  0.7489580E-009  0.9118800E+02  0.7816164E-02  0.1184000E+00
        -11   -1    0    0    0    0  0.00000000000E+00  0.00000000000E+00  0.45593999997E+02  0.45594000000E+02  0.51100000000E-03 0. -1.
         11   -1    0    0    0    0 -0.00000000000E+00 -0.00000000000E+00 -0.45593999997E+02  0.45594000000E+02  0.51100000000E-03 0.  1.
         23    2    1    2    0    0 -0.35527136788E-14  0.00000000000E+00 -0.71054273576E-14  0.91188000000E+02  0.91188000000E+02 0.  0.
    9900012    2    3    3    0    0 -0.22170348825E+02 -0.90585449065E+01  0.38151434589E+02  0.46142316921E+02  0.99999923386E+01 0.  0.
        -12    1    3    3    0    0  0.22170348825E+02  0.90585449065E+01 -0.38151434589E+02  0.45045683079E+02  0.00000000000E+00 0.  1.
         11    1    4    4    0    0 -0.72677018687E+01 -0.41835376028E+01  0.69879638011E+01  0.10915727904E+02  0.51100000000E-03 0. -1.
        -11    1    4    4    0    0 -0.24274811030E+00 -0.10980174991E+01  0.11340483137E+01  0.15970707286E+01  0.51100000000E-03 0.  1.
         12    1    4    4    0    0 -0.14659898846E+02 -0.37769898046E+01  0.30029422474E+02  0.33629518288E+02  0.00000000000E+00 0. -1.
</event>
<event>
 8    1  0.7489580E-009  0.9118800E+02  0.7816164E-02  0.1184000E+00
        -11   -1    0    0    0    0  0.00000000000E+00  0.00000000000E+00  0.45593999997E+02  0.45594000000E+02  0.51100000000E-03 0. -1.
         11   -1    0    0    0    0 -0.00000000000E+00 -0.00000000000E+00 -0.45593999997E+02  0.45594000000E+02  0.51100000000E-03 0.  1.
         23    2    1    2    0    0  0.00000000000E+00  0.35527136788E-14  0.00000000000E+00  0.91188000000E+02  0.91188000000E+02 0.  0.
    9900012    2    3    3    0    0 -0.82968309499E+01  0.29364675892E+02  0.33135967280E+02  0.46142312952E+02  0.99999561465E+01 0.  0.
        -12    1    3    3    0    0  0.82968309499E+01 -0.29364675892E+02 -0.33135967280E+02  0.45045687048E+02  0.00000000000E+00 0.  1.
         11    1    4    4    0    0 -0.82566670839E+00  0.56541986356E+01  0.59168723557E+01  0.82256347146E+01  0.51100000000E-03 0. -1.
        -11    1    4    4    0    0 -0.30438472051E+01  0.29041941853E+01  0.13364496526E+01  0.44142323918E+01  0.51100000000E-03 0.  1.
        -12    1    4    4    0    0 -0.44273170364E+01  0.20806283071E+02  0.25882645272E+02  0.33502445846E+02  0.00000000000E+00 0.  1.
</event>
<event>
 8    1  0.7489580E-009  0.9118800E+02  0.7816164E-02  0.1184000E+00
        -11   -1    0    0    0    0  0.00000000000E+00  0.00000000000E+00  0.45593999997E+02  0.45594000000E+02  0.51100000000E-03 0.  1.
         11   -1    0    0    0    0 -0.00000000000E+00 -0.00000000000E+00 -0.45593999997E+02  0.45594000000E+02  0.51100000000E-03 0. -1.
         23    2    1    2    0    0  0.00000000000E+00  0.22204460493E-15  0.00000000000E+00  0.91188000000E+02  0.91188000000E+02 0.  0.
    9900012    2    3    3    0    0 -0.44084566209E+02  0.10071567567E+01 -0.92005480628E+01  0.46142318440E+02  0.10000006189E+02 0.  0.
         12    1    3    3    0    0  0.44084566209E+02 -0.10071567567E+01  0.92005480628E+01  0.45045681560E+02  0.00000000000E+00 0. -1.
         11    1    4    4    0    0 -0.64796626817E+01 -0.25247592492E+01 -0.15462530013E+01  0.71239972165E+01  0.51100000000E-03 0. -1.
        -11    1    4    4    0    0 -0.22310724071E+02 -0.55169552600E+00 -0.29997547548E+01  0.22518243834E+02  0.51100000000E-03 0.  1.
        -12    1    4    4    0    0 -0.15294179456E+02  0.40836115319E+01 -0.46545403068E+01  0.16500077389E+02  0.00000000000E+00 0.  1.
</event>
<event>
 8    1  0.7489580E-009  0.9118800E+02  0.7816164E-02  0.1184000E+00
        -11   -1    0    0    0    0  0.00000000000E+00  0.00000000000E+00  0.45593999997E+02  0.45594000000E+02  0.51100000000E-03 0. -1.
         11   -1    0    0    0    0 -0.00000000000E+00 -0.00000000000E+00 -0.45593999997E+02  0.45594000000E+02  0.51100000000E-03 0.  1.
         23    2    1    2    0    0  0.88817841970E-15  0.35527136788E-14  0.71054273576E-14  0.91188000000E+02  0.91188000000E+02 0.  0.
    9900012    2    3    3    0    0  0.46464829819E+01  0.31225887620E+02  0.32132033299E+02  0.46142318457E+02  0.10000006348E+02 0.  0.
        -12    1    3    3    0    0 -0.46464829819E+01 -0.31225887620E+02 -0.32132033299E+02  0.45045681543E+02  0.00000000000E+00 0.  1.
         11    1    4    4    0    0  0.88272334873E+00  0.15383282799E+02  0.14856370932E+02  0.21404119877E+02  0.51100000000E-03 0. -1.
        -11    1    4    4    0    0  0.68510231176E+00  0.61632671771E+01  0.22402745922E+01  0.65934860267E+01  0.51100000000E-03 0.  1.
        -12    1    4    4    0    0  0.30786573214E+01  0.96793376440E+01  0.15035387774E+02  0.18144712553E+02  0.00000000000E+00 0.  1.
</event>
<event>
 8    1  0.7489580E-009  0.9118800E+02  0.7816164E-02  0.1184000E+00
        -11   -1    0    0    0    0  0.00000000000E+00  0.00000000000E+00  0.45593999997E+02  0.45594000000E+02  0.51100000000E-03 0.  1.
         11   -1    0    0    0    0 -0.00000000000E+00 -0.00000000000E+00 -0.45593999997E+02  0.45594000000E+02  0.51100000000E-03 0. -1.
         23    2    1    2    0    0  0.00000000000E+00 -0.71054273576E-14  0.00000000000E+00  0.91188000000E+02  0.91188000000E+02 0.  0.
    9900012    2    3    3    0    0  0.67818462249E+01  0.43937351079E+02  0.72545962388E+01  0.46142318469E+02  0.10000006451E+02 0.  0.
        -12    1    3    3    0    0 -0.67818462249E+01 -0.43937351079E+02 -0.72545962388E+01  0.45045681531E+02  0.00000000000E+00 0.  1.
         11    1    4    4    0    0 -0.16794668327E+00  0.87935784934E+01  0.26165966208E+01  0.91761542569E+01  0.51100000000E-03 0. -1.
        -11    1    4    4    0    0  0.68462443570E+01  0.26093313124E+02  0.64468138167E+01  0.27736139966E+02  0.51100000000E-03 0.  1.
        -12    1    4    4    0    0  0.10354855115E+00  0.90504594613E+01 -0.18088141987E+01  0.92300242453E+01  0.00000000000E+00 0.  1.
</event>
<event>
 8    1  0.7489580E-009  0.9118800E+02  0.7816164E-02  0.1184000E+00
        -11   -1    0    0    0    0  0.00000000000E+00  0.00000000000E+00  0.45593999997E+02  0.45594000000E+02  0.51100000000E-03 0. -1.
         11   -1    0    0    0    0 -0.00000000000E+00 -0.00000000000E+00 -0.45593999997E+02  0.45594000000E+02  0.51100000000E-03 0.  1.
         23    2    1    2    0    0  0.00000000000E+00  0.00000000000E+00 -0.35527136788E-14  0.91188000000E+02  0.91188000000E+02 0.  0.
    9900012    2    3    3    0    0  0.16565946248E+02 -0.34166266480E+02  0.24235288705E+02  0.46142316979E+02  0.99999928661E+01 0.  0.
        -12    1    3    3    0    0 -0.16565946248E+02  0.34166266480E+02 -0.24235288705E+02  0.45045683021E+02  0.00000000000E+00 0.  1.
         11    1    4    4    0    0  0.99899306844E+01 -0.15856155169E+02  0.77833871985E+01  0.20292794001E+02  0.51100000000E-03 0. -1.
        -11    1    4    4    0    0  0.54338622709E+01 -0.12629627080E+02  0.90952437216E+01  0.16485078040E+02  0.51100000000E-03 0.  1.
        -12    1    4    4    0    0  0.11421532924E+01 -0.56804842309E+01  0.73566577846E+01  0.93644449382E+01  0.00000000000E+00 0.  1.
</event>
<event>
 8    1  0.7489580E-009  0.9118800E+02  0.7816164E-02  0.1184000E+00
        -11   -1    0    0    0    0  0.00000000000E+00  0.00000000000E+00  0.45593999997E+02  0.45594000000E+02  0.51100000000E-03 0. -1.
         11   -1    0    0    0    0 -0.00000000000E+00 -0.00000000000E+00 -0.45593999997E+02  0.45594000000E+02  0.51100000000E-03 0.  1.
         23    2    1    2    0    0 -0.35527136788E-14  0.35527136788E-14  0.00000000000E+00  0.91188000000E+02  0.91188000000E+02 0.  0.
    9900012    2    3    3    0    0 -0.27637090187E+02 -0.29950207369E+02 -0.19190876910E+02  0.46142318386E+02  0.10000005701E+02 0.  0.
         12    1    3    3    0    0  0.27637090187E+02  0.29950207369E+02  0.19190876910E+02  0.45045681614E+02  0.00000000000E+00 0. -1.
         11    1    4    4    0    0  0.51538437515E-01  0.48112091424E+00 -0.34276091993E+00  0.59297458125E+00  0.51100000000E-03 0. -1.
        -11    1    4    4    0    0 -0.86198897768E+01 -0.81147005501E+01 -0.78404780085E+01  0.14199435216E+02  0.51100000000E-03 0.  1.
        -12    1    4    4    0    0 -0.19068738848E+02 -0.22316627733E+02 -0.11007637982E+02  0.31349908589E+02  0.00000000000E+00 0.  1.
</event>
<event>
 8    1  0.7489580E-009  0.9118800E+02  0.7816164E-02  0.1184000E+00
        -11   -1    0    0    0    0  0.00000000000E+00  0.00000000000E+00  0.45593999997E+02  0.45594000000E+02  0.51100000000E-03 0. -1.
         11   -1    0    0    0    0 -0.00000000000E+00 -0.00000000000E+00 -0.45593999997E+02  0.45594000000E+02  0.51100000000E-03 0.  1.
         23    2    1    2    0    0 -0.22204460493E-15  0.35527136788E-14  0.00000000000E+00  0.91188000000E+02  0.91188000000E+02 0.  0.
    9900012    2    3    3    0    0  0.47491656283E+00 -0.31307625610E+02 -0.32383954447E+02  0.46142317935E+02  0.10000001587E+02 0.  0.
         12    1    3    3    0    0 -0.47491656283E+00  0.31307625610E+02  0.32383954447E+02  0.45045682065E+02  0.00000000000E+00 0. -1.
         11    1    4    4    0    0  0.48274095266E+00 -0.66109304661E+01 -0.38923067310E+01  0.76868389084E+01  0.51100000000E-03 0. -1.
        -11    1    4    4    0    0  0.35320010904E+01 -0.12253440176E+02 -0.12159416303E+02  0.17620250649E+02  0.51100000000E-03 0.  1.
        -12    1    4    4    0    0 -0.35398254802E+01 -0.12443254968E+02 -0.16332231413E+02  0.20835228378E+02  0.00000000000E+00 0.  1.
</event>
<event>
 8    1  0.7489580E-009  0.9118800E+02  0.7816164E-02  0.1184000E+00
        -11   -1    0    0    0    0  0.00000000000E+00  0.00000000000E+00  0.45593999997E+02  0.45594000000E+02  0.51100000000E-03 0. -1.
         11   -1    0    0    0    0 -0.00000000000E+00 -0.00000000000E+00 -0.45593999997E+02  0.45594000000E+02  0.51100000000E-03 0.  1.
         23    2    1    2    0    0  0.35527136788E-14  0.00000000000E+00  0.71054273576E-14  0.91188000000E+02  0.91188000000E+02 0.  0.
    9900012    2    3    3    0    0 -0.18013165824E+02 -0.11990762601E+01 -0.41269863964E+02  0.46142316539E+02  0.99999888564E+01 0.  0.
         12    1    3    3    0    0  0.18013165824E+02  0.11990762601E+01  0.41269863964E+02  0.45045683461E+02  0.00000000000E+00 0. -1.
         11    1    4    4    0    0 -0.48524310989E+01 -0.49752412783E+00 -0.73625901323E+01  0.88318373822E+01  0.51100000000E-03 0. -1.
        -11    1    4    4    0    0 -0.28485530124E+01  0.32253890462E+01 -0.68482644010E+01  0.80880228938E+01  0.51100000000E-03 0.  1.
         12    1    4    4    0    0 -0.10312181713E+02 -0.39269411785E+01 -0.27059009430E+02  0.29222456263E+02  0.00000000000E+00 0. -1.
</event>
<event>
 8    1  0.7489580E-009  0.9118800E+02  0.7816164E-02  0.1184000E+00
        -11   -1    0    0    0    0  0.00000000000E+00  0.00000000000E+00  0.45593999997E+02  0.45594000000E+02  0.51100000000E-03 0. -1.
         11   -1    0    0    0    0 -0.00000000000E+00 -0.00000000000E+00 -0.45593999997E+02  0.45594000000E+02  0.51100000000E-03 0.  1.
         23    2    1    2    0    0 -0.44408920985E-15  0.35527136788E-14  0.00000000000E+00  0.91188000000E+02  0.91188000000E+02 0.  0.
    9900012    2    3    3    0    0  0.23944722042E+01  0.28820262787E+02 -0.34536537911E+02  0.46142317686E+02  0.99999993140E+01 0.  0.
         12    1    3    3    0    0 -0.23944722042E+01 -0.28820262787E+02  0.34536537911E+02  0.45045682314E+02  0.00000000000E+00 0. -1.
         11    1    4    4    0    0  0.16449942180E+00  0.13202573227E+02 -0.15020609590E+02  0.19998842781E+02  0.51100000000E-03 0. -1.
        -11    1    4    4    0    0  0.47057507569E+01  0.98908817623E+01 -0.14289869898E+02  0.18004833078E+02  0.51100000000E-03 0.  1.
         12    1    4    4    0    0 -0.24757779745E+01  0.57268077976E+01 -0.52260584237E+01  0.81386418263E+01  0.00000000000E+00 0. -1.
</event>
<event>
 8    1  0.7489580E-009  0.9118800E+02  0.7816164E-02  0.1184000E+00
        -11   -1    0    0    0    0  0.00000000000E+00  0.00000000000E+00  0.45593999997E+02  0.45594000000E+02  0.51100000000E-03 0. -1.
         11   -1    0    0    0    0 -0.00000000000E+00 -0.00000000000E+00 -0.45593999997E+02  0.45594000000E+02  0.51100000000E-03 0.  1.
         23    2    1    2    0    0  0.00000000000E+00  0.00000000000E+00  0.35527136788E-14  0.91188000000E+02  0.91188000000E+02 0.  0.
    9900012    2    3    3    0    0  0.35319481517E+02 -0.11082583481E+02  0.25667567754E+02  0.46142318013E+02  0.10000002297E+02 0.  0.
        -12    1    3    3    0    0 -0.35319481517E+02  0.11082583481E+02 -0.25667567754E+02  0.45045681987E+02  0.00000000000E+00 0.  1.
         11    1    4    4    0    0  0.23284482794E+02 -0.70361120788E+01  0.15817949568E+02  0.29015195001E+02  0.51100000000E-03 0. -1.
        -11    1    4    4    0    0  0.75023553387E+01 -0.48745213647E+01  0.43375302132E+01  0.99428598891E+01  0.51100000000E-03 0.  1.
        -12    1    4    4    0    0  0.45326433845E+01  0.82804996217E+00  0.55120879732E+01  0.71842631227E+01  0.00000000000E+00 0.  1.
</event>
<event>
 8    1  0.1036153E-008  0.9118800E+02  0.7816164E-02  0.1184000E+00
        -11   -1    0    0    0    0  0.00000000000E+00  0.00000000000E+00  0.45593999997E+02  0.45594000000E+02  0.51100000000E-03 0. -1.
         11   -1    0    0    0    0 -0.00000000000E+00 -0.00000000000E+00 -0.45593999997E+02  0.45594000000E+02  0.51100000000E-03 0.  1.
         23    2    1    2    0    0  0.00000000000E+00  0.00000000000E+00  0.00000000000E+00  0.91188000000E+02  0.91188000000E+02 0.  0.
    9900012    2    3    3    0    0 -0.26777696916E+02 -0.93752311891E+01 -0.34988190639E+02  0.46142317675E+02  0.99999992123E+01 0.  0.
         12    1    3    3    0    0  0.26777696916E+02  0.93752311891E+01  0.34988190639E+02  0.45045682325E+02  0.00000000000E+00 0. -1.
         11    1    4    4    0    0 -0.74298790947E+01 -0.56842887490E+01 -0.13808430851E+02  0.16678938958E+02  0.51100000000E-03 0. -1.
        -11    1    4    4    0    0 -0.95056389062E+01 -0.44680731298E+01 -0.12408371768E+02  0.16256953549E+02  0.51100000000E-03 0.  1.
         12    1    4    4    0    0 -0.98421789150E+01  0.77713068970E+00 -0.87713880198E+01  0.13206425167E+02  0.00000000000E+00 0. -1.
</event>
<event>
 8    1  0.7489580E-009  0.9118800E+02  0.7816164E-02  0.1184000E+00
        -11   -1    0    0    0    0  0.00000000000E+00  0.00000000000E+00  0.45593999997E+02  0.45594000000E+02  0.51100000000E-03 0. -1.
         11   -1    0    0    0    0 -0.00000000000E+00 -0.00000000000E+00 -0.45593999997E+02  0.45594000000E+02  0.51100000000E-03 0.  1.
         23    2    1    2    0    0 -0.35527136788E-14 -0.35527136788E-14  0.00000000000E+00  0.91188000000E+02  0.91188000000E+02 0.  0.
    9900012    2    3    3    0    0 -0.18542757450E+02  0.20139060075E+02  0.35772867018E+02  0.46142316420E+02  0.99999877675E+01 0.  0.
        -12    1    3    3    0    0  0.18542757450E+02 -0.20139060075E+02 -0.35772867018E+02  0.45045683580E+02  0.00000000000E+00 0.  1.
         11    1    4    4    0    0 -0.32864659258E+01  0.30398575749E+01  0.68317869115E+01  0.81679192591E+01  0.51100000000E-03 0. -1.
        -11    1    4    4    0    0 -0.11797069045E+01  0.42337045491E+01  0.10774031480E+02  0.11635966534E+02  0.51100000000E-03 0.  1.
        -12    1    4    4    0    0 -0.14076584619E+02  0.12865497951E+02  0.18167048626E+02  0.26338430627E+02  0.00000000000E+00 0.  1.
</event>
<event>
 8    1  0.7489580E-009  0.9118800E+02  0.7816164E-02  0.1184000E+00
        -11   -1    0    0    0    0  0.00000000000E+00  0.00000000000E+00  0.45593999997E+02  0.45594000000E+02  0.51100000000E-03 0. -1.
         11   -1    0    0    0    0 -0.00000000000E+00 -0.00000000000E+00 -0.45593999997E+02  0.45594000000E+02  0.51100000000E-03 0.  1.
         23    2    1    2    0    0 -0.35527136788E-14  0.00000000000E+00  0.17763568394E-14  0.91188000000E+02  0.91188000000E+02 0.  0.
    9900012    2    3    3    0    0  0.26956794154E+02 -0.33889444956E+02  0.12407666348E+02  0.46142318579E+02  0.10000007460E+02 0.  0.
        -12    1    3    3    0    0 -0.26956794154E+02  0.33889444956E+02 -0.12407666348E+02  0.45045681421E+02  0.00000000000E+00 0.  1.
         11    1    4    4    0    0  0.23262124268E+01 -0.41473675135E+01  0.33415677466E+01  0.58118841018E+01  0.51100000000E-03 0. -1.
        -11    1    4    4    0    0  0.17050783127E+02 -0.21740054975E+02  0.31138706651E+01  0.27803873585E+02  0.51100000000E-03 0.  1.
         12    1    4    4    0    0  0.75797986004E+01 -0.80020224672E+01  0.59522279360E+01  0.12526560892E+02  0.00000000000E+00 0. -1.
</event>
<event>
 8    1  0.7489580E-009  0.9118800E+02  0.7816164E-02  0.1184000E+00
        -11   -1    0    0    0    0  0.00000000000E+00  0.00000000000E+00  0.45593999997E+02  0.45594000000E+02  0.51100000000E-03 0. -1.
         11   -1    0    0    0    0 -0.00000000000E+00 -0.00000000000E+00 -0.45593999997E+02  0.45594000000E+02  0.51100000000E-03 0.  1.
         23    2    1    2    0    0  0.22204460493E-15  0.00000000000E+00  0.00000000000E+00  0.91188000000E+02  0.91188000000E+02 0.  0.
    9900012    2    3    3    0    0  0.72680067205E+00  0.43898169392E+02 -0.10076502897E+02  0.46142318455E+02  0.10000006331E+02 0.  0.
         12    1    3    3    0    0 -0.72680067205E+00 -0.43898169392E+02  0.10076502897E+02  0.45045681545E+02  0.00000000000E+00 0. -1.
         11    1    4    4    0    0  0.42329667936E+01  0.23695347187E+02 -0.53603942884E+01  0.24660115843E+02  0.51100000000E-03 0. -1.
        -11    1    4    4    0    0 -0.52296958012E+00  0.14082283085E+02 -0.39194553895E+01  0.14626904146E+02  0.51100000000E-03 0.  1.
         12    1    4    4    0    0 -0.29831965414E+01  0.61205391193E+01 -0.79665321911E+00  0.68552984667E+01  0.00000000000E+00 0. -1.
</event>
<event>
 8    1  0.7489580E-009  0.9118800E+02  0.7816164E-02  0.1184000E+00
        -11   -1    0    0    0    0  0.00000000000E+00  0.00000000000E+00  0.45593999997E+02  0.45594000000E+02  0.51100000000E-03 0. -1.
         11   -1    0    0    0    0 -0.00000000000E+00 -0.00000000000E+00 -0.45593999997E+02  0.45594000000E+02  0.51100000000E-03 0.  1.
         23    2    1    2    0    0  0.00000000000E+00  0.17763568394E-14  0.00000000000E+00  0.91188000000E+02  0.91188000000E+02 0.  0.
    9900012    2    3    3    0    0  0.17890155610E+02  0.13183330806E+02 -0.39182333389E+02  0.46142321754E+02  0.10000036406E+02 0.  0.
         12    1    3    3    0    0 -0.17890155610E+02 -0.13183330806E+02  0.39182333389E+02  0.45045678246E+02  0.00000000000E+00 0. -1.
         11    1    4    4    0    0  0.56004132070E+01  0.35662324317E+01 -0.16906704790E+02  0.18163681041E+02  0.51100000000E-03 0.  1.
        -11    1    4    4    0    0  0.12783960204E+02  0.96512889734E+01 -0.22329192867E+02  0.27480354286E+02  0.51100000000E-03 0. -1.
         12    1    4    4    0    0 -0.49421780096E+00 -0.34190599363E-01  0.53564267951E-01  0.49828642634E+00  0.00000000000E+00 0. -1.
</event>
<event>
 8    1  0.7489580E-009  0.9118800E+02  0.7816164E-02  0.1184000E+00
        -11   -1    0    0    0    0  0.00000000000E+00  0.00000000000E+00  0.45593999997E+02  0.45594000000E+02  0.51100000000E-03 0.  1.
         11   -1    0    0    0    0 -0.00000000000E+00 -0.00000000000E+00 -0.45593999997E+02  0.45594000000E+02  0.51100000000E-03 0. -1.
         23    2    1    2    0    0  0.00000000000E+00  0.71054273576E-14 -0.88817841970E-15  0.91188000000E+02  0.91188000000E+02 0.  0.
    9900012    2    3    3    0    0  0.19784245434E+02  0.40055472668E+02 -0.57668080730E+01  0.46142319481E+02  0.10000015687E+02 0.  0.
        -12    1    3    3    0    0 -0.19784245434E+02 -0.40055472668E+02  0.57668080730E+01  0.45045680519E+02  0.00000000000E+00 0.  1.
         11    1    4    4    0    0 -0.16703081639E+00  0.85996741529E+00 -0.16941572856E+01  0.19072525838E+01  0.51100000000E-03 0. -1.
        -11    1    4    4    0    0  0.19620653420E+01  0.31361252526E+01 -0.93452530714E+00  0.38155366355E+01  0.51100000000E-03 0.  1.
         12    1    4    4    0    0  0.17989210908E+02  0.36059380000E+02 -0.31381254803E+01  0.40419530262E+02  0.00000000000E+00 0. -1.
</event>
<event>
 8    1  0.7489580E-009  0.9118800E+02  0.7816164E-02  0.1184000E+00
        -11   -1    0    0    0    0  0.00000000000E+00  0.00000000000E+00  0.45593999997E+02  0.45594000000E+02  0.51100000000E-03 0. -1.
         11   -1    0    0    0    0 -0.00000000000E+00 -0.00000000000E+00 -0.45593999997E+02  0.45594000000E+02  0.51100000000E-03 0.  1.
         23    2    1    2    0    0  0.00000000000E+00  0.71054273576E-14  0.00000000000E+00  0.91188000000E+02  0.91188000000E+02 0.  0.
    9900012    2    3    3    0    0  0.13578035716E+01  0.34840929717E+02 -0.28519808501E+02  0.46142317731E+02  0.99999997290E+01 0.  0.
         12    1    3    3    0    0 -0.13578035716E+01 -0.34840929717E+02  0.28519808501E+02  0.45045682269E+02  0.00000000000E+00 0. -1.
         11    1    4    4    0    0  0.22332814759E+01  0.15038343030E+02 -0.93886413549E+01  0.17868572802E+02  0.51100000000E-03 0. -1.
        -11    1    4    4    0    0  0.58972083917E+00  0.24792295777E+01 -0.17783021179E+00  0.25545985619E+01  0.51100000000E-03 0.  1.
        -12    1    4    4    0    0 -0.14651987435E+01  0.17323357109E+02 -0.18953336935E+02  0.25719146367E+02  0.00000000000E+00 0.  1.
</event>
<event>
 8    1  0.7489580E-009  0.9118800E+02  0.7816164E-02  0.1184000E+00
        -11   -1    0    0    0    0  0.00000000000E+00  0.00000000000E+00  0.45593999997E+02  0.45594000000E+02  0.51100000000E-03 0. -1.
         11   -1    0    0    0    0 -0.00000000000E+00 -0.00000000000E+00 -0.45593999997E+02  0.45594000000E+02  0.51100000000E-03 0.  1.
         23    2    1    2    0    0  0.17763568394E-14  0.00000000000E+00  0.71054273576E-14  0.91188000000E+02  0.91188000000E+02 0.  0.
    9900012    2    3    3    0    0  0.12753660882E+02  0.12419246324E+02  0.41378995504E+02  0.46142303046E+02  0.99998658170E+01 0.  0.
        -12    1    3    3    0    0 -0.12753660882E+02 -0.12419246324E+02 -0.41378995504E+02  0.45045696954E+02  0.00000000000E+00 0.  1.
         11    1    4    4    0    0  0.72754381565E+01  0.10238606524E+02  0.33562564778E+02  0.35835831491E+02  0.51100000000E-03 0. -1.
        -11    1    4    4    0    0  0.31624885858E+00  0.13036716018E+01  0.83633421356E+00  0.15808314786E+01  0.51100000000E-03 0.  1.
        -12    1    4    4    0    0  0.51619738667E+01  0.87696819752E+00  0.69800965121E+01  0.87256400762E+01  0.00000000000E+00 0.  1.
</event>
<event>
 8    1  0.7489580E-009  0.9118800E+02  0.7816164E-02  0.1184000E+00
        -11   -1    0    0    0    0  0.00000000000E+00  0.00000000000E+00  0.45593999997E+02  0.45594000000E+02  0.51100000000E-03 0. -1.
         11   -1    0    0    0    0 -0.00000000000E+00 -0.00000000000E+00 -0.45593999997E+02  0.45594000000E+02  0.51100000000E-03 0.  1.
         23    2    1    2    0    0  0.00000000000E+00  0.00000000000E+00  0.00000000000E+00  0.91188000000E+02  0.91188000000E+02 0.  0.
    9900012    2    3    3    0    0 -0.27426033257E+02  0.19672641966E+02  0.29831415744E+02  0.46142317550E+02  0.99999980747E+01 0.  0.
        -12    1    3    3    0    0  0.27426033257E+02 -0.19672641966E+02 -0.29831415744E+02  0.45045682450E+02  0.00000000000E+00 0.  1.
         11    1    4    4    0    0 -0.22535826623E+01  0.31667167410E+01  0.57505732097E+01  0.69408805086E+01  0.51100000000E-03 0. -1.
        -11    1    4    4    0    0 -0.22380211598E+02  0.14362567045E+02  0.17795222086E+02  0.31997298834E+02  0.51100000000E-03 0.  1.
        -12    1    4    4    0    0 -0.27922389962E+01  0.21433581800E+01  0.62856204480E+01  0.72041382077E+01  0.00000000000E+00 0.  1.
</event>
<event>
 8    1  0.7489580E-009  0.9118800E+02  0.7816164E-02  0.1184000E+00
        -11   -1    0    0    0    0  0.00000000000E+00  0.00000000000E+00  0.45593999997E+02  0.45594000000E+02  0.51100000000E-03 0. -1.
         11   -1    0    0    0    0 -0.00000000000E+00 -0.00000000000E+00 -0.45593999997E+02  0.45594000000E+02  0.51100000000E-03 0.  1.
         23    2    1    2    0    0  0.00000000000E+00  0.00000000000E+00  0.71054273576E-14  0.91188000000E+02  0.91188000000E+02 0.  0.
    9900012    2    3    3    0    0  0.21240950801E+01  0.69899653303E+01 -0.44449320550E+02  0.46142317715E+02  0.99999995757E+01 0.  0.
         12    1    3    3    0    0 -0.21240950801E+01 -0.69899653303E+01  0.44449320550E+02  0.45045682285E+02  0.00000000000E+00 0. -1.
         11    1    4    4    0    0  0.28617261734E+00  0.13273989442E+01 -0.15373296272E+01  0.20511619555E+01  0.51100000000E-03 0. -1.
        -11    1    4    4    0    0  0.32066213107E+01  0.71638129915E+01 -0.29503664406E+02  0.30529802660E+02  0.51100000000E-03 0.  1.
        -12    1    4    4    0    0 -0.13686988480E+01 -0.15012466054E+01 -0.13408326516E+02  0.13561353099E+02  0.00000000000E+00 0.  1.
</event>
<event>
 8    1  0.7489580E-009  0.9118800E+02  0.7816164E-02  0.1184000E+00
        -11   -1    0    0    0    0  0.00000000000E+00  0.00000000000E+00  0.45593999997E+02  0.45594000000E+02  0.51100000000E-03 0. -1.
         11   -1    0    0    0    0 -0.00000000000E+00 -0.00000000000E+00 -0.45593999997E+02  0.45594000000E+02  0.51100000000E-03 0.  1.
         23    2    1    2    0    0  0.44408920985E-15 -0.35527136788E-14  0.00000000000E+00  0.91188000000E+02  0.91188000000E+02 0.  0.
    9900012    2    3    3    0    0 -0.23151081850E+01  0.27535372505E+02  0.35574667425E+02  0.46142318439E+02  0.10000006183E+02 0.  0.
        -12    1    3    3    0    0  0.23151081850E+01 -0.27535372505E+02 -0.35574667425E+02  0.45045681561E+02  0.00000000000E+00 0.  1.
         11    1    4    4    0    0  0.19344021658E+01  0.93678254121E+01  0.93254023792E+01  0.13358936877E+02  0.51100000000E-03 0. -1.
        -11    1    4    4    0    0 -0.10380335141E+01  0.49033393801E+00  0.24134825315E+00  0.11731113279E+01  0.51100000000E-03 0.  1.
         12    1    4    4    0    0 -0.32114768367E+01  0.17677213155E+02  0.26007916793E+02  0.31610270234E+02  0.00000000000E+00 0. -1.
</event>
<event>
 8    1  0.7489580E-009  0.9118800E+02  0.7816164E-02  0.1184000E+00
        -11   -1    0    0    0    0  0.00000000000E+00  0.00000000000E+00  0.45593999997E+02  0.45594000000E+02  0.51100000000E-03 0. -1.
         11   -1    0    0    0    0 -0.00000000000E+00 -0.00000000000E+00 -0.45593999997E+02  0.45594000000E+02  0.51100000000E-03 0.  1.
         23    2    1    2    0    0  0.17763568394E-14  0.44408920985E-15 -0.71054273576E-14  0.91188000000E+02  0.91188000000E+02 0.  0.
    9900012    2    3    3    0    0 -0.14198612844E+02 -0.34515753556E+01 -0.42609855231E+02  0.46142314946E+02  0.99999743322E+01 0.  0.
         12    1    3    3    0    0  0.14198612844E+02  0.34515753556E+01  0.42609855231E+02  0.45045685054E+02  0.00000000000E+00 0. -1.
         11    1    4    4    0    0 -0.23013789996E+01 -0.12571678626E+01 -0.29343812342E+01  0.39354046581E+01  0.51100000000E-03 0.  1.
        -11    1    4    4    0    0  0.99179107238E+00  0.59675079215E+00 -0.43052528896E+01  0.44581345587E+01  0.51100000000E-03 0. -1.
         12    1    4    4    0    0 -0.12889024917E+02 -0.27911582851E+01 -0.35370221107E+02  0.37748775729E+02  0.00000000000E+00 0. -1.
</event>
<event>
 8    1  0.7489580E-009  0.9118800E+02  0.7816164E-02  0.1184000E+00
        -11   -1    0    0    0    0  0.00000000000E+00  0.00000000000E+00  0.45593999997E+02  0.45594000000E+02  0.51100000000E-03 0.  1.
         11   -1    0    0    0    0 -0.00000000000E+00 -0.00000000000E+00 -0.45593999997E+02  0.45594000000E+02  0.51100000000E-03 0. -1.
         23    2    1    2    0    0  0.00000000000E+00 -0.71054273576E-14  0.00000000000E+00  0.91188000000E+02  0.91188000000E+02 0.  0.
    9900012    2    3    3    0    0 -0.26536542399E+02  0.35395884514E+02  0.84886257631E+01  0.46142317739E+02  0.99999998003E+01 0.  0.
        -12    1    3    3    0    0  0.26536542399E+02 -0.35395884514E+02 -0.84886257631E+01  0.45045682261E+02  0.00000000000E+00 0.  1.
         11    1    4    4    0    0 -0.60012414704E+01  0.13025950009E+02 -0.32362190978E+00  0.14345556951E+02  0.51100000000E-03 0. -1.
        -11    1    4    4    0    0 -0.13804933537E+02  0.16979758249E+02  0.70926197933E+01  0.23004209092E+02  0.51100000000E-03 0.  1.
        -12    1    4    4    0    0 -0.67303673912E+01  0.53901762554E+01  0.17196278796E+01  0.87925516961E+01  0.00000000000E+00 0.  1.
</event>
<event>
 8    1  0.7489580E-009  0.9118800E+02  0.7816164E-02  0.1184000E+00
        -11   -1    0    0    0    0  0.00000000000E+00  0.00000000000E+00  0.45593999997E+02  0.45594000000E+02  0.51100000000E-03 0. -1.
         11   -1    0    0    0    0 -0.00000000000E+00 -0.00000000000E+00 -0.45593999997E+02  0.45594000000E+02  0.51100000000E-03 0.  1.
         23    2    1    2    0    0 -0.44408920985E-15  0.00000000000E+00 -0.71054273576E-14  0.91188000000E+02  0.91188000000E+02 0.  0.
    9900012    2    3    3    0    0  0.39193590183E+01 -0.19817793069E+02  0.40261732115E+02  0.46142319073E+02  0.10000011961E+02 0.  0.
        -12    1    3    3    0    0 -0.39193590183E+01  0.19817793069E+02 -0.40261732115E+02  0.45045680927E+02  0.00000000000E+00 0.  1.
         11    1    4    4    0    0 -0.10084254345E+01 -0.68504502746E+01  0.80513237774E+01  0.10619294028E+02  0.51100000000E-03 0. -1.
        -11    1    4    4    0    0  0.20642390505E+01 -0.41983377439E+00  0.47615482357E+01  0.52066961806E+01  0.51100000000E-03 0.  1.
        -12    1    4    4    0    0  0.28635454024E+01 -0.12547509020E+02  0.27448860102E+02  0.30316328864E+02  0.00000000000E+00 0.  1.
</event>
<event>
 8    1  0.7489580E-009  0.9118800E+02  0.7816164E-02  0.1184000E+00
        -11   -1    0    0    0    0  0.00000000000E+00  0.00000000000E+00  0.45593999997E+02  0.45594000000E+02  0.51100000000E-03 0. -1.
         11   -1    0    0    0    0 -0.00000000000E+00 -0.00000000000E+00 -0.45593999997E+02  0.45594000000E+02  0.51100000000E-03 0.  1.
         23    2    1    2    0    0  0.00000000000E+00  0.00000000000E+00 -0.71054273576E-14  0.91188000000E+02  0.91188000000E+02 0.  0.
    9900012    2    3    3    0    0  0.13258657693E+02 -0.19933183463E+02  0.38157432231E+02  0.46142318284E+02  0.10000004771E+02 0.  0.
        -12    1    3    3    0    0 -0.13258657693E+02  0.19933183463E+02 -0.38157432231E+02  0.45045681716E+02  0.00000000000E+00 0.  1.
         11    1    4    4    0    0 -0.65247722872E+00 -0.72271102806E+00  0.20345570686E+01  0.22555399555E+01  0.51100000000E-03 0. -1.
        -11    1    4    4    0    0  0.31734428538E+01 -0.71221545121E+00  0.73266178605E+01  0.80160663627E+01  0.51100000000E-03 0.  1.
         12    1    4    4    0    0  0.10737692067E+02 -0.18498256984E+02  0.28796257302E+02  0.35870711966E+02  0.00000000000E+00 0. -1.
</event>
<event>
 8    1  0.7489580E-009  0.9118800E+02  0.7816164E-02  0.1184000E+00
        -11   -1    0    0    0    0  0.00000000000E+00  0.00000000000E+00  0.45593999997E+02  0.45594000000E+02  0.51100000000E-03 0.  1.
         11   -1    0    0    0    0 -0.00000000000E+00 -0.00000000000E+00 -0.45593999997E+02  0.45594000000E+02  0.51100000000E-03 0. -1.
         23    2    1    2    0    0  0.00000000000E+00  0.00000000000E+00  0.00000000000E+00  0.91188000000E+02  0.91188000000E+02 0.  0.
    9900012    2    3    3    0    0 -0.33984581706E+02  0.48921526550E+00 -0.29562177968E+02  0.46142317726E+02  0.99999996781E+01 0.  0.
         12    1    3    3    0    0  0.33984581706E+02 -0.48921526550E+00  0.29562177968E+02  0.45045682274E+02  0.00000000000E+00 0. -1.
         11    1    4    4    0    0 -0.71498038795E+01  0.12145328522E+01 -0.81946815465E+01  0.10942924265E+02  0.51100000000E-03 0. -1.
        -11    1    4    4    0    0 -0.19689383590E+02  0.42595228630E+00 -0.11006736553E+02  0.22561061839E+02  0.51100000000E-03 0.  1.
         12    1    4    4    0    0 -0.71453942370E+01 -0.11512698730E+01 -0.10360759868E+02  0.12638331621E+02  0.00000000000E+00 0. -1.
</event>
<event>
 8    1  0.7489580E-009  0.9118800E+02  0.7816164E-02  0.1184000E+00
        -11   -1    0    0    0    0  0.00000000000E+00  0.00000000000E+00  0.45593999997E+02  0.45594000000E+02  0.51100000000E-03 0. -1.
         11   -1    0    0    0    0 -0.00000000000E+00 -0.00000000000E+00 -0.45593999997E+02  0.45594000000E+02  0.51100000000E-03 0.  1.
         23    2    1    2    0    0 -0.35527136788E-14 -0.35527136788E-14 -0.71054273576E-14  0.91188000000E+02  0.91188000000E+02 0.  0.
    9900012    2    3    3    0    0 -0.20675122291E+02 -0.16642047607E+02 -0.36396361111E+02  0.46142317272E+02  0.99999955401E+01 0.  0.
         12    1    3    3    0    0  0.20675122291E+02  0.16642047607E+02  0.36396361111E+02  0.45045682728E+02  0.00000000000E+00 0. -1.
         11    1    4    4    0    0  0.27748190645E+00 -0.14845202992E+01 -0.45893333773E+01  0.48314364154E+01  0.51100000000E-03 0. -1.
        -11    1    4    4    0    0 -0.27906275261E+01 -0.36819636770E+01 -0.80420909213E+01  0.92746797872E+01  0.51100000000E-03 0.  1.
        -12    1    4    4    0    0 -0.18161976671E+02 -0.11475563631E+02 -0.23764936813E+02  0.32036201069E+02  0.00000000000E+00 0.  1.
</event>
<event>
 8    1  0.7489580E-009  0.9118800E+02  0.7816164E-02  0.1184000E+00
        -11   -1    0    0    0    0  0.00000000000E+00  0.00000000000E+00  0.45593999997E+02  0.45594000000E+02  0.51100000000E-03 0. -1.
         11   -1    0    0    0    0 -0.00000000000E+00 -0.00000000000E+00 -0.45593999997E+02  0.45594000000E+02  0.51100000000E-03 0.  1.
         23    2    1    2    0    0  0.00000000000E+00 -0.35527136788E-14 -0.71054273576E-14  0.91188000000E+02  0.91188000000E+02 0.  0.
    9900012    2    3    3    0    0 -0.16514719886E+02  0.21939226885E+02  0.35707812053E+02  0.46142317734E+02  0.99999997537E+01 0.  0.
        -12    1    3    3    0    0  0.16514719886E+02 -0.21939226885E+02 -0.35707812053E+02  0.45045682266E+02  0.00000000000E+00 0.  1.
         11    1    4    4    0    0 -0.13981815631E+02  0.19137194013E+02  0.27862075335E+02  0.36578936634E+02  0.51100000000E-03 0. -1.
        -11    1    4    4    0    0 -0.35004183774E+01  0.28279118055E+01  0.64085762892E+01  0.78307001163E+01  0.51100000000E-03 0.  1.
        -12    1    4    4    0    0  0.96751412177E+00 -0.25878934133E-01  0.14371604280E+01  0.17326809836E+01  0.00000000000E+00 0.  1.
</event>
<event>
 8    1  0.7489580E-009  0.9118800E+02  0.7816164E-02  0.1184000E+00
        -11   -1    0    0    0    0  0.00000000000E+00  0.00000000000E+00  0.45593999997E+02  0.45594000000E+02  0.51100000000E-03 0.  1.
         11   -1    0    0    0    0 -0.00000000000E+00 -0.00000000000E+00 -0.45593999997E+02  0.45594000000E+02  0.51100000000E-03 0. -1.
         23    2    1    2    0    0 -0.88817841970E-15  0.71054273576E-14  0.00000000000E+00  0.91188000000E+02  0.91188000000E+02 0.  0.
    9900012    2    3    3    0    0 -0.75007919660E+01  0.35022919066E+02 -0.27317516919E+02  0.46142317958E+02  0.10000001793E+02 0.  0.
         12    1    3    3    0    0  0.75007919660E+01 -0.35022919066E+02  0.27317516919E+02  0.45045682042E+02  0.00000000000E+00 0. -1.
         11    1    4    4    0    0 -0.80106623073E+01  0.22022202829E+02 -0.18387863226E+02  0.29786937445E+02  0.51100000000E-03 0. -1.
        -11    1    4    4    0    0 -0.74227742419E+00  0.59968759441E+01 -0.64057706317E+01  0.88060998468E+01  0.51100000000E-03 0.  1.
         12    1    4    4    0    0  0.12521477655E+01  0.70038402928E+01 -0.25238830615E+01  0.75492806665E+01  0.00000000000E+00 0. -1.
</event>
<event>
 8    1  0.7489580E-009  0.9118800E+02  0.7816164E-02  0.1184000E+00
        -11   -1    0    0    0    0  0.00000000000E+00  0.00000000000E+00  0.45593999997E+02  0.45594000000E+02  0.51100000000E-03 0. -1.
         11   -1    0    0    0    0 -0.00000000000E+00 -0.00000000000E+00 -0.45593999997E+02  0.45594000000E+02  0.51100000000E-03 0.  1.
         23    2    1    2    0    0 -0.11102230246E-15 -0.35527136788E-14  0.00000000000E+00  0.91188000000E+02  0.91188000000E+02 0.  0.
    9900012    2    3    3    0    0 -0.83162776919E+00  0.18115329788E+02  0.41234169177E+02  0.46142317790E+02  0.10000000259E+02 0.  0.
        -12    1    3    3    0    0  0.83162776919E+00 -0.18115329788E+02 -0.41234169177E+02  0.45045682210E+02  0.00000000000E+00 0.  1.
         11    1    4    4    0    0 -0.41506940708E+01  0.60575540243E+01  0.17119994722E+02  0.18628377319E+02  0.51100000000E-03 0. -1.
        -11    1    4    4    0    0  0.10023286378E+01  0.87878364275E+01  0.19436575198E+02  0.21354418453E+02  0.51100000000E-03 0.  1.
         12    1    4    4    0    0  0.23167376638E+01  0.32699393363E+01  0.46775992573E+01  0.61595220170E+01  0.00000000000E+00 0. -1.
</event>
<event>
 8    1  0.7489580E-009  0.9118800E+02  0.7816164E-02  0.1184000E+00
        -11   -1    0    0    0    0  0.00000000000E+00  0.00000000000E+00  0.45593999997E+02  0.45594000000E+02  0.51100000000E-03 0. -1.
         11   -1    0    0    0    0 -0.00000000000E+00 -0.00000000000E+00 -0.45593999997E+02  0.45594000000E+02  0.51100000000E-03 0.  1.
         23    2    1    2    0    0 -0.88817841970E-15  0.00000000000E+00  0.71054273576E-14  0.91188000000E+02  0.91188000000E+02 0.  0.
    9900012    2    3    3    0    0 -0.42657477998E+01 -0.28230628014E+02  0.34841764316E+02  0.46142317599E+02  0.99999985228E+01 0.  0.
        -12    1    3    3    0    0  0.42657477998E+01  0.28230628014E+02 -0.34841764316E+02  0.45045682401E+02  0.00000000000E+00 0.  1.
         11    1    4    4    0    0 -0.68120730368E+00 -0.12221929424E+02  0.11632223765E+02  0.16886332705E+02  0.51100000000E-03 0. -1.
        -11    1    4    4    0    0 -0.77943244534E+00 -0.15499136649E+01  0.75971541748E+01  0.77927209062E+01  0.51100000000E-03 0.  1.
        -12    1    4    4    0    0 -0.28051080508E+01 -0.14458784925E+02  0.15612386376E+02  0.21463263988E+02  0.00000000000E+00 0.  1.
</event>
<event>
 8    1  0.7489580E-009  0.9118800E+02  0.7816164E-02  0.1184000E+00
        -11   -1    0    0    0    0  0.00000000000E+00  0.00000000000E+00  0.45593999997E+02  0.45594000000E+02  0.51100000000E-03 0. -1.
         11   -1    0    0    0    0 -0.00000000000E+00 -0.00000000000E+00 -0.45593999997E+02  0.45594000000E+02  0.51100000000E-03 0.  1.
         23    2    1    2    0    0  0.35527136788E-14  0.00000000000E+00 -0.35527136788E-14  0.91188000000E+02  0.91188000000E+02 0.  0.
    9900012    2    3    3    0    0  0.29029001068E+02 -0.13241683622E+02 -0.31797610630E+02  0.46142321739E+02  0.10000036277E+02 0.  0.
         12    1    3    3    0    0 -0.29029001068E+02  0.13241683622E+02  0.31797610630E+02  0.45045678261E+02  0.00000000000E+00 0. -1.
         11    1    4    4    0    0  0.75096524167E+01 -0.72829121588E+01 -0.12028019055E+02  0.15940794572E+02  0.51100000000E-03 0. -1.
        -11    1    4    4    0    0  0.15762078950E+02 -0.51379591375E+01 -0.17051290849E+02  0.23782099925E+02  0.51100000000E-03 0.  1.
         12    1    4    4    0    0  0.57572697015E+01 -0.82081232596E+00 -0.27183007252E+01  0.64194272425E+01  0.00000000000E+00 0. -1.
</event>
<event>
 8    1  0.7489580E-009  0.9118800E+02  0.7816164E-02  0.1184000E+00
        -11   -1    0    0    0    0  0.00000000000E+00  0.00000000000E+00  0.45593999997E+02  0.45594000000E+02  0.51100000000E-03 0. -1.
         11   -1    0    0    0    0 -0.00000000000E+00 -0.00000000000E+00 -0.45593999997E+02  0.45594000000E+02  0.51100000000E-03 0.  1.
         23    2    1    2    0    0  0.35527136788E-14  0.00000000000E+00  0.71054273576E-14  0.91188000000E+02  0.91188000000E+02 0.  0.
    9900012    2    3    3    0    0 -0.13159608040E+02 -0.35410965754E+02 -0.24535720548E+02  0.46142319162E+02  0.10000012774E+02 0.  0.
         12    1    3    3    0    0  0.13159608040E+02  0.35410965754E+02  0.24535720548E+02  0.45045680838E+02  0.00000000000E+00 0. -1.
         11    1    4    4    0    0 -0.14940909559E+01 -0.30888947042E-01 -0.20267681181E+01  0.25181443916E+01  0.51100000000E-03 0. -1.
        -11    1    4    4    0    0 -0.84484780878E+00 -0.34544404316E+01 -0.12428361335E+01  0.37671698171E+01  0.51100000000E-03 0.  1.
        -12    1    4    4    0    0 -0.10820669275E+02 -0.31925636375E+02 -0.21266116296E+02  0.39857004953E+02  0.00000000000E+00 0.  1.
</event>
<event>
 8    1  0.7489580E-009  0.9118800E+02  0.7816164E-02  0.1184000E+00
        -11   -1    0    0    0    0  0.00000000000E+00  0.00000000000E+00  0.45593999997E+02  0.45594000000E+02  0.51100000000E-03 0. -1.
         11   -1    0    0    0    0 -0.00000000000E+00 -0.00000000000E+00 -0.45593999997E+02  0.45594000000E+02  0.51100000000E-03 0.  1.
         23    2    1    2    0    0  0.00000000000E+00  0.00000000000E+00  0.00000000000E+00  0.91188000000E+02  0.91188000000E+02 0.  0.
    9900012    2    3    3    0    0 -0.99001818947E+01 -0.88434927322E+01  0.43045237983E+02  0.46142317873E+02  0.10000001019E+02 0.  0.
        -12    1    3    3    0    0  0.99001818947E+01  0.88434927322E+01 -0.43045237983E+02  0.45045682127E+02  0.00000000000E+00 0.  1.
         11    1    4    4    0    0  0.18811228609E+00 -0.55746329293E+01  0.16141488316E+02  0.17078043326E+02  0.51100000000E-03 0. -1.
        -11    1    4    4    0    0 -0.27342665329E+01 -0.13416980022E+01  0.11356727886E+02  0.11758045567E+02  0.51100000000E-03 0.  1.
        -12    1    4    4    0    0 -0.73540276479E+01 -0.19271618007E+01  0.15547021781E+02  0.17306228980E+02  0.00000000000E+00 0.  1.
</event>
<event>
 8    1  0.7489580E-009  0.9118800E+02  0.7816164E-02  0.1184000E+00
        -11   -1    0    0    0    0  0.00000000000E+00  0.00000000000E+00  0.45593999997E+02  0.45594000000E+02  0.51100000000E-03 0.  1.
         11   -1    0    0    0    0 -0.00000000000E+00 -0.00000000000E+00 -0.45593999997E+02  0.45594000000E+02  0.51100000000E-03 0. -1.
         23    2    1    2    0    0  0.00000000000E+00 -0.44408920985E-15 -0.22204460493E-15  0.91188000000E+02  0.91188000000E+02 0.  0.
    9900012    2    3    3    0    0 -0.44933049646E+02 -0.29443620995E+01  0.12105040924E+01  0.46142317201E+02  0.99999948936E+01 0.  0.
        -12    1    3    3    0    0  0.44933049646E+02  0.29443620995E+01 -0.12105040924E+01  0.45045682799E+02  0.00000000000E+00 0.  1.
         11    1    4    4    0    0 -0.25394566836E+02  0.82403010326E+00 -0.11890058168E+01  0.25435738352E+02  0.51100000000E-03 0. -1.
        -11    1    4    4    0    0 -0.10948539426E+01 -0.11433196753E+01 -0.84848521543E+00  0.17960546923E+01  0.51100000000E-03 0.  1.
         12    1    4    4    0    0 -0.18443628867E+02 -0.26250725274E+01  0.32479951247E+01  0.18910524157E+02  0.00000000000E+00 0. -1.
</event>
<event>
 8    1  0.7489580E-009  0.9118800E+02  0.7816164E-02  0.1184000E+00
        -11   -1    0    0    0    0  0.00000000000E+00  0.00000000000E+00  0.45593999997E+02  0.45594000000E+02  0.51100000000E-03 0. -1.
         11   -1    0    0    0    0 -0.00000000000E+00 -0.00000000000E+00 -0.45593999997E+02  0.45594000000E+02  0.51100000000E-03 0.  1.
         23    2    1    2    0    0  0.00000000000E+00  0.00000000000E+00  0.00000000000E+00  0.91188000000E+02  0.91188000000E+02 0.  0.
    9900012    2    3    3    0    0  0.11602774521E+02  0.36702307977E+02  0.23397213591E+02  0.46142318839E+02  0.10000009829E+02 0.  0.
        -12    1    3    3    0    0 -0.11602774521E+02 -0.36702307977E+02 -0.23397213591E+02  0.45045681161E+02  0.00000000000E+00 0.  1.
         11    1    4    4    0    0 -0.41545624670E+00  0.14205657676E+01  0.15739675017E+01  0.21605520014E+01  0.51100000000E-03 0. -1.
        -11    1    4    4    0    0  0.95247101298E+01  0.28907467518E+02  0.13751282897E+02  0.33398496417E+02  0.51100000000E-03 0.  1.
        -12    1    4    4    0    0  0.24935206382E+01  0.63742746917E+01  0.80719631921E+01  0.10583270420E+02  0.00000000000E+00 0.  1.
</event>
<event>
 8    1  0.7489580E-009  0.9118800E+02  0.7816164E-02  0.1184000E+00
        -11   -1    0    0    0    0  0.00000000000E+00  0.00000000000E+00  0.45593999997E+02  0.45594000000E+02  0.51100000000E-03 0. -1.
         11   -1    0    0    0    0 -0.00000000000E+00 -0.00000000000E+00 -0.45593999997E+02  0.45594000000E+02  0.51100000000E-03 0.  1.
         23    2    1    2    0    0  0.00000000000E+00  0.00000000000E+00 -0.35527136788E-14  0.91188000000E+02  0.91188000000E+02 0.  0.
    9900012    2    3    3    0    0 -0.25030134206E+02  0.26769097992E+02  0.26192008879E+02  0.46142317024E+02  0.99999932781E+01 0.  0.
        -12    1    3    3    0    0  0.25030134206E+02 -0.26769097992E+02 -0.26192008879E+02  0.45045682976E+02  0.00000000000E+00 0.  1.
         11    1    4    4    0    0 -0.25537413307E+01  0.74451269275E+01  0.36579315680E+01  0.86793993668E+01  0.51100000000E-03 0. -1.
        -11    1    4    4    0    0 -0.41185761841E+01  0.23176598109E+01  0.21731328526E+01  0.52016077745E+01  0.51100000000E-03 0.  1.
         12    1    4    4    0    0 -0.18357816691E+02  0.17006311254E+02  0.20360944458E+02  0.32261309883E+02  0.00000000000E+00 0. -1.
</event>
<event>
 8    1  0.7489580E-009  0.9118800E+02  0.7816164E-02  0.1184000E+00
        -11   -1    0    0    0    0  0.00000000000E+00  0.00000000000E+00  0.45593999997E+02  0.45594000000E+02  0.51100000000E-03 0. -1.
         11   -1    0    0    0    0 -0.00000000000E+00 -0.00000000000E+00 -0.45593999997E+02  0.45594000000E+02  0.51100000000E-03 0.  1.
         23    2    1    2    0    0  0.00000000000E+00  0.35527136788E-14  0.00000000000E+00  0.91188000000E+02  0.91188000000E+02 0.  0.
    9900012    2    3    3    0    0 -0.11587520553E+02  0.26428420744E+02  0.34588746958E+02  0.46142317946E+02  0.10000001684E+02 0.  0.
        -12    1    3    3    0    0  0.11587520553E+02 -0.26428420744E+02 -0.34588746958E+02  0.45045682054E+02  0.00000000000E+00 0.  1.
         11    1    4    4    0    0 -0.59173116659E+01  0.60902985875E+01  0.12012439683E+02  0.14710711119E+02  0.51100000000E-03 0.  1.
        -11    1    4    4    0    0 -0.60899838790E+01  0.18016952223E+02  0.17546715628E+02  0.25876354083E+02  0.51100000000E-03 0. -1.
         12    1    4    4    0    0  0.41977499170E+00  0.23211699334E+01  0.50295916473E+01  0.55552527433E+01  0.00000000000E+00 0. -1.
</event>
<event>
 8    1  0.7489580E-009  0.9118800E+02  0.7816164E-02  0.1184000E+00
        -11   -1    0    0    0    0  0.00000000000E+00  0.00000000000E+00  0.45593999997E+02  0.45594000000E+02  0.51100000000E-03 0. -1.
         11   -1    0    0    0    0 -0.00000000000E+00 -0.00000000000E+00 -0.45593999997E+02  0.45594000000E+02  0.51100000000E-03 0.  1.
         23    2    1    2    0    0  0.00000000000E+00 -0.12490009027E-15  0.00000000000E+00  0.91188000000E+02  0.91188000000E+02 0.  0.
    9900012    2    3    3    0    0 -0.23886209991E+02  0.11246944557E+00 -0.38190964335E+02  0.46142318365E+02  0.10000005503E+02 0.  0.
         12    1    3    3    0    0  0.23886209991E+02 -0.11246944557E+00  0.38190964335E+02  0.45045681635E+02  0.00000000000E+00 0. -1.
         11    1    4    4    0    0 -0.48373542863E+01  0.62765166872E+00 -0.21975471398E+01  0.53500613829E+01  0.51100000000E-03 0. -1.
        -11    1    4    4    0    0 -0.10927703582E+02 -0.12207776198E+01 -0.19223861833E+02  0.22146373689E+02  0.51100000000E-03 0.  1.
         12    1    4    4    0    0 -0.81211521234E+01  0.70559539670E+00 -0.16769555363E+02  0.18645883292E+02  0.00000000000E+00 0. -1.
</event>
<event>
 8    1  0.7489580E-009  0.9118800E+02  0.7816164E-02  0.1184000E+00
        -11   -1    0    0    0    0  0.00000000000E+00  0.00000000000E+00  0.45593999997E+02  0.45594000000E+02  0.51100000000E-03 0. -1.
         11   -1    0    0    0    0 -0.00000000000E+00 -0.00000000000E+00 -0.45593999997E+02  0.45594000000E+02  0.51100000000E-03 0.  1.
         23    2    1    2    0    0  0.00000000000E+00  0.00000000000E+00  0.17763568394E-14  0.91188000000E+02  0.91188000000E+02 0.  0.
    9900012    2    3    3    0    0 -0.57880353143E+00  0.42974476201E+02  0.13489731573E+02  0.46142317896E+02  0.10000001234E+02 0.  0.
        -12    1    3    3    0    0  0.57880353143E+00 -0.42974476201E+02 -0.13489731573E+02  0.45045682104E+02  0.00000000000E+00 0.  1.
         11    1    4    4    0    0 -0.17310226171E+01  0.15704451689E+01  0.70549114717E+00  0.24414043805E+01  0.51100000000E-03 0. -1.
        -11    1    4    4    0    0 -0.18362874204E+00  0.71040110249E+00  0.11352104345E+01  0.13516997570E+01  0.51100000000E-03 0.  1.
         12    1    4    4    0    0  0.13358478277E+01  0.40693629929E+02  0.11649029991E+02  0.42349213759E+02  0.00000000000E+00 0. -1.
</event>
<event>
 8    1  0.7489580E-009  0.9118800E+02  0.7816164E-02  0.1184000E+00
        -11   -1    0    0    0    0  0.00000000000E+00  0.00000000000E+00  0.45593999997E+02  0.45594000000E+02  0.51100000000E-03 0. -1.
         11   -1    0    0    0    0 -0.00000000000E+00 -0.00000000000E+00 -0.45593999997E+02  0.45594000000E+02  0.51100000000E-03 0.  1.
         23    2    1    2    0    0  0.35527136788E-14  0.00000000000E+00  0.00000000000E+00  0.91188000000E+02  0.91188000000E+02 0.  0.
    9900012    2    3    3    0    0  0.20584233920E+02  0.40009647847E+02 -0.21519495543E+01  0.46142317701E+02  0.99999994503E+01 0.  0.
        -12    1    3    3    0    0 -0.20584233920E+02 -0.40009647847E+02  0.21519495543E+01  0.45045682299E+02  0.00000000000E+00 0.  1.
         11    1    4    4    0    0  0.16385330691E+01  0.10017886575E+02 -0.67538369071E+00  0.10173445112E+02  0.51100000000E-03 0. -1.
        -11    1    4    4    0    0  0.97269703271E+01  0.16454383453E+02  0.20223471427E+01  0.19221097128E+02  0.51100000000E-03 0.  1.
        -12    1    4    4    0    0  0.92187305243E+01  0.13537377819E+02 -0.34989130063E+01  0.16747775461E+02  0.00000000000E+00 0.  1.
</event>
<event>
 8    1  0.7489580E-009  0.9118800E+02  0.7816164E-02  0.1184000E+00
        -11   -1    0    0    0    0  0.00000000000E+00  0.00000000000E+00  0.45593999997E+02  0.45594000000E+02  0.51100000000E-03 0. -1.
         11   -1    0    0    0    0 -0.00000000000E+00 -0.00000000000E+00 -0.45593999997E+02  0.45594000000E+02  0.51100000000E-03 0.  1.
         23    2    1    2    0    0  0.35527136788E-14  0.00000000000E+00  0.00000000000E+00  0.91188000000E+02  0.91188000000E+02 0.  0.
    9900012    2    3    3    0    0  0.19363016895E+02  0.12614937461E+02  0.38665882646E+02  0.46142317064E+02  0.99999936428E+01 0.  0.
        -12    1    3    3    0    0 -0.19363016895E+02 -0.12614937461E+02 -0.38665882646E+02  0.45045682936E+02  0.00000000000E+00 0.  1.
         11    1    4    4    0    0  0.52453406200E+01  0.48005944994E+01  0.81043685054E+01  0.10781469979E+02  0.51100000000E-03 0. -1.
        -11    1    4    4    0    0  0.52170095542E+01  0.71351647619E+01  0.14333872203E+02  0.16840061089E+02  0.51100000000E-03 0.  1.
         12    1    4    4    0    0  0.89006667204E+01  0.67917819918E+00  0.16227641937E+02  0.18520785997E+02  0.00000000000E+00 0. -1.
</event>
<event>
 8    1  0.7489580E-009  0.9118800E+02  0.7816164E-02  0.1184000E+00
        -11   -1    0    0    0    0  0.00000000000E+00  0.00000000000E+00  0.45593999997E+02  0.45594000000E+02  0.51100000000E-03 0. -1.
         11   -1    0    0    0    0 -0.00000000000E+00 -0.00000000000E+00 -0.45593999997E+02  0.45594000000E+02  0.51100000000E-03 0.  1.
         23    2    1    2    0    0  0.35527136788E-14  0.17763568394E-14  0.00000000000E+00  0.91188000000E+02  0.91188000000E+02 0.  0.
    9900012    2    3    3    0    0 -0.25054852316E+02 -0.99644275414E+01 -0.36084319659E+02  0.46142316899E+02  0.99999921370E+01 0.  0.
         12    1    3    3    0    0  0.25054852316E+02  0.99644275414E+01  0.36084319659E+02  0.45045683101E+02  0.00000000000E+00 0. -1.
         11    1    4    4    0    0 -0.11695594606E+02 -0.67317451292E+01 -0.25124435027E+02  0.28519126238E+02  0.51100000000E-03 0.  1.
        -11    1    4    4    0    0 -0.65925783776E+00  0.64704631834E-01 -0.35018557111E+00  0.74929151961E+00  0.51100000000E-03 0. -1.
        -12    1    4    4    0    0 -0.12699999872E+02 -0.32973870440E+01 -0.10609699060E+02  0.16873899141E+02  0.00000000000E+00 0.  1.
</event>
<event>
 8    1  0.7489580E-009  0.9118800E+02  0.7816164E-02  0.1184000E+00
        -11   -1    0    0    0    0  0.00000000000E+00  0.00000000000E+00  0.45593999997E+02  0.45594000000E+02  0.51100000000E-03 0. -1.
         11   -1    0    0    0    0 -0.00000000000E+00 -0.00000000000E+00 -0.45593999997E+02  0.45594000000E+02  0.51100000000E-03 0.  1.
         23    2    1    2    0    0  0.00000000000E+00  0.00000000000E+00  0.14210854715E-13  0.91188000000E+02  0.91188000000E+02 0.  0.
    9900012    2    3    3    0    0 -0.56963441665E+01  0.16320970093E+01  0.44654242017E+02  0.46142318658E+02  0.10000008176E+02 0.  0.
        -12    1    3    3    0    0  0.56963441665E+01 -0.16320970093E+01 -0.44654242017E+02  0.45045681342E+02  0.00000000000E+00 0.  1.
         11    1    4    4    0    0  0.85448260106E+00 -0.27680601284E+00  0.67876830628E+01  0.68468535625E+01  0.51100000000E-03 0. -1.
        -11    1    4    4    0    0  0.14745713076E+01 -0.70071705873E+00  0.11393050061E+02  0.11509428956E+02  0.51100000000E-03 0.  1.
         12    1    4    4    0    0 -0.80253980751E+01  0.26096200809E+01  0.26473508892E+02  0.27786036139E+02  0.00000000000E+00 0. -1.
</event>
<event>
 8    1  0.7489580E-009  0.9118800E+02  0.7816164E-02  0.1184000E+00
        -11   -1    0    0    0    0  0.00000000000E+00  0.00000000000E+00  0.45593999997E+02  0.45594000000E+02  0.51100000000E-03 0. -1.
         11   -1    0    0    0    0 -0.00000000000E+00 -0.00000000000E+00 -0.45593999997E+02  0.45594000000E+02  0.51100000000E-03 0.  1.
         23    2    1    2    0    0  0.00000000000E+00  0.00000000000E+00  0.00000000000E+00  0.91188000000E+02  0.91188000000E+02 0.  0.
    9900012    2    3    3    0    0  0.26501682401E+02  0.16138379128E+02 -0.32654663495E+02  0.46142317644E+02  0.99999989334E+01 0.  0.
         12    1    3    3    0    0 -0.26501682401E+02 -0.16138379128E+02  0.32654663495E+02  0.45045682356E+02  0.00000000000E+00 0. -1.
         11    1    4    4    0    0  0.16441026609E+01  0.13044677243E+01 -0.74032797107E-01  0.21000454089E+01  0.51100000000E-03 0. -1.
        -11    1    4    4    0    0  0.23836007947E+01 -0.96481345913E-01 -0.45400888511E+01  0.51286712154E+01  0.51100000000E-03 0.  1.
         12    1    4    4    0    0  0.22473978946E+02  0.14930392749E+02 -0.28040541846E+02  0.38913601020E+02  0.00000000000E+00 0. -1.
</event>
<event>
 8    1  0.7489580E-009  0.9118800E+02  0.7816164E-02  0.1184000E+00
        -11   -1    0    0    0    0  0.00000000000E+00  0.00000000000E+00  0.45593999997E+02  0.45594000000E+02  0.51100000000E-03 0. -1.
         11   -1    0    0    0    0 -0.00000000000E+00 -0.00000000000E+00 -0.45593999997E+02  0.45594000000E+02  0.51100000000E-03 0.  1.
         23    2    1    2    0    0  0.10658141036E-13 -0.17763568394E-14  0.35527136788E-14  0.91188000000E+02  0.91188000000E+02 0.  0.
    9900012    2    3    3    0    0 -0.31765418905E+02  0.84867756173E+01 -0.30790361162E+02  0.46142317198E+02  0.99999948683E+01 0.  0.
         12    1    3    3    0    0  0.31765418905E+02 -0.84867756173E+01  0.30790361162E+02  0.45045682802E+02  0.00000000000E+00 0. -1.
         11    1    4    4    0    0 -0.45796205130E+01 -0.15225482270E+01 -0.27472049616E+01  0.55532164111E+01  0.51100000000E-03 0. -1.
        -11    1    4    4    0    0 -0.25082785395E+02  0.89001638367E+01 -0.23700002382E+02  0.35637748984E+02  0.51100000000E-03 0.  1.
         12    1    4    4    0    0 -0.21030129972E+01  0.11091600075E+01 -0.43431538187E+01  0.49513518034E+01  0.00000000000E+00 0. -1.
</event>
<event>
 8    1  0.7489580E-009  0.9118800E+02  0.7816164E-02  0.1184000E+00
        -11   -1    0    0    0    0  0.00000000000E+00  0.00000000000E+00  0.45593999997E+02  0.45594000000E+02  0.51100000000E-03 0. -1.
         11   -1    0    0    0    0 -0.00000000000E+00 -0.00000000000E+00 -0.45593999997E+02  0.45594000000E+02  0.51100000000E-03 0.  1.
         23    2    1    2    0    0  0.71054273576E-14 -0.11102230246E-15 -0.35527136788E-14  0.91188000000E+02  0.91188000000E+02 0.  0.
    9900012    2    3    3    0    0  0.42081432520E+02  0.69028130503E+00 -0.16055839605E+02  0.46142318336E+02  0.10000005238E+02 0.  0.
         12    1    3    3    0    0 -0.42081432520E+02 -0.69028130503E+00  0.16055839605E+02  0.45045681664E+02  0.00000000000E+00 0. -1.
         11    1    4    4    0    0  0.66243620654E+01 -0.17065183736E+01 -0.48394867821E+01  0.83794397371E+01  0.51100000000E-03 0. -1.
        -11    1    4    4    0    0  0.27268687398E+02 -0.45732536498E+00 -0.97806389341E+01  0.28973286958E+02  0.51100000000E-03 0.  1.
         12    1    4    4    0    0  0.81883830562E+01  0.28541250436E+01 -0.14357138886E+01  0.87895916406E+01  0.00000000000E+00 0. -1.
</event>
<event>
 8    1  0.7489580E-009  0.9118800E+02  0.7816164E-02  0.1184000E+00
        -11   -1    0    0    0    0  0.00000000000E+00  0.00000000000E+00  0.45593999997E+02  0.45594000000E+02  0.51100000000E-03 0. -1.
         11   -1    0    0    0    0 -0.00000000000E+00 -0.00000000000E+00 -0.45593999997E+02  0.45594000000E+02  0.51100000000E-03 0.  1.
         23    2    1    2    0    0 -0.44408920985E-15 -0.88817841970E-15 -0.71054273576E-14  0.91188000000E+02  0.91188000000E+02 0.  0.
    9900012    2    3    3    0    0  0.26256148443E+01  0.40368933490E+01  0.44787533550E+02  0.46142317380E+02  0.99999965280E+01 0.  0.
        -12    1    3    3    0    0 -0.26256148443E+01 -0.40368933490E+01 -0.44787533550E+02  0.45045682620E+02  0.00000000000E+00 0.  1.
         11    1    4    4    0    0 -0.44296302027E+00  0.46957675107E+00  0.34546998766E+00  0.73216687713E+00  0.51100000000E-03 0. -1.
        -11    1    4    4    0    0  0.80235568037E+00 -0.20014549096E+01  0.41973837392E+01  0.47188586446E+01  0.51100000000E-03 0.  1.
         12    1    4    4    0    0  0.22662221842E+01  0.55687715075E+01  0.40244679823E+02  0.40691291859E+02  0.00000000000E+00 0. -1.
</event>
<event>
 8    1  0.7489580E-009  0.9118800E+02  0.7816164E-02  0.1184000E+00
        -11   -1    0    0    0    0  0.00000000000E+00  0.00000000000E+00  0.45593999997E+02  0.45594000000E+02  0.51100000000E-03 0. -1.
         11   -1    0    0    0    0 -0.00000000000E+00 -0.00000000000E+00 -0.45593999997E+02  0.45594000000E+02  0.51100000000E-03 0.  1.
         23    2    1    2    0    0  0.00000000000E+00  0.88817841970E-15  0.14210854715E-13  0.91188000000E+02  0.91188000000E+02 0.  0.
    9900012    2    3    3    0    0 -0.22377703473E+02 -0.62312349685E+01 -0.38594346677E+02  0.46142317661E+02  0.99999990887E+01 0.  0.
         12    1    3    3    0    0  0.22377703473E+02  0.62312349685E+01  0.38594346677E+02  0.45045682339E+02  0.00000000000E+00 0. -1.
         11    1    4    4    0    0 -0.81648789813E+00 -0.22524745606E+01 -0.11110499723E+01  0.26409707375E+01  0.51100000000E-03 0. -1.
        -11    1    4    4    0    0 -0.25746229376E+01 -0.26605702890E+00 -0.30036226880E+01  0.39649992593E+01  0.51100000000E-03 0.  1.
         12    1    4    4    0    0 -0.18986592638E+02 -0.37127033789E+01 -0.34479674016E+02  0.39536347664E+02  0.00000000000E+00 0. -1.
</event>
<event>
 8    1  0.7489580E-009  0.9118800E+02  0.7816164E-02  0.1184000E+00
        -11   -1    0    0    0    0  0.00000000000E+00  0.00000000000E+00  0.45593999997E+02  0.45594000000E+02  0.51100000000E-03 0. -1.
         11   -1    0    0    0    0 -0.00000000000E+00 -0.00000000000E+00 -0.45593999997E+02  0.45594000000E+02  0.51100000000E-03 0.  1.
         23    2    1    2    0    0  0.17763568394E-14  0.00000000000E+00  0.00000000000E+00  0.91188000000E+02  0.91188000000E+02 0.  0.
    9900012    2    3    3    0    0  0.11915188906E+02 -0.39905581013E+02  0.17166432312E+02  0.46142317399E+02  0.99999966990E+01 0.  0.
        -12    1    3    3    0    0 -0.11915188906E+02  0.39905581013E+02 -0.17166432312E+02  0.45045682601E+02  0.00000000000E+00 0.  1.
         11    1    4    4    0    0  0.10907353394E+02 -0.25372125160E+02  0.14265330715E+02  0.31083995140E+02  0.51100000000E-03 0. -1.
        -11    1    4    4    0    0  0.10156856317E+01 -0.10432132053E+02  0.31639186064E+01  0.10948578798E+02  0.51100000000E-03 0.  1.
        -12    1    4    4    0    0 -0.78501205002E-02 -0.41013238002E+01 -0.26281700947E+00  0.41097434615E+01  0.00000000000E+00 0.  1.
</event>
<event>
 8    1  0.7489580E-009  0.9118800E+02  0.7816164E-02  0.1184000E+00
        -11   -1    0    0    0    0  0.00000000000E+00  0.00000000000E+00  0.45593999997E+02  0.45594000000E+02  0.51100000000E-03 0. -1.
         11   -1    0    0    0    0 -0.00000000000E+00 -0.00000000000E+00 -0.45593999997E+02  0.45594000000E+02  0.51100000000E-03 0.  1.
         23    2    1    2    0    0  0.17763568394E-14  0.35527136788E-14 -0.71054273576E-14  0.91188000000E+02  0.91188000000E+02 0.  0.
    9900012    2    3    3    0    0 -0.10403961743E+02 -0.19394184585E+02  0.39303137986E+02  0.46142317952E+02  0.10000001739E+02 0.  0.
        -12    1    3    3    0    0  0.10403961743E+02  0.19394184585E+02 -0.39303137986E+02  0.45045682048E+02  0.00000000000E+00 0.  1.
         11    1    4    4    0    0 -0.71217962146E+01 -0.76859809770E+01  0.20166333021E+02  0.22726092332E+02  0.51100000000E-03 0. -1.
        -11    1    4    4    0    0 -0.37234627040E+01 -0.98649782527E+01  0.18705090828E+02  0.21472363484E+02  0.51100000000E-03 0.  1.
        -12    1    4    4    0    0  0.44129717555E+00 -0.18432253555E+01  0.43171413628E+00  0.19438621360E+01  0.00000000000E+00 0.  1.
</event>
<event>
 8    1  0.7489580E-009  0.9118800E+02  0.7816164E-02  0.1184000E+00
        -11   -1    0    0    0    0  0.00000000000E+00  0.00000000000E+00  0.45593999997E+02  0.45594000000E+02  0.51100000000E-03 0. -1.
         11   -1    0    0    0    0 -0.00000000000E+00 -0.00000000000E+00 -0.45593999997E+02  0.45594000000E+02  0.51100000000E-03 0.  1.
         23    2    1    2    0    0  0.44408920985E-15  0.00000000000E+00  0.00000000000E+00  0.91188000000E+02  0.91188000000E+02 0.  0.
    9900012    2    3    3    0    0 -0.20631599260E+01  0.10463058700E+02  0.43765068534E+02  0.46142318186E+02  0.10000003878E+02 0.  0.
        -12    1    3    3    0    0  0.20631599260E+01 -0.10463058700E+02 -0.43765068534E+02  0.45045681814E+02  0.00000000000E+00 0.  1.
         11    1    4    4    0    0 -0.16931522090E+01  0.99124881466E+01  0.25110909713E+02  0.27049620562E+02  0.51100000000E-03 0. -1.
        -11    1    4    4    0    0  0.15557409469E+00 -0.77336177289E-01 -0.17450040806E+00  0.24624141973E+00  0.51100000000E-03 0.  1.
         12    1    4    4    0    0 -0.52558181169E+00  0.62790673048E+00  0.18828659230E+02  0.18846456205E+02  0.00000000000E+00 0. -1.
</event>
<event>
 8    1  0.7489580E-009  0.9118800E+02  0.7816164E-02  0.1184000E+00
        -11   -1    0    0    0    0  0.00000000000E+00  0.00000000000E+00  0.45593999997E+02  0.45594000000E+02  0.51100000000E-03 0. -1.
         11   -1    0    0    0    0 -0.00000000000E+00 -0.00000000000E+00 -0.45593999997E+02  0.45594000000E+02  0.51100000000E-03 0.  1.
         23    2    1    2    0    0 -0.88817841970E-15  0.17763568394E-14  0.00000000000E+00  0.91188000000E+02  0.91188000000E+02 0.  0.
    9900012    2    3    3    0    0 -0.73045605477E+01  0.12149785390E+02  0.42756748504E+02  0.46142318382E+02  0.10000005660E+02 0.  0.
        -12    1    3    3    0    0  0.73045605477E+01 -0.12149785390E+02 -0.42756748504E+02  0.45045681618E+02  0.00000000000E+00 0.  1.
         11    1    4    4    0    0  0.13260454949E+01  0.40854476857E+01  0.17671013625E+02  0.18185543771E+02  0.51100000000E-03 0.  1.
        -11    1    4    4    0    0 -0.49134725375E+01  0.52037146734E+01  0.18782771154E+02  0.20100083364E+02  0.51100000000E-03 0. -1.
        -12    1    4    4    0    0 -0.37171335052E+01  0.28606230311E+01  0.63029637249E+01  0.78566912463E+01  0.00000000000E+00 0.  1.
</event>
<event>
 8    1  0.7489580E-009  0.9118800E+02  0.7816164E-02  0.1184000E+00
        -11   -1    0    0    0    0  0.00000000000E+00  0.00000000000E+00  0.45593999997E+02  0.45594000000E+02  0.51100000000E-03 0. -1.
         11   -1    0    0    0    0 -0.00000000000E+00 -0.00000000000E+00 -0.45593999997E+02  0.45594000000E+02  0.51100000000E-03 0.  1.
         23    2    1    2    0    0  0.17763568394E-14  0.00000000000E+00  0.35527136788E-14  0.91188000000E+02  0.91188000000E+02 0.  0.
    9900012    2    3    3    0    0 -0.87263622844E+01 -0.31461845237E+02  0.31034116781E+02  0.46142317534E+02  0.99999979263E+01 0.  0.
        -12    1    3    3    0    0  0.87263622844E+01  0.31461845237E+02 -0.31034116781E+02  0.45045682466E+02  0.00000000000E+00 0.  1.
         11    1    4    4    0    0 -0.14344278355E+01 -0.66762430566E+01  0.61339414237E+01  0.91790545382E+01  0.51100000000E-03 0. -1.
        -11    1    4    4    0    0 -0.89515210272E+01 -0.16207170798E+02  0.15701781523E+02  0.24276491864E+02  0.51100000000E-03 0.  1.
         12    1    4    4    0    0  0.16595865783E+01 -0.85784313830E+01  0.91983938342E+01  0.12686771131E+02  0.00000000000E+00 0. -1.
</event>
<event>
 8    1  0.7489580E-009  0.9118800E+02  0.7816164E-02  0.1184000E+00
        -11   -1    0    0    0    0  0.00000000000E+00  0.00000000000E+00  0.45593999997E+02  0.45594000000E+02  0.51100000000E-03 0. -1.
         11   -1    0    0    0    0 -0.00000000000E+00 -0.00000000000E+00 -0.45593999997E+02  0.45594000000E+02  0.51100000000E-03 0.  1.
         23    2    1    2    0    0  0.00000000000E+00  0.17763568394E-14  0.00000000000E+00  0.91188000000E+02  0.91188000000E+02 0.  0.
    9900012    2    3    3    0    0 -0.24968368572E+01 -0.12666195449E+02  0.43156074905E+02  0.46142317602E+02  0.99999985531E+01 0.  0.
        -12    1    3    3    0    0  0.24968368572E+01  0.12666195449E+02 -0.43156074905E+02  0.45045682398E+02  0.00000000000E+00 0.  1.
         11    1    4    4    0    0  0.19654702439E+01 -0.14562263224E+01  0.98853351762E+01  0.10183492534E+02  0.51100000000E-03 0. -1.
        -11    1    4    4    0    0 -0.26393804217E+01 -0.67066806348E+00  0.96968187309E+01  0.10071961995E+02  0.51100000000E-03 0.  1.
         12    1    4    4    0    0 -0.18229266794E+01 -0.10539301063E+02  0.23573920998E+02  0.25886863074E+02  0.00000000000E+00 0. -1.
</event>
<event>
 8    1  0.7489580E-009  0.9118800E+02  0.7816164E-02  0.1184000E+00
        -11   -1    0    0    0    0  0.00000000000E+00  0.00000000000E+00  0.45593999997E+02  0.45594000000E+02  0.51100000000E-03 0. -1.
         11   -1    0    0    0    0 -0.00000000000E+00 -0.00000000000E+00 -0.45593999997E+02  0.45594000000E+02  0.51100000000E-03 0.  1.
         23    2    1    2    0    0  0.00000000000E+00  0.71054273576E-14 -0.17763568394E-14  0.91188000000E+02  0.91188000000E+02 0.  0.
    9900012    2    3    3    0    0 -0.23797990543E+02 -0.34968820053E+02  0.15490344231E+02  0.46142317697E+02  0.99999994116E+01 0.  0.
        -12    1    3    3    0    0  0.23797990543E+02  0.34968820053E+02 -0.15490344231E+02  0.45045682303E+02  0.00000000000E+00 0.  1.
         11    1    4    4    0    0 -0.13834043754E+02 -0.14890193082E+02  0.61063657822E+01  0.21222307131E+02  0.51100000000E-03 0. -1.
        -11    1    4    4    0    0  0.79543987987E-01 -0.15809501870E+00  0.11129927424E+01  0.11269757702E+01  0.51100000000E-03 0.  1.
        -12    1    4    4    0    0 -0.10043490777E+02 -0.19920531952E+02  0.82709857060E+01  0.23793034796E+02  0.00000000000E+00 0.  1.
</event>
<event>
 8    1  0.7489580E-009  0.9118800E+02  0.7816164E-02  0.1184000E+00
        -11   -1    0    0    0    0  0.00000000000E+00  0.00000000000E+00  0.45593999997E+02  0.45594000000E+02  0.51100000000E-03 0. -1.
         11   -1    0    0    0    0 -0.00000000000E+00 -0.00000000000E+00 -0.45593999997E+02  0.45594000000E+02  0.51100000000E-03 0.  1.
         23    2    1    2    0    0 -0.35527136788E-14  0.00000000000E+00  0.00000000000E+00  0.91188000000E+02  0.91188000000E+02 0.  0.
    9900012    2    3    3    0    0  0.21248731490E+02  0.55465754949E+01 -0.39329891665E+02  0.46142317987E+02  0.10000002062E+02 0.  0.
         12    1    3    3    0    0 -0.21248731490E+02 -0.55465754949E+01  0.39329891665E+02  0.45045682013E+02  0.00000000000E+00 0. -1.
         11    1    4    4    0    0  0.25271695495E-01  0.19540414200E+01 -0.33531026159E+01  0.38810068209E+01  0.51100000000E-03 0. -1.
        -11    1    4    4    0    0  0.65522375537E+01  0.36546321700E+01 -0.12095415320E+02  0.14233313925E+02  0.51100000000E-03 0.  1.
        -12    1    4    4    0    0  0.14671222241E+02 -0.62098095050E-01 -0.23881373728E+02  0.28027997241E+02  0.00000000000E+00 0.  1.
</event>
<event>
 8    1  0.7489580E-009  0.9118800E+02  0.7816164E-02  0.1184000E+00
        -11   -1    0    0    0    0  0.00000000000E+00  0.00000000000E+00  0.45593999997E+02  0.45594000000E+02  0.51100000000E-03 0. -1.
         11   -1    0    0    0    0 -0.00000000000E+00 -0.00000000000E+00 -0.45593999997E+02  0.45594000000E+02  0.51100000000E-03 0.  1.
         23    2    1    2    0    0  0.00000000000E+00  0.00000000000E+00  0.71054273576E-14  0.91188000000E+02  0.91188000000E+02 0.  0.
    9900012    2    3    3    0    0  0.20486539056E+02 -0.18004897237E+02  0.35850224036E+02  0.46142321290E+02  0.10000032182E+02 0.  0.
        -12    1    3    3    0    0 -0.20486539056E+02  0.18004897237E+02 -0.35850224036E+02  0.45045678710E+02  0.00000000000E+00 0.  1.
         11    1    4    4    0    0  0.82376896049E+01 -0.58512676429E+01  0.17028437226E+02  0.19800619629E+02  0.51100000000E-03 0. -1.
        -11    1    4    4    0    0 -0.17405563464E+00 -0.21341462070E+01  0.84352930045E+00  0.23013946507E+01  0.51100000000E-03 0.  1.
        -12    1    4    4    0    0  0.12422905086E+02 -0.10019483387E+02  0.17978257509E+02  0.24040307011E+02  0.00000000000E+00 0.  1.
</event>
<event>
 8    1  0.7489580E-009  0.9118800E+02  0.7816164E-02  0.1184000E+00
        -11   -1    0    0    0    0  0.00000000000E+00  0.00000000000E+00  0.45593999997E+02  0.45594000000E+02  0.51100000000E-03 0. -1.
         11   -1    0    0    0    0 -0.00000000000E+00 -0.00000000000E+00 -0.45593999997E+02  0.45594000000E+02  0.51100000000E-03 0.  1.
         23    2    1    2    0    0  0.00000000000E+00  0.71054273576E-14  0.00000000000E+00  0.91188000000E+02  0.91188000000E+02 0.  0.
    9900012    2    3    3    0    0  0.30779671590E+02 -0.28453582369E+02 -0.16496023523E+02  0.46142319576E+02  0.10000016548E+02 0.  0.
         12    1    3    3    0    0 -0.30779671590E+02  0.28453582369E+02  0.16496023523E+02  0.45045680424E+02  0.00000000000E+00 0. -1.
         11    1    4    4    0    0  0.14628669271E+01 -0.20820217344E+01 -0.22501958842E+01  0.33967890613E+01  0.51100000000E-03 0. -1.
        -11    1    4    4    0    0  0.21242444342E+02 -0.20840647802E+02 -0.14165660695E+02  0.32958155070E+02  0.51100000000E-03 0.  1.
         12    1    4    4    0    0  0.80743603208E+01 -0.55309128323E+01 -0.80166943876E-01  0.97873754443E+01  0.00000000000E+00 0. -1.
</event>
<event>
 8    1  0.7489580E-009  0.9118800E+02  0.7816164E-02  0.1184000E+00
        -11   -1    0    0    0    0  0.00000000000E+00  0.00000000000E+00  0.45593999997E+02  0.45594000000E+02  0.51100000000E-03 0. -1.
         11   -1    0    0    0    0 -0.00000000000E+00 -0.00000000000E+00 -0.45593999997E+02  0.45594000000E+02  0.51100000000E-03 0.  1.
         23    2    1    2    0    0  0.00000000000E+00  0.00000000000E+00  0.00000000000E+00  0.91188000000E+02  0.91188000000E+02 0.  0.
    9900012    2    3    3    0    0  0.11372723611E+02 -0.26378385656E+02 -0.34698057234E+02  0.46142320429E+02  0.10000024330E+02 0.  0.
         12    1    3    3    0    0 -0.11372723611E+02  0.26378385656E+02  0.34698057234E+02  0.45045679571E+02  0.00000000000E+00 0. -1.
         11    1    4    4    0    0  0.21384844200E-01 -0.49747105984E+01 -0.10770505588E+02  0.11863894543E+02  0.51100000000E-03 0. -1.
        -11    1    4    4    0    0  0.37570493645E+01 -0.63486808003E+01 -0.49081856007E+01  0.88606689354E+01  0.51100000000E-03 0.  1.
         12    1    4    4    0    0  0.75942894026E+01 -0.15054994258E+02 -0.19019366045E+02  0.25417756950E+02  0.00000000000E+00 0. -1.
</event>
<event>
 8    1  0.7489580E-009  0.9118800E+02  0.7816164E-02  0.1184000E+00
        -11   -1    0    0    0    0  0.00000000000E+00  0.00000000000E+00  0.45593999997E+02  0.45594000000E+02  0.51100000000E-03 0.  1.
         11   -1    0    0    0    0 -0.00000000000E+00 -0.00000000000E+00 -0.45593999997E+02  0.45594000000E+02  0.51100000000E-03 0. -1.
         23    2    1    2    0    0  0.00000000000E+00  0.00000000000E+00  0.00000000000E+00  0.91188000000E+02  0.91188000000E+02 0.  0.
    9900012    2    3    3    0    0  0.36616705123E+02 -0.26010806702E+02 -0.34305037979E+01  0.46142317458E+02  0.99999972376E+01 0.  0.
        -12    1    3    3    0    0 -0.36616705123E+02  0.26010806702E+02  0.34305037979E+01  0.45045682542E+02  0.00000000000E+00 0.  1.
         11    1    4    4    0    0  0.23973834961E+02 -0.16519705574E+02 -0.26412721004E+01  0.29233914441E+02  0.51100000000E-03 0. -1.
        -11    1    4    4    0    0  0.79513898203E+01 -0.25553843023E+01  0.78340574626E+00  0.83885823494E+01  0.51100000000E-03 0.  1.
         12    1    4    4    0    0  0.46914803420E+01 -0.69357168252E+01 -0.15726374438E+01  0.85198206676E+01  0.00000000000E+00 0. -1.
</event>
<event>
 8    1  0.7489580E-009  0.9118800E+02  0.7816164E-02  0.1184000E+00
        -11   -1    0    0    0    0  0.00000000000E+00  0.00000000000E+00  0.45593999997E+02  0.45594000000E+02  0.51100000000E-03 0. -1.
         11   -1    0    0    0    0 -0.00000000000E+00 -0.00000000000E+00 -0.45593999997E+02  0.45594000000E+02  0.51100000000E-03 0.  1.
         23    2    1    2    0    0  0.00000000000E+00  0.00000000000E+00  0.71054273576E-14  0.91188000000E+02  0.91188000000E+02 0.  0.
    9900012    2    3    3    0    0 -0.19030780130E+02 -0.22227162470E+01  0.40767664464E+02  0.46142317346E+02  0.99999962190E+01 0.  0.
        -12    1    3    3    0    0  0.19030780130E+02  0.22227162470E+01 -0.40767664464E+02  0.45045682654E+02  0.00000000000E+00 0.  1.
         11    1    4    4    0    0 -0.56823476460E+01 -0.76511365051E+00  0.20018939280E+02  0.20823842196E+02  0.51100000000E-03 0. -1.
        -11    1    4    4    0    0 -0.17613083247E+01 -0.11684820206E+01  0.71219546553E+01  0.74289834850E+01  0.51100000000E-03 0.  1.
        -12    1    4    4    0    0 -0.11587124159E+02 -0.28912057592E+00  0.13626770529E+02  0.17889491665E+02  0.00000000000E+00 0.  1.
</event>
<event>
 8    1  0.7489580E-009  0.9118800E+02  0.7816164E-02  0.1184000E+00
        -11   -1    0    0    0    0  0.00000000000E+00  0.00000000000E+00  0.45593999997E+02  0.45594000000E+02  0.51100000000E-03 0. -1.
         11   -1    0    0    0    0 -0.00000000000E+00 -0.00000000000E+00 -0.45593999997E+02  0.45594000000E+02  0.51100000000E-03 0.  1.
         23    2    1    2    0    0  0.00000000000E+00  0.00000000000E+00  0.71054273576E-14  0.91188000000E+02  0.91188000000E+02 0.  0.
    9900012    2    3    3    0    0 -0.16084287085E+02 -0.10813359983E+02 -0.40663009215E+02  0.46142319147E+02  0.10000012634E+02 0.  0.
         12    1    3    3    0    0  0.16084287085E+02  0.10813359983E+02  0.40663009215E+02  0.45045680853E+02  0.00000000000E+00 0. -1.
         11    1    4    4    0    0 -0.10002186970E+02 -0.69305133067E+01 -0.16921791753E+02  0.20842811597E+02  0.51100000000E-03 0. -1.
        -11    1    4    4    0    0 -0.13520923542E+01 -0.69152205270E+00 -0.91959024435E+00  0.17753881159E+01  0.51100000000E-03 0.  1.
        -12    1    4    4    0    0 -0.47300077604E+01 -0.31913246232E+01 -0.22821627218E+02  0.23524119434E+02  0.00000000000E+00 0.  1.
</event>
<event>
 8    1  0.7489580E-009  0.9118800E+02  0.7816164E-02  0.1184000E+00
        -11   -1    0    0    0    0  0.00000000000E+00  0.00000000000E+00  0.45593999997E+02  0.45594000000E+02  0.51100000000E-03 0.  1.
         11   -1    0    0    0    0 -0.00000000000E+00 -0.00000000000E+00 -0.45593999997E+02  0.45594000000E+02  0.51100000000E-03 0. -1.
         23    2    1    2    0    0  0.00000000000E+00  0.00000000000E+00  0.00000000000E+00  0.91188000000E+02  0.91188000000E+02 0.  0.
    9900012    2    3    3    0    0  0.29258440727E+02  0.23136024974E+02  0.25254333595E+02  0.46142319067E+02  0.10000011911E+02 0.  0.
        -12    1    3    3    0    0 -0.29258440727E+02 -0.23136024974E+02 -0.25254333595E+02  0.45045680933E+02  0.00000000000E+00 0.  1.
         11    1    4    4    0    0  0.69227130303E+01  0.55982209610E+01  0.89989282320E+01  0.12658781269E+02  0.51100000000E-03 0. -1.
        -11    1    4    4    0    0  0.75924302514E+01  0.20034961734E+01  0.41204388481E+01  0.88677511580E+01  0.51100000000E-03 0.  1.
        -12    1    4    4    0    0  0.14743297445E+02  0.15534307839E+02  0.12134966515E+02  0.24615786640E+02  0.00000000000E+00 0.  1.
</event>
<event>
 8    1  0.7489580E-009  0.9118800E+02  0.7816164E-02  0.1184000E+00
        -11   -1    0    0    0    0  0.00000000000E+00  0.00000000000E+00  0.45593999997E+02  0.45594000000E+02  0.51100000000E-03 0. -1.
         11   -1    0    0    0    0 -0.00000000000E+00 -0.00000000000E+00 -0.45593999997E+02  0.45594000000E+02  0.51100000000E-03 0.  1.
         23    2    1    2    0    0  0.00000000000E+00  0.00000000000E+00 -0.71054273576E-14  0.91188000000E+02  0.91188000000E+02 0.  0.
    9900012    2    3    3    0    0 -0.87102372790E+01 -0.10036718495E+02  0.43040787615E+02  0.46142319295E+02  0.10000013991E+02 0.  0.
        -12    1    3    3    0    0  0.87102372790E+01  0.10036718495E+02 -0.43040787615E+02  0.45045680705E+02  0.00000000000E+00 0.  1.
         11    1    4    4    0    0 -0.12336165608E+01 -0.25578398411E+01  0.79788269165E+01  0.84691223687E+01  0.51100000000E-03 0. -1.
        -11    1    4    4    0    0 -0.54346288404E+01 -0.65770948434E+01  0.13328295996E+02  0.15825196417E+02  0.51100000000E-03 0.  1.
        -12    1    4    4    0    0 -0.20419918779E+01 -0.90178381000E+00  0.21733664703E+02  0.21848000510E+02  0.00000000000E+00 0.  1.
</event>
<event>
 8    1  0.7489580E-009  0.9118800E+02  0.7816164E-02  0.1184000E+00
        -11   -1    0    0    0    0  0.00000000000E+00  0.00000000000E+00  0.45593999997E+02  0.45594000000E+02  0.51100000000E-03 0. -1.
         11   -1    0    0    0    0 -0.00000000000E+00 -0.00000000000E+00 -0.45593999997E+02  0.45594000000E+02  0.51100000000E-03 0.  1.
         23    2    1    2    0    0  0.00000000000E+00  0.22204460493E-15  0.00000000000E+00  0.91188000000E+02  0.91188000000E+02 0.  0.
    9900012    2    3    3    0    0  0.28564022972E+01  0.11266157832E+01 -0.44940908405E+02  0.46142317128E+02  0.99999942233E+01 0.  0.
         12    1    3    3    0    0 -0.28564022972E+01 -0.11266157832E+01  0.44940908405E+02  0.45045682872E+02  0.00000000000E+00 0. -1.
         11    1    4    4    0    0  0.83136849351E+00 -0.35221867274E+01 -0.26285172411E+02  0.26533135169E+02  0.51100000000E-03 0. -1.
        -11    1    4    4    0    0 -0.37834726606E+00  0.25356752961E+01 -0.11304359953E+02  0.11591434340E+02  0.51100000000E-03 0.  1.
         12    1    4    4    0    0  0.24033810697E+01  0.21131272145E+01 -0.73513760403E+01  0.80177476187E+01  0.00000000000E+00 0. -1.
</event>
<event>
 8    1  0.7489580E-009  0.9118800E+02  0.7816164E-02  0.1184000E+00
        -11   -1    0    0    0    0  0.00000000000E+00  0.00000000000E+00  0.45593999997E+02  0.45594000000E+02  0.51100000000E-03 0. -1.
         11   -1    0    0    0    0 -0.00000000000E+00 -0.00000000000E+00 -0.45593999997E+02  0.45594000000E+02  0.51100000000E-03 0.  1.
         23    2    1    2    0    0 -0.35527136788E-14 -0.35527136788E-14  0.00000000000E+00  0.91188000000E+02  0.91188000000E+02 0.  0.
    9900012    2    3    3    0    0  0.27812636873E+02  0.29188349033E+02  0.20090075469E+02  0.46142316284E+02  0.99999865326E+01 0.  0.
        -12    1    3    3    0    0 -0.27812636873E+02 -0.29188349033E+02 -0.20090075469E+02  0.45045683716E+02  0.00000000000E+00 0.  1.
         11    1    4    4    0    0  0.13205557763E+01  0.45147101988E+01  0.11191570993E+01  0.48351823763E+01  0.51100000000E-03 0. -1.
        -11    1    4    4    0    0  0.64711591275E+01  0.28547759632E+01  0.39943044781E+01  0.81228144616E+01  0.51100000000E-03 0.  1.
         12    1    4    4    0    0  0.20020921969E+02  0.21818862871E+02  0.14976613891E+02  0.33184319446E+02  0.00000000000E+00 0. -1.
</event>
<event>
 8    1  0.7489580E-009  0.9118800E+02  0.7816164E-02  0.1184000E+00
        -11   -1    0    0    0    0  0.00000000000E+00  0.00000000000E+00  0.45593999997E+02  0.45594000000E+02  0.51100000000E-03 0.  1.
         11   -1    0    0    0    0 -0.00000000000E+00 -0.00000000000E+00 -0.45593999997E+02  0.45594000000E+02  0.51100000000E-03 0. -1.
         23    2    1    2    0    0  0.00000000000E+00  0.00000000000E+00  0.44408920985E-15  0.91188000000E+02  0.91188000000E+02 0.  0.
    9900012    2    3    3    0    0 -0.29911701647E+02 -0.33459936256E+02 -0.38517816477E+01  0.46142318170E+02  0.10000003727E+02 0.  0.
         12    1    3    3    0    0  0.29911701647E+02  0.33459936256E+02  0.38517816477E+01  0.45045681830E+02  0.00000000000E+00 0. -1.
         11    1    4    4    0    0 -0.96987701976E+01 -0.83681006527E+01 -0.50004556502E+01  0.13751211178E+02  0.51100000000E-03 0. -1.
        -11    1    4    4    0    0 -0.78185208392E+01 -0.80978477524E+01 -0.68831339626E+00  0.11277330443E+02  0.51100000000E-03 0.  1.
         12    1    4    4    0    0 -0.12394410610E+02 -0.16993987851E+02  0.18369873988E+01  0.21113776549E+02  0.00000000000E+00 0. -1.
</event>
<event>
 8    1  0.8965636E-009  0.9118800E+02  0.7816164E-02  0.1184000E+00
        -11   -1    0    0    0    0  0.00000000000E+00  0.00000000000E+00  0.45593999997E+02  0.45594000000E+02  0.51100000000E-03 0. -1.
         11   -1    0    0    0    0 -0.00000000000E+00 -0.00000000000E+00 -0.45593999997E+02  0.45594000000E+02  0.51100000000E-03 0.  1.
         23    2    1    2    0    0  0.00000000000E+00  0.00000000000E+00  0.00000000000E+00  0.91188000000E+02  0.91188000000E+02 0.  0.
    9900012    2    3    3    0    0 -0.23709107914E+01  0.82619358623E+01  0.44218013228E+02  0.46142317676E+02  0.99999992283E+01 0.  0.
        -12    1    3    3    0    0  0.23709107914E+01 -0.82619358623E+01 -0.44218013228E+02  0.45045682324E+02  0.00000000000E+00 0.  1.
         11    1    4    4    0    0 -0.14311686003E+01 -0.47430393894E+00  0.30523848406E+01  0.34044472775E+01  0.51100000000E-03 0. -1.
        -11    1    4    4    0    0 -0.29350161028E+00  0.28801085071E+01  0.31895314328E+01  0.43074678443E+01  0.51100000000E-03 0.  1.
         12    1    4    4    0    0 -0.64624058079E+00  0.58561312941E+01  0.37976096954E+02  0.38430402555E+02  0.00000000000E+00 0. -1.
</event>
<event>
 8    1  0.7489580E-009  0.9118800E+02  0.7816164E-02  0.1184000E+00
        -11   -1    0    0    0    0  0.00000000000E+00  0.00000000000E+00  0.45593999997E+02  0.45594000000E+02  0.51100000000E-03 0.  1.
         11   -1    0    0    0    0 -0.00000000000E+00 -0.00000000000E+00 -0.45593999997E+02  0.45594000000E+02  0.51100000000E-03 0. -1.
         23    2    1    2    0    0  0.00000000000E+00  0.00000000000E+00 -0.44408920985E-15  0.91188000000E+02  0.91188000000E+02 0.  0.
    9900012    2    3    3    0    0  0.20925269251E+02 -0.39811884475E+02 -0.25020863366E+01  0.46142317913E+02  0.10000001381E+02 0.  0.
        -12    1    3    3    0    0 -0.20925269251E+02  0.39811884475E+02  0.25020863366E+01  0.45045682087E+02  0.00000000000E+00 0.  1.
         11    1    4    4    0    0  0.11198435914E+02 -0.14362182165E+02 -0.15876471654E+01  0.18281079488E+02  0.51100000000E-03 0.  1.
        -11    1    4    4    0    0  0.83661642522E+01 -0.22481497798E+02  0.11204109175E+01  0.24013866170E+02  0.51100000000E-03 0. -1.
         12    1    4    4    0    0  0.13606690850E+01 -0.29682045120E+01 -0.20348500886E+01  0.38473722548E+01  0.00000000000E+00 0. -1.
</event>
<event>
 8    1  0.7489580E-009  0.9118800E+02  0.7816164E-02  0.1184000E+00
        -11   -1    0    0    0    0  0.00000000000E+00  0.00000000000E+00  0.45593999997E+02  0.45594000000E+02  0.51100000000E-03 0. -1.
         11   -1    0    0    0    0 -0.00000000000E+00 -0.00000000000E+00 -0.45593999997E+02  0.45594000000E+02  0.51100000000E-03 0.  1.
         23    2    1    2    0    0 -0.35527136788E-14  0.00000000000E+00  0.00000000000E+00  0.91188000000E+02  0.91188000000E+02 0.  0.
    9900012    2    3    3    0    0 -0.16500169620E+02  0.39149406012E+02  0.14972705408E+02  0.46142317678E+02  0.99999992456E+01 0.  0.
        -12    1    3    3    0    0  0.16500169620E+02 -0.39149406012E+02 -0.14972705408E+02  0.45045682322E+02  0.00000000000E+00 0.  1.
         11    1    4    4    0    0 -0.14762028849E+02  0.34213446835E+02  0.11643337043E+02  0.39039015585E+02  0.51100000000E-03 0. -1.
        -11    1    4    4    0    0 -0.65710108726E+00  0.32378080879E+01  0.10910968383E+00  0.33056146534E+01  0.51100000000E-03 0.  1.
        -12    1    4    4    0    0 -0.10810396843E+01  0.16981510891E+01  0.32202586812E+01  0.37976874404E+01  0.00000000000E+00 0.  1.
</event>
<event>
 8    1  0.7489580E-009  0.9118800E+02  0.7816164E-02  0.1184000E+00
        -11   -1    0    0    0    0  0.00000000000E+00  0.00000000000E+00  0.45593999997E+02  0.45594000000E+02  0.51100000000E-03 0. -1.
         11   -1    0    0    0    0 -0.00000000000E+00 -0.00000000000E+00 -0.45593999997E+02  0.45594000000E+02  0.51100000000E-03 0.  1.
         23    2    1    2    0    0  0.35527136788E-14  0.17763568394E-14  0.00000000000E+00  0.91188000000E+02  0.91188000000E+02 0.  0.
    9900012    2    3    3    0    0 -0.21550551093E+02 -0.11742035458E+02  0.37773162855E+02  0.46142317841E+02  0.10000000728E+02 0.  0.
        -12    1    3    3    0    0  0.21550551093E+02  0.11742035458E+02 -0.37773162855E+02  0.45045682159E+02  0.00000000000E+00 0.  1.
         11    1    4    4    0    0 -0.23312824621E+01 -0.19058787943E+01  0.34851835602E+01  0.46058394030E+01  0.51100000000E-03 0. -1.
        -11    1    4    4    0    0 -0.50419602948E+01 -0.51621369790E+01  0.53768246632E+01  0.89988480109E+01  0.51100000000E-03 0.  1.
        -12    1    4    4    0    0 -0.14177308336E+02 -0.46740196846E+01  0.28911154632E+02  0.32537630427E+02  0.00000000000E+00 0.  1.
</event>
<event>
 8    1  0.7489580E-009  0.9118800E+02  0.7816164E-02  0.1184000E+00
        -11   -1    0    0    0    0  0.00000000000E+00  0.00000000000E+00  0.45593999997E+02  0.45594000000E+02  0.51100000000E-03 0. -1.
         11   -1    0    0    0    0 -0.00000000000E+00 -0.00000000000E+00 -0.45593999997E+02  0.45594000000E+02  0.51100000000E-03 0.  1.
         23    2    1    2    0    0 -0.71054273576E-14  0.00000000000E+00  0.17763568394E-14  0.91188000000E+02  0.91188000000E+02 0.  0.
    9900012    2    3    3    0    0  0.41709090253E+02 -0.13775987218E+02 -0.99843685839E+01  0.46142315972E+02  0.99999836844E+01 0.  0.
         12    1    3    3    0    0 -0.41709090253E+02  0.13775987218E+02  0.99843685839E+01  0.45045684028E+02  0.00000000000E+00 0. -1.
         11    1    4    4    0    0  0.46286026621E+01 -0.42990770208E+01 -0.36544060718E+01  0.72979935484E+01  0.51100000000E-03 0. -1.
        -11    1    4    4    0    0  0.22117529184E+02 -0.58554680220E+01 -0.47610248290E+01  0.23369616186E+02  0.51100000000E-03 0.  1.
         12    1    4    4    0    0  0.14962958406E+02 -0.36214421757E+01 -0.15689376832E+01  0.15474706238E+02  0.00000000000E+00 0. -1.
</event>
<event>
 8    1  0.7489580E-009  0.9118800E+02  0.7816164E-02  0.1184000E+00
        -11   -1    0    0    0    0  0.00000000000E+00  0.00000000000E+00  0.45593999997E+02  0.45594000000E+02  0.51100000000E-03 0. -1.
         11   -1    0    0    0    0 -0.00000000000E+00 -0.00000000000E+00 -0.45593999997E+02  0.45594000000E+02  0.51100000000E-03 0.  1.
         23    2    1    2    0    0  0.88817841970E-15  0.00000000000E+00  0.44408920985E-15  0.91188000000E+02  0.91188000000E+02 0.  0.
    9900012    2    3    3    0    0 -0.71937390747E+01 -0.44412566408E+02 -0.22107971664E+01  0.46142316956E+02  0.99999926583E+01 0.  0.
         12    1    3    3    0    0  0.71937390747E+01  0.44412566408E+02  0.22107971664E+01  0.45045683044E+02  0.00000000000E+00 0. -1.
         11    1    4    4    0    0 -0.49426519377E+00 -0.75427402229E+00 -0.11759704796E+01  0.14819359678E+01  0.51100000000E-03 0. -1.
        -11    1    4    4    0    0 -0.55788358660E+01 -0.15992585786E+02 -0.10775075493E+01  0.16971954293E+02  0.51100000000E-03 0.  1.
         12    1    4    4    0    0 -0.11206380149E+01 -0.27665706599E+02  0.42680862594E-01  0.27688426695E+02  0.00000000000E+00 0. -1.
</event>
<event>
 8    1  0.7489580E-009  0.9118800E+02  0.7816164E-02  0.1184000E+00
        -11   -1    0    0    0    0  0.00000000000E+00  0.00000000000E+00  0.45593999997E+02  0.45594000000E+02  0.51100000000E-03 0. -1.
         11   -1    0    0    0    0 -0.00000000000E+00 -0.00000000000E+00 -0.45593999997E+02  0.45594000000E+02  0.51100000000E-03 0.  1.
         23    2    1    2    0    0  0.00000000000E+00  0.35527136788E-14  0.71054273576E-14  0.91188000000E+02  0.91188000000E+02 0.  0.
    9900012    2    3    3    0    0 -0.64500940891E+01  0.17422947417E+02  0.41035969109E+02  0.46142316842E+02  0.99999916195E+01 0.  0.
        -12    1    3    3    0    0  0.64500940891E+01 -0.17422947417E+02 -0.41035969109E+02  0.45045683158E+02  0.00000000000E+00 0.  1.
         11    1    4    4    0    0 -0.14861554451E+01  0.70568044397E+01  0.21193978067E+02  0.22387314566E+02  0.51100000000E-03 0. -1.
        -11    1    4    4    0    0 -0.53621865948E+01  0.46325950219E+01  0.13116615777E+02  0.14908373199E+02  0.51100000000E-03 0.  1.
         12    1    4    4    0    0  0.39824795080E+00  0.57335479557E+01  0.67253752647E+01  0.88466290779E+01  0.00000000000E+00 0. -1.
</event>
<event>
 8    1  0.7489580E-009  0.9118800E+02  0.7816164E-02  0.1184000E+00
        -11   -1    0    0    0    0  0.00000000000E+00  0.00000000000E+00  0.45593999997E+02  0.45594000000E+02  0.51100000000E-03 0. -1.
         11   -1    0    0    0    0 -0.00000000000E+00 -0.00000000000E+00 -0.45593999997E+02  0.45594000000E+02  0.51100000000E-03 0.  1.
         23    2    1    2    0    0  0.35527136788E-14  0.00000000000E+00  0.71054273576E-14  0.91188000000E+02  0.91188000000E+02 0.  0.
    9900012    2    3    3    0    0 -0.27964597363E+02  0.52353405766E+01  0.34924003237E+02  0.46142317646E+02  0.99999989496E+01 0.  0.
        -12    1    3    3    0    0  0.27964597363E+02 -0.52353405766E+01 -0.34924003237E+02  0.45045682354E+02  0.00000000000E+00 0.  1.
         11    1    4    4    0    0 -0.16723930641E+00  0.55100620742E+00  0.42726221928E+01  0.43112501075E+01  0.51100000000E-03 0. -1.
        -11    1    4    4    0    0 -0.17947406761E+02  0.41685468562E+01  0.17680930409E+02  0.25536277973E+02  0.51100000000E-03 0.  1.
         12    1    4    4    0    0 -0.98499512959E+01  0.51578751297E+00  0.12970450636E+02  0.16294789566E+02  0.00000000000E+00 0. -1.
</event>
<event>
 8    1  0.7489580E-009  0.9118800E+02  0.7816164E-02  0.1184000E+00
        -11   -1    0    0    0    0  0.00000000000E+00  0.00000000000E+00  0.45593999997E+02  0.45594000000E+02  0.51100000000E-03 0. -1.
         11   -1    0    0    0    0 -0.00000000000E+00 -0.00000000000E+00 -0.45593999997E+02  0.45594000000E+02  0.51100000000E-03 0.  1.
         23    2    1    2    0    0  0.00000000000E+00  0.00000000000E+00  0.00000000000E+00  0.91188000000E+02  0.91188000000E+02 0.  0.
    9900012    2    3    3    0    0 -0.40611541547E+01 -0.16173003152E+02  0.41845602255E+02  0.46142318386E+02  0.10000005699E+02 0.  0.
        -12    1    3    3    0    0  0.40611541547E+01  0.16173003152E+02 -0.41845602255E+02  0.45045681614E+02  0.00000000000E+00 0.  1.
         11    1    4    4    0    0 -0.11332216877E+01 -0.12433416771E+02  0.30405862614E+02  0.32869294570E+02  0.51100000000E-03 0. -1.
        -11    1    4    4    0    0 -0.35685470644E+01 -0.12089782503E+01  0.87404174707E+01  0.95179333043E+01  0.51100000000E-03 0.  1.
         12    1    4    4    0    0  0.64061459745E+00 -0.25306081303E+01  0.26993221701E+01  0.37550905115E+01  0.00000000000E+00 0. -1.
</event>
<event>
 8    1  0.7489580E-009  0.9118800E+02  0.7816164E-02  0.1184000E+00
        -11   -1    0    0    0    0  0.00000000000E+00  0.00000000000E+00  0.45593999997E+02  0.45594000000E+02  0.51100000000E-03 0. -1.
         11   -1    0    0    0    0 -0.00000000000E+00 -0.00000000000E+00 -0.45593999997E+02  0.45594000000E+02  0.51100000000E-03 0.  1.
         23    2    1    2    0    0 -0.88817841970E-15 -0.35527136788E-14  0.00000000000E+00  0.91188000000E+02  0.91188000000E+02 0.  0.
    9900012    2    3    3    0    0 -0.32111897649E+01  0.24971532577E+02 -0.37352701885E+02  0.46142317443E+02  0.99999970986E+01 0.  0.
         12    1    3    3    0    0  0.32111897649E+01 -0.24971532577E+02  0.37352701885E+02  0.45045682557E+02  0.00000000000E+00 0. -1.
         11    1    4    4    0    0 -0.17588342675E+01  0.12662984246E+01 -0.29794041039E+01  0.36842718081E+01  0.51100000000E-03 0. -1.
        -11    1    4    4    0    0  0.15995944515E+01  0.76759231039E+00 -0.21632536867E+01  0.27977789652E+01  0.51100000000E-03 0.  1.
        -12    1    4    4    0    0 -0.30519499489E+01  0.22937641842E+02 -0.32210044094E+02  0.39660266670E+02  0.00000000000E+00 0.  1.
</event>
<event>
 8    1  0.7489580E-009  0.9118800E+02  0.7816164E-02  0.1184000E+00
        -11   -1    0    0    0    0  0.00000000000E+00  0.00000000000E+00  0.45593999997E+02  0.45594000000E+02  0.51100000000E-03 0. -1.
         11   -1    0    0    0    0 -0.00000000000E+00 -0.00000000000E+00 -0.45593999997E+02  0.45594000000E+02  0.51100000000E-03 0.  1.
         23    2    1    2    0    0 -0.35527136788E-14 -0.35527136788E-14 -0.71054273576E-14  0.91188000000E+02  0.91188000000E+02 0.  0.
    9900012    2    3    3    0    0  0.17892657135E+02  0.19012579903E+02  0.36708147443E+02  0.46142318047E+02  0.10000002603E+02 0.  0.
        -12    1    3    3    0    0 -0.17892657135E+02 -0.19012579903E+02 -0.36708147443E+02  0.45045681953E+02  0.00000000000E+00 0.  1.
         11    1    4    4    0    0  0.49664260526E+01  0.24108819839E+01  0.32031072367E+01  0.63826041635E+01  0.51100000000E-03 0. -1.
        -11    1    4    4    0    0  0.84907899913E+01  0.81261514938E+01  0.20247579630E+02  0.23411371893E+02  0.51100000000E-03 0.  1.
         12    1    4    4    0    0  0.44354410913E+01  0.84755464254E+01  0.13257460576E+02  0.16348341990E+02  0.00000000000E+00 0. -1.
</event>
<event>
 8    1  0.7489580E-009  0.9118800E+02  0.7816164E-02  0.1184000E+00
        -11   -1    0    0    0    0  0.00000000000E+00  0.00000000000E+00  0.45593999997E+02  0.45594000000E+02  0.51100000000E-03 0. -1.
         11   -1    0    0    0    0 -0.00000000000E+00 -0.00000000000E+00 -0.45593999997E+02  0.45594000000E+02  0.51100000000E-03 0.  1.
         23    2    1    2    0    0  0.00000000000E+00  0.00000000000E+00 -0.35527136788E-14  0.91188000000E+02  0.91188000000E+02 0.  0.
    9900012    2    3    3    0    0  0.29756630146E+02 -0.14048594150E+02  0.30761883699E+02  0.46142317366E+02  0.99999964011E+01 0.  0.
        -12    1    3    3    0    0 -0.29756630146E+02  0.14048594150E+02 -0.30761883699E+02  0.45045682634E+02  0.00000000000E+00 0.  1.
         11    1    4    4    0    0  0.61444102667E+01 -0.48358057059E+01  0.11091213048E+02  0.13570327980E+02  0.51100000000E-03 0. -1.
        -11    1    4    4    0    0  0.12155139458E+02 -0.57087173309E+01  0.13706323602E+02  0.19188542825E+02  0.51100000000E-03 0.  1.
         12    1    4    4    0    0  0.11457080421E+02 -0.35040711131E+01  0.59643470491E+01  0.13383446561E+02  0.00000000000E+00 0. -1.
</event>
<event>
 8    1  0.7489580E-009  0.9118800E+02  0.7816164E-02  0.1184000E+00
        -11   -1    0    0    0    0  0.00000000000E+00  0.00000000000E+00  0.45593999997E+02  0.45594000000E+02  0.51100000000E-03 0. -1.
         11   -1    0    0    0    0 -0.00000000000E+00 -0.00000000000E+00 -0.45593999997E+02  0.45594000000E+02  0.51100000000E-03 0.  1.
         23    2    1    2    0    0  0.00000000000E+00  0.71054273576E-14  0.35527136788E-14  0.91188000000E+02  0.91188000000E+02 0.  0.
    9900012    2    3    3    0    0 -0.10737177308E+02 -0.34987401894E+02  0.26262303916E+02  0.46142313472E+02  0.99999608849E+01 0.  0.
        -12    1    3    3    0    0  0.10737177308E+02  0.34987401894E+02 -0.26262303916E+02  0.45045686528E+02  0.00000000000E+00 0.  1.
         11    1    4    4    0    0 -0.46639684730E+01 -0.90828969235E+01  0.27416595497E+01  0.10572053527E+02  0.51100000000E-03 0. -1.
        -11    1    4    4    0    0 -0.59574687864E+00 -0.55600846659E+01  0.43442032124E+01  0.70810703744E+01  0.51100000000E-03 0.  1.
        -12    1    4    4    0    0 -0.54774619563E+01 -0.20344420305E+02  0.19176441154E+02  0.28489189570E+02  0.00000000000E+00 0.  1.
</event>
<event>
 8    1  0.7489580E-009  0.9118800E+02  0.7816164E-02  0.1184000E+00
        -11   -1    0    0    0    0  0.00000000000E+00  0.00000000000E+00  0.45593999997E+02  0.45594000000E+02  0.51100000000E-03 0. -1.
         11   -1    0    0    0    0 -0.00000000000E+00 -0.00000000000E+00 -0.45593999997E+02  0.45594000000E+02  0.51100000000E-03 0.  1.
         23    2    1    2    0    0  0.00000000000E+00  0.44408920985E-15  0.00000000000E+00  0.91188000000E+02  0.91188000000E+02 0.  0.
    9900012    2    3    3    0    0 -0.26122070113E+02  0.88973970265E+00 -0.36687318316E+02  0.46142317533E+02  0.99999979190E+01 0.  0.
         12    1    3    3    0    0  0.26122070113E+02 -0.88973970265E+00  0.36687318316E+02  0.45045682467E+02  0.00000000000E+00 0. -1.
         11    1    4    4    0    0 -0.87530729381E+01 -0.23771235218E+01 -0.14724416733E+02  0.17293798036E+02  0.51100000000E-03 0.  1.
        -11    1    4    4    0    0 -0.20495530632E+01  0.23912362527E+01 -0.55403682585E+01  0.63729396103E+01  0.51100000000E-03 0. -1.
        -12    1    4    4    0    0 -0.15319444112E+02  0.87562697172E+00 -0.16422533324E+02  0.22475579887E+02  0.00000000000E+00 0.  1.
</event>
<event>
 8    1  0.7489580E-009  0.9118800E+02  0.7816164E-02  0.1184000E+00
        -11   -1    0    0    0    0  0.00000000000E+00  0.00000000000E+00  0.45593999997E+02  0.45594000000E+02  0.51100000000E-03 0.  1.
         11   -1    0    0    0    0 -0.00000000000E+00 -0.00000000000E+00 -0.45593999997E+02  0.45594000000E+02  0.51100000000E-03 0. -1.
         23    2    1    2    0    0  0.00000000000E+00  0.71054273576E-14 -0.44408920985E-15  0.91188000000E+02  0.91188000000E+02 0.  0.
    9900012    2    3    3    0    0  0.49145461312E+01 -0.44624561489E+02  0.36890704759E+01  0.46142317712E+02  0.99999995553E+01 0.  0.
        -12    1    3    3    0    0 -0.49145461312E+01  0.44624561489E+02 -0.36890704759E+01  0.45045682288E+02  0.00000000000E+00 0.  1.
         11    1    4    4    0    0 -0.80065639445E+00 -0.17898681398E+02  0.30040035363E+01  0.18166669589E+02  0.51100000000E-03 0. -1.
        -11    1    4    4    0    0  0.44921672518E+01 -0.23125029512E+02  0.26310714922E+01  0.23703778053E+02  0.51100000000E-03 0.  1.
        -12    1    4    4    0    0  0.12230352739E+01 -0.36008505797E+01 -0.19460045527E+01  0.42718700703E+01  0.00000000000E+00 0.  1.
</event>
<event>
 8    1  0.7489580E-009  0.9118800E+02  0.7816164E-02  0.1184000E+00
        -11   -1    0    0    0    0  0.00000000000E+00  0.00000000000E+00  0.45593999997E+02  0.45594000000E+02  0.51100000000E-03 0. -1.
         11   -1    0    0    0    0 -0.00000000000E+00 -0.00000000000E+00 -0.45593999997E+02  0.45594000000E+02  0.51100000000E-03 0.  1.
         23    2    1    2    0    0  0.00000000000E+00  0.00000000000E+00  0.00000000000E+00  0.91188000000E+02  0.91188000000E+02 0.  0.
    9900012    2    3    3    0    0  0.17098156837E+02  0.40457196848E+02  0.99990794292E+01  0.46142319481E+02  0.10000015684E+02 0.  0.
        -12    1    3    3    0    0 -0.17098156837E+02 -0.40457196848E+02 -0.99990794292E+01  0.45045680519E+02  0.00000000000E+00 0.  1.
         11    1    4    4    0    0  0.44532956208E+01  0.85047221524E+01  0.21017764863E+01  0.98274923269E+01  0.51100000000E-03 0. -1.
        -11    1    4    4    0    0  0.11618860161E+02  0.25100782619E+02  0.29810693991E+01  0.27819668843E+02  0.51100000000E-03 0.  1.
        -12    1    4    4    0    0  0.10260010554E+01  0.68516920766E+01  0.49162335437E+01  0.84951583113E+01  0.00000000000E+00 0.  1.
</event>
<event>
 8    1  0.7489580E-009  0.9118800E+02  0.7816164E-02  0.1184000E+00
        -11   -1    0    0    0    0  0.00000000000E+00  0.00000000000E+00  0.45593999997E+02  0.45594000000E+02  0.51100000000E-03 0.  1.
         11   -1    0    0    0    0 -0.00000000000E+00 -0.00000000000E+00 -0.45593999997E+02  0.45594000000E+02  0.51100000000E-03 0. -1.
         23    2    1    2    0    0  0.00000000000E+00  0.00000000000E+00  0.00000000000E+00  0.91188000000E+02  0.91188000000E+02 0.  0.
    9900012    2    3    3    0    0  0.44183364602E+02 -0.85789593616E+01 -0.18289977949E+01  0.46142317807E+02  0.10000000422E+02 0.  0.
         12    1    3    3    0    0 -0.44183364602E+02  0.85789593616E+01  0.18289977949E+01  0.45045682193E+02  0.00000000000E+00 0. -1.
         11    1    4    4    0    0  0.18798959477E+02 -0.61451346248E+00 -0.40966363626E+01  0.19249959324E+02  0.51100000000E-03 0. -1.
        -11    1    4    4    0    0  0.15606737889E+02 -0.37000378240E+01  0.28104881710E+00  0.16041805887E+02  0.51100000000E-03 0.  1.
         12    1    4    4    0    0  0.97776672360E+01 -0.42644080751E+01  0.19865897506E+01  0.10850552596E+02  0.00000000000E+00 0. -1.
</event>
<event>
 8    1  0.7489580E-009  0.9118800E+02  0.7816164E-02  0.1184000E+00
        -11   -1    0    0    0    0  0.00000000000E+00  0.00000000000E+00  0.45593999997E+02  0.45594000000E+02  0.51100000000E-03 0. -1.
         11   -1    0    0    0    0 -0.00000000000E+00 -0.00000000000E+00 -0.45593999997E+02  0.45594000000E+02  0.51100000000E-03 0.  1.
         23    2    1    2    0    0  0.00000000000E+00  0.00000000000E+00  0.00000000000E+00  0.91188000000E+02  0.91188000000E+02 0.  0.
    9900012    2    3    3    0    0 -0.25297290030E+02 -0.16071675694E+02 -0.33628294041E+02  0.46142314273E+02  0.99999681964E+01 0.  0.
         12    1    3    3    0    0  0.25297290030E+02  0.16071675694E+02  0.33628294041E+02  0.45045685727E+02  0.00000000000E+00 0. -1.
         11    1    4    4    0    0 -0.97373264551E+00  0.43273833622E+00 -0.47988104004E+00  0.11686333070E+01  0.51100000000E-03 0. -1.
        -11    1    4    4    0    0 -0.20145535739E+02 -0.12224437605E+02 -0.30199136988E+02  0.38304926054E+02  0.51100000000E-03 0.  1.
        -12    1    4    4    0    0 -0.41780216458E+01 -0.42799764261E+01 -0.29492760132E+01  0.66687549124E+01  0.00000000000E+00 0.  1.
</event>
<event>
 8    1  0.7489580E-009  0.9118800E+02  0.7816164E-02  0.1184000E+00
        -11   -1    0    0    0    0  0.00000000000E+00  0.00000000000E+00  0.45593999997E+02  0.45594000000E+02  0.51100000000E-03 0. -1.
         11   -1    0    0    0    0 -0.00000000000E+00 -0.00000000000E+00 -0.45593999997E+02  0.45594000000E+02  0.51100000000E-03 0.  1.
         23    2    1    2    0    0  0.44408920985E-15 -0.17763568394E-14  0.00000000000E+00  0.91188000000E+02  0.91188000000E+02 0.  0.
    9900012    2    3    3    0    0 -0.12876329617E+01 -0.14121243448E+02 -0.42755653957E+02  0.46142318071E+02  0.10000002829E+02 0.  0.
         12    1    3    3    0    0  0.12876329617E+01  0.14121243448E+02  0.42755653957E+02  0.45045681929E+02  0.00000000000E+00 0. -1.
         11    1    4    4    0    0  0.10710884309E+01 -0.95182245621E+01 -0.21484580147E+02  0.23522989044E+02  0.51100000000E-03 0. -1.
        -11    1    4    4    0    0 -0.42412239747E+01 -0.30643411709E+01 -0.15404636650E+02  0.16269019583E+02  0.51100000000E-03 0.  1.
        -12    1    4    4    0    0  0.18825025821E+01 -0.15386777150E+01 -0.58664371597E+01  0.63503094437E+01  0.00000000000E+00 0.  1.
</event>
<event>
 8    1  0.7489580E-009  0.9118800E+02  0.7816164E-02  0.1184000E+00
        -11   -1    0    0    0    0  0.00000000000E+00  0.00000000000E+00  0.45593999997E+02  0.45594000000E+02  0.51100000000E-03 0. -1.
         11   -1    0    0    0    0 -0.00000000000E+00 -0.00000000000E+00 -0.45593999997E+02  0.45594000000E+02  0.51100000000E-03 0.  1.
         23    2    1    2    0    0  0.17763568394E-14  0.00000000000E+00  0.00000000000E+00  0.91188000000E+02  0.91188000000E+02 0.  0.
    9900012    2    3    3    0    0  0.13058467668E+02 -0.36599571064E+02 -0.22782930773E+02  0.46142310811E+02  0.99999366194E+01 0.  0.
         12    1    3    3    0    0 -0.13058467668E+02  0.36599571064E+02  0.22782930773E+02  0.45045689189E+02  0.00000000000E+00 0. -1.
         11    1    4    4    0    0  0.94785512859E+01 -0.15375099157E+02 -0.95133662123E+01  0.20414228996E+02  0.51100000000E-03 0. -1.
        -11    1    4    4    0    0  0.45486107068E+01 -0.16253616004E+02 -0.91433485567E+01  0.19195591048E+02  0.51100000000E-03 0.  1.
         12    1    4    4    0    0 -0.96869432435E+00 -0.49708559031E+01 -0.41262160041E+01  0.65324907666E+01  0.00000000000E+00 0. -1.
</event>
<event>
 8    1  0.7489580E-009  0.9118800E+02  0.7816164E-02  0.1184000E+00
        -11   -1    0    0    0    0  0.00000000000E+00  0.00000000000E+00  0.45593999997E+02  0.45594000000E+02  0.51100000000E-03 0. -1.
         11   -1    0    0    0    0 -0.00000000000E+00 -0.00000000000E+00 -0.45593999997E+02  0.45594000000E+02  0.51100000000E-03 0.  1.
         23    2    1    2    0    0  0.00000000000E+00 -0.35527136788E-14  0.00000000000E+00  0.91188000000E+02  0.91188000000E+02 0.  0.
    9900012    2    3    3    0    0 -0.10059291138E+02 -0.30387860344E+02 -0.31693881015E+02  0.46142317763E+02  0.10000000015E+02 0.  0.
         12    1    3    3    0    0  0.10059291138E+02  0.30387860344E+02  0.31693881015E+02  0.45045682237E+02  0.00000000000E+00 0. -1.
         11    1    4    4    0    0 -0.50055805018E+00 -0.21030071875E+01 -0.37092827018E+01  0.42932477235E+01  0.51100000000E-03 0. -1.
        -11    1    4    4    0    0 -0.80237012070E+01 -0.12364767218E+02 -0.10168828880E+02  0.17907326168E+02  0.51100000000E-03 0.  1.
        -12    1    4    4    0    0 -0.15350318809E+01 -0.15920085938E+02 -0.17815769432E+02  0.23941743871E+02  0.00000000000E+00 0.  1.
</event>
<event>
 8    1  0.7489580E-009  0.9118800E+02  0.7816164E-02  0.1184000E+00
        -11   -1    0    0    0    0  0.00000000000E+00  0.00000000000E+00  0.45593999997E+02  0.45594000000E+02  0.51100000000E-03 0. -1.
         11   -1    0    0    0    0 -0.00000000000E+00 -0.00000000000E+00 -0.45593999997E+02  0.45594000000E+02  0.51100000000E-03 0.  1.
         23    2    1    2    0    0  0.00000000000E+00  0.17763568394E-14  0.00000000000E+00  0.91188000000E+02  0.91188000000E+02 0.  0.
    9900012    2    3    3    0    0 -0.27777642601E+02 -0.98620665168E+01  0.34062526399E+02  0.46142317752E+02  0.99999999208E+01 0.  0.
        -12    1    3    3    0    0  0.27777642601E+02  0.98620665168E+01 -0.34062526399E+02  0.45045682248E+02  0.00000000000E+00 0.  1.
         11    1    4    4    0    0 -0.90702700222E+01 -0.37476067583E+01  0.13125623839E+02  0.16388909546E+02  0.51100000000E-03 0. -1.
        -11    1    4    4    0    0  0.50427465858E-01  0.14708305332E+00  0.31557741905E+01  0.31596024048E+01  0.51100000000E-03 0.  1.
        -12    1    4    4    0    0 -0.18757800045E+02 -0.62615428118E+01  0.17781128370E+02  0.26593805801E+02  0.00000000000E+00 0.  1.
</event>
<event>
 8    1  0.7489580E-009  0.9118800E+02  0.7816164E-02  0.1184000E+00
        -11   -1    0    0    0    0  0.00000000000E+00  0.00000000000E+00  0.45593999997E+02  0.45594000000E+02  0.51100000000E-03 0. -1.
         11   -1    0    0    0    0 -0.00000000000E+00 -0.00000000000E+00 -0.45593999997E+02  0.45594000000E+02  0.51100000000E-03 0.  1.
         23    2    1    2    0    0  0.35527136788E-14  0.00000000000E+00  0.00000000000E+00  0.91188000000E+02  0.91188000000E+02 0.  0.
    9900012    2    3    3    0    0  0.24198534251E+02 -0.51057351104E+01  0.37649380791E+02  0.46142318022E+02  0.10000002380E+02 0.  0.
        -12    1    3    3    0    0 -0.24198534251E+02  0.51057351104E+01 -0.37649380791E+02  0.45045681978E+02  0.00000000000E+00 0.  1.
         11    1    4    4    0    0  0.85096607047E+01  0.96494920258E-01  0.14395921255E+02  0.16723222943E+02  0.51100000000E-03 0. -1.
        -11    1    4    4    0    0  0.81442320259E+01 -0.34361970144E+01  0.65367291598E+01  0.10993852536E+02  0.51100000000E-03 0.  1.
        -12    1    4    4    0    0  0.75446415209E+01 -0.17660330162E+01  0.16716730376E+02  0.18425242543E+02  0.00000000000E+00 0.  1.
</event>
<event>
 8    1  0.7489580E-009  0.9118800E+02  0.7816164E-02  0.1184000E+00
        -11   -1    0    0    0    0  0.00000000000E+00  0.00000000000E+00  0.45593999997E+02  0.45594000000E+02  0.51100000000E-03 0. -1.
         11   -1    0    0    0    0 -0.00000000000E+00 -0.00000000000E+00 -0.45593999997E+02  0.45594000000E+02  0.51100000000E-03 0.  1.
         23    2    1    2    0    0 -0.35527136788E-14  0.35527136788E-14  0.00000000000E+00  0.91188000000E+02  0.91188000000E+02 0.  0.
    9900012    2    3    3    0    0 -0.27141484453E+02  0.26158096912E+02  0.24661860931E+02  0.46142316556E+02  0.99999890128E+01 0.  0.
        -12    1    3    3    0    0  0.27141484453E+02 -0.26158096912E+02 -0.24661860931E+02  0.45045683444E+02  0.00000000000E+00 0.  1.
         11    1    4    4    0    0 -0.20027878071E+02  0.20684707656E+02  0.16029633971E+02  0.32953333615E+02  0.51100000000E-03 0. -1.
        -11    1    4    4    0    0 -0.66413502849E+00  0.28889512578E+01  0.19435955816E+01  0.35446690610E+01  0.51100000000E-03 0.  1.
         12    1    4    4    0    0 -0.64494713533E+01  0.25844379976E+01  0.66886313783E+01  0.96443138799E+01  0.00000000000E+00 0. -1.
</event>
<event>
 8    1  0.7489580E-009  0.9118800E+02  0.7816164E-02  0.1184000E+00
        -11   -1    0    0    0    0  0.00000000000E+00  0.00000000000E+00  0.45593999997E+02  0.45594000000E+02  0.51100000000E-03 0. -1.
         11   -1    0    0    0    0 -0.00000000000E+00 -0.00000000000E+00 -0.45593999997E+02  0.45594000000E+02  0.51100000000E-03 0.  1.
         23    2    1    2    0    0  0.00000000000E+00  0.00000000000E+00  0.71054273576E-14  0.91188000000E+02  0.91188000000E+02 0.  0.
    9900012    2    3    3    0    0 -0.24439586828E+02 -0.39964460413E+01  0.37627762849E+02  0.46142317384E+02  0.99999965645E+01 0.  0.
        -12    1    3    3    0    0  0.24439586828E+02  0.39964460413E+01 -0.37627762849E+02  0.45045682616E+02  0.00000000000E+00 0.  1.
         11    1    4    4    0    0 -0.97470265643E+01  0.14324892219E+00  0.14033372687E+02  0.17086854489E+02  0.51100000000E-03 0. -1.
        -11    1    4    4    0    0 -0.84299087439E+01  0.41342901089E+00  0.16594637962E+02  0.18617633962E+02  0.51100000000E-03 0.  1.
         12    1    4    4    0    0 -0.62626515196E+01 -0.45531239744E+01  0.69997521999E+01  0.10437828933E+02  0.00000000000E+00 0. -1.
</event>
<event>
 8    1  0.7489580E-009  0.9118800E+02  0.7816164E-02  0.1184000E+00
        -11   -1    0    0    0    0  0.00000000000E+00  0.00000000000E+00  0.45593999997E+02  0.45594000000E+02  0.51100000000E-03 0. -1.
         11   -1    0    0    0    0 -0.00000000000E+00 -0.00000000000E+00 -0.45593999997E+02  0.45594000000E+02  0.51100000000E-03 0.  1.
         23    2    1    2    0    0  0.35527136788E-14  0.00000000000E+00  0.00000000000E+00  0.91188000000E+02  0.91188000000E+02 0.  0.
    9900012    2    3    3    0    0 -0.11114920817E+02  0.84194644880E+01  0.42833218269E+02  0.46142318361E+02  0.10000005470E+02 0.  0.
        -12    1    3    3    0    0  0.11114920817E+02 -0.84194644880E+01 -0.42833218269E+02  0.45045681639E+02  0.00000000000E+00 0.  1.
         11    1    4    4    0    0 -0.12484416193E+01  0.14954279545E+01  0.96097717557E+01  0.98052345562E+01  0.51100000000E-03 0. -1.
        -11    1    4    4    0    0  0.62615134450E+00  0.33130003819E+01  0.52090234368E+01  0.62049949608E+01  0.51100000000E-03 0.  1.
        -12    1    4    4    0    0 -0.10492630542E+02  0.36110361517E+01  0.28014423077E+02  0.30132088844E+02  0.00000000000E+00 0.  1.
</event>
<event>
 8    1  0.7489580E-009  0.9118800E+02  0.7816164E-02  0.1184000E+00
        -11   -1    0    0    0    0  0.00000000000E+00  0.00000000000E+00  0.45593999997E+02  0.45594000000E+02  0.51100000000E-03 0. -1.
         11   -1    0    0    0    0 -0.00000000000E+00 -0.00000000000E+00 -0.45593999997E+02  0.45594000000E+02  0.51100000000E-03 0.  1.
         23    2    1    2    0    0  0.00000000000E+00  0.00000000000E+00  0.35527136788E-14  0.91188000000E+02  0.91188000000E+02 0.  0.
    9900012    2    3    3    0    0  0.14914250892E+02  0.36991053303E+02 -0.20936585500E+02  0.46142317448E+02  0.99999971444E+01 0.  0.
         12    1    3    3    0    0 -0.14914250892E+02 -0.36991053303E+02  0.20936585500E+02  0.45045682552E+02  0.00000000000E+00 0. -1.
         11    1    4    4    0    0  0.10735783465E+02  0.23400824218E+02 -0.10126185780E+02  0.27665777766E+02  0.51100000000E-03 0.  1.
        -11    1    4    4    0    0 -0.98266498761E+00  0.21631790349E+01 -0.24091604637E+01  0.33836412954E+01  0.51100000000E-03 0. -1.
         12    1    4    4    0    0  0.51611324146E+01  0.11427050050E+02 -0.84012392565E+01  0.15092898386E+02  0.00000000000E+00 0. -1.
</event>
<event>
 8    1  0.7489580E-009  0.9118800E+02  0.7816164E-02  0.1184000E+00
        -11   -1    0    0    0    0  0.00000000000E+00  0.00000000000E+00  0.45593999997E+02  0.45594000000E+02  0.51100000000E-03 0. -1.
         11   -1    0    0    0    0 -0.00000000000E+00 -0.00000000000E+00 -0.45593999997E+02  0.45594000000E+02  0.51100000000E-03 0.  1.
         23    2    1    2    0    0  0.00000000000E+00 -0.17763568394E-14  0.00000000000E+00  0.91188000000E+02  0.91188000000E+02 0.  0.
    9900012    2    3    3    0    0  0.37199097247E+02 -0.12453966590E+02  0.22141349459E+02  0.46142317902E+02  0.10000001281E+02 0.  0.
        -12    1    3    3    0    0 -0.37199097247E+02  0.12453966590E+02 -0.22141349459E+02  0.45045682098E+02  0.00000000000E+00 0.  1.
         11    1    4    4    0    0  0.87488592825E+01 -0.40487178209E+01  0.77015522111E+01  0.12338904387E+02  0.51100000000E-03 0. -1.
        -11    1    4    4    0    0  0.56446729199E+01 -0.47554839807E+01  0.46142017529E+01  0.87044711695E+01  0.51100000000E-03 0.  1.
        -12    1    4    4    0    0  0.22805565045E+02 -0.36497647885E+01  0.98255954951E+01  0.25098942346E+02  0.00000000000E+00 0.  1.
</event>
<event>
 8    1  0.7489580E-009  0.9118800E+02  0.7816164E-02  0.1184000E+00
        -11   -1    0    0    0    0  0.00000000000E+00  0.00000000000E+00  0.45593999997E+02  0.45594000000E+02  0.51100000000E-03 0. -1.
         11   -1    0    0    0    0 -0.00000000000E+00 -0.00000000000E+00 -0.45593999997E+02  0.45594000000E+02  0.51100000000E-03 0.  1.
         23    2    1    2    0    0  0.00000000000E+00 -0.35527136788E-14 -0.71054273576E-14  0.91188000000E+02  0.91188000000E+02 0.  0.
    9900012    2    3    3    0    0 -0.19300100125E+02  0.24606331489E+02  0.32421414414E+02  0.46142317335E+02  0.99999961118E+01 0.  0.
        -12    1    3    3    0    0  0.19300100125E+02 -0.24606331489E+02 -0.32421414414E+02  0.45045682665E+02  0.00000000000E+00 0.  1.
         11    1    4    4    0    0 -0.42670919491E+01  0.22920150603E+01  0.86807807290E+01  0.99406921823E+01  0.51100000000E-03 0. -1.
        -11    1    4    4    0    0 -0.33320183847E+01  0.23982242500E+01  0.49064296281E+01  0.63974118224E+01  0.51100000000E-03 0.  1.
        -12    1    4    4    0    0 -0.11700989791E+02  0.19916092178E+02  0.18834204057E+02  0.29804213330E+02  0.00000000000E+00 0.  1.
</event>
<event>
 8    1  0.7489580E-009  0.9118800E+02  0.7816164E-02  0.1184000E+00
        -11   -1    0    0    0    0  0.00000000000E+00  0.00000000000E+00  0.45593999997E+02  0.45594000000E+02  0.51100000000E-03 0. -1.
         11   -1    0    0    0    0 -0.00000000000E+00 -0.00000000000E+00 -0.45593999997E+02  0.45594000000E+02  0.51100000000E-03 0.  1.
         23    2    1    2    0    0 -0.88817841970E-15  0.71054273576E-14  0.00000000000E+00  0.91188000000E+02  0.91188000000E+02 0.  0.
    9900012    2    3    3    0    0 -0.77503234627E+01  0.41085702303E+02 -0.16763383519E+02  0.46142317915E+02  0.10000001400E+02 0.  0.
         12    1    3    3    0    0  0.77503234627E+01 -0.41085702303E+02  0.16763383519E+02  0.45045682085E+02  0.00000000000E+00 0. -1.
         11    1    4    4    0    0 -0.20151328024E+01  0.31430206248E+01 -0.16275328621E+01  0.40728616890E+01  0.51100000000E-03 0. -1.
        -11    1    4    4    0    0 -0.77150395951E+01  0.26093471108E+02 -0.97539101509E+01  0.28905532929E+02  0.51100000000E-03 0.  1.
         12    1    4    4    0    0  0.19798489348E+01  0.11849210571E+02 -0.53819405060E+01  0.13163923297E+02  0.00000000000E+00 0. -1.
</event>
<event>
 8    1  0.7489580E-009  0.9118800E+02  0.7816164E-02  0.1184000E+00
        -11   -1    0    0    0    0  0.00000000000E+00  0.00000000000E+00  0.45593999997E+02  0.45594000000E+02  0.51100000000E-03 0. -1.
         11   -1    0    0    0    0 -0.00000000000E+00 -0.00000000000E+00 -0.45593999997E+02  0.45594000000E+02  0.51100000000E-03 0.  1.
         23    2    1    2    0    0  0.00000000000E+00  0.00000000000E+00  0.00000000000E+00  0.91188000000E+02  0.91188000000E+02 0.  0.
    9900012    2    3    3    0    0  0.32132802474E+02 -0.33650180478E+01 -0.31389060684E+02  0.46142317944E+02  0.10000001669E+02 0.  0.
         12    1    3    3    0    0 -0.32132802474E+02  0.33650180478E+01  0.31389060684E+02  0.45045682056E+02  0.00000000000E+00 0. -1.
         11    1    4    4    0    0  0.15203879227E+02  0.57436199041E+00 -0.19558308875E+02  0.24779331742E+02  0.51100000000E-03 0. -1.
        -11    1    4    4    0    0  0.31955360802E+01 -0.15068882115E+01 -0.41159603889E+01  0.54243242073E+01  0.51100000000E-03 0.  1.
         12    1    4    4    0    0  0.13733387166E+02 -0.24324918266E+01 -0.77147914195E+01  0.15938661995E+02  0.00000000000E+00 0. -1.
</event>
<event>
 8    1  0.7489580E-009  0.9118800E+02  0.7816164E-02  0.1184000E+00
        -11   -1    0    0    0    0  0.00000000000E+00  0.00000000000E+00  0.45593999997E+02  0.45594000000E+02  0.51100000000E-03 0. -1.
         11   -1    0    0    0    0 -0.00000000000E+00 -0.00000000000E+00 -0.45593999997E+02  0.45594000000E+02  0.51100000000E-03 0.  1.
         23    2    1    2    0    0  0.00000000000E+00  0.00000000000E+00  0.00000000000E+00  0.91188000000E+02  0.91188000000E+02 0.  0.
    9900012    2    3    3    0    0  0.23681427821E+02 -0.11053773531E+02  0.36689474879E+02  0.46142317634E+02  0.99999988402E+01 0.  0.
        -12    1    3    3    0    0 -0.23681427821E+02  0.11053773531E+02 -0.36689474879E+02  0.45045682366E+02  0.00000000000E+00 0.  1.
         11    1    4    4    0    0  0.14559411745E+02 -0.30805458258E+01  0.25468981543E+02  0.29498055089E+02  0.51100000000E-03 0. -1.
        -11    1    4    4    0    0  0.31718151062E+01 -0.19667781094E+01  0.24634221323E+01  0.44718090369E+01  0.51100000000E-03 0.  1.
         12    1    4    4    0    0  0.59502009701E+01 -0.60064495961E+01  0.87570712034E+01  0.12172453508E+02  0.00000000000E+00 0. -1.
</event>
<event>
 8    1  0.7489580E-009  0.9118800E+02  0.7816164E-02  0.1184000E+00
        -11   -1    0    0    0    0  0.00000000000E+00  0.00000000000E+00  0.45593999997E+02  0.45594000000E+02  0.51100000000E-03 0. -1.
         11   -1    0    0    0    0 -0.00000000000E+00 -0.00000000000E+00 -0.45593999997E+02  0.45594000000E+02  0.51100000000E-03 0.  1.
         23    2    1    2    0    0  0.17763568394E-14  0.00000000000E+00 -0.71054273576E-14  0.91188000000E+02  0.91188000000E+02 0.  0.
    9900012    2    3    3    0    0  0.13688155980E+02 -0.18803006359E+02 -0.38577128352E+02  0.46142317697E+02  0.99999994166E+01 0.  0.
         12    1    3    3    0    0 -0.13688155980E+02  0.18803006359E+02  0.38577128352E+02  0.45045682303E+02  0.00000000000E+00 0. -1.
         11    1    4    4    0    0  0.12072882922E+01 -0.25209306427E+01 -0.71074029686E+01  0.76372647948E+01  0.51100000000E-03 0. -1.
        -11    1    4    4    0    0  0.13627342434E+02 -0.15561184525E+02 -0.28258749741E+02  0.35020163661E+02  0.51100000000E-03 0.  1.
        -12    1    4    4    0    0 -0.11464747462E+01 -0.72089119129E+00 -0.32109756421E+01  0.34848892418E+01  0.00000000000E+00 0.  1.
</event>
<event>
 8    1  0.7489580E-009  0.9118800E+02  0.7816164E-02  0.1184000E+00
        -11   -1    0    0    0    0  0.00000000000E+00  0.00000000000E+00  0.45593999997E+02  0.45594000000E+02  0.51100000000E-03 0. -1.
         11   -1    0    0    0    0 -0.00000000000E+00 -0.00000000000E+00 -0.45593999997E+02  0.45594000000E+02  0.51100000000E-03 0.  1.
         23    2    1    2    0    0  0.00000000000E+00  0.00000000000E+00  0.00000000000E+00  0.91188000000E+02  0.91188000000E+02 0.  0.
    9900012    2    3    3    0    0 -0.99874405774E+01 -0.26120003324E+02  0.35314444650E+02  0.46142317145E+02  0.99999943789E+01 0.  0.
        -12    1    3    3    0    0  0.99874405774E+01  0.26120003324E+02 -0.35314444650E+02  0.45045682855E+02  0.00000000000E+00 0.  1.
         11    1    4    4    0    0 -0.51491093573E+01 -0.13463647325E+02  0.19195408667E+02  0.24005141963E+02  0.51100000000E-03 0. -1.
        -11    1    4    4    0    0 -0.62710448593E+01 -0.89877997810E+01  0.13582905051E+02  0.17452846714E+02  0.51100000000E-03 0.  1.
        -12    1    4    4    0    0  0.14327136392E+01 -0.36685562177E+01  0.25361309322E+01  0.46843284684E+01  0.00000000000E+00 0.  1.
</event>
<event>
 8    1  0.7489580E-009  0.9118800E+02  0.7816164E-02  0.1184000E+00
        -11   -1    0    0    0    0  0.00000000000E+00  0.00000000000E+00  0.45593999997E+02  0.45594000000E+02  0.51100000000E-03 0. -1.
         11   -1    0    0    0    0 -0.00000000000E+00 -0.00000000000E+00 -0.45593999997E+02  0.45594000000E+02  0.51100000000E-03 0.  1.
         23    2    1    2    0    0 -0.17763568394E-14  0.35527136788E-14  0.00000000000E+00  0.91188000000E+02  0.91188000000E+02 0.  0.
    9900012    2    3    3    0    0  0.14355048008E+02  0.18810119727E+02 -0.38330476243E+02  0.46142318559E+02  0.10000007277E+02 0.  0.
         12    1    3    3    0    0 -0.14355048008E+02 -0.18810119727E+02  0.38330476243E+02  0.45045681441E+02  0.00000000000E+00 0. -1.
         11    1    4    4    0    0  0.23791403817E+01  0.95210419867E+00 -0.86191318585E+01  0.89920100988E+01  0.51100000000E-03 0. -1.
        -11    1    4    4    0    0  0.11493503921E+01  0.48222329730E+01 -0.99641679002E+01  0.11129221867E+02  0.51100000000E-03 0.  1.
        -12    1    4    4    0    0  0.10826557234E+02  0.13035782556E+02 -0.19747176484E+02  0.26021086593E+02  0.00000000000E+00 0.  1.
</event>
<event>
 8    1  0.7489580E-009  0.9118800E+02  0.7816164E-02  0.1184000E+00
        -11   -1    0    0    0    0  0.00000000000E+00  0.00000000000E+00  0.45593999997E+02  0.45594000000E+02  0.51100000000E-03 0. -1.
         11   -1    0    0    0    0 -0.00000000000E+00 -0.00000000000E+00 -0.45593999997E+02  0.45594000000E+02  0.51100000000E-03 0.  1.
         23    2    1    2    0    0  0.00000000000E+00  0.17763568394E-14  0.35527136788E-14  0.91188000000E+02  0.91188000000E+02 0.  0.
    9900012    2    3    3    0    0  0.39146381310E+02  0.10984641520E+02  0.19391027825E+02  0.46142317864E+02  0.10000000937E+02 0.  0.
        -12    1    3    3    0    0 -0.39146381310E+02 -0.10984641520E+02 -0.19391027825E+02  0.45045682136E+02  0.00000000000E+00 0.  1.
         11    1    4    4    0    0  0.95284905400E+01  0.24286308398E+01  0.58671117113E+01  0.11450475092E+02  0.51100000000E-03 0. -1.
        -11    1    4    4    0    0  0.15712973331E+02  0.85641046449E+00  0.91648235913E+01  0.18210572794E+02  0.51100000000E-03 0.  1.
        -12    1    4    4    0    0  0.13904917439E+02  0.76996002153E+01  0.43590925228E+01  0.16481269978E+02  0.00000000000E+00 0.  1.
</event>
<event>
 8    1  0.7489580E-009  0.9118800E+02  0.7816164E-02  0.1184000E+00
        -11   -1    0    0    0    0  0.00000000000E+00  0.00000000000E+00  0.45593999997E+02  0.45594000000E+02  0.51100000000E-03 0. -1.
         11   -1    0    0    0    0 -0.00000000000E+00 -0.00000000000E+00 -0.45593999997E+02  0.45594000000E+02  0.51100000000E-03 0.  1.
         23    2    1    2    0    0  0.00000000000E+00  0.00000000000E+00  0.00000000000E+00  0.91188000000E+02  0.91188000000E+02 0.  0.
    9900012    2    3    3    0    0  0.77961509544E+01  0.40921070961E+02  0.17140580802E+02  0.46142317315E+02  0.99999959359E+01 0.  0.
        -12    1    3    3    0    0 -0.77961509544E+01 -0.40921070961E+02 -0.17140580802E+02  0.45045682685E+02  0.00000000000E+00 0.  1.
         11    1    4    4    0    0  0.85746785314E+01  0.22105740384E+02  0.10898742657E+02  0.26095429899E+02  0.51100000000E-03 0. -1.
        -11    1    4    4    0    0  0.32564099301E+00  0.16603560693E+01 -0.16791478039E+00  0.17002999641E+01  0.51100000000E-03 0.  1.
        -12    1    4    4    0    0 -0.11041685700E+01  0.17154974508E+02  0.64097529253E+01  0.18346587453E+02  0.00000000000E+00 0.  1.
</event>
<event>
 8    1  0.7489580E-009  0.9118800E+02  0.7816164E-02  0.1184000E+00
        -11   -1    0    0    0    0  0.00000000000E+00  0.00000000000E+00  0.45593999997E+02  0.45594000000E+02  0.51100000000E-03 0. -1.
         11   -1    0    0    0    0 -0.00000000000E+00 -0.00000000000E+00 -0.45593999997E+02  0.45594000000E+02  0.51100000000E-03 0.  1.
         23    2    1    2    0    0  0.00000000000E+00 -0.71054273576E-14  0.00000000000E+00  0.91188000000E+02  0.91188000000E+02 0.  0.
    9900012    2    3    3    0    0  0.19583763826E+02  0.34281872040E+02 -0.21687389107E+02  0.46142318715E+02  0.10000008698E+02 0.  0.
         12    1    3    3    0    0 -0.19583763826E+02 -0.34281872040E+02  0.21687389107E+02  0.45045681285E+02  0.00000000000E+00 0. -1.
         11    1    4    4    0    0  0.86757513964E+01  0.70188661423E+01 -0.71304314433E+01  0.13242967834E+02  0.51100000000E-03 0. -1.
        -11    1    4    4    0    0  0.85161660959E+01  0.18382915602E+02 -0.91402519541E+01  0.22226130501E+02  0.51100000000E-03 0.  1.
         12    1    4    4    0    0  0.23918463336E+01  0.88800902957E+01 -0.54167057094E+01  0.10673220380E+02  0.00000000000E+00 0. -1.
</event>
<event>
 8    1  0.7489580E-009  0.9118800E+02  0.7816164E-02  0.1184000E+00
        -11   -1    0    0    0    0  0.00000000000E+00  0.00000000000E+00  0.45593999997E+02  0.45594000000E+02  0.51100000000E-03 0.  1.
         11   -1    0    0    0    0 -0.00000000000E+00 -0.00000000000E+00 -0.45593999997E+02  0.45594000000E+02  0.51100000000E-03 0. -1.
         23    2    1    2    0    0  0.00000000000E+00  0.00000000000E+00  0.00000000000E+00  0.91188000000E+02  0.91188000000E+02 0.  0.
    9900012    2    3    3    0    0  0.43565918305E+02  0.11138170050E+02  0.26580961042E+01  0.46142317135E+02  0.99999942928E+01 0.  0.
        -12    1    3    3    0    0 -0.43565918305E+02 -0.11138170050E+02 -0.26580961042E+01  0.45045682865E+02  0.00000000000E+00 0.  1.
         11    1    4    4    0    0  0.19890711433E+02  0.61881039696E+01  0.12001402452E+01  0.20865602530E+02  0.51100000000E-03 0. -1.
        -11    1    4    4    0    0  0.14932869641E+02  0.14161213273E+00  0.28486221923E+01  0.15202805609E+02  0.51100000000E-03 0.  1.
         12    1    4    4    0    0  0.87423372308E+01  0.48084539479E+01 -0.13906663333E+01  0.10073908997E+02  0.00000000000E+00 0. -1.
</event>
<event>
 8    1  0.7489580E-009  0.9118800E+02  0.7816164E-02  0.1184000E+00
        -11   -1    0    0    0    0  0.00000000000E+00  0.00000000000E+00  0.45593999997E+02  0.45594000000E+02  0.51100000000E-03 0.  1.
         11   -1    0    0    0    0 -0.00000000000E+00 -0.00000000000E+00 -0.45593999997E+02  0.45594000000E+02  0.51100000000E-03 0. -1.
         23    2    1    2    0    0  0.00000000000E+00  0.00000000000E+00 -0.35527136788E-14  0.91188000000E+02  0.91188000000E+02 0.  0.
    9900012    2    3    3    0    0  0.33605306994E+02 -0.21429441017E+02  0.20989899235E+02  0.46142317961E+02  0.10000001826E+02 0.  0.
        -12    1    3    3    0    0 -0.33605306994E+02  0.21429441017E+02 -0.20989899235E+02  0.45045682039E+02  0.00000000000E+00 0.  1.
         11    1    4    4    0    0  0.13873518120E+02 -0.90269981387E+01  0.90778575361E+01  0.18877730216E+02  0.51100000000E-03 0. -1.
        -11    1    4    4    0    0 -0.63756819712E+00 -0.89392946016E+00  0.83324564218E+00  0.13783691984E+01  0.51100000000E-03 0.  1.
        -12    1    4    4    0    0  0.20369357072E+02 -0.11508513418E+02  0.11078796056E+02  0.25886218547E+02  0.00000000000E+00 0.  1.
</event>
<event>
 8    1  0.7489580E-009  0.9118800E+02  0.7816164E-02  0.1184000E+00
        -11   -1    0    0    0    0  0.00000000000E+00  0.00000000000E+00  0.45593999997E+02  0.45594000000E+02  0.51100000000E-03 0. -1.
         11   -1    0    0    0    0 -0.00000000000E+00 -0.00000000000E+00 -0.45593999997E+02  0.45594000000E+02  0.51100000000E-03 0.  1.
         23    2    1    2    0    0  0.35527136788E-14  0.00000000000E+00  0.00000000000E+00  0.91188000000E+02  0.91188000000E+02 0.  0.
    9900012    2    3    3    0    0 -0.31292063036E+02 -0.23051785024E+02 -0.22771369869E+02  0.46142319990E+02  0.10000020328E+02 0.  0.
         12    1    3    3    0    0  0.31292063036E+02  0.23051785024E+02  0.22771369869E+02  0.45045680010E+02  0.00000000000E+00 0. -1.
         11    1    4    4    0    0 -0.35880842410E+01 -0.22887377006E+01  0.46584076400E+00  0.42813171642E+01  0.51100000000E-03 0. -1.
        -11    1    4    4    0    0 -0.80703513474E+01 -0.77040423318E+01 -0.88240764488E+01  0.14224878367E+02  0.51100000000E-03 0.  1.
         12    1    4    4    0    0 -0.19633627448E+02 -0.13059004991E+02 -0.14413134184E+02  0.27636124459E+02  0.00000000000E+00 0. -1.
</event>
<event>
 8    1  0.7489580E-009  0.9118800E+02  0.7816164E-02  0.1184000E+00
        -11   -1    0    0    0    0  0.00000000000E+00  0.00000000000E+00  0.45593999997E+02  0.45594000000E+02  0.51100000000E-03 0. -1.
         11   -1    0    0    0    0 -0.00000000000E+00 -0.00000000000E+00 -0.45593999997E+02  0.45594000000E+02  0.51100000000E-03 0.  1.
         23    2    1    2    0    0  0.88817841970E-15  0.00000000000E+00 -0.35527136788E-14  0.91188000000E+02  0.91188000000E+02 0.  0.
    9900012    2    3    3    0    0 -0.50915914125E+01  0.32525048274E+02 -0.30745906157E+02  0.46142314149E+02  0.99999670653E+01 0.  0.
         12    1    3    3    0    0  0.50915914125E+01 -0.32525048274E+02  0.30745906157E+02  0.45045685851E+02  0.00000000000E+00 0. -1.
         11    1    4    4    0    0 -0.30077065757E+00 -0.21097174836E+00 -0.98642744660E-01  0.38039810627E+00  0.51100000000E-03 0. -1.
        -11    1    4    4    0    0 -0.52790286806E+01  0.32394014853E+02 -0.28291317902E+02  0.43331732148E+02  0.51100000000E-03 0.  1.
         12    1    4    4    0    0  0.48820792564E+00  0.34200516972E+00 -0.23559455102E+01  0.24301838946E+01  0.00000000000E+00 0. -1.
</event>
<event>
 8    1  0.7489580E-009  0.9118800E+02  0.7816164E-02  0.1184000E+00
        -11   -1    0    0    0    0  0.00000000000E+00  0.00000000000E+00  0.45593999997E+02  0.45594000000E+02  0.51100000000E-03 0.  1.
         11   -1    0    0    0    0 -0.00000000000E+00 -0.00000000000E+00 -0.45593999997E+02  0.45594000000E+02  0.51100000000E-03 0. -1.
         23    2    1    2    0    0 -0.14210854715E-13  0.00000000000E+00  0.00000000000E+00  0.91188000000E+02  0.91188000000E+02 0.  0.
    9900012    2    3    3    0    0 -0.43706150559E+02  0.52826247599E+01 -0.95383236654E+01  0.46142319415E+02  0.10000015078E+02 0.  0.
         12    1    3    3    0    0  0.43706150559E+02 -0.52826247599E+01  0.95383236654E+01  0.45045680585E+02  0.00000000000E+00 0. -1.
         11    1    4    4    0    0 -0.11069913706E+01  0.16307470814E+01 -0.92067053354E+00  0.21754081067E+01  0.51100000000E-03 0. -1.
        -11    1    4    4    0    0 -0.73557024025E+01 -0.13372846462E+00 -0.35213629862E+01  0.81562392484E+01  0.51100000000E-03 0.  1.
        -12    1    4    4    0    0 -0.35243456786E+02  0.37856061431E+01 -0.50962901456E+01  0.35810672059E+02  0.00000000000E+00 0.  1.
</event>
<event>
 8    1  0.7489580E-009  0.9118800E+02  0.7816164E-02  0.1184000E+00
        -11   -1    0    0    0    0  0.00000000000E+00  0.00000000000E+00  0.45593999997E+02  0.45594000000E+02  0.51100000000E-03 0. -1.
         11   -1    0    0    0    0 -0.00000000000E+00 -0.00000000000E+00 -0.45593999997E+02  0.45594000000E+02  0.51100000000E-03 0.  1.
         23    2    1    2    0    0  0.35527136788E-14 -0.35527136788E-14  0.71054273576E-14  0.91188000000E+02  0.91188000000E+02 0.  0.
    9900012    2    3    3    0    0 -0.18471353385E+02  0.29370492218E+02 -0.28727982241E+02  0.46142315716E+02  0.99999813507E+01 0.  0.
         12    1    3    3    0    0  0.18471353385E+02 -0.29370492218E+02  0.28727982241E+02  0.45045684284E+02  0.00000000000E+00 0. -1.
         11    1    4    4    0    0 -0.26891525855E+01  0.13250604512E+01 -0.58077446431E+01  0.65358415623E+01  0.51100000000E-03 0. -1.
        -11    1    4    4    0    0 -0.37127138718E+01  0.66333424540E+01 -0.69069917651E+01  0.10270930431E+02  0.51100000000E-03 0.  1.
        -12    1    4    4    0    0 -0.12069486928E+02  0.21412089313E+02 -0.16013245832E+02  0.29335543723E+02  0.00000000000E+00 0.  1.
</event>
<event>
 8    1  0.7489580E-009  0.9118800E+02  0.7816164E-02  0.1184000E+00
        -11   -1    0    0    0    0  0.00000000000E+00  0.00000000000E+00  0.45593999997E+02  0.45594000000E+02  0.51100000000E-03 0. -1.
         11   -1    0    0    0    0 -0.00000000000E+00 -0.00000000000E+00 -0.45593999997E+02  0.45594000000E+02  0.51100000000E-03 0.  1.
         23    2    1    2    0    0  0.10658141036E-13  0.26645352591E-14  0.00000000000E+00  0.91188000000E+02  0.91188000000E+02 0.  0.
    9900012    2    3    3    0    0 -0.30763805439E+02 -0.62972617755E+01  0.32296241629E+02  0.46142307039E+02  0.99999022294E+01 0.  0.
        -12    1    3    3    0    0  0.30763805439E+02  0.62972617755E+01 -0.32296241629E+02  0.45045692961E+02  0.00000000000E+00 0.  1.
         11    1    4    4    0    0 -0.26887785439E+02 -0.47072636648E+01  0.29186298747E+02  0.39961873978E+02  0.51100000000E-03 0. -1.
        -11    1    4    4    0    0 -0.31170043087E+01 -0.73299430741E+00  0.36994719277E+01  0.48927588659E+01  0.51100000000E-03 0.  1.
        -12    1    4    4    0    0 -0.75901569163E+00 -0.85700380326E+00 -0.58952904552E+00  0.12876741958E+01  0.00000000000E+00 0.  1.
</event>
<event>
 8    1  0.7489580E-009  0.9118800E+02  0.7816164E-02  0.1184000E+00
        -11   -1    0    0    0    0  0.00000000000E+00  0.00000000000E+00  0.45593999997E+02  0.45594000000E+02  0.51100000000E-03 0. -1.
         11   -1    0    0    0    0 -0.00000000000E+00 -0.00000000000E+00 -0.45593999997E+02  0.45594000000E+02  0.51100000000E-03 0.  1.
         23    2    1    2    0    0  0.17763568394E-14  0.00000000000E+00  0.00000000000E+00  0.91188000000E+02  0.91188000000E+02 0.  0.
    9900012    2    3    3    0    0 -0.13716592691E+02 -0.21385716444E+02  0.37197039988E+02  0.46142316891E+02  0.99999920652E+01 0.  0.
        -12    1    3    3    0    0  0.13716592691E+02  0.21385716444E+02 -0.37197039988E+02  0.45045683109E+02  0.00000000000E+00 0.  1.
         11    1    4    4    0    0 -0.80187032187E+00 -0.98846659520E+00  0.37269693860E+00  0.13262599640E+01  0.51100000000E-03 0.  1.
        -11    1    4    4    0    0 -0.73328571380E+01 -0.17233765140E+02  0.30602082776E+02  0.35878418656E+02  0.51100000000E-03 0. -1.
         12    1    4    4    0    0 -0.55818652313E+01 -0.31634847088E+01  0.62222602729E+01  0.89376382712E+01  0.00000000000E+00 0. -1.
</event>
<event>
 8    1  0.7489580E-009  0.9118800E+02  0.7816164E-02  0.1184000E+00
        -11   -1    0    0    0    0  0.00000000000E+00  0.00000000000E+00  0.45593999997E+02  0.45594000000E+02  0.51100000000E-03 0. -1.
         11   -1    0    0    0    0 -0.00000000000E+00 -0.00000000000E+00 -0.45593999997E+02  0.45594000000E+02  0.51100000000E-03 0.  1.
         23    2    1    2    0    0  0.00000000000E+00  0.00000000000E+00  0.00000000000E+00  0.91188000000E+02  0.91188000000E+02 0.  0.
    9900012    2    3    3    0    0  0.28069366423E+02  0.27205968798E+02  0.22384354712E+02  0.46142318681E+02  0.10000008387E+02 0.  0.
        -12    1    3    3    0    0 -0.28069366423E+02 -0.27205968798E+02 -0.22384354712E+02  0.45045681319E+02  0.00000000000E+00 0.  1.
         11    1    4    4    0    0  0.12868538259E+02  0.88885075591E+01  0.73117380192E+01  0.17264598364E+02  0.51100000000E-03 0. -1.
        -11    1    4    4    0    0  0.18387648375E+01  0.44497600532E+00  0.28884183335E+01  0.34528278995E+01  0.51100000000E-03 0.  1.
        -12    1    4    4    0    0  0.13362063327E+02  0.17872485234E+02  0.12184198359E+02  0.25424892417E+02  0.00000000000E+00 0.  1.
</event>
<event>
 8    1  0.8252867E-009  0.9118800E+02  0.7816164E-02  0.1184000E+00
        -11   -1    0    0    0    0  0.00000000000E+00  0.00000000000E+00  0.45593999997E+02  0.45594000000E+02  0.51100000000E-03 0. -1.
         11   -1    0    0    0    0 -0.00000000000E+00 -0.00000000000E+00 -0.45593999997E+02  0.45594000000E+02  0.51100000000E-03 0.  1.
         23    2    1    2    0    0 -0.11102230246E-14  0.00000000000E+00  0.00000000000E+00  0.91188000000E+02  0.91188000000E+02 0.  0.
    9900012    2    3    3    0    0 -0.16231383182E+01  0.10013259250E+01 -0.45005291202E+02  0.46142317990E+02  0.10000002086E+02 0.  0.
         12    1    3    3    0    0  0.16231383182E+01 -0.10013259250E+01  0.45005291202E+02  0.45045682010E+02  0.00000000000E+00 0. -1.
         11    1    4    4    0    0  0.25103364809E+01  0.36173703141E+01 -0.15347057824E+02  0.15966193703E+02  0.51100000000E-03 0. -1.
        -11    1    4    4    0    0 -0.19237748066E+01  0.86067689719E-01 -0.14115768547E+02  0.14246516735E+02  0.51100000000E-03 0.  1.
         12    1    4    4    0    0 -0.22096999925E+01 -0.27021120788E+01 -0.15542464831E+02  0.15929607552E+02  0.00000000000E+00 0. -1.
</event>
<event>
 8    1  0.7489580E-009  0.9118800E+02  0.7816164E-02  0.1184000E+00
        -11   -1    0    0    0    0  0.00000000000E+00  0.00000000000E+00  0.45593999997E+02  0.45594000000E+02  0.51100000000E-03 0. -1.
         11   -1    0    0    0    0 -0.00000000000E+00 -0.00000000000E+00 -0.45593999997E+02  0.45594000000E+02  0.51100000000E-03 0.  1.
         23    2    1    2    0    0  0.00000000000E+00  0.00000000000E+00  0.35527136788E-14  0.91188000000E+02  0.91188000000E+02 0.  0.
    9900012    2    3    3    0    0  0.30704010781E+02 -0.82847829510E+01 -0.31902031465E+02  0.46142317430E+02  0.99999969831E+01 0.  0.
         12    1    3    3    0    0 -0.30704010781E+02  0.82847829510E+01  0.31902031465E+02  0.45045682570E+02  0.00000000000E+00 0. -1.
         11    1    4    4    0    0  0.12529885244E+01  0.85291759052E+00  0.28889469323E+00  0.15430194630E+01  0.51100000000E-03 0. -1.
        -11    1    4    4    0    0  0.21446122774E+01 -0.86999359041E+00 -0.19797662003E+01  0.30456075152E+01  0.51100000000E-03 0.  1.
         12    1    4    4    0    0  0.27306409979E+02 -0.82677069511E+01 -0.30211159958E+02  0.41553690452E+02  0.00000000000E+00 0. -1.
</event>
<event>
 8    1  0.7489580E-009  0.9118800E+02  0.7816164E-02  0.1184000E+00
        -11   -1    0    0    0    0  0.00000000000E+00  0.00000000000E+00  0.45593999997E+02  0.45594000000E+02  0.51100000000E-03 0. -1.
         11   -1    0    0    0    0 -0.00000000000E+00 -0.00000000000E+00 -0.45593999997E+02  0.45594000000E+02  0.51100000000E-03 0.  1.
         23    2    1    2    0    0  0.22204460493E-15  0.00000000000E+00  0.00000000000E+00  0.91188000000E+02  0.91188000000E+02 0.  0.
    9900012    2    3    3    0    0 -0.66531805930E+00  0.40725948286E+02 -0.19237150905E+02  0.46142317778E+02  0.10000000150E+02 0.  0.
         12    1    3    3    0    0  0.66531805930E+00 -0.40725948286E+02  0.19237150905E+02  0.45045682222E+02  0.00000000000E+00 0. -1.
         11    1    4    4    0    0  0.23937674483E+01  0.50726442194E+01 -0.14325406212E+01  0.57891290248E+01  0.51100000000E-03 0. -1.
        -11    1    4    4    0    0 -0.19598223197E+01  0.82788917634E+01 -0.20553179116E+01  0.87524444777E+01  0.51100000000E-03 0.  1.
        -12    1    4    4    0    0 -0.10992631879E+01  0.27374412304E+02 -0.15749292372E+02  0.31600744275E+02  0.00000000000E+00 0.  1.
</event>
<event>
 8    1  0.7489580E-009  0.9118800E+02  0.7816164E-02  0.1184000E+00
        -11   -1    0    0    0    0  0.00000000000E+00  0.00000000000E+00  0.45593999997E+02  0.45594000000E+02  0.51100000000E-03 0. -1.
         11   -1    0    0    0    0 -0.00000000000E+00 -0.00000000000E+00 -0.45593999997E+02  0.45594000000E+02  0.51100000000E-03 0.  1.
         23    2    1    2    0    0  0.00000000000E+00  0.00000000000E+00  0.71054273576E-14  0.91188000000E+02  0.91188000000E+02 0.  0.
    9900012    2    3    3    0    0 -0.25134387199E+02 -0.78011900102E+01 -0.36558409645E+02  0.46142319838E+02  0.10000018942E+02 0.  0.
         12    1    3    3    0    0  0.25134387199E+02  0.78011900102E+01  0.36558409645E+02  0.45045680162E+02  0.00000000000E+00 0. -1.
         11    1    4    4    0    0 -0.37546117024E+01  0.87575573798E+00 -0.82577788167E+01  0.91134498624E+01  0.51100000000E-03 0. -1.
        -11    1    4    4    0    0 -0.34126899975E-01  0.45698501862E+00 -0.49029389331E-01  0.46087318721E+00  0.51100000000E-03 0.  1.
        -12    1    4    4    0    0 -0.21345648597E+02 -0.91339307668E+01 -0.28251601439E+02  0.36567996789E+02  0.00000000000E+00 0.  1.
</event>
<event>
 8    1  0.7489580E-009  0.9118800E+02  0.7816164E-02  0.1184000E+00
        -11   -1    0    0    0    0  0.00000000000E+00  0.00000000000E+00  0.45593999997E+02  0.45594000000E+02  0.51100000000E-03 0. -1.
         11   -1    0    0    0    0 -0.00000000000E+00 -0.00000000000E+00 -0.45593999997E+02  0.45594000000E+02  0.51100000000E-03 0.  1.
         23    2    1    2    0    0  0.00000000000E+00  0.00000000000E+00  0.00000000000E+00  0.91188000000E+02  0.91188000000E+02 0.  0.
    9900012    2    3    3    0    0  0.11249425531E+02 -0.21562423750E+02  0.37916033768E+02  0.46142319747E+02  0.10000018110E+02 0.  0.
        -12    1    3    3    0    0 -0.11249425531E+02  0.21562423750E+02 -0.37916033768E+02  0.45045680253E+02  0.00000000000E+00 0.  1.
         11    1    4    4    0    0  0.56796392807E+01 -0.13735548236E+02  0.22153947788E+02  0.26678099456E+02  0.51100000000E-03 0. -1.
        -11    1    4    4    0    0 -0.13386687184E+01 -0.18447171171E+01  0.32948403179E+01  0.40063684505E+01  0.51100000000E-03 0.  1.
         12    1    4    4    0    0  0.69084549687E+01 -0.59821583966E+01  0.12467245662E+02  0.15457851841E+02  0.00000000000E+00 0. -1.
</event>
<event>
 8    1  0.7489580E-009  0.9118800E+02  0.7816164E-02  0.1184000E+00
        -11   -1    0    0    0    0  0.00000000000E+00  0.00000000000E+00  0.45593999997E+02  0.45594000000E+02  0.51100000000E-03 0. -1.
         11   -1    0    0    0    0 -0.00000000000E+00 -0.00000000000E+00 -0.45593999997E+02  0.45594000000E+02  0.51100000000E-03 0.  1.
         23    2    1    2    0    0  0.00000000000E+00  0.00000000000E+00  0.35527136788E-14  0.91188000000E+02  0.91188000000E+02 0.  0.
    9900012    2    3    3    0    0  0.30253750427E+02 -0.17401857670E+02  0.28478051437E+02  0.46142317866E+02  0.10000000955E+02 0.  0.
        -12    1    3    3    0    0 -0.30253750427E+02  0.17401857670E+02 -0.28478051437E+02  0.45045682134E+02  0.00000000000E+00 0.  1.
         11    1    4    4    0    0  0.13353742792E+02 -0.72837420606E+01  0.14838224062E+02  0.21249664434E+02  0.51100000000E-03 0. -1.
        -11    1    4    4    0    0  0.17315566810E+02 -0.94950864990E+01  0.12047040811E+02  0.23132589871E+02  0.51100000000E-03 0.  1.
        -12    1    4    4    0    0 -0.41555917510E+00 -0.62302911020E+00  0.15927865645E+01  0.17600635614E+01  0.00000000000E+00 0.  1.
</event>
<event>
 8    1  0.7489580E-009  0.9118800E+02  0.7816164E-02  0.1184000E+00
        -11   -1    0    0    0    0  0.00000000000E+00  0.00000000000E+00  0.45593999997E+02  0.45594000000E+02  0.51100000000E-03 0. -1.
         11   -1    0    0    0    0 -0.00000000000E+00 -0.00000000000E+00 -0.45593999997E+02  0.45594000000E+02  0.51100000000E-03 0.  1.
         23    2    1    2    0    0  0.35527136788E-14  0.00000000000E+00  0.71054273576E-14  0.91188000000E+02  0.91188000000E+02 0.  0.
    9900012    2    3    3    0    0  0.16316473665E+02 -0.96223786578E+01  0.40869254948E+02  0.46142317811E+02  0.10000000456E+02 0.  0.
        -12    1    3    3    0    0 -0.16316473665E+02  0.96223786578E+01 -0.40869254948E+02  0.45045682189E+02  0.00000000000E+00 0.  1.
         11    1    4    4    0    0  0.17255234791E+01 -0.38378526645E+00  0.92661383362E+01  0.94332413483E+01  0.51100000000E-03 0. -1.
        -11    1    4    4    0    0  0.64754341113E+01 -0.34985855450E+01  0.20627169276E+02  0.21900946562E+02  0.51100000000E-03 0.  1.
        -12    1    4    4    0    0  0.81155160745E+01 -0.57400078463E+01  0.10975947336E+02  0.14808129900E+02  0.00000000000E+00 0.  1.
</event>
<event>
 8    1  0.7489580E-009  0.9118800E+02  0.7816164E-02  0.1184000E+00
        -11   -1    0    0    0    0  0.00000000000E+00  0.00000000000E+00  0.45593999997E+02  0.45594000000E+02  0.51100000000E-03 0. -1.
         11   -1    0    0    0    0 -0.00000000000E+00 -0.00000000000E+00 -0.45593999997E+02  0.45594000000E+02  0.51100000000E-03 0.  1.
         23    2    1    2    0    0  0.71054273576E-14  0.00000000000E+00  0.44408920985E-15  0.91188000000E+02  0.91188000000E+02 0.  0.
    9900012    2    3    3    0    0 -0.36525068556E+02  0.26075580102E+02 -0.38854839226E+01  0.46142317676E+02  0.99999992248E+01 0.  0.
         12    1    3    3    0    0  0.36525068556E+02 -0.26075580102E+02  0.38854839226E+01  0.45045682324E+02  0.00000000000E+00 0. -1.
         11    1    4    4    0    0 -0.14225781274E+01  0.15923428287E+01  0.80414098068E+00  0.22816501026E+01  0.51100000000E-03 0. -1.
        -11    1    4    4    0    0 -0.26502839413E+02  0.20090477792E+02 -0.31283231655E+00  0.33258467480E+02  0.51100000000E-03 0.  1.
        -12    1    4    4    0    0 -0.85996510161E+01  0.43927594822E+01 -0.43767925867E+01  0.10602200093E+02  0.00000000000E+00 0.  1.
</event>
<event>
 8    1  0.7489580E-009  0.9118800E+02  0.7816164E-02  0.1184000E+00
        -11   -1    0    0    0    0  0.00000000000E+00  0.00000000000E+00  0.45593999997E+02  0.45594000000E+02  0.51100000000E-03 0. -1.
         11   -1    0    0    0    0 -0.00000000000E+00 -0.00000000000E+00 -0.45593999997E+02  0.45594000000E+02  0.51100000000E-03 0.  1.
         23    2    1    2    0    0  0.88817841970E-15 -0.71054273576E-14  0.71054273576E-14  0.91188000000E+02  0.91188000000E+02 0.  0.
    9900012    2    3    3    0    0  0.59319525483E+01 -0.28095675060E+02  0.34706750892E+02  0.46142316793E+02  0.99999911690E+01 0.  0.
        -12    1    3    3    0    0 -0.59319525483E+01  0.28095675060E+02 -0.34706750892E+02  0.45045683207E+02  0.00000000000E+00 0.  1.
         11    1    4    4    0    0  0.18355229066E+01 -0.18928383805E+02  0.20170073766E+02  0.27721557204E+02  0.51100000000E-03 0. -1.
        -11    1    4    4    0    0 -0.53229141901E+00 -0.66646711645E+00 -0.11489234618E+00  0.86064689879E+00  0.51100000000E-03 0.  1.
        -12    1    4    4    0    0  0.46287210607E+01 -0.85008241395E+01  0.14651569472E+02  0.17560112690E+02  0.00000000000E+00 0.  1.
</event>
<event>
 8    1  0.7489580E-009  0.9118800E+02  0.7816164E-02  0.1184000E+00
        -11   -1    0    0    0    0  0.00000000000E+00  0.00000000000E+00  0.45593999997E+02  0.45594000000E+02  0.51100000000E-03 0. -1.
         11   -1    0    0    0    0 -0.00000000000E+00 -0.00000000000E+00 -0.45593999997E+02  0.45594000000E+02  0.51100000000E-03 0.  1.
         23    2    1    2    0    0  0.35527136788E-14  0.00000000000E+00  0.00000000000E+00  0.91188000000E+02  0.91188000000E+02 0.  0.
    9900012    2    3    3    0    0 -0.31230215545E+02 -0.42869457739E+01  0.32177763313E+02  0.46142326302E+02  0.10000077880E+02 0.  0.
        -12    1    3    3    0    0  0.31230215545E+02  0.42869457739E+01 -0.32177763313E+02  0.45045673698E+02  0.00000000000E+00 0.  1.
         11    1    4    4    0    0 -0.19745656351E+02 -0.16442926171E+01  0.16421749170E+02  0.25734577693E+02  0.51100000000E-03 0. -1.
        -11    1    4    4    0    0  0.56056621217E+00 -0.44514789645E+00  0.10684357495E+01  0.12860584512E+01  0.51100000000E-03 0.  1.
         12    1    4    4    0    0 -0.12045125406E+02 -0.21975052603E+01  0.14687578394E+02  0.19121690158E+02  0.00000000000E+00 0. -1.
</event>
<event>
 8    1  0.7489580E-009  0.9118800E+02  0.7816164E-02  0.1184000E+00
        -11   -1    0    0    0    0  0.00000000000E+00  0.00000000000E+00  0.45593999997E+02  0.45594000000E+02  0.51100000000E-03 0.  1.
         11   -1    0    0    0    0 -0.00000000000E+00 -0.00000000000E+00 -0.45593999997E+02  0.45594000000E+02  0.51100000000E-03 0. -1.
         23    2    1    2    0    0 -0.71054273576E-14 -0.35527136788E-14 -0.35527136788E-14  0.91188000000E+02  0.91188000000E+02 0.  0.
    9900012    2    3    3    0    0  0.32144480027E+02  0.23353680032E+02  0.21223846084E+02  0.46142316412E+02  0.99999877011E+01 0.  0.
        -12    1    3    3    0    0 -0.32144480027E+02 -0.23353680032E+02 -0.21223846084E+02  0.45045683588E+02  0.00000000000E+00 0.  1.
         11    1    4    4    0    0  0.54270920325E+01  0.60588748060E+01  0.24875614478E+01  0.85059540359E+01  0.51100000000E-03 0. -1.
        -11    1    4    4    0    0  0.33484654291E+01  0.52551590750E+01  0.23514184995E+01  0.66601866981E+01  0.51100000000E-03 0.  1.
        -12    1    4    4    0    0  0.23368922566E+02  0.12039646151E+02  0.16384866137E+02  0.30976175678E+02  0.00000000000E+00 0.  1.
</event>
<event>
 8    1  0.7489580E-009  0.9118800E+02  0.7816164E-02  0.1184000E+00
        -11   -1    0    0    0    0  0.00000000000E+00  0.00000000000E+00  0.45593999997E+02  0.45594000000E+02  0.51100000000E-03 0. -1.
         11   -1    0    0    0    0 -0.00000000000E+00 -0.00000000000E+00 -0.45593999997E+02  0.45594000000E+02  0.51100000000E-03 0.  1.
         23    2    1    2    0    0  0.00000000000E+00 -0.17763568394E-14  0.00000000000E+00  0.91188000000E+02  0.91188000000E+02 0.  0.
    9900012    2    3    3    0    0  0.32155664963E+02  0.98832435240E+01 -0.29957437951E+02  0.46142318960E+02  0.10000010933E+02 0.  0.
         12    1    3    3    0    0 -0.32155664963E+02 -0.98832435240E+01  0.29957437951E+02  0.45045681040E+02  0.00000000000E+00 0. -1.
         11    1    4    4    0    0  0.37823620590E+00  0.72577494135E+00 -0.57560044502E-01  0.82044214470E+00  0.51100000000E-03 0. -1.
        -11    1    4    4    0    0  0.28258319638E+02  0.57501341243E+01 -0.27575730278E+02  0.39900094885E+02  0.51100000000E-03 0.  1.
        -12    1    4    4    0    0  0.35191091193E+01  0.34073344583E+01 -0.23241476290E+01  0.54217819309E+01  0.00000000000E+00 0.  1.
</event>
<event>
 8    1  0.7489580E-009  0.9118800E+02  0.7816164E-02  0.1184000E+00
        -11   -1    0    0    0    0  0.00000000000E+00  0.00000000000E+00  0.45593999997E+02  0.45594000000E+02  0.51100000000E-03 0. -1.
         11   -1    0    0    0    0 -0.00000000000E+00 -0.00000000000E+00 -0.45593999997E+02  0.45594000000E+02  0.51100000000E-03 0.  1.
         23    2    1    2    0    0 -0.17763568394E-14 -0.44408920985E-15  0.00000000000E+00  0.91188000000E+02  0.91188000000E+02 0.  0.
    9900012    2    3    3    0    0 -0.98197945605E+01 -0.36551773470E+01  0.43810101502E+02  0.46142315631E+02  0.99999805802E+01 0.  0.
        -12    1    3    3    0    0  0.98197945605E+01  0.36551773470E+01 -0.43810101502E+02  0.45045684369E+02  0.00000000000E+00 0.  1.
         11    1    4    4    0    0 -0.27172560402E+00  0.10416498572E+01  0.11002023320E+02  0.11054564063E+02  0.51100000000E-03 0. -1.
        -11    1    4    4    0    0 -0.24408799736E+01 -0.45236835629E+01  0.10819374039E+02  0.11978333060E+02  0.51100000000E-03 0.  1.
        -12    1    4    4    0    0 -0.71071889829E+01 -0.17314364125E+00  0.21988704142E+02  0.23109418509E+02  0.00000000000E+00 0.  1.
</event>
<event>
 8    1  0.7489580E-009  0.9118800E+02  0.7816164E-02  0.1184000E+00
        -11   -1    0    0    0    0  0.00000000000E+00  0.00000000000E+00  0.45593999997E+02  0.45594000000E+02  0.51100000000E-03 0. -1.
         11   -1    0    0    0    0 -0.00000000000E+00 -0.00000000000E+00 -0.45593999997E+02  0.45594000000E+02  0.51100000000E-03 0.  1.
         23    2    1    2    0    0  0.00000000000E+00  0.00000000000E+00  0.00000000000E+00  0.91188000000E+02  0.91188000000E+02 0.  0.
    9900012    2    3    3    0    0  0.24737328583E+02  0.25018937412E+02 -0.28128826315E+02  0.46142317360E+02  0.99999963426E+01 0.  0.
         12    1    3    3    0    0 -0.24737328583E+02 -0.25018937412E+02  0.28128826315E+02  0.45045682640E+02  0.00000000000E+00 0. -1.
         11    1    4    4    0    0  0.76087740878E+01  0.67161257026E+01 -0.13517032193E+02  0.16902956758E+02  0.51100000000E-03 0. -1.
        -11    1    4    4    0    0  0.67612051162E+01  0.47530290298E+01 -0.46554422067E+01  0.94856903799E+01  0.51100000000E-03 0.  1.
         12    1    4    4    0    0  0.10367349379E+02  0.13549782679E+02 -0.99563519147E+01  0.19753670222E+02  0.00000000000E+00 0. -1.
</event>
<event>
 8    1  0.7489580E-009  0.9118800E+02  0.7816164E-02  0.1184000E+00
        -11   -1    0    0    0    0  0.00000000000E+00  0.00000000000E+00  0.45593999997E+02  0.45594000000E+02  0.51100000000E-03 0. -1.
         11   -1    0    0    0    0 -0.00000000000E+00 -0.00000000000E+00 -0.45593999997E+02  0.45594000000E+02  0.51100000000E-03 0.  1.
         23    2    1    2    0    0 -0.35527136788E-14 -0.17763568394E-14  0.71054273576E-14  0.91188000000E+02  0.91188000000E+02 0.  0.
    9900012    2    3    3    0    0  0.30632155702E+02  0.96635521127E+01 -0.31581644285E+02  0.46142318097E+02  0.10000003059E+02 0.  0.
         12    1    3    3    0    0 -0.30632155702E+02 -0.96635521127E+01  0.31581644285E+02  0.45045681903E+02  0.00000000000E+00 0. -1.
         11    1    4    4    0    0  0.76776513580E+00  0.11464665789E+00  0.13325345339E+00  0.78763183269E+00  0.51100000000E-03 0. -1.
        -11    1    4    4    0    0  0.49539957353E+01  0.39133215775E+01 -0.10025794851E+02  0.11847899484E+02  0.51100000000E-03 0.  1.
         12    1    4    4    0    0  0.24910394831E+02  0.56355838773E+01 -0.21689102887E+02  0.33506786780E+02  0.00000000000E+00 0. -1.
</event>
<event>
 8    1  0.1517395E-008  0.9118800E+02  0.7816164E-02  0.1184000E+00
        -11   -1    0    0    0    0  0.00000000000E+00  0.00000000000E+00  0.45593999997E+02  0.45594000000E+02  0.51100000000E-03 0. -1.
         11   -1    0    0    0    0 -0.00000000000E+00 -0.00000000000E+00 -0.45593999997E+02  0.45594000000E+02  0.51100000000E-03 0.  1.
         23    2    1    2    0    0  0.35527136788E-14  0.00000000000E+00  0.00000000000E+00  0.91188000000E+02  0.91188000000E+02 0.  0.
    9900012    2    3    3    0    0 -0.22346811983E+02 -0.19649076403E+02 -0.33817853859E+02  0.46142318199E+02  0.10000003993E+02 0.  0.
         12    1    3    3    0    0  0.22346811983E+02  0.19649076403E+02  0.33817853859E+02  0.45045681801E+02  0.00000000000E+00 0. -1.
         11    1    4    4    0    0 -0.14126142427E+02 -0.13756116729E+02 -0.21415759260E+02  0.29110365718E+02  0.51100000000E-03 0.  1.
        -11    1    4    4    0    0 -0.88045864379E+01 -0.63745390100E+01 -0.11932364966E+02  0.16141153115E+02  0.51100000000E-03 0. -1.
         12    1    4    4    0    0  0.58391688222E+00  0.48157933561E+00 -0.46972963336E+00  0.89079936590E+00  0.00000000000E+00 0. -1.
</event>
<event>
 8    1  0.7489580E-009  0.9118800E+02  0.7816164E-02  0.1184000E+00
        -11   -1    0    0    0    0  0.00000000000E+00  0.00000000000E+00  0.45593999997E+02  0.45594000000E+02  0.51100000000E-03 0. -1.
         11   -1    0    0    0    0 -0.00000000000E+00 -0.00000000000E+00 -0.45593999997E+02  0.45594000000E+02  0.51100000000E-03 0.  1.
         23    2    1    2    0    0 -0.35527136788E-14  0.00000000000E+00 -0.35527136788E-14  0.91188000000E+02  0.91188000000E+02 0.  0.
    9900012    2    3    3    0    0 -0.27492025951E+02  0.22662061583E+02  0.27563253671E+02  0.46142317864E+02  0.10000000943E+02 0.  0.
        -12    1    3    3    0    0  0.27492025951E+02 -0.22662061583E+02 -0.27563253671E+02  0.45045682136E+02  0.00000000000E+00 0.  1.
         11    1    4    4    0    0 -0.21811836374E+02  0.16403112525E+02  0.21876487637E+02  0.34977121352E+02  0.51100000000E-03 0. -1.
        -11    1    4    4    0    0 -0.63656949059E+01  0.59656447468E+01  0.56969462173E+01  0.10419509842E+02  0.51100000000E-03 0.  1.
        -12    1    4    4    0    0  0.68550532841E+00  0.29330431142E+00 -0.10180182794E-01  0.74568667046E+00  0.00000000000E+00 0.  1.
</event>
<event>
 8    1  0.8112169E-009  0.9118800E+02  0.7816164E-02  0.1184000E+00
        -11   -1    0    0    0    0  0.00000000000E+00  0.00000000000E+00  0.45593999997E+02  0.45594000000E+02  0.51100000000E-03 0. -1.
         11   -1    0    0    0    0 -0.00000000000E+00 -0.00000000000E+00 -0.45593999997E+02  0.45594000000E+02  0.51100000000E-03 0.  1.
         23    2    1    2    0    0  0.00000000000E+00 -0.17763568394E-14  0.00000000000E+00  0.91188000000E+02  0.91188000000E+02 0.  0.
    9900012    2    3    3    0    0  0.83705941364E+01  0.14543849088E+02  0.41803386874E+02  0.46142317115E+02  0.99999941057E+01 0.  0.
        -12    1    3    3    0    0 -0.83705941364E+01 -0.14543849088E+02 -0.41803386874E+02  0.45045682885E+02  0.00000000000E+00 0.  1.
         11    1    4    4    0    0  0.23501295074E+01  0.91900047898E+00  0.25115606453E+01  0.35602819717E+01  0.51100000000E-03 0.  1.
        -11    1    4    4    0    0 -0.37376811337E+00 -0.32427829425E+00  0.11610293636E+00  0.50827076214E+00  0.51100000000E-03 0. -1.
         12    1    4    4    0    0  0.63942327424E+01  0.13949126904E+02  0.39175723292E+02  0.42073764381E+02  0.00000000000E+00 0. -1.
</event>
<event>
 8    1  0.7489580E-009  0.9118800E+02  0.7816164E-02  0.1184000E+00
        -11   -1    0    0    0    0  0.00000000000E+00  0.00000000000E+00  0.45593999997E+02  0.45594000000E+02  0.51100000000E-03 0. -1.
         11   -1    0    0    0    0 -0.00000000000E+00 -0.00000000000E+00 -0.45593999997E+02  0.45594000000E+02  0.51100000000E-03 0.  1.
         23    2    1    2    0    0  0.35527136788E-14  0.00000000000E+00  0.00000000000E+00  0.91188000000E+02  0.91188000000E+02 0.  0.
    9900012    2    3    3    0    0 -0.27330714025E+02 -0.24671519898E+02 -0.25951149022E+02  0.46142312540E+02  0.99999523892E+01 0.  0.
         12    1    3    3    0    0  0.27330714025E+02  0.24671519898E+02  0.25951149022E+02  0.45045687460E+02  0.00000000000E+00 0. -1.
         11    1    4    4    0    0 -0.11557177879E+02 -0.12364977173E+02 -0.12418785055E+02  0.20992552096E+02  0.51100000000E-03 0. -1.
        -11    1    4    4    0    0 -0.96764872988E+01 -0.97095753556E+01 -0.55856166581E+01  0.14802343522E+02  0.51100000000E-03 0.  1.
         12    1    4    4    0    0 -0.60970488463E+01 -0.25969673701E+01 -0.79467473095E+01  0.10347416922E+02  0.00000000000E+00 0. -1.
</event>
<event>
 8    1  0.7489580E-009  0.9118800E+02  0.7816164E-02  0.1184000E+00
        -11   -1    0    0    0    0  0.00000000000E+00  0.00000000000E+00  0.45593999997E+02  0.45594000000E+02  0.51100000000E-03 0. -1.
         11   -1    0    0    0    0 -0.00000000000E+00 -0.00000000000E+00 -0.45593999997E+02  0.45594000000E+02  0.51100000000E-03 0.  1.
         23    2    1    2    0    0  0.00000000000E+00  0.35527136788E-14 -0.35527136788E-14  0.91188000000E+02  0.91188000000E+02 0.  0.
    9900012    2    3    3    0    0 -0.38561414329E+02  0.16814531286E+02 -0.16105971160E+02  0.46142318249E+02  0.10000004445E+02 0.  0.
         12    1    3    3    0    0  0.38561414329E+02 -0.16814531286E+02  0.16105971160E+02  0.45045681751E+02  0.00000000000E+00 0. -1.
         11    1    4    4    0    0 -0.27168351414E+01  0.57738364598E+00 -0.26297191770E+01  0.38249167666E+01  0.51100000000E-03 0.  1.
        -11    1    4    4    0    0 -0.40942221449E+01  0.11662236949E+01 -0.41730109654E+01  0.59612711276E+01  0.51100000000E-03 0. -1.
         12    1    4    4    0    0 -0.31750357043E+02  0.15070923945E+02 -0.93032410180E+01  0.36356130354E+02  0.00000000000E+00 0. -1.
</event>
<event>
 8    1  0.7489580E-009  0.9118800E+02  0.7816164E-02  0.1184000E+00
        -11   -1    0    0    0    0  0.00000000000E+00  0.00000000000E+00  0.45593999997E+02  0.45594000000E+02  0.51100000000E-03 0. -1.
         11   -1    0    0    0    0 -0.00000000000E+00 -0.00000000000E+00 -0.45593999997E+02  0.45594000000E+02  0.51100000000E-03 0.  1.
         23    2    1    2    0    0 -0.35527136788E-14  0.00000000000E+00  0.00000000000E+00  0.91188000000E+02  0.91188000000E+02 0.  0.
    9900012    2    3    3    0    0  0.26693677710E+02  0.89559656928E+01  0.35161793547E+02  0.46142317892E+02  0.10000001191E+02 0.  0.
        -12    1    3    3    0    0 -0.26693677710E+02 -0.89559656928E+01 -0.35161793547E+02  0.45045682108E+02  0.00000000000E+00 0.  1.
         11    1    4    4    0    0  0.14382918798E+01  0.24734302825E+00  0.49668116266E+01  0.51767827944E+01  0.51100000000E-03 0. -1.
        -11    1    4    4    0    0  0.53172539272E+01  0.28804341839E+01  0.30167194657E+01  0.67580091011E+01  0.51100000000E-03 0.  1.
         12    1    4    4    0    0  0.19938131903E+02  0.58281884806E+01  0.27178262455E+02  0.34207525996E+02  0.00000000000E+00 0. -1.
</event>
<event>
 8    1  0.7489580E-009  0.9118800E+02  0.7816164E-02  0.1184000E+00
        -11   -1    0    0    0    0  0.00000000000E+00  0.00000000000E+00  0.45593999997E+02  0.45594000000E+02  0.51100000000E-03 0. -1.
         11   -1    0    0    0    0 -0.00000000000E+00 -0.00000000000E+00 -0.45593999997E+02  0.45594000000E+02  0.51100000000E-03 0.  1.
         23    2    1    2    0    0  0.00000000000E+00  0.00000000000E+00  0.00000000000E+00  0.91188000000E+02  0.91188000000E+02 0.  0.
    9900012    2    3    3    0    0  0.30697299086E+02  0.21224113797E+02  0.25225508077E+02  0.46142318349E+02  0.10000005364E+02 0.  0.
        -12    1    3    3    0    0 -0.30697299086E+02 -0.21224113797E+02 -0.25225508077E+02  0.45045681651E+02  0.00000000000E+00 0.  1.
         11    1    4    4    0    0  0.99188889736E+01  0.69995127840E+01  0.50157365405E+01  0.13135263644E+02  0.51100000000E-03 0. -1.
        -11    1    4    4    0    0  0.53907638232E+01  0.86294688117E+00  0.24858426144E+01  0.59987019998E+01  0.51100000000E-03 0.  1.
        -12    1    4    4    0    0  0.15387646289E+02  0.13361654132E+02  0.17723928922E+02  0.27008352706E+02  0.00000000000E+00 0.  1.
</event>
<event>
 8    1  0.7489580E-009  0.9118800E+02  0.7816164E-02  0.1184000E+00
        -11   -1    0    0    0    0  0.00000000000E+00  0.00000000000E+00  0.45593999997E+02  0.45594000000E+02  0.51100000000E-03 0. -1.
         11   -1    0    0    0    0 -0.00000000000E+00 -0.00000000000E+00 -0.45593999997E+02  0.45594000000E+02  0.51100000000E-03 0.  1.
         23    2    1    2    0    0  0.00000000000E+00  0.00000000000E+00  0.00000000000E+00  0.91188000000E+02  0.91188000000E+02 0.  0.
    9900012    2    3    3    0    0 -0.19253140268E+02  0.23698344996E+02 -0.33118240488E+02  0.46142325194E+02  0.10000067780E+02 0.  0.
         12    1    3    3    0    0  0.19253140268E+02 -0.23698344996E+02  0.33118240488E+02  0.45045674806E+02  0.00000000000E+00 0. -1.
         11    1    4    4    0    0 -0.11566511970E+02  0.11723999348E+02 -0.11541945099E+02  0.20111013321E+02  0.51100000000E-03 0.  1.
        -11    1    4    4    0    0  0.12458943992E+00  0.14945975588E+00  0.24901645264E-01  0.19616600171E+00  0.51100000000E-03 0. -1.
         12    1    4    4    0    0 -0.78112177382E+01  0.11824885892E+02 -0.21601197034E+02  0.25835145872E+02  0.00000000000E+00 0. -1.
</event>
<event>
 8    1  0.7489580E-009  0.9118800E+02  0.7816164E-02  0.1184000E+00
        -11   -1    0    0    0    0  0.00000000000E+00  0.00000000000E+00  0.45593999997E+02  0.45594000000E+02  0.51100000000E-03 0. -1.
         11   -1    0    0    0    0 -0.00000000000E+00 -0.00000000000E+00 -0.45593999997E+02  0.45594000000E+02  0.51100000000E-03 0.  1.
         23    2    1    2    0    0 -0.17763568394E-14  0.00000000000E+00  0.00000000000E+00  0.91188000000E+02  0.91188000000E+02 0.  0.
    9900012    2    3    3    0    0 -0.14181234992E+02 -0.15174739685E+02  0.39971655640E+02  0.46142318686E+02  0.10000008434E+02 0.  0.
        -12    1    3    3    0    0  0.14181234992E+02  0.15174739685E+02 -0.39971655640E+02  0.45045681314E+02  0.00000000000E+00 0.  1.
         11    1    4    4    0    0 -0.12266849137E+02 -0.15205299749E+02  0.35253076524E+02  0.40304542335E+02  0.51100000000E-03 0. -1.
        -11    1    4    4    0    0  0.65973332530E+00 -0.17294349928E+00  0.18828200669E+01  0.20025406812E+01  0.51100000000E-03 0.  1.
        -12    1    4    4    0    0 -0.25741191804E+01  0.20350356261E+00  0.28357590496E+01  0.38352356697E+01  0.00000000000E+00 0.  1.
</event>
<event>
 8    1  0.7489580E-009  0.9118800E+02  0.7816164E-02  0.1184000E+00
        -11   -1    0    0    0    0  0.00000000000E+00  0.00000000000E+00  0.45593999997E+02  0.45594000000E+02  0.51100000000E-03 0. -1.
         11   -1    0    0    0    0 -0.00000000000E+00 -0.00000000000E+00 -0.45593999997E+02  0.45594000000E+02  0.51100000000E-03 0.  1.
         23    2    1    2    0    0 -0.35527136788E-14  0.17763568394E-14 -0.71054273576E-14  0.91188000000E+02  0.91188000000E+02 0.  0.
    9900012    2    3    3    0    0  0.20493614332E+02 -0.13404056245E+02  0.37808154455E+02  0.46142317682E+02  0.99999992743E+01 0.  0.
        -12    1    3    3    0    0 -0.20493614332E+02  0.13404056245E+02 -0.37808154455E+02  0.45045682318E+02  0.00000000000E+00 0.  1.
         11    1    4    4    0    0  0.48130428488E+01  0.63034779913E+00  0.64658984425E+01  0.80852064131E+01  0.51100000000E-03 0. -1.
        -11    1    4    4    0    0  0.72225790222E+00 -0.45082350273E+00  0.10963954442E+00  0.85844009620E+00  0.51100000000E-03 0.  1.
         12    1    4    4    0    0  0.14958313581E+02 -0.13583580541E+02  0.31232616468E+02  0.37198671172E+02  0.00000000000E+00 0. -1.
</event>
<event>
 8    1  0.7489580E-009  0.9118800E+02  0.7816164E-02  0.1184000E+00
        -11   -1    0    0    0    0  0.00000000000E+00  0.00000000000E+00  0.45593999997E+02  0.45594000000E+02  0.51100000000E-03 0. -1.
         11   -1    0    0    0    0 -0.00000000000E+00 -0.00000000000E+00 -0.45593999997E+02  0.45594000000E+02  0.51100000000E-03 0.  1.
         23    2    1    2    0    0 -0.35527136788E-14 -0.35527136788E-14  0.00000000000E+00  0.91188000000E+02  0.91188000000E+02 0.  0.
    9900012    2    3    3    0    0  0.27967434601E+02  0.20179367711E+02  0.28978097552E+02  0.46142307452E+02  0.99999059969E+01 0.  0.
        -12    1    3    3    0    0 -0.27967434601E+02 -0.20179367711E+02 -0.28978097552E+02  0.45045692548E+02  0.00000000000E+00 0.  1.
         11    1    4    4    0    0  0.10871075761E+02  0.43379212524E+01  0.73674919936E+01  0.13830321310E+02  0.51100000000E-03 0. -1.
        -11    1    4    4    0    0  0.14229031780E+01  0.10969015476E+01  0.44151781589E+01  0.47667226577E+01  0.51100000000E-03 0.  1.
         12    1    4    4    0    0  0.15673455662E+02  0.14744544911E+02  0.17195427399E+02  0.27545263485E+02  0.00000000000E+00 0. -1.
</event>
<event>
 8    1  0.7489580E-009  0.9118800E+02  0.7816164E-02  0.1184000E+00
        -11   -1    0    0    0    0  0.00000000000E+00  0.00000000000E+00  0.45593999997E+02  0.45594000000E+02  0.51100000000E-03 0. -1.
         11   -1    0    0    0    0 -0.00000000000E+00 -0.00000000000E+00 -0.45593999997E+02  0.45594000000E+02  0.51100000000E-03 0.  1.
         23    2    1    2    0    0  0.00000000000E+00 -0.35527136788E-14 -0.71054273576E-14  0.91188000000E+02  0.91188000000E+02 0.  0.
    9900012    2    3    3    0    0  0.28796138459E+02 -0.18427624018E+02 -0.29331184478E+02  0.46142319852E+02  0.10000019064E+02 0.  0.
         12    1    3    3    0    0 -0.28796138459E+02  0.18427624018E+02  0.29331184478E+02  0.45045680148E+02  0.00000000000E+00 0. -1.
         11    1    4    4    0    0  0.52921234756E+01 -0.37544914757E+01 -0.94575379529E+01  0.11469428997E+02  0.51100000000E-03 0. -1.
        -11    1    4    4    0    0  0.59969314891E+01 -0.56223156097E+01 -0.89002596537E+01  0.12115619764E+02  0.51100000000E-03 0.  1.
         12    1    4    4    0    0  0.17507083495E+02 -0.90508169329E+01 -0.10973386871E+02  0.22557271091E+02  0.00000000000E+00 0. -1.
</event>
<event>
 8    1  0.7489580E-009  0.9118800E+02  0.7816164E-02  0.1184000E+00
        -11   -1    0    0    0    0  0.00000000000E+00  0.00000000000E+00  0.45593999997E+02  0.45594000000E+02  0.51100000000E-03 0. -1.
         11   -1    0    0    0    0 -0.00000000000E+00 -0.00000000000E+00 -0.45593999997E+02  0.45594000000E+02  0.51100000000E-03 0.  1.
         23    2    1    2    0    0 -0.88817841970E-15  0.00000000000E+00  0.00000000000E+00  0.91188000000E+02  0.91188000000E+02 0.  0.
    9900012    2    3    3    0    0 -0.66042791532E+01  0.42483077109E+02  0.13441916288E+02  0.46142318107E+02  0.10000003151E+02 0.  0.
        -12    1    3    3    0    0  0.66042791532E+01 -0.42483077109E+02 -0.13441916288E+02  0.45045681893E+02  0.00000000000E+00 0.  1.
         11    1    4    4    0    0 -0.26189781097E+01  0.89094127508E+01  0.32592185558E+01  0.98417065471E+01  0.51100000000E-03 0. -1.
        -11    1    4    4    0    0 -0.16646484912E+01  0.12332529986E+02 -0.41095202670E+00  0.12451153853E+02  0.51100000000E-03 0.  1.
        -12    1    4    4    0    0 -0.23206525522E+01  0.21241134372E+02  0.10593649759E+02  0.23849457706E+02  0.00000000000E+00 0.  1.
</event>
<event>
 8    1  0.7489580E-009  0.9118800E+02  0.7816164E-02  0.1184000E+00
        -11   -1    0    0    0    0  0.00000000000E+00  0.00000000000E+00  0.45593999997E+02  0.45594000000E+02  0.51100000000E-03 0.  1.
         11   -1    0    0    0    0 -0.00000000000E+00 -0.00000000000E+00 -0.45593999997E+02  0.45594000000E+02  0.51100000000E-03 0. -1.
         23    2    1    2    0    0  0.00000000000E+00  0.00000000000E+00  0.17763568394E-14  0.91188000000E+02  0.91188000000E+02 0.  0.
    9900012    2    3    3    0    0 -0.41790767882E+02  0.91359459946E+01 -0.14113101316E+02  0.46142318541E+02  0.10000007110E+02 0.  0.
         12    1    3    3    0    0  0.41790767882E+02 -0.91359459946E+01  0.14113101316E+02  0.45045681459E+02  0.00000000000E+00 0. -1.
         11    1    4    4    0    0 -0.20004456125E+02  0.45060275657E+01 -0.82922009841E+01  0.22118841441E+02  0.51100000000E-03 0. -1.
        -11    1    4    4    0    0 -0.19201469215E+02  0.20301856385E+01 -0.63358073029E+01  0.20321430269E+02  0.51100000000E-03 0.  1.
         12    1    4    4    0    0 -0.25848425418E+01  0.25997327905E+01  0.51490697082E+00  0.37020468306E+01  0.00000000000E+00 0. -1.
</event>
<event>
 8    1  0.7489580E-009  0.9118800E+02  0.7816164E-02  0.1184000E+00
        -11   -1    0    0    0    0  0.00000000000E+00  0.00000000000E+00  0.45593999997E+02  0.45594000000E+02  0.51100000000E-03 0. -1.
         11   -1    0    0    0    0 -0.00000000000E+00 -0.00000000000E+00 -0.45593999997E+02  0.45594000000E+02  0.51100000000E-03 0.  1.
         23    2    1    2    0    0  0.00000000000E+00  0.35527136788E-14  0.00000000000E+00  0.91188000000E+02  0.91188000000E+02 0.  0.
    9900012    2    3    3    0    0  0.22802152715E+02  0.31054775070E+02  0.23340442925E+02  0.46142317643E+02  0.99999989247E+01 0.  0.
        -12    1    3    3    0    0 -0.22802152715E+02 -0.31054775070E+02 -0.23340442925E+02  0.45045682357E+02  0.00000000000E+00 0.  1.
         11    1    4    4    0    0  0.13745585664E+02  0.16071903970E+02  0.10279725833E+02  0.23514250699E+02  0.51100000000E-03 0. -1.
        -11    1    4    4    0    0  0.49140230610E+01  0.29533808630E+01  0.35492911548E+01  0.67429629339E+01  0.51100000000E-03 0.  1.
         12    1    4    4    0    0  0.41425439900E+01  0.12029490237E+02  0.95114259371E+01  0.15885104011E+02  0.00000000000E+00 0. -1.
</event>
<event>
 8    1  0.7489580E-009  0.9118800E+02  0.7816164E-02  0.1184000E+00
        -11   -1    0    0    0    0  0.00000000000E+00  0.00000000000E+00  0.45593999997E+02  0.45594000000E+02  0.51100000000E-03 0. -1.
         11   -1    0    0    0    0 -0.00000000000E+00 -0.00000000000E+00 -0.45593999997E+02  0.45594000000E+02  0.51100000000E-03 0.  1.
         23    2    1    2    0    0  0.71054273576E-14  0.00000000000E+00  0.00000000000E+00  0.91188000000E+02  0.91188000000E+02 0.  0.
    9900012    2    3    3    0    0 -0.37312870996E+02  0.12045086912E+02 -0.22176090877E+02  0.46142317996E+02  0.10000002138E+02 0.  0.
         12    1    3    3    0    0  0.37312870996E+02 -0.12045086912E+02  0.22176090877E+02  0.45045682004E+02  0.00000000000E+00 0. -1.
         11    1    4    4    0    0 -0.19555360383E+02  0.10022286628E+02 -0.16079039587E+02  0.27228548681E+02  0.51100000000E-03 0. -1.
        -11    1    4    4    0    0 -0.33826172353E+01  0.49759131362E-01 -0.14200670692E+01  0.36689461802E+01  0.51100000000E-03 0.  1.
         12    1    4    4    0    0 -0.14374893377E+02  0.19730411532E+01 -0.46769842208E+01  0.15244823135E+02  0.00000000000E+00 0. -1.
</event>
<event>
 8    1  0.7489580E-009  0.9118800E+02  0.7816164E-02  0.1184000E+00
        -11   -1    0    0    0    0  0.00000000000E+00  0.00000000000E+00  0.45593999997E+02  0.45594000000E+02  0.51100000000E-03 0. -1.
         11   -1    0    0    0    0 -0.00000000000E+00 -0.00000000000E+00 -0.45593999997E+02  0.45594000000E+02  0.51100000000E-03 0.  1.
         23    2    1    2    0    0  0.00000000000E+00 -0.11102230246E-15  0.00000000000E+00  0.91188000000E+02  0.91188000000E+02 0.  0.
    9900012    2    3    3    0    0 -0.23462730898E+02 -0.93951478546E+00 -0.38441259726E+02  0.46142324530E+02  0.10000061720E+02 0.  0.
         12    1    3    3    0    0  0.23462730898E+02  0.93951478546E+00  0.38441259726E+02  0.45045675470E+02  0.00000000000E+00 0. -1.
         11    1    4    4    0    0 -0.10724667284E+02  0.30215252296E+01 -0.21142902422E+02  0.23899172081E+02  0.51100000000E-03 0.  1.
        -11    1    4    4    0    0 -0.86685711892E+01 -0.22258387800E+01 -0.14398936885E+02  0.16953697780E+02  0.51100000000E-03 0. -1.
         12    1    4    4    0    0 -0.40694924248E+01 -0.17352012351E+01 -0.28994204194E+01  0.52894546685E+01  0.00000000000E+00 0. -1.
</event>
<event>
 8    1  0.7489580E-009  0.9118800E+02  0.7816164E-02  0.1184000E+00
        -11   -1    0    0    0    0  0.00000000000E+00  0.00000000000E+00  0.45593999997E+02  0.45594000000E+02  0.51100000000E-03 0. -1.
         11   -1    0    0    0    0 -0.00000000000E+00 -0.00000000000E+00 -0.45593999997E+02  0.45594000000E+02  0.51100000000E-03 0.  1.
         23    2    1    2    0    0  0.00000000000E+00 -0.22204460493E-15  0.00000000000E+00  0.91188000000E+02  0.91188000000E+02 0.  0.
    9900012    2    3    3    0    0  0.24310525649E+02  0.17226060456E+01  0.37883301152E+02  0.46142317242E+02  0.99999952709E+01 0.  0.
        -12    1    3    3    0    0 -0.24310525649E+02 -0.17226060456E+01 -0.37883301152E+02  0.45045682758E+02  0.00000000000E+00 0.  1.
         11    1    4    4    0    0  0.13882936086E+02 -0.30289336399E+00  0.19800249233E+02  0.24184241330E+02  0.51100000000E-03 0. -1.
        -11    1    4    4    0    0  0.78347932282E+01  0.36329947471E+01  0.94495073886E+01  0.12801399373E+02  0.51100000000E-03 0.  1.
         12    1    4    4    0    0  0.25927963355E+01 -0.16074953375E+01  0.86335445298E+01  0.91566765393E+01  0.00000000000E+00 0. -1.
</event>
<event>
 8    1  0.7489580E-009  0.9118800E+02  0.7816164E-02  0.1184000E+00
        -11   -1    0    0    0    0  0.00000000000E+00  0.00000000000E+00  0.45593999997E+02  0.45594000000E+02  0.51100000000E-03 0. -1.
         11   -1    0    0    0    0 -0.00000000000E+00 -0.00000000000E+00 -0.45593999997E+02  0.45594000000E+02  0.51100000000E-03 0.  1.
         23    2    1    2    0    0  0.00000000000E+00  0.00000000000E+00  0.00000000000E+00  0.91188000000E+02  0.91188000000E+02 0.  0.
    9900012    2    3    3    0    0 -0.26748276519E+01  0.42164586731E+02 -0.15623927786E+02  0.46142309899E+02  0.99999283075E+01 0.  0.
         12    1    3    3    0    0  0.26748276519E+01 -0.42164586731E+02  0.15623927786E+02  0.45045690101E+02  0.00000000000E+00 0. -1.
         11    1    4    4    0    0 -0.10853727036E+01  0.64115424500E+00 -0.92075801844E+00  0.15610599801E+01  0.51100000000E-03 0.  1.
        -11    1    4    4    0    0 -0.26999784535E+01  0.14742974206E+02 -0.78318201387E+01  0.16911019456E+02  0.51100000000E-03 0. -1.
        -12    1    4    4    0    0  0.11105235052E+01  0.26780458280E+02 -0.68713496291E+01  0.27670230463E+02  0.00000000000E+00 0.  1.
</event>
<event>
 8    1  0.7489580E-009  0.9118800E+02  0.7816164E-02  0.1184000E+00
        -11   -1    0    0    0    0  0.00000000000E+00  0.00000000000E+00  0.45593999997E+02  0.45594000000E+02  0.51100000000E-03 0.  1.
         11   -1    0    0    0    0 -0.00000000000E+00 -0.00000000000E+00 -0.45593999997E+02  0.45594000000E+02  0.51100000000E-03 0. -1.
         23    2    1    2    0    0  0.00000000000E+00  0.44408920985E-15  0.00000000000E+00  0.91188000000E+02  0.91188000000E+02 0.  0.
    9900012    2    3    3    0    0  0.44259100267E+02  0.15803069703E+01 -0.82309228646E+01  0.46142318545E+02  0.10000007144E+02 0.  0.
         12    1    3    3    0    0 -0.44259100267E+02 -0.15803069703E+01  0.82309228646E+01  0.45045681455E+02  0.00000000000E+00 0. -1.
         11    1    4    4    0    0  0.26266385013E+01 -0.15027116553E+01 -0.99999130517E+00  0.31870605590E+01  0.51100000000E-03 0.  1.
        -11    1    4    4    0    0  0.13993430009E+02 -0.10829643721E+01  0.18676081896E+00  0.14036515775E+02  0.51100000000E-03 0. -1.
        -12    1    4    4    0    0  0.27639031757E+02  0.41659829976E+01 -0.74176923784E+01  0.28918742211E+02  0.00000000000E+00 0.  1.
</event>
<event>
 8    1  0.7489580E-009  0.9118800E+02  0.7816164E-02  0.1184000E+00
        -11   -1    0    0    0    0  0.00000000000E+00  0.00000000000E+00  0.45593999997E+02  0.45594000000E+02  0.51100000000E-03 0. -1.
         11   -1    0    0    0    0 -0.00000000000E+00 -0.00000000000E+00 -0.45593999997E+02  0.45594000000E+02  0.51100000000E-03 0.  1.
         23    2    1    2    0    0  0.00000000000E+00  0.00000000000E+00  0.00000000000E+00  0.91188000000E+02  0.91188000000E+02 0.  0.
    9900012    2    3    3    0    0 -0.14296896454E+02 -0.40539892139E+02  0.13462147286E+02  0.46142317494E+02  0.99999975671E+01 0.  0.
        -12    1    3    3    0    0  0.14296896454E+02  0.40539892139E+02 -0.13462147286E+02  0.45045682506E+02  0.00000000000E+00 0.  1.
         11    1    4    4    0    0 -0.32587571466E+01 -0.83546069861E+01  0.65711191363E+01  0.11117489060E+02  0.51100000000E-03 0. -1.
        -11    1    4    4    0    0 -0.34814627423E+01 -0.15121591982E+02  0.48180433270E+01  0.16247974294E+02  0.51100000000E-03 0.  1.
        -12    1    4    4    0    0 -0.75566765655E+01 -0.17063693171E+02  0.20729848232E+01  0.18776854141E+02  0.00000000000E+00 0.  1.
</event>
<event>
 8    1  0.7489580E-009  0.9118800E+02  0.7816164E-02  0.1184000E+00
        -11   -1    0    0    0    0  0.00000000000E+00  0.00000000000E+00  0.45593999997E+02  0.45594000000E+02  0.51100000000E-03 0.  1.
         11   -1    0    0    0    0 -0.00000000000E+00 -0.00000000000E+00 -0.45593999997E+02  0.45594000000E+02  0.51100000000E-03 0. -1.
         23    2    1    2    0    0  0.71054273576E-14  0.27755575616E-15 -0.44408920985E-15  0.91188000000E+02  0.91188000000E+02 0.  0.
    9900012    2    3    3    0    0 -0.44898966761E+02 -0.30905276409E+00  0.36194838986E+01  0.46142318814E+02  0.10000009605E+02 0.  0.
         12    1    3    3    0    0  0.44898966761E+02  0.30905276409E+00 -0.36194838986E+01  0.45045681186E+02  0.00000000000E+00 0. -1.
         11    1    4    4    0    0 -0.19222888396E+02 -0.28580615550E+01 -0.22231990198E+01  0.19560944974E+02  0.51100000000E-03 0. -1.
        -11    1    4    4    0    0 -0.28109789402E+01 -0.27553177450E+00  0.12522896885E+01  0.30896197316E+01  0.51100000000E-03 0.  1.
         12    1    4    4    0    0 -0.22865099424E+02  0.28245405654E+01  0.45903932300E+01  0.23491754109E+02  0.00000000000E+00 0. -1.
</event>
<event>
 8    1  0.7489580E-009  0.9118800E+02  0.7816164E-02  0.1184000E+00
        -11   -1    0    0    0    0  0.00000000000E+00  0.00000000000E+00  0.45593999997E+02  0.45594000000E+02  0.51100000000E-03 0. -1.
         11   -1    0    0    0    0 -0.00000000000E+00 -0.00000000000E+00 -0.45593999997E+02  0.45594000000E+02  0.51100000000E-03 0.  1.
         23    2    1    2    0    0 -0.71054273576E-14 -0.35527136788E-14  0.11102230246E-15  0.91188000000E+02  0.91188000000E+02 0.  0.
    9900012    2    3    3    0    0 -0.37516456710E+02 -0.24922938871E+02 -0.69000709027E+00  0.46142317457E+02  0.99999972229E+01 0.  0.
         12    1    3    3    0    0  0.37516456710E+02  0.24922938871E+02  0.69000709027E+00  0.45045682543E+02  0.00000000000E+00 0. -1.
         11    1    4    4    0    0 -0.53695388720E+01 -0.45759154156E+01 -0.11950759072E+01  0.71553585705E+01  0.51100000000E-03 0. -1.
        -11    1    4    4    0    0 -0.20715690267E+02 -0.17507473933E+02 -0.81113961209E+00  0.27135021918E+02  0.51100000000E-03 0.  1.
         12    1    4    4    0    0 -0.11431227571E+02 -0.28395495222E+01  0.13162084290E+01  0.11851936968E+02  0.00000000000E+00 0. -1.
</event>
<event>
 8    1  0.7489580E-009  0.9118800E+02  0.7816164E-02  0.1184000E+00
        -11   -1    0    0    0    0  0.00000000000E+00  0.00000000000E+00  0.45593999997E+02  0.45594000000E+02  0.51100000000E-03 0. -1.
         11   -1    0    0    0    0 -0.00000000000E+00 -0.00000000000E+00 -0.45593999997E+02  0.45594000000E+02  0.51100000000E-03 0.  1.
         23    2    1    2    0    0  0.00000000000E+00  0.00000000000E+00  0.00000000000E+00  0.91188000000E+02  0.91188000000E+02 0.  0.
    9900012    2    3    3    0    0 -0.25387861847E+02  0.17579729583E+01  0.37168258565E+02  0.46142318267E+02  0.10000004611E+02 0.  0.
        -12    1    3    3    0    0  0.25387861847E+02 -0.17579729583E+01 -0.37168258565E+02  0.45045681733E+02  0.00000000000E+00 0.  1.
         11    1    4    4    0    0 -0.34134602984E+00 -0.92061713893E+00  0.24606385030E+01  0.26493008761E+01  0.51100000000E-03 0. -1.
        -11    1    4    4    0    0 -0.10052639981E+02 -0.10905945094E+00  0.84728347503E+01  0.13147486205E+02  0.51100000000E-03 0.  1.
        -12    1    4    4    0    0 -0.14993875837E+02  0.27876495482E+01  0.26234785311E+02  0.30345531186E+02  0.00000000000E+00 0.  1.
</event>
<event>
 8    1  0.9651109E-009  0.9118800E+02  0.7816164E-02  0.1184000E+00
        -11   -1    0    0    0    0  0.00000000000E+00  0.00000000000E+00  0.45593999997E+02  0.45594000000E+02  0.51100000000E-03 0. -1.
         11   -1    0    0    0    0 -0.00000000000E+00 -0.00000000000E+00 -0.45593999997E+02  0.45594000000E+02  0.51100000000E-03 0.  1.
         23    2    1    2    0    0  0.00000000000E+00  0.00000000000E+00  0.00000000000E+00  0.91188000000E+02  0.91188000000E+02 0.  0.
    9900012    2    3    3    0    0  0.13859539847E+02  0.20771017628E+02 -0.37491218339E+02  0.46142317958E+02  0.10000001794E+02 0.  0.
         12    1    3    3    0    0 -0.13859539847E+02 -0.20771017628E+02  0.37491218339E+02  0.45045682042E+02  0.00000000000E+00 0. -1.
         11    1    4    4    0    0  0.71717428846E+01  0.96455061281E+01 -0.17311599509E+02  0.21075131371E+02  0.51100000000E-03 0. -1.
        -11    1    4    4    0    0  0.69113519347E+01  0.11435990958E+02 -0.20564550128E+02  0.24524465274E+02  0.51100000000E-03 0.  1.
         12    1    4    4    0    0 -0.22355497262E+00 -0.31047945753E+00  0.38493129794E+00  0.54272131289E+00  0.00000000000E+00 0. -1.
</event>
<event>
 8    1  0.7489580E-009  0.9118800E+02  0.7816164E-02  0.1184000E+00
        -11   -1    0    0    0    0  0.00000000000E+00  0.00000000000E+00  0.45593999997E+02  0.45594000000E+02  0.51100000000E-03 0. -1.
         11   -1    0    0    0    0 -0.00000000000E+00 -0.00000000000E+00 -0.45593999997E+02  0.45594000000E+02  0.51100000000E-03 0.  1.
         23    2    1    2    0    0  0.35527136788E-14 -0.35527136788E-14  0.00000000000E+00  0.91188000000E+02  0.91188000000E+02 0.  0.
    9900012    2    3    3    0    0 -0.17807080795E+02  0.20141235628E+02  0.36143491437E+02  0.46142317940E+02  0.10000001629E+02 0.  0.
        -12    1    3    3    0    0  0.17807080795E+02 -0.20141235628E+02 -0.36143491437E+02  0.45045682060E+02  0.00000000000E+00 0.  1.
         11    1    4    4    0    0 -0.31386747471E+01 -0.65461680736E-01  0.51292510194E+01  0.60137160460E+01  0.51100000000E-03 0.  1.
        -11    1    4    4    0    0 -0.43156453673E+00  0.31564766457E+01  0.29926992398E+01  0.43710229655E+01  0.51100000000E-03 0. -1.
         12    1    4    4    0    0 -0.14236841511E+02  0.17050220663E+02  0.28021541177E+02  0.35757578928E+02  0.00000000000E+00 0. -1.
</event>
<event>
 8    1  0.7489580E-009  0.9118800E+02  0.7816164E-02  0.1184000E+00
        -11   -1    0    0    0    0  0.00000000000E+00  0.00000000000E+00  0.45593999997E+02  0.45594000000E+02  0.51100000000E-03 0.  1.
         11   -1    0    0    0    0 -0.00000000000E+00 -0.00000000000E+00 -0.45593999997E+02  0.45594000000E+02  0.51100000000E-03 0. -1.
         23    2    1    2    0    0 -0.71054273576E-14 -0.55511151231E-16  0.00000000000E+00  0.91188000000E+02  0.91188000000E+02 0.  0.
    9900012    2    3    3    0    0 -0.41537349028E+02 -0.19485129592E+00  0.17427683307E+02  0.46142317890E+02  0.10000001178E+02 0.  0.
        -12    1    3    3    0    0  0.41537349028E+02  0.19485129592E+00 -0.17427683307E+02  0.45045682110E+02  0.00000000000E+00 0.  1.
         11    1    4    4    0    0 -0.18153900541E+02 -0.45751346771E+00  0.79606487609E+01  0.19827893291E+02  0.51100000000E-03 0.  1.
        -11    1    4    4    0    0 -0.11534013412E+02 -0.49845732155E+00  0.86248162042E+01  0.14410738354E+02  0.51100000000E-03 0. -1.
        -12    1    4    4    0    0 -0.11849435075E+02  0.76111949334E+00  0.84221834161E+00  0.11903686245E+02  0.00000000000E+00 0.  1.
</event>
<event>
 8    1  0.7489580E-009  0.9118800E+02  0.7816164E-02  0.1184000E+00
        -11   -1    0    0    0    0  0.00000000000E+00  0.00000000000E+00  0.45593999997E+02  0.45594000000E+02  0.51100000000E-03 0.  1.
         11   -1    0    0    0    0 -0.00000000000E+00 -0.00000000000E+00 -0.45593999997E+02  0.45594000000E+02  0.51100000000E-03 0. -1.
         23    2    1    2    0    0  0.55511151231E-16  0.00000000000E+00  0.00000000000E+00  0.91188000000E+02  0.91188000000E+02 0.  0.
    9900012    2    3    3    0    0 -0.13710851677E+00 -0.44615754699E+02  0.62071615196E+01  0.46142320737E+02  0.10000027140E+02 0.  0.
         12    1    3    3    0    0  0.13710851677E+00  0.44615754699E+02 -0.62071615196E+01  0.45045679263E+02  0.00000000000E+00 0. -1.
         11    1    4    4    0    0 -0.60524813639E+00 -0.14195765856E+02 -0.20667680901E+01  0.14358190142E+02  0.51100000000E-03 0. -1.
        -11    1    4    4    0    0  0.22331526198E+01 -0.17706570988E+02  0.51257925889E+01  0.18568343402E+02  0.51100000000E-03 0.  1.
         12    1    4    4    0    0 -0.17650130002E+01 -0.12713417854E+02  0.31481370208E+01  0.13215787193E+02  0.00000000000E+00 0. -1.
</event>
<event>
 8    1  0.7489580E-009  0.9118800E+02  0.7816164E-02  0.1184000E+00
        -11   -1    0    0    0    0  0.00000000000E+00  0.00000000000E+00  0.45593999997E+02  0.45594000000E+02  0.51100000000E-03 0. -1.
         11   -1    0    0    0    0 -0.00000000000E+00 -0.00000000000E+00 -0.45593999997E+02  0.45594000000E+02  0.51100000000E-03 0.  1.
         23    2    1    2    0    0  0.35527136788E-14 -0.88817841970E-15  0.71054273576E-14  0.91188000000E+02  0.91188000000E+02 0.  0.
    9900012    2    3    3    0    0 -0.17195230334E+02  0.45019422583E+01 -0.41390455993E+02  0.46142320100E+02  0.10000021329E+02 0.  0.
         12    1    3    3    0    0  0.17195230334E+02 -0.45019422583E+01  0.41390455993E+02  0.45045679900E+02  0.00000000000E+00 0. -1.
         11    1    4    4    0    0 -0.18080085249E+01  0.57870025282E+00 -0.22667989933E+01  0.29567155334E+01  0.51100000000E-03 0. -1.
        -11    1    4    4    0    0 -0.16264736117E+02  0.29544262045E+01 -0.38078615393E+02  0.41512061207E+02  0.51100000000E-03 0.  1.
         12    1    4    4    0    0  0.87751430798E+00  0.96881580105E+00 -0.10450416072E+01  0.16735433600E+01  0.00000000000E+00 0. -1.
</event>
<event>
 8    1  0.7489580E-009  0.9118800E+02  0.7816164E-02  0.1184000E+00
        -11   -1    0    0    0    0  0.00000000000E+00  0.00000000000E+00  0.45593999997E+02  0.45594000000E+02  0.51100000000E-03 0. -1.
         11   -1    0    0    0    0 -0.00000000000E+00 -0.00000000000E+00 -0.45593999997E+02  0.45594000000E+02  0.51100000000E-03 0.  1.
         23    2    1    2    0    0 -0.71054273576E-14  0.71054273576E-14  0.00000000000E+00  0.91188000000E+02  0.91188000000E+02 0.  0.
    9900012    2    3    3    0    0 -0.34071479901E+02  0.24584122892E+02 -0.16244035976E+02  0.46142317124E+02  0.99999941878E+01 0.  0.
         12    1    3    3    0    0  0.34071479901E+02 -0.24584122892E+02  0.16244035976E+02  0.45045682876E+02  0.00000000000E+00 0. -1.
         11    1    4    4    0    0 -0.29416177493E+01  0.58713692789E+00 -0.10492883560E+01  0.31778689511E+01  0.51100000000E-03 0. -1.
        -11    1    4    4    0    0 -0.57017964941E+01  0.89420884965E+01 -0.32625231174E+01  0.11095741854E+02  0.51100000000E-03 0.  1.
        -12    1    4    4    0    0 -0.25428065658E+02  0.15054897467E+02 -0.11932224503E+02  0.31868706319E+02  0.00000000000E+00 0.  1.
</event>
<event>
 8    1  0.7489580E-009  0.9118800E+02  0.7816164E-02  0.1184000E+00
        -11   -1    0    0    0    0  0.00000000000E+00  0.00000000000E+00  0.45593999997E+02  0.45594000000E+02  0.51100000000E-03 0. -1.
         11   -1    0    0    0    0 -0.00000000000E+00 -0.00000000000E+00 -0.45593999997E+02  0.45594000000E+02  0.51100000000E-03 0.  1.
         23    2    1    2    0    0  0.00000000000E+00  0.71054273576E-14  0.00000000000E+00  0.91188000000E+02  0.91188000000E+02 0.  0.
    9900012    2    3    3    0    0 -0.23902630351E+02  0.37927254599E+02  0.43933069099E+01  0.46142317358E+02  0.99999963213E+01 0.  0.
        -12    1    3    3    0    0  0.23902630351E+02 -0.37927254599E+02 -0.43933069099E+01  0.45045682642E+02  0.00000000000E+00 0.  1.
         11    1    4    4    0    0 -0.30932827858E+01  0.15087227627E+01  0.59672354194E+00  0.34929531938E+01  0.51100000000E-03 0. -1.
        -11    1    4    4    0    0 -0.53176319368E+01  0.43677662620E+01  0.56738379494E+00  0.69048183297E+01  0.51100000000E-03 0.  1.
         12    1    4    4    0    0 -0.15491715628E+02  0.32050765574E+02  0.32291995730E+01  0.35744545834E+02  0.00000000000E+00 0. -1.
</event>
<event>
 8    1  0.7489580E-009  0.9118800E+02  0.7816164E-02  0.1184000E+00
        -11   -1    0    0    0    0  0.00000000000E+00  0.00000000000E+00  0.45593999997E+02  0.45594000000E+02  0.51100000000E-03 0.  1.
         11   -1    0    0    0    0 -0.00000000000E+00 -0.00000000000E+00 -0.45593999997E+02  0.45594000000E+02  0.51100000000E-03 0. -1.
         23    2    1    2    0    0  0.71054273576E-14 -0.35527136788E-14  0.00000000000E+00  0.91188000000E+02  0.91188000000E+02 0.  0.
    9900012    2    3    3    0    0  0.35375333997E+02 -0.15681057290E+02 -0.23060878761E+02  0.46142312722E+02  0.99999540449E+01 0.  0.
        -12    1    3    3    0    0 -0.35375333997E+02  0.15681057290E+02  0.23060878761E+02  0.45045687278E+02  0.00000000000E+00 0.  1.
         11    1    4    4    0    0  0.92008178597E+01 -0.36737059882E+01 -0.28332840649E+01  0.10304303170E+02  0.51100000000E-03 0. -1.
        -11    1    4    4    0    0  0.98282476764E+00  0.14122554719E-01 -0.27117044823E+01  0.28843518216E+01  0.51100000000E-03 0.  1.
         12    1    4    4    0    0  0.25191691370E+02 -0.12021473857E+02 -0.17515890214E+02  0.32953657729E+02  0.00000000000E+00 0. -1.
</event>
<event>
 8    1  0.7489580E-009  0.9118800E+02  0.7816164E-02  0.1184000E+00
        -11   -1    0    0    0    0  0.00000000000E+00  0.00000000000E+00  0.45593999997E+02  0.45594000000E+02  0.51100000000E-03 0. -1.
         11   -1    0    0    0    0 -0.00000000000E+00 -0.00000000000E+00 -0.45593999997E+02  0.45594000000E+02  0.51100000000E-03 0.  1.
         23    2    1    2    0    0  0.00000000000E+00 -0.88817841970E-15  0.71054273576E-14  0.91188000000E+02  0.91188000000E+02 0.  0.
    9900012    2    3    3    0    0 -0.30698472524E+02  0.76906806137E+01 -0.32055739031E+02  0.46142321091E+02  0.10000030360E+02 0.  0.
         12    1    3    3    0    0  0.30698472524E+02 -0.76906806137E+01  0.32055739031E+02  0.45045678909E+02  0.00000000000E+00 0. -1.
         11    1    4    4    0    0 -0.11436554848E+02  0.45621861118E+01 -0.98558119309E+01  0.15771663133E+02  0.51100000000E-03 0. -1.
        -11    1    4    4    0    0 -0.10444392122E+02  0.46492920448E+01 -0.15148538684E+02  0.18978394765E+02  0.51100000000E-03 0.  1.
         12    1    4    4    0    0 -0.88175255540E+01 -0.15207975429E+01 -0.70513884154E+01  0.11392263192E+02  0.00000000000E+00 0. -1.
</event>
<event>
 8    1  0.7489580E-009  0.9118800E+02  0.7816164E-02  0.1184000E+00
        -11   -1    0    0    0    0  0.00000000000E+00  0.00000000000E+00  0.45593999997E+02  0.45594000000E+02  0.51100000000E-03 0. -1.
         11   -1    0    0    0    0 -0.00000000000E+00 -0.00000000000E+00 -0.45593999997E+02  0.45594000000E+02  0.51100000000E-03 0.  1.
         23    2    1    2    0    0  0.00000000000E+00  0.00000000000E+00  0.71054273576E-14  0.91188000000E+02  0.91188000000E+02 0.  0.
    9900012    2    3    3    0    0 -0.16283814108E+02 -0.84891786173E+01 -0.41132526193E+02  0.46142318003E+02  0.10000002209E+02 0.  0.
         12    1    3    3    0    0  0.16283814108E+02  0.84891786173E+01  0.41132526193E+02  0.45045681997E+02  0.00000000000E+00 0. -1.
         11    1    4    4    0    0 -0.12467267529E+01 -0.36675682848E+01 -0.14951205225E+02  0.15444867195E+02  0.51100000000E-03 0. -1.
        -11    1    4    4    0    0 -0.10961589334E+02 -0.47620236587E+01 -0.19517037242E+02  0.22885542445E+02  0.51100000000E-03 0.  1.
         12    1    4    4    0    0 -0.40754980210E+01 -0.59586673858E-01 -0.66642837265E+01  0.78119083634E+01  0.00000000000E+00 0. -1.
</event>
<event>
 8    1  0.7489580E-009  0.9118800E+02  0.7816164E-02  0.1184000E+00
        -11   -1    0    0    0    0  0.00000000000E+00  0.00000000000E+00  0.45593999997E+02  0.45594000000E+02  0.51100000000E-03 0. -1.
         11   -1    0    0    0    0 -0.00000000000E+00 -0.00000000000E+00 -0.45593999997E+02  0.45594000000E+02  0.51100000000E-03 0.  1.
         23    2    1    2    0    0  0.00000000000E+00 -0.44408920985E-15  0.35527136788E-14  0.91188000000E+02  0.91188000000E+02 0.  0.
    9900012    2    3    3    0    0  0.36853730256E+02  0.39216494292E+01  0.25603448642E+02  0.46142319293E+02  0.10000013966E+02 0.  0.
        -12    1    3    3    0    0 -0.36853730256E+02 -0.39216494292E+01 -0.25603448642E+02  0.45045680707E+02  0.00000000000E+00 0.  1.
         11    1    4    4    0    0  0.23034179306E+02  0.36129191227E+01  0.16261250867E+02  0.28426306142E+02  0.51100000000E-03 0. -1.
        -11    1    4    4    0    0  0.13602791943E+02 -0.89789114224E+00  0.76680853480E+01  0.15641025872E+02  0.51100000000E-03 0.  1.
        -12    1    4    4    0    0  0.21675900689E+00  0.12066214487E+01  0.16741124271E+01  0.20749872785E+01  0.00000000000E+00 0.  1.
</event>
<event>
 8    1  0.7489580E-009  0.9118800E+02  0.7816164E-02  0.1184000E+00
        -11   -1    0    0    0    0  0.00000000000E+00  0.00000000000E+00  0.45593999997E+02  0.45594000000E+02  0.51100000000E-03 0. -1.
         11   -1    0    0    0    0 -0.00000000000E+00 -0.00000000000E+00 -0.45593999997E+02  0.45594000000E+02  0.51100000000E-03 0.  1.
         23    2    1    2    0    0  0.00000000000E+00  0.88817841970E-15  0.00000000000E+00  0.91188000000E+02  0.91188000000E+02 0.  0.
    9900012    2    3    3    0    0 -0.22461900164E+02 -0.73643130782E+01  0.38345056710E+02  0.46142318296E+02  0.10000004877E+02 0.  0.
        -12    1    3    3    0    0  0.22461900164E+02  0.73643130782E+01 -0.38345056710E+02  0.45045681704E+02  0.00000000000E+00 0.  1.
         11    1    4    4    0    0 -0.10290544525E+02  0.18493526521E-01  0.18102404255E+02  0.20822888577E+02  0.51100000000E-03 0. -1.
        -11    1    4    4    0    0 -0.34896011271E+01  0.39330080079E+00  0.55116417341E+01  0.65353038501E+01  0.51100000000E-03 0.  1.
         12    1    4    4    0    0 -0.86817545120E+01 -0.77761074055E+01  0.14731010721E+02  0.18784125868E+02  0.00000000000E+00 0. -1.
</event>
<event>
 8    1  0.7489580E-009  0.9118800E+02  0.7816164E-02  0.1184000E+00
        -11   -1    0    0    0    0  0.00000000000E+00  0.00000000000E+00  0.45593999997E+02  0.45594000000E+02  0.51100000000E-03 0.  1.
         11   -1    0    0    0    0 -0.00000000000E+00 -0.00000000000E+00 -0.45593999997E+02  0.45594000000E+02  0.51100000000E-03 0. -1.
         23    2    1    2    0    0  0.17763568394E-14  0.00000000000E+00  0.00000000000E+00  0.91188000000E+02  0.91188000000E+02 0.  0.
    9900012    2    3    3    0    0  0.10549210247E+02  0.43754727559E+02 -0.18306998145E+01  0.46142317827E+02  0.10000000600E+02 0.  0.
         12    1    3    3    0    0 -0.10549210247E+02 -0.43754727559E+02  0.18306998145E+01  0.45045682173E+02  0.00000000000E+00 0. -1.
         11    1    4    4    0    0  0.82012576689E+00  0.15345099653E+02  0.99224161244E+00  0.15399001049E+02  0.51100000000E-03 0. -1.
        -11    1    4    4    0    0  0.10469425255E+02  0.25139745457E+02 -0.29239976385E+01  0.27389148020E+02  0.51100000000E-03 0.  1.
        -12    1    4    4    0    0 -0.74034077520E+00  0.32698824499E+01  0.10105621162E+00  0.33541687581E+01  0.00000000000E+00 0.  1.
</event>
<event>
 8    1  0.7489580E-009  0.9118800E+02  0.7816164E-02  0.1184000E+00
        -11   -1    0    0    0    0  0.00000000000E+00  0.00000000000E+00  0.45593999997E+02  0.45594000000E+02  0.51100000000E-03 0. -1.
         11   -1    0    0    0    0 -0.00000000000E+00 -0.00000000000E+00 -0.45593999997E+02  0.45594000000E+02  0.51100000000E-03 0.  1.
         23    2    1    2    0    0  0.00000000000E+00  0.00000000000E+00  0.00000000000E+00  0.91188000000E+02  0.91188000000E+02 0.  0.
    9900012    2    3    3    0    0  0.18797012967E+02 -0.17513972789E+02  0.37000628683E+02  0.46142318051E+02  0.10000002645E+02 0.  0.
        -12    1    3    3    0    0 -0.18797012967E+02  0.17513972789E+02 -0.37000628683E+02  0.45045681949E+02  0.00000000000E+00 0.  1.
         11    1    4    4    0    0  0.12572323549E+02 -0.11630768807E+02  0.25669735127E+02  0.30858927464E+02  0.51100000000E-03 0. -1.
        -11    1    4    4    0    0  0.48639682227E+01 -0.77617529037E+00  0.47478813259E+01  0.68412727105E+01  0.51100000000E-03 0.  1.
         12    1    4    4    0    0  0.13607211946E+01 -0.51070286917E+01  0.65830122294E+01  0.84421178764E+01  0.00000000000E+00 0. -1.
</event>
<event>
 8    1  0.7489580E-009  0.9118800E+02  0.7816164E-02  0.1184000E+00
        -11   -1    0    0    0    0  0.00000000000E+00  0.00000000000E+00  0.45593999997E+02  0.45594000000E+02  0.51100000000E-03 0. -1.
         11   -1    0    0    0    0 -0.00000000000E+00 -0.00000000000E+00 -0.45593999997E+02  0.45594000000E+02  0.51100000000E-03 0.  1.
         23    2    1    2    0    0 -0.17763568394E-14  0.35527136788E-14 -0.71054273576E-14  0.91188000000E+02  0.91188000000E+02 0.  0.
    9900012    2    3    3    0    0 -0.80027226538E+01  0.27938652735E+02 -0.34416590439E+02  0.46142316700E+02  0.99999903225E+01 0.  0.
         12    1    3    3    0    0  0.80027226538E+01 -0.27938652735E+02  0.34416590439E+02  0.45045683300E+02  0.00000000000E+00 0. -1.
         11    1    4    4    0    0 -0.25936336005E+01  0.25818344479E+01 -0.54922482830E+01  0.65998178636E+01  0.51100000000E-03 0. -1.
        -11    1    4    4    0    0 -0.35813970934E+01  0.36057140687E+01 -0.64684222326E+01  0.82260601460E+01  0.51100000000E-03 0.  1.
         12    1    4    4    0    0 -0.18276919600E+01  0.21751104219E+02 -0.22455919923E+02  0.31316438690E+02  0.00000000000E+00 0. -1.
</event>
<event>
 8    1  0.7489580E-009  0.9118800E+02  0.7816164E-02  0.1184000E+00
        -11   -1    0    0    0    0  0.00000000000E+00  0.00000000000E+00  0.45593999997E+02  0.45594000000E+02  0.51100000000E-03 0. -1.
         11   -1    0    0    0    0 -0.00000000000E+00 -0.00000000000E+00 -0.45593999997E+02  0.45594000000E+02  0.51100000000E-03 0.  1.
         23    2    1    2    0    0  0.71054273576E-14  0.00000000000E+00  0.00000000000E+00  0.91188000000E+02  0.91188000000E+02 0.  0.
    9900012    2    3    3    0    0  0.42620006792E+02 -0.12075664806E+02 -0.81747632093E+01  0.46142318598E+02  0.10000007630E+02 0.  0.
         12    1    3    3    0    0 -0.42620006792E+02  0.12075664806E+02  0.81747632093E+01  0.45045681402E+02  0.00000000000E+00 0. -1.
         11    1    4    4    0    0  0.10546400825E+02 -0.18519855146E+01 -0.41034826961E+01  0.11467126546E+02  0.51100000000E-03 0. -1.
        -11    1    4    4    0    0  0.25170948888E+02 -0.76914644296E+01 -0.10273507333E+00  0.26320065496E+02  0.51100000000E-03 0.  1.
         12    1    4    4    0    0  0.69026570790E+01 -0.25322148614E+01 -0.39685454399E+01  0.83551265558E+01  0.00000000000E+00 0. -1.
</event>
<event>
 8    1  0.7489580E-009  0.9118800E+02  0.7816164E-02  0.1184000E+00
        -11   -1    0    0    0    0  0.00000000000E+00  0.00000000000E+00  0.45593999997E+02  0.45594000000E+02  0.51100000000E-03 0.  1.
         11   -1    0    0    0    0 -0.00000000000E+00 -0.00000000000E+00 -0.45593999997E+02  0.45594000000E+02  0.51100000000E-03 0. -1.
         23    2    1    2    0    0  0.00000000000E+00  0.71054273576E-14  0.00000000000E+00  0.91188000000E+02  0.91188000000E+02 0.  0.
    9900012    2    3    3    0    0  0.28452905092E+02  0.32277081987E+02 -0.13331754150E+02  0.46142317649E+02  0.99999989758E+01 0.  0.
         12    1    3    3    0    0 -0.28452905092E+02 -0.32277081987E+02  0.13331754150E+02  0.45045682351E+02  0.00000000000E+00 0. -1.
         11    1    4    4    0    0  0.60260644162E+01  0.77230782952E+01  0.72362128322E+00  0.98225769900E+01  0.51100000000E-03 0. -1.
        -11    1    4    4    0    0  0.27427551851E+01  0.32674187496E+01 -0.43846165634E+00  0.42884706103E+01  0.51100000000E-03 0.  1.
         12    1    4    4    0    0  0.19684085491E+02  0.21286584942E+02 -0.13616913777E+02  0.32031270048E+02  0.00000000000E+00 0. -1.
</event>
<event>
 8    1  0.7489580E-009  0.9118800E+02  0.7816164E-02  0.1184000E+00
        -11   -1    0    0    0    0  0.00000000000E+00  0.00000000000E+00  0.45593999997E+02  0.45594000000E+02  0.51100000000E-03 0. -1.
         11   -1    0    0    0    0 -0.00000000000E+00 -0.00000000000E+00 -0.45593999997E+02  0.45594000000E+02  0.51100000000E-03 0.  1.
         23    2    1    2    0    0 -0.17763568394E-14  0.35527136788E-14  0.00000000000E+00  0.91188000000E+02  0.91188000000E+02 0.  0.
    9900012    2    3    3    0    0 -0.92777128369E+01  0.23145153392E+02  0.37514522940E+02  0.46142317494E+02  0.99999975619E+01 0.  0.
        -12    1    3    3    0    0  0.92777128369E+01 -0.23145153392E+02 -0.37514522940E+02  0.45045682506E+02  0.00000000000E+00 0.  1.
         11    1    4    4    0    0  0.11695364317E+01  0.68128765941E+01  0.10027535675E+02  0.12179268243E+02  0.51100000000E-03 0. -1.
        -11    1    4    4    0    0  0.29059862346E+00  0.25667313254E+00  0.16459103616E+01  0.16909612168E+01  0.51100000000E-03 0.  1.
         12    1    4    4    0    0 -0.10737847892E+02  0.16075603666E+02  0.25841076903E+02  0.32272088034E+02  0.00000000000E+00 0. -1.
</event>
<event>
 8    1  0.7489580E-009  0.9118800E+02  0.7816164E-02  0.1184000E+00
        -11   -1    0    0    0    0  0.00000000000E+00  0.00000000000E+00  0.45593999997E+02  0.45594000000E+02  0.51100000000E-03 0. -1.
         11   -1    0    0    0    0 -0.00000000000E+00 -0.00000000000E+00 -0.45593999997E+02  0.45594000000E+02  0.51100000000E-03 0.  1.
         23    2    1    2    0    0  0.00000000000E+00  0.00000000000E+00  0.00000000000E+00  0.91188000000E+02  0.91188000000E+02 0.  0.
    9900012    2    3    3    0    0  0.12199786804E+02 -0.12248437743E+02  0.41596326929E+02  0.46142318306E+02  0.10000004973E+02 0.  0.
        -12    1    3    3    0    0 -0.12199786804E+02  0.12248437743E+02 -0.41596326929E+02  0.45045681694E+02  0.00000000000E+00 0.  1.
         11    1    4    4    0    0  0.27445169021E+01 -0.48469385665E+01  0.21621928435E+02  0.22327852024E+02  0.51100000000E-03 0. -1.
        -11    1    4    4    0    0  0.85851778043E+01 -0.66570418727E+01  0.19893431559E+02  0.22666497389E+02  0.51100000000E-03 0.  1.
        -12    1    4    4    0    0  0.87009209780E+00 -0.74445730380E+00  0.80966935271E-01  0.11479688935E+01  0.00000000000E+00 0.  1.
</event>
<event>
 8    1  0.7489580E-009  0.9118800E+02  0.7816164E-02  0.1184000E+00
        -11   -1    0    0    0    0  0.00000000000E+00  0.00000000000E+00  0.45593999997E+02  0.45594000000E+02  0.51100000000E-03 0. -1.
         11   -1    0    0    0    0 -0.00000000000E+00 -0.00000000000E+00 -0.45593999997E+02  0.45594000000E+02  0.51100000000E-03 0.  1.
         23    2    1    2    0    0  0.17763568394E-14  0.35527136788E-14  0.71054273576E-14  0.91188000000E+02  0.91188000000E+02 0.  0.
    9900012    2    3    3    0    0  0.13355159334E+02 -0.26496110729E+02  0.33892615068E+02  0.46142317402E+02  0.99999967255E+01 0.  0.
        -12    1    3    3    0    0 -0.13355159334E+02  0.26496110729E+02 -0.33892615068E+02  0.45045682598E+02  0.00000000000E+00 0.  1.
         11    1    4    4    0    0  0.20070560380E+01 -0.46173813617E+01  0.43952225959E+01  0.66832975774E+01  0.51100000000E-03 0. -1.
        -11    1    4    4    0    0 -0.14605404948E+01 -0.36120156974E+01  0.46014832026E+01  0.60293850316E+01  0.51100000000E-03 0.  1.
        -12    1    4    4    0    0  0.12808643791E+02 -0.18266713670E+02  0.24895909269E+02  0.33429634793E+02  0.00000000000E+00 0.  1.
</event>
<event>
 8    1  0.7489580E-009  0.9118800E+02  0.7816164E-02  0.1184000E+00
        -11   -1    0    0    0    0  0.00000000000E+00  0.00000000000E+00  0.45593999997E+02  0.45594000000E+02  0.51100000000E-03 0. -1.
         11   -1    0    0    0    0 -0.00000000000E+00 -0.00000000000E+00 -0.45593999997E+02  0.45594000000E+02  0.51100000000E-03 0.  1.
         23    2    1    2    0    0  0.00000000000E+00  0.00000000000E+00  0.00000000000E+00  0.91188000000E+02  0.91188000000E+02 0.  0.
    9900012    2    3    3    0    0  0.11437980986E+02  0.96469284103E+01 -0.42487915515E+02  0.46142316504E+02  0.99999885376E+01 0.  0.
         12    1    3    3    0    0 -0.11437980986E+02 -0.96469284103E+01  0.42487915515E+02  0.45045683496E+02  0.00000000000E+00 0. -1.
         11    1    4    4    0    0  0.75934295750E+01  0.79996042217E+01 -0.22170724923E+02  0.24762772144E+02  0.51100000000E-03 0. -1.
        -11    1    4    4    0    0  0.36428999211E+01 -0.94804708763E+00 -0.14917599910E+02  0.15385197445E+02  0.51100000000E-03 0.  1.
         12    1    4    4    0    0  0.20165148983E+00  0.25953712762E+01 -0.53995906828E+01  0.59943469142E+01  0.00000000000E+00 0. -1.
</event>
<event>
 8    1  0.7489580E-009  0.9118800E+02  0.7816164E-02  0.1184000E+00
        -11   -1    0    0    0    0  0.00000000000E+00  0.00000000000E+00  0.45593999997E+02  0.45594000000E+02  0.51100000000E-03 0. -1.
         11   -1    0    0    0    0 -0.00000000000E+00 -0.00000000000E+00 -0.45593999997E+02  0.45594000000E+02  0.51100000000E-03 0.  1.
         23    2    1    2    0    0  0.35527136788E-14  0.00000000000E+00  0.71054273576E-14  0.91188000000E+02  0.91188000000E+02 0.  0.
    9900012    2    3    3    0    0  0.28531241189E+02 -0.77941843041E+01  0.33975468281E+02  0.46142317880E+02  0.10000001083E+02 0.  0.
        -12    1    3    3    0    0 -0.28531241189E+02  0.77941843041E+01 -0.33975468281E+02  0.45045682120E+02  0.00000000000E+00 0.  1.
         11    1    4    4    0    0  0.13303117930E+01 -0.14074871325E+01  0.15771934368E+01  0.24976566804E+01  0.51100000000E-03 0. -1.
        -11    1    4    4    0    0  0.10225976193E+02 -0.67577676794E+01  0.14080775802E+02  0.18668322382E+02  0.51100000000E-03 0.  1.
         12    1    4    4    0    0  0.16974953203E+02  0.37107050773E+00  0.18317499042E+02  0.24976338818E+02  0.00000000000E+00 0. -1.
</event>
<event>
 8    1  0.7489580E-009  0.9118800E+02  0.7816164E-02  0.1184000E+00
        -11   -1    0    0    0    0  0.00000000000E+00  0.00000000000E+00  0.45593999997E+02  0.45594000000E+02  0.51100000000E-03 0. -1.
         11   -1    0    0    0    0 -0.00000000000E+00 -0.00000000000E+00 -0.45593999997E+02  0.45594000000E+02  0.51100000000E-03 0.  1.
         23    2    1    2    0    0 -0.22204460493E-15  0.00000000000E+00  0.00000000000E+00  0.91188000000E+02  0.91188000000E+02 0.  0.
    9900012    2    3    3    0    0  0.17687904689E+01  0.17957435569E+02 -0.41273665423E+02  0.46142316862E+02  0.99999917974E+01 0.  0.
         12    1    3    3    0    0 -0.17687904689E+01 -0.17957435569E+02  0.41273665423E+02  0.45045683138E+02  0.00000000000E+00 0. -1.
         11    1    4    4    0    0  0.12361522260E+01  0.13822411890E+01 -0.11424610567E+02  0.11574125881E+02  0.51100000000E-03 0. -1.
        -11    1    4    4    0    0 -0.13107263568E+01  0.14596304129E+01 -0.18516010884E+01  0.26975825059E+01  0.51100000000E-03 0.  1.
        -12    1    4    4    0    0  0.18433645996E+01  0.15115563967E+02 -0.27997453768E+02  0.31870608475E+02  0.00000000000E+00 0.  1.
</event>
<event>
 8    1  0.7489580E-009  0.9118800E+02  0.7816164E-02  0.1184000E+00
        -11   -1    0    0    0    0  0.00000000000E+00  0.00000000000E+00  0.45593999997E+02  0.45594000000E+02  0.51100000000E-03 0. -1.
         11   -1    0    0    0    0 -0.00000000000E+00 -0.00000000000E+00 -0.45593999997E+02  0.45594000000E+02  0.51100000000E-03 0.  1.
         23    2    1    2    0    0  0.00000000000E+00 -0.35527136788E-14  0.00000000000E+00  0.91188000000E+02  0.91188000000E+02 0.  0.
    9900012    2    3    3    0    0 -0.60661592287E+01 -0.22407229080E+02  0.38603514451E+02  0.46142317290E+02  0.99999957027E+01 0.  0.
        -12    1    3    3    0    0  0.60661592287E+01  0.22407229080E+02 -0.38603514451E+02  0.45045682710E+02  0.00000000000E+00 0.  1.
         11    1    4    4    0    0  0.24488203404E+01 -0.91913137619E+01  0.14864415426E+02  0.17647317528E+02  0.51100000000E-03 0. -1.
        -11    1    4    4    0    0 -0.38825604100E+01 -0.54750475031E+01  0.10977669954E+02  0.12866998810E+02  0.51100000000E-03 0.  1.
         12    1    4    4    0    0 -0.46324191591E+01 -0.77408678151E+01  0.12761429071E+02  0.15628000951E+02  0.00000000000E+00 0. -1.
</event>
<event>
 8    1  0.7489580E-009  0.9118800E+02  0.7816164E-02  0.1184000E+00
        -11   -1    0    0    0    0  0.00000000000E+00  0.00000000000E+00  0.45593999997E+02  0.45594000000E+02  0.51100000000E-03 0. -1.
         11   -1    0    0    0    0 -0.00000000000E+00 -0.00000000000E+00 -0.45593999997E+02  0.45594000000E+02  0.51100000000E-03 0.  1.
         23    2    1    2    0    0  0.88817841970E-15  0.17763568394E-14 -0.71054273576E-14  0.91188000000E+02  0.91188000000E+02 0.  0.
    9900012    2    3    3    0    0 -0.74410579220E+01 -0.84841652619E+01  0.43609209282E+02  0.46142317217E+02  0.99999950390E+01 0.  0.
        -12    1    3    3    0    0  0.74410579220E+01  0.84841652619E+01 -0.43609209282E+02  0.45045682783E+02  0.00000000000E+00 0.  1.
         11    1    4    4    0    0  0.68653319055E+00  0.15896074192E+01  0.52001914855E+01  0.54808914709E+01  0.51100000000E-03 0. -1.
        -11    1    4    4    0    0 -0.78844211482E+00 -0.11284306382E+00  0.44042741544E+01  0.44757128610E+01  0.51100000000E-03 0.  1.
         12    1    4    4    0    0 -0.73391489978E+01 -0.99609296174E+01  0.34004743642E+02  0.36185712885E+02  0.00000000000E+00 0. -1.
</event>
<event>
 8    1  0.7489580E-009  0.9118800E+02  0.7816164E-02  0.1184000E+00
        -11   -1    0    0    0    0  0.00000000000E+00  0.00000000000E+00  0.45593999997E+02  0.45594000000E+02  0.51100000000E-03 0. -1.
         11   -1    0    0    0    0 -0.00000000000E+00 -0.00000000000E+00 -0.45593999997E+02  0.45594000000E+02  0.51100000000E-03 0.  1.
         23    2    1    2    0    0 -0.71054273576E-14  0.00000000000E+00  0.00000000000E+00  0.91188000000E+02  0.91188000000E+02 0.  0.
    9900012    2    3    3    0    0 -0.42442672530E+02 -0.64775207629E+01  0.13629914428E+02  0.46142319918E+02  0.10000019668E+02 0.  0.
        -12    1    3    3    0    0  0.42442672530E+02  0.64775207629E+01 -0.13629914428E+02  0.45045680082E+02  0.00000000000E+00 0.  1.
         11    1    4    4    0    0 -0.17819599868E+02 -0.36237856528E+01  0.61723894849E+01  0.19203342264E+02  0.51100000000E-03 0. -1.
        -11    1    4    4    0    0 -0.75281365504E+01 -0.43826217290E+01  0.21229675927E+01  0.89658911884E+01  0.51100000000E-03 0.  1.
        -12    1    4    4    0    0 -0.17094936112E+02  0.15288866189E+01  0.53345573508E+01  0.17973086465E+02  0.00000000000E+00 0.  1.
</event>
<event>
 8    1  0.7489580E-009  0.9118800E+02  0.7816164E-02  0.1184000E+00
        -11   -1    0    0    0    0  0.00000000000E+00  0.00000000000E+00  0.45593999997E+02  0.45594000000E+02  0.51100000000E-03 0. -1.
         11   -1    0    0    0    0 -0.00000000000E+00 -0.00000000000E+00 -0.45593999997E+02  0.45594000000E+02  0.51100000000E-03 0.  1.
         23    2    1    2    0    0  0.00000000000E+00  0.00000000000E+00 -0.71054273576E-14  0.91188000000E+02  0.91188000000E+02 0.  0.
    9900012    2    3    3    0    0 -0.84876181714E+01 -0.26012404890E+02  0.35783077226E+02  0.46142317786E+02  0.10000000227E+02 0.  0.
        -12    1    3    3    0    0  0.84876181714E+01  0.26012404890E+02 -0.35783077226E+02  0.45045682214E+02  0.00000000000E+00 0.  1.
         11    1    4    4    0    0 -0.49448127475E+01 -0.14554268539E+02  0.24756290924E+02  0.29140210129E+02  0.51100000000E-03 0. -1.
        -11    1    4    4    0    0 -0.25870543923E+01 -0.23936619949E+01  0.48346480169E+01  0.59830000738E+01  0.51100000000E-03 0.  1.
        -12    1    4    4    0    0 -0.95575103164E+00 -0.90644743561E+01  0.61921382850E+01  0.11019107583E+02  0.00000000000E+00 0.  1.
</event>
<event>
 8    1  0.7489580E-009  0.9118800E+02  0.7816164E-02  0.1184000E+00
        -11   -1    0    0    0    0  0.00000000000E+00  0.00000000000E+00  0.45593999997E+02  0.45594000000E+02  0.51100000000E-03 0. -1.
         11   -1    0    0    0    0 -0.00000000000E+00 -0.00000000000E+00 -0.45593999997E+02  0.45594000000E+02  0.51100000000E-03 0.  1.
         23    2    1    2    0    0  0.17763568394E-14  0.35527136788E-14  0.00000000000E+00  0.91188000000E+02  0.91188000000E+02 0.  0.
    9900012    2    3    3    0    0 -0.12143809155E+02 -0.29569120429E+02 -0.31738124834E+02  0.46142317059E+02  0.99999935952E+01 0.  0.
         12    1    3    3    0    0  0.12143809155E+02  0.29569120429E+02  0.31738124834E+02  0.45045682941E+02  0.00000000000E+00 0. -1.
         11    1    4    4    0    0 -0.91306300227E+00 -0.25259045282E+00 -0.28489796304E+01  0.30023609341E+01  0.51100000000E-03 0. -1.
        -11    1    4    4    0    0 -0.67191933675E+01 -0.23761642647E+02 -0.24262707409E+02  0.34618523826E+02  0.51100000000E-03 0.  1.
        -12    1    4    4    0    0 -0.45115527848E+01 -0.55548873284E+01 -0.46264377946E+01  0.85214322991E+01  0.00000000000E+00 0.  1.
</event>
<event>
 8    1  0.7489580E-009  0.9118800E+02  0.7816164E-02  0.1184000E+00
        -11   -1    0    0    0    0  0.00000000000E+00  0.00000000000E+00  0.45593999997E+02  0.45594000000E+02  0.51100000000E-03 0.  1.
         11   -1    0    0    0    0 -0.00000000000E+00 -0.00000000000E+00 -0.45593999997E+02  0.45594000000E+02  0.51100000000E-03 0. -1.
         23    2    1    2    0    0  0.22204460493E-15  0.14210854715E-13 -0.17763568394E-14  0.91188000000E+02  0.91188000000E+02 0.  0.
    9900012    2    3    3    0    0 -0.17236535072E+01 -0.43638008615E+02  0.11039323156E+02  0.46142318376E+02  0.10000005604E+02 0.  0.
        -12    1    3    3    0    0  0.17236535072E+01  0.43638008615E+02 -0.11039323156E+02  0.45045681624E+02  0.00000000000E+00 0.  1.
         11    1    4    4    0    0 -0.17093155125E+01 -0.83792174499E+01 -0.41187544587E-01  0.85518852465E+01  0.51100000000E-03 0. -1.
        -11    1    4    4    0    0  0.45237136942E+00 -0.32941945163E+02  0.83648904160E+01  0.33990407219E+02  0.51100000000E-03 0.  1.
         12    1    4    4    0    0 -0.46670936412E+00 -0.23168460019E+01  0.27156202841E+01  0.36000259102E+01  0.00000000000E+00 0. -1.
</event>
<event>
 8    1  0.7489580E-009  0.9118800E+02  0.7816164E-02  0.1184000E+00
        -11   -1    0    0    0    0  0.00000000000E+00  0.00000000000E+00  0.45593999997E+02  0.45594000000E+02  0.51100000000E-03 0. -1.
         11   -1    0    0    0    0 -0.00000000000E+00 -0.00000000000E+00 -0.45593999997E+02  0.45594000000E+02  0.51100000000E-03 0.  1.
         23    2    1    2    0    0 -0.35527136788E-14 -0.35527136788E-14  0.00000000000E+00  0.91188000000E+02  0.91188000000E+02 0.  0.
    9900012    2    3    3    0    0  0.27733926147E+02  0.22631582523E+02  0.27345094441E+02  0.46142318997E+02  0.10000011274E+02 0.  0.
        -12    1    3    3    0    0 -0.27733926147E+02 -0.22631582523E+02 -0.27345094441E+02  0.45045681003E+02  0.00000000000E+00 0.  1.
         11    1    4    4    0    0  0.15052037505E+02  0.17754882378E+02  0.16524443186E+02  0.28545698524E+02  0.51100000000E-03 0. -1.
        -11    1    4    4    0    0  0.70222715402E+01  0.35219965516E+01  0.47172467047E+01  0.91634695409E+01  0.51100000000E-03 0.  1.
         12    1    4    4    0    0  0.56596171013E+01  0.13547035932E+01  0.61034045498E+01  0.84331509329E+01  0.00000000000E+00 0. -1.
</event>
<event>
 8    1  0.7489580E-009  0.9118800E+02  0.7816164E-02  0.1184000E+00
        -11   -1    0    0    0    0  0.00000000000E+00  0.00000000000E+00  0.45593999997E+02  0.45594000000E+02  0.51100000000E-03 0. -1.
         11   -1    0    0    0    0 -0.00000000000E+00 -0.00000000000E+00 -0.45593999997E+02  0.45594000000E+02  0.51100000000E-03 0.  1.
         23    2    1    2    0    0  0.00000000000E+00 -0.71054273576E-14  0.00000000000E+00  0.91188000000E+02  0.91188000000E+02 0.  0.
    9900012    2    3    3    0    0 -0.22656425574E+02  0.37770518924E+02 -0.94439262330E+01  0.46142318051E+02  0.10000002639E+02 0.  0.
         12    1    3    3    0    0  0.22656425574E+02 -0.37770518924E+02  0.94439262330E+01  0.45045681949E+02  0.00000000000E+00 0. -1.
         11    1    4    4    0    0 -0.19441247567E+01  0.52378254638E+01 -0.33345412413E+01  0.65064277611E+01  0.51100000000E-03 0.  1.
        -11    1    4    4    0    0 -0.88339623184E+01  0.18254870080E+02 -0.56704102880E+01  0.21057842363E+02  0.51100000000E-03 0. -1.
         12    1    4    4    0    0 -0.11878338499E+02  0.14277823381E+02 -0.43897470372E+00  0.18578047927E+02  0.00000000000E+00 0. -1.
</event>
<event>
 8    1  0.1087227E-008  0.9118800E+02  0.7816164E-02  0.1184000E+00
        -11   -1    0    0    0    0  0.00000000000E+00  0.00000000000E+00  0.45593999997E+02  0.45594000000E+02  0.51100000000E-03 0. -1.
         11   -1    0    0    0    0 -0.00000000000E+00 -0.00000000000E+00 -0.45593999997E+02  0.45594000000E+02  0.51100000000E-03 0.  1.
         23    2    1    2    0    0  0.00000000000E+00  0.00000000000E+00  0.71054273576E-14  0.91188000000E+02  0.91188000000E+02 0.  0.
    9900012    2    3    3    0    0 -0.12992035102E+02  0.17313992005E+02 -0.39503730379E+02  0.46142334181E+02  0.10000149727E+02 0.  0.
         12    1    3    3    0    0  0.12992035102E+02 -0.17313992005E+02  0.39503730379E+02  0.45045665819E+02  0.00000000000E+00 0. -1.
         11    1    4    4    0    0 -0.78880950129E+01  0.85006599605E+01 -0.16363879966E+02  0.20056416193E+02  0.51100000000E-03 0. -1.
        -11    1    4    4    0    0 -0.36377264210E+01  0.93324816240E+01 -0.16811573680E+02  0.19569294230E+02  0.51100000000E-03 0.  1.
         12    1    4    4    0    0 -0.14662136683E+01 -0.51914957920E+00 -0.63282767322E+01  0.65166237582E+01  0.00000000000E+00 0. -1.
</event>
<event>
 8    1  0.7489580E-009  0.9118800E+02  0.7816164E-02  0.1184000E+00
        -11   -1    0    0    0    0  0.00000000000E+00  0.00000000000E+00  0.45593999997E+02  0.45594000000E+02  0.51100000000E-03 0. -1.
         11   -1    0    0    0    0 -0.00000000000E+00 -0.00000000000E+00 -0.45593999997E+02  0.45594000000E+02  0.51100000000E-03 0.  1.
         23    2    1    2    0    0 -0.35527136788E-14  0.71054273576E-14 -0.35527136788E-14  0.91188000000E+02  0.91188000000E+02 0.  0.
    9900012    2    3    3    0    0 -0.21835633763E+02  0.28334478375E+02 -0.27376561984E+02  0.46142315271E+02  0.99999772932E+01 0.  0.
         12    1    3    3    0    0  0.21835633763E+02 -0.28334478375E+02  0.27376561984E+02  0.45045684729E+02  0.00000000000E+00 0. -1.
         11    1    4    4    0    0 -0.37781383026E+01  0.47547548544E+01 -0.67144804807E+01  0.90535225822E+01  0.51100000000E-03 0. -1.
        -11    1    4    4    0    0 -0.16769423430E+02  0.17903737654E+02 -0.19022050012E+02  0.31041839042E+02  0.51100000000E-03 0.  1.
         12    1    4    4    0    0 -0.12880720296E+01  0.56759858670E+01 -0.16400314914E+01  0.60469536469E+01  0.00000000000E+00 0. -1.
</event>
<event>
 8    1  0.7489580E-009  0.9118800E+02  0.7816164E-02  0.1184000E+00
        -11   -1    0    0    0    0  0.00000000000E+00  0.00000000000E+00  0.45593999997E+02  0.45594000000E+02  0.51100000000E-03 0. -1.
         11   -1    0    0    0    0 -0.00000000000E+00 -0.00000000000E+00 -0.45593999997E+02  0.45594000000E+02  0.51100000000E-03 0.  1.
         23    2    1    2    0    0  0.00000000000E+00  0.00000000000E+00  0.00000000000E+00  0.91188000000E+02  0.91188000000E+02 0.  0.
    9900012    2    3    3    0    0 -0.16350744753E+02 -0.40458171559E+02 -0.11176004093E+02  0.46142316884E+02  0.99999920053E+01 0.  0.
         12    1    3    3    0    0  0.16350744753E+02  0.40458171559E+02  0.11176004093E+02  0.45045683116E+02  0.00000000000E+00 0. -1.
         11    1    4    4    0    0  0.25071325267E+00 -0.44943094826E+00 -0.14379667280E+01  0.15272831710E+01  0.51100000000E-03 0. -1.
        -11    1    4    4    0    0  0.69625669414E-01 -0.20208829708E+01 -0.96375813056E-01  0.20243775029E+01  0.51100000000E-03 0.  1.
        -12    1    4    4    0    0 -0.16671083675E+02 -0.37987857640E+02 -0.96416615516E+01  0.42590656211E+02  0.00000000000E+00 0.  1.
</event>
<event>
 8    1  0.7489580E-009  0.9118800E+02  0.7816164E-02  0.1184000E+00
        -11   -1    0    0    0    0  0.00000000000E+00  0.00000000000E+00  0.45593999997E+02  0.45594000000E+02  0.51100000000E-03 0. -1.
         11   -1    0    0    0    0 -0.00000000000E+00 -0.00000000000E+00 -0.45593999997E+02  0.45594000000E+02  0.51100000000E-03 0.  1.
         23    2    1    2    0    0  0.17763568394E-14  0.71054273576E-14  0.71054273576E-14  0.91188000000E+02  0.91188000000E+02 0.  0.
    9900012    2    3    3    0    0 -0.90268604472E+01 -0.30101485375E+02 -0.32272742831E+02  0.46142316953E+02  0.99999926343E+01 0.  0.
         12    1    3    3    0    0  0.90268604472E+01  0.30101485375E+02  0.32272742831E+02  0.45045683047E+02  0.00000000000E+00 0. -1.
         11    1    4    4    0    0 -0.87735960986E+01 -0.18230955268E+02 -0.16035243027E+02  0.25816133283E+02  0.51100000000E-03 0.  1.
        -11    1    4    4    0    0 -0.72770115656E+00 -0.93446238603E+00 -0.24537366973E+01  0.27246271240E+01  0.51100000000E-03 0. -1.
        -12    1    4    4    0    0  0.47443680794E+00 -0.10936067721E+02 -0.13783763106E+02  0.17601556546E+02  0.00000000000E+00 0.  1.
</event>
<event>
 8    1  0.7489580E-009  0.9118800E+02  0.7816164E-02  0.1184000E+00
        -11   -1    0    0    0    0  0.00000000000E+00  0.00000000000E+00  0.45593999997E+02  0.45594000000E+02  0.51100000000E-03 0. -1.
         11   -1    0    0    0    0 -0.00000000000E+00 -0.00000000000E+00 -0.45593999997E+02  0.45594000000E+02  0.51100000000E-03 0.  1.
         23    2    1    2    0    0  0.17763568394E-14  0.00000000000E+00  0.00000000000E+00  0.91188000000E+02  0.91188000000E+02 0.  0.
    9900012    2    3    3    0    0  0.89917570816E+01  0.13702108733E+02 -0.41958475555E+02  0.46142321516E+02  0.10000034240E+02 0.  0.
         12    1    3    3    0    0 -0.89917570816E+01 -0.13702108733E+02  0.41958475555E+02  0.45045678484E+02  0.00000000000E+00 0. -1.
         11    1    4    4    0    0  0.12215363780E+01  0.74152532099E+01 -0.16394659842E+02  0.18035049289E+02  0.51100000000E-03 0. -1.
        -11    1    4    4    0    0 -0.12054069310E+00  0.17783500771E+01 -0.13255690861E+01  0.22213042832E+01  0.51100000000E-03 0.  1.
         12    1    4    4    0    0  0.78907613967E+01  0.45085054460E+01 -0.24238246628E+02  0.25885967943E+02  0.00000000000E+00 0. -1.
</event>
<event>
 8    1  0.7489580E-009  0.9118800E+02  0.7816164E-02  0.1184000E+00
        -11   -1    0    0    0    0  0.00000000000E+00  0.00000000000E+00  0.45593999997E+02  0.45594000000E+02  0.51100000000E-03 0. -1.
         11   -1    0    0    0    0 -0.00000000000E+00 -0.00000000000E+00 -0.45593999997E+02  0.45594000000E+02  0.51100000000E-03 0.  1.
         23    2    1    2    0    0  0.35527136788E-14  0.00000000000E+00  0.00000000000E+00  0.91188000000E+02  0.91188000000E+02 0.  0.
    9900012    2    3    3    0    0 -0.25262005984E+02 -0.13974317674E+02  0.34578360197E+02  0.46142317691E+02  0.99999993566E+01 0.  0.
        -12    1    3    3    0    0  0.25262005984E+02  0.13974317674E+02 -0.34578360197E+02  0.45045682309E+02  0.00000000000E+00 0.  1.
         11    1    4    4    0    0 -0.10969856664E+02 -0.72784253518E+01  0.14843832131E+02  0.19840680014E+02  0.51100000000E-03 0. -1.
        -11    1    4    4    0    0 -0.86864776781E+00 -0.30773829925E+01  0.20168935518E+01  0.37805680642E+01  0.51100000000E-03 0.  1.
        -12    1    4    4    0    0 -0.13423501552E+02 -0.36185093300E+01  0.17717634515E+02  0.22521069613E+02  0.00000000000E+00 0.  1.
</event>
<event>
 8    1  0.7489580E-009  0.9118800E+02  0.7816164E-02  0.1184000E+00
        -11   -1    0    0    0    0  0.00000000000E+00  0.00000000000E+00  0.45593999997E+02  0.45594000000E+02  0.51100000000E-03 0. -1.
         11   -1    0    0    0    0 -0.00000000000E+00 -0.00000000000E+00 -0.45593999997E+02  0.45594000000E+02  0.51100000000E-03 0.  1.
         23    2    1    2    0    0 -0.44408920985E-15  0.00000000000E+00  0.00000000000E+00  0.91188000000E+02  0.91188000000E+02 0.  0.
    9900012    2    3    3    0    0 -0.33793029618E+01  0.43801522810E+02 -0.99559218647E+01  0.46142317974E+02  0.10000001944E+02 0.  0.
        -12    1    3    3    0    0  0.33793029618E+01 -0.43801522810E+02  0.99559218647E+01  0.45045682026E+02  0.00000000000E+00 0.  1.
         11    1    4    4    0    0  0.20332558996E+01  0.14123133871E+02 -0.27074438514E+01  0.14523336131E+02  0.51100000000E-03 0. -1.
        -11    1    4    4    0    0 -0.71818355016E+00  0.33119332847E+01 -0.29542153087E+01  0.44957844749E+01  0.51100000000E-03 0.  1.
        -12    1    4    4    0    0 -0.46943753112E+01  0.26366455654E+02 -0.42942627046E+01  0.27123197368E+02  0.00000000000E+00 0.  1.
</event>
<event>
 8    1  0.7784507E-009  0.9118800E+02  0.7816164E-02  0.1184000E+00
        -11   -1    0    0    0    0  0.00000000000E+00  0.00000000000E+00  0.45593999997E+02  0.45594000000E+02  0.51100000000E-03 0. -1.
         11   -1    0    0    0    0 -0.00000000000E+00 -0.00000000000E+00 -0.45593999997E+02  0.45594000000E+02  0.51100000000E-03 0.  1.
         23    2    1    2    0    0  0.00000000000E+00  0.00000000000E+00  0.00000000000E+00  0.91188000000E+02  0.91188000000E+02 0.  0.
    9900012    2    3    3    0    0 -0.17943455649E+02 -0.38007412583E+02 -0.16204395880E+02  0.46142318102E+02  0.10000003104E+02 0.  0.
         12    1    3    3    0    0  0.17943455649E+02  0.38007412583E+02  0.16204395880E+02  0.45045681898E+02  0.00000000000E+00 0. -1.
         11    1    4    4    0    0 -0.10119764852E+02 -0.21710450852E+02 -0.61874469149E+01  0.24739398062E+02  0.51100000000E-03 0. -1.
        -11    1    4    4    0    0 -0.86842508787E+01 -0.15005521323E+02 -0.88800863943E+01  0.19479163692E+02  0.51100000000E-03 0.  1.
         12    1    4    4    0    0  0.86056008236E+00 -0.12914404077E+01 -0.11368625705E+01  0.19237563479E+01  0.00000000000E+00 0. -1.
</event>
<event>
 8    1  0.7489580E-009  0.9118800E+02  0.7816164E-02  0.1184000E+00
        -11   -1    0    0    0    0  0.00000000000E+00  0.00000000000E+00  0.45593999997E+02  0.45594000000E+02  0.51100000000E-03 0. -1.
         11   -1    0    0    0    0 -0.00000000000E+00 -0.00000000000E+00 -0.45593999997E+02  0.45594000000E+02  0.51100000000E-03 0.  1.
         23    2    1    2    0    0  0.00000000000E+00  0.00000000000E+00  0.00000000000E+00  0.91188000000E+02  0.91188000000E+02 0.  0.
    9900012    2    3    3    0    0 -0.37978874281E+02  0.11895698386E+02  0.21100022320E+02  0.46142317925E+02  0.10000001493E+02 0.  0.
        -12    1    3    3    0    0  0.37978874281E+02 -0.11895698386E+02 -0.21100022320E+02  0.45045682075E+02  0.00000000000E+00 0.  1.
         11    1    4    4    0    0 -0.25169297028E+02  0.33275065007E+01  0.13607488000E+02  0.28805026338E+02  0.51100000000E-03 0. -1.
        -11    1    4    4    0    0 -0.11247484520E+02  0.63467712732E+01  0.60334020486E+01  0.14254450328E+02  0.51100000000E-03 0.  1.
        -12    1    4    4    0    0 -0.15620927328E+01  0.22214206119E+01  0.14591322717E+01  0.30828412588E+01  0.00000000000E+00 0.  1.
</event>
<event>
 8    1  0.7489580E-009  0.9118800E+02  0.7816164E-02  0.1184000E+00
        -11   -1    0    0    0    0  0.00000000000E+00  0.00000000000E+00  0.45593999997E+02  0.45594000000E+02  0.51100000000E-03 0.  1.
         11   -1    0    0    0    0 -0.00000000000E+00 -0.00000000000E+00 -0.45593999997E+02  0.45594000000E+02  0.51100000000E-03 0. -1.
         23    2    1    2    0    0  0.35527136788E-14  0.00000000000E+00  0.44408920985E-15  0.91188000000E+02  0.91188000000E+02 0.  0.
    9900012    2    3    3    0    0  0.23115436654E+02 -0.38509129919E+02 -0.34404905151E+01  0.46142317923E+02  0.10000001472E+02 0.  0.
         12    1    3    3    0    0 -0.23115436654E+02  0.38509129919E+02  0.34404905151E+01  0.45045682077E+02  0.00000000000E+00 0. -1.
         11    1    4    4    0    0  0.32307828090E+01 -0.28150103031E+01  0.76486733142E+00  0.43528453753E+01  0.51100000000E-03 0. -1.
        -11    1    4    4    0    0  0.10621068974E+02 -0.11579962302E+02 -0.23853496361E+01  0.15893159730E+02  0.51100000000E-03 0.  1.
         12    1    4    4    0    0  0.92635848716E+01 -0.24114157314E+02 -0.18200082104E+01  0.25896312817E+02  0.00000000000E+00 0. -1.
</event>
<event>
 8    1  0.7489580E-009  0.9118800E+02  0.7816164E-02  0.1184000E+00
        -11   -1    0    0    0    0  0.00000000000E+00  0.00000000000E+00  0.45593999997E+02  0.45594000000E+02  0.51100000000E-03 0. -1.
         11   -1    0    0    0    0 -0.00000000000E+00 -0.00000000000E+00 -0.45593999997E+02  0.45594000000E+02  0.51100000000E-03 0.  1.
         23    2    1    2    0    0  0.00000000000E+00  0.14210854715E-13 -0.71054273576E-14  0.91188000000E+02  0.91188000000E+02 0.  0.
    9900012    2    3    3    0    0  0.21602827243E+02 -0.33544197084E+02  0.20909785801E+02  0.46142307141E+02  0.99999031594E+01 0.  0.
        -12    1    3    3    0    0 -0.21602827243E+02  0.33544197084E+02 -0.20909785801E+02  0.45045692859E+02  0.00000000000E+00 0.  1.
         11    1    4    4    0    0  0.17173326008E+01 -0.34049215248E+01  0.23400779080E+01  0.44742247070E+01  0.51100000000E-03 0. -1.
        -11    1    4    4    0    0  0.11287941080E+02 -0.24291017364E+02  0.11865618494E+02  0.29296143789E+02  0.51100000000E-03 0.  1.
         12    1    4    4    0    0  0.85975535627E+01 -0.58482581948E+01  0.67040893985E+01  0.12371938645E+02  0.00000000000E+00 0. -1.
</event>
<event>
 8    1  0.7489580E-009  0.9118800E+02  0.7816164E-02  0.1184000E+00
        -11   -1    0    0    0    0  0.00000000000E+00  0.00000000000E+00  0.45593999997E+02  0.45594000000E+02  0.51100000000E-03 0. -1.
         11   -1    0    0    0    0 -0.00000000000E+00 -0.00000000000E+00 -0.45593999997E+02  0.45594000000E+02  0.51100000000E-03 0.  1.
         23    2    1    2    0    0 -0.71054273576E-14 -0.17763568394E-14  0.00000000000E+00  0.91188000000E+02  0.91188000000E+02 0.  0.
    9900012    2    3    3    0    0 -0.40084539093E+02 -0.14540614597E+02 -0.14522872602E+02  0.46142316791E+02  0.99999911526E+01 0.  0.
         12    1    3    3    0    0  0.40084539093E+02  0.14540614597E+02  0.14522872602E+02  0.45045683209E+02  0.00000000000E+00 0. -1.
         11    1    4    4    0    0 -0.13884531646E+00 -0.49516133579E+00 -0.82758683729E+00  0.97435260801E+00  0.51100000000E-03 0. -1.
        -11    1    4    4    0    0 -0.25415480697E+02 -0.51088826772E+01 -0.94164792977E+01  0.27581106285E+02  0.51100000000E-03 0.  1.
         12    1    4    4    0    0 -0.14530213080E+02 -0.89365705843E+01 -0.42788064671E+01  0.17586857898E+02  0.00000000000E+00 0. -1.
</event>
<event>
 8    1  0.7489580E-009  0.9118800E+02  0.7816164E-02  0.1184000E+00
        -11   -1    0    0    0    0  0.00000000000E+00  0.00000000000E+00  0.45593999997E+02  0.45594000000E+02  0.51100000000E-03 0. -1.
         11   -1    0    0    0    0 -0.00000000000E+00 -0.00000000000E+00 -0.45593999997E+02  0.45594000000E+02  0.51100000000E-03 0.  1.
         23    2    1    2    0    0  0.35527136788E-14  0.00000000000E+00  0.00000000000E+00  0.91188000000E+02  0.91188000000E+02 0.  0.
    9900012    2    3    3    0    0  0.19280601000E+02 -0.47521641477E+01 -0.40432521985E+02  0.46142317930E+02  0.10000001544E+02 0.  0.
         12    1    3    3    0    0 -0.19280601000E+02  0.47521641477E+01  0.40432521985E+02  0.45045682070E+02  0.00000000000E+00 0. -1.
         11    1    4    4    0    0  0.37386122306E+00 -0.11940577393E+00 -0.79461486038E+01  0.79558348303E+01  0.51100000000E-03 0. -1.
        -11    1    4    4    0    0  0.41731322936E+01  0.40500690277E+00 -0.99168360175E+01  0.10766740481E+02  0.51100000000E-03 0.  1.
        -12    1    4    4    0    0  0.14733607483E+02 -0.50377652765E+01 -0.22569537364E+02  0.27419742619E+02  0.00000000000E+00 0.  1.
</event>
<event>
 8    1  0.7489580E-009  0.9118800E+02  0.7816164E-02  0.1184000E+00
        -11   -1    0    0    0    0  0.00000000000E+00  0.00000000000E+00  0.45593999997E+02  0.45594000000E+02  0.51100000000E-03 0. -1.
         11   -1    0    0    0    0 -0.00000000000E+00 -0.00000000000E+00 -0.45593999997E+02  0.45594000000E+02  0.51100000000E-03 0.  1.
         23    2    1    2    0    0  0.00000000000E+00  0.00000000000E+00 -0.35527136788E-14  0.91188000000E+02  0.91188000000E+02 0.  0.
    9900012    2    3    3    0    0 -0.27809527105E+02  0.16368255044E+02  0.31429666492E+02  0.46142317557E+02  0.99999981381E+01 0.  0.
        -12    1    3    3    0    0  0.27809527105E+02 -0.16368255044E+02 -0.31429666492E+02  0.45045682443E+02  0.00000000000E+00 0.  1.
         11    1    4    4    0    0 -0.30507737372E+01  0.47961713430E+01  0.53305909617E+01  0.77926683626E+01  0.51100000000E-03 0. -1.
        -11    1    4    4    0    0 -0.54889570833E+01  0.21940953709E+01  0.97210196249E+01  0.11377210869E+02  0.51100000000E-03 0.  1.
        -12    1    4    4    0    0 -0.19269796284E+02  0.93779883304E+01  0.16378055905E+02  0.26972438325E+02  0.00000000000E+00 0.  1.
</event>
<event>
 8    1  0.7489580E-009  0.9118800E+02  0.7816164E-02  0.1184000E+00
        -11   -1    0    0    0    0  0.00000000000E+00  0.00000000000E+00  0.45593999997E+02  0.45594000000E+02  0.51100000000E-03 0. -1.
         11   -1    0    0    0    0 -0.00000000000E+00 -0.00000000000E+00 -0.45593999997E+02  0.45594000000E+02  0.51100000000E-03 0.  1.
         23    2    1    2    0    0  0.00000000000E+00  0.00000000000E+00  0.00000000000E+00  0.91188000000E+02  0.91188000000E+02 0.  0.
    9900012    2    3    3    0    0  0.43630531061E+02 -0.93877828747E+01  0.61122647282E+01  0.46142317764E+02  0.10000000026E+02 0.  0.
        -12    1    3    3    0    0 -0.43630531061E+02  0.93877828747E+01 -0.61122647282E+01  0.45045682236E+02  0.00000000000E+00 0.  1.
         11    1    4    4    0    0  0.33219879196E+02 -0.50834588743E+01  0.49379872208E+01  0.33967420361E+02  0.51100000000E-03 0. -1.
        -11    1    4    4    0    0  0.60490913558E+01 -0.28502313930E+01  0.28669677603E+01  0.72756325927E+01  0.51100000000E-03 0.  1.
        -12    1    4    4    0    0  0.43615605094E+01 -0.14540926074E+01 -0.16926902529E+01  0.48992648101E+01  0.00000000000E+00 0.  1.
</event>
<event>
 8    1  0.7489580E-009  0.9118800E+02  0.7816164E-02  0.1184000E+00
        -11   -1    0    0    0    0  0.00000000000E+00  0.00000000000E+00  0.45593999997E+02  0.45594000000E+02  0.51100000000E-03 0. -1.
         11   -1    0    0    0    0 -0.00000000000E+00 -0.00000000000E+00 -0.45593999997E+02  0.45594000000E+02  0.51100000000E-03 0.  1.
         23    2    1    2    0    0 -0.35527136788E-14  0.00000000000E+00  0.71054273576E-14  0.91188000000E+02  0.91188000000E+02 0.  0.
    9900012    2    3    3    0    0 -0.27492178284E+02  0.25602693715E+02  0.24855497873E+02  0.46142316891E+02  0.99999920634E+01 0.  0.
        -12    1    3    3    0    0  0.27492178284E+02 -0.25602693715E+02 -0.24855497873E+02  0.45045683109E+02  0.00000000000E+00 0.  1.
         11    1    4    4    0    0 -0.53160577858E+01  0.89347273933E+01  0.67956628380E+01  0.12420582017E+02  0.51100000000E-03 0. -1.
        -11    1    4    4    0    0 -0.22311692517E+00 -0.32504292551E+00 -0.24919135451E+00  0.46640182033E+00  0.51100000000E-03 0.  1.
         12    1    4    4    0    0 -0.21953003573E+02  0.16993009247E+02  0.18309026390E+02  0.33255333053E+02  0.00000000000E+00 0. -1.
</event>
<event>
 8    1  0.7489580E-009  0.9118800E+02  0.7816164E-02  0.1184000E+00
        -11   -1    0    0    0    0  0.00000000000E+00  0.00000000000E+00  0.45593999997E+02  0.45594000000E+02  0.51100000000E-03 0. -1.
         11   -1    0    0    0    0 -0.00000000000E+00 -0.00000000000E+00 -0.45593999997E+02  0.45594000000E+02  0.51100000000E-03 0.  1.
         23    2    1    2    0    0 -0.71054273576E-14 -0.44408920985E-15 -0.35527136788E-14  0.91188000000E+02  0.91188000000E+02 0.  0.
    9900012    2    3    3    0    0 -0.41776995600E+02 -0.14400414483E+01 -0.16784585419E+02  0.46142318870E+02  0.10000010114E+02 0.  0.
         12    1    3    3    0    0  0.41776995600E+02  0.14400414483E+01  0.16784585419E+02  0.45045681130E+02  0.00000000000E+00 0. -1.
         11    1    4    4    0    0 -0.26413631538E+01 -0.22166983940E+01 -0.11880285110E+01  0.36471856388E+01  0.51100000000E-03 0. -1.
        -11    1    4    4    0    0 -0.29944514699E+01 -0.95988989295E+00 -0.24920891871E+01  0.40123106796E+01  0.51100000000E-03 0.  1.
        -12    1    4    4    0    0 -0.36141180976E+02  0.17365468386E+01 -0.13104467721E+02  0.38482822552E+02  0.00000000000E+00 0.  1.
</event>
<event>
 8    1  0.7489580E-009  0.9118800E+02  0.7816164E-02  0.1184000E+00
        -11   -1    0    0    0    0  0.00000000000E+00  0.00000000000E+00  0.45593999997E+02  0.45594000000E+02  0.51100000000E-03 0. -1.
         11   -1    0    0    0    0 -0.00000000000E+00 -0.00000000000E+00 -0.45593999997E+02  0.45594000000E+02  0.51100000000E-03 0.  1.
         23    2    1    2    0    0  0.00000000000E+00  0.00000000000E+00 -0.35527136788E-14  0.91188000000E+02  0.91188000000E+02 0.  0.
    9900012    2    3    3    0    0 -0.33272026059E+02  0.25256399128E+02  0.16858236690E+02  0.46142316974E+02  0.99999928205E+01 0.  0.
        -12    1    3    3    0    0  0.33272026059E+02 -0.25256399128E+02 -0.16858236690E+02  0.45045683026E+02  0.00000000000E+00 0.  1.
         11    1    4    4    0    0 -0.23322741841E+02  0.16824218455E+02  0.11276965866E+02  0.30889716299E+02  0.51100000000E-03 0. -1.
        -11    1    4    4    0    0 -0.29598366116E+01  0.12951225440E+01 -0.88884057705E+00  0.33508227354E+01  0.51100000000E-03 0.  1.
         12    1    4    4    0    0 -0.69894476059E+01  0.71370581288E+01  0.64701114012E+01  0.11901777939E+02  0.00000000000E+00 0. -1.
</event>
<event>
 8    1  0.7489580E-009  0.9118800E+02  0.7816164E-02  0.1184000E+00
        -11   -1    0    0    0    0  0.00000000000E+00  0.00000000000E+00  0.45593999997E+02  0.45594000000E+02  0.51100000000E-03 0. -1.
         11   -1    0    0    0    0 -0.00000000000E+00 -0.00000000000E+00 -0.45593999997E+02  0.45594000000E+02  0.51100000000E-03 0.  1.
         23    2    1    2    0    0  0.00000000000E+00  0.17763568394E-14  0.00000000000E+00  0.91188000000E+02  0.91188000000E+02 0.  0.
    9900012    2    3    3    0    0  0.14807910060E+02  0.14902833101E+02 -0.39846517098E+02  0.46142316970E+02  0.99999927886E+01 0.  0.
         12    1    3    3    0    0 -0.14807910060E+02 -0.14902833101E+02  0.39846517098E+02  0.45045683030E+02  0.00000000000E+00 0. -1.
         11    1    4    4    0    0  0.47453741879E+01  0.73350903908E+01 -0.10918463257E+02  0.13983381829E+02  0.51100000000E-03 0. -1.
        -11    1    4    4    0    0  0.51207491849E+01  0.47455888983E+01 -0.22574144629E+02  0.23629106885E+02  0.51100000000E-03 0.  1.
        -12    1    4    4    0    0  0.49417866873E+01  0.28221538123E+01 -0.63539092121E+01  0.85298282561E+01  0.00000000000E+00 0.  1.
</event>
<event>
 8    1  0.7489580E-009  0.9118800E+02  0.7816164E-02  0.1184000E+00
        -11   -1    0    0    0    0  0.00000000000E+00  0.00000000000E+00  0.45593999997E+02  0.45594000000E+02  0.51100000000E-03 0. -1.
         11   -1    0    0    0    0 -0.00000000000E+00 -0.00000000000E+00 -0.45593999997E+02  0.45594000000E+02  0.51100000000E-03 0.  1.
         23    2    1    2    0    0  0.00000000000E+00  0.35527136788E-14  0.00000000000E+00  0.91188000000E+02  0.91188000000E+02 0.  0.
    9900012    2    3    3    0    0  0.20943564277E+02  0.17617203498E+02  0.35778691000E+02  0.46142317927E+02  0.10000001516E+02 0.  0.
        -12    1    3    3    0    0 -0.20943564277E+02 -0.17617203498E+02 -0.35778691000E+02  0.45045682073E+02  0.00000000000E+00 0.  1.
         11    1    4    4    0    0  0.16406497527E+02  0.12903583480E+02  0.27411642033E+02  0.34453936596E+02  0.51100000000E-03 0. -1.
        -11    1    4    4    0    0  0.44050737102E+01  0.13339929199E+01  0.35996306162E+01  0.58430773003E+01  0.51100000000E-03 0.  1.
        -12    1    4    4    0    0  0.13199303928E+00  0.33796270979E+01  0.47674183514E+01  0.58453040315E+01  0.00000000000E+00 0.  1.
</event>
<event>
 8    1  0.7489580E-009  0.9118800E+02  0.7816164E-02  0.1184000E+00
        -11   -1    0    0    0    0  0.00000000000E+00  0.00000000000E+00  0.45593999997E+02  0.45594000000E+02  0.51100000000E-03 0. -1.
         11   -1    0    0    0    0 -0.00000000000E+00 -0.00000000000E+00 -0.45593999997E+02  0.45594000000E+02  0.51100000000E-03 0.  1.
         23    2    1    2    0    0  0.17763568394E-14  0.35527136788E-14  0.00000000000E+00  0.91188000000E+02  0.91188000000E+02 0.  0.
    9900012    2    3    3    0    0  0.13273634937E+02  0.21374151619E+02 -0.37364019335E+02  0.46142315604E+02  0.99999803262E+01 0.  0.
         12    1    3    3    0    0 -0.13273634937E+02 -0.21374151619E+02  0.37364019335E+02  0.45045684396E+02  0.00000000000E+00 0. -1.
         11    1    4    4    0    0  0.40314849811E+01  0.10334998215E+01 -0.77181716065E+01  0.87687608157E+01  0.51100000000E-03 0. -1.
        -11    1    4    4    0    0  0.69972284386E+01  0.10635873527E+02 -0.18026428998E+02  0.22068872970E+02  0.51100000000E-03 0.  1.
         12    1    4    4    0    0  0.22449215168E+01  0.97047782706E+01 -0.11619418731E+02  0.15304681818E+02  0.00000000000E+00 0. -1.
</event>
<event>
 8    1  0.7489580E-009  0.9118800E+02  0.7816164E-02  0.1184000E+00
        -11   -1    0    0    0    0  0.00000000000E+00  0.00000000000E+00  0.45593999997E+02  0.45594000000E+02  0.51100000000E-03 0.  1.
         11   -1    0    0    0    0 -0.00000000000E+00 -0.00000000000E+00 -0.45593999997E+02  0.45594000000E+02  0.51100000000E-03 0. -1.
         23    2    1    2    0    0  0.00000000000E+00  0.00000000000E+00  0.00000000000E+00  0.91188000000E+02  0.91188000000E+02 0.  0.
    9900012    2    3    3    0    0  0.38484053768E+02  0.17324109924E+02 -0.15746969607E+02  0.46142309519E+02  0.99999248429E+01 0.  0.
         12    1    3    3    0    0 -0.38484053768E+02 -0.17324109924E+02  0.15746969607E+02  0.45045690481E+02  0.00000000000E+00 0. -1.
         11    1    4    4    0    0  0.21659505655E+01  0.15773802133E+01  0.11628942817E+01  0.29209234090E+01  0.51100000000E-03 0. -1.
        -11    1    4    4    0    0  0.11774556297E+02  0.32026344595E+01 -0.47334050155E+01  0.13088245367E+02  0.51100000000E-03 0.  1.
         12    1    4    4    0    0  0.24543546906E+02  0.12544095251E+02 -0.12176458873E+02  0.30133140744E+02  0.00000000000E+00 0. -1.
</event>
<event>
 8    1  0.7489580E-009  0.9118800E+02  0.7816164E-02  0.1184000E+00
        -11   -1    0    0    0    0  0.00000000000E+00  0.00000000000E+00  0.45593999997E+02  0.45594000000E+02  0.51100000000E-03 0. -1.
         11   -1    0    0    0    0 -0.00000000000E+00 -0.00000000000E+00 -0.45593999997E+02  0.45594000000E+02  0.51100000000E-03 0.  1.
         23    2    1    2    0    0  0.00000000000E+00  0.00000000000E+00  0.00000000000E+00  0.91188000000E+02  0.91188000000E+02 0.  0.
    9900012    2    3    3    0    0 -0.10740341227E+02  0.77294386306E+01 -0.43058265866E+02  0.46142318624E+02  0.10000007866E+02 0.  0.
         12    1    3    3    0    0  0.10740341227E+02 -0.77294386306E+01  0.43058265866E+02  0.45045681376E+02  0.00000000000E+00 0. -1.
         11    1    4    4    0    0 -0.63518879856E+01  0.50202093683E+01 -0.14489623861E+02  0.16598137937E+02  0.51100000000E-03 0.  1.
        -11    1    4    4    0    0 -0.37700375889E+01 -0.86958207724E+00 -0.13449402516E+02  0.13994848506E+02  0.51100000000E-03 0. -1.
         12    1    4    4    0    0 -0.61841565276E+00  0.35788113395E+01 -0.15119239489E+02  0.15549332180E+02  0.00000000000E+00 0. -1.
</event>
<event>
 8    1  0.7489580E-009  0.9118800E+02  0.7816164E-02  0.1184000E+00
        -11   -1    0    0    0    0  0.00000000000E+00  0.00000000000E+00  0.45593999997E+02  0.45594000000E+02  0.51100000000E-03 0. -1.
         11   -1    0    0    0    0 -0.00000000000E+00 -0.00000000000E+00 -0.45593999997E+02  0.45594000000E+02  0.51100000000E-03 0.  1.
         23    2    1    2    0    0 -0.17763568394E-14  0.00000000000E+00  0.00000000000E+00  0.91188000000E+02  0.91188000000E+02 0.  0.
    9900012    2    3    3    0    0 -0.80317211469E+01  0.43981186120E+01 -0.44105118678E+02  0.46142317793E+02  0.10000000291E+02 0.  0.
         12    1    3    3    0    0  0.80317211469E+01 -0.43981186120E+01  0.44105118678E+02  0.45045682207E+02  0.00000000000E+00 0. -1.
         11    1    4    4    0    0 -0.44505993486E+01 -0.15467896127E+01 -0.19445247392E+02  0.20007949397E+02  0.51100000000E-03 0. -1.
        -11    1    4    4    0    0  0.64032990476E+00  0.38212248271E+01 -0.12578202516E+02  0.13161419390E+02  0.51100000000E-03 0.  1.
        -12    1    4    4    0    0 -0.42214517031E+01  0.21236833975E+01 -0.12081668770E+02  0.12972949006E+02  0.00000000000E+00 0.  1.
</event>
<event>
 8    1  0.7489580E-009  0.9118800E+02  0.7816164E-02  0.1184000E+00
        -11   -1    0    0    0    0  0.00000000000E+00  0.00000000000E+00  0.45593999997E+02  0.45594000000E+02  0.51100000000E-03 0. -1.
         11   -1    0    0    0    0 -0.00000000000E+00 -0.00000000000E+00 -0.45593999997E+02  0.45594000000E+02  0.51100000000E-03 0.  1.
         23    2    1    2    0    0  0.35527136788E-14  0.00000000000E+00 -0.71054273576E-14  0.91188000000E+02  0.91188000000E+02 0.  0.
    9900012    2    3    3    0    0  0.17019861497E+02 -0.20041052457E+02  0.36575868006E+02  0.46142316641E+02  0.99999897821E+01 0.  0.
        -12    1    3    3    0    0 -0.17019861497E+02  0.20041052457E+02 -0.36575868006E+02  0.45045683359E+02  0.00000000000E+00 0.  1.
         11    1    4    4    0    0  0.33576334527E+01 -0.21222568510E+01  0.22575313700E+01  0.45688209302E+01  0.51100000000E-03 0. -1.
        -11    1    4    4    0    0 -0.67336512564E+00 -0.14439075274E+01  0.18174424827E+01  0.24168961457E+01  0.51100000000E-03 0.  1.
         12    1    4    4    0    0  0.14335593170E+02 -0.16474888079E+02  0.32500894153E+02  0.39156599565E+02  0.00000000000E+00 0. -1.
</event>
<event>
 8    1  0.7489580E-009  0.9118800E+02  0.7816164E-02  0.1184000E+00
        -11   -1    0    0    0    0  0.00000000000E+00  0.00000000000E+00  0.45593999997E+02  0.45594000000E+02  0.51100000000E-03 0. -1.
         11   -1    0    0    0    0 -0.00000000000E+00 -0.00000000000E+00 -0.45593999997E+02  0.45594000000E+02  0.51100000000E-03 0.  1.
         23    2    1    2    0    0  0.00000000000E+00  0.00000000000E+00  0.00000000000E+00  0.91188000000E+02  0.91188000000E+02 0.  0.
    9900012    2    3    3    0    0  0.29855659257E+02 -0.49265329313E+01 -0.33368886730E+02  0.46142315212E+02  0.99999767554E+01 0.  0.
         12    1    3    3    0    0 -0.29855659257E+02  0.49265329313E+01  0.33368886730E+02  0.45045684788E+02  0.00000000000E+00 0. -1.
         11    1    4    4    0    0  0.28881733557E+00 -0.13442379016E+01 -0.18227943624E+01  0.22831930576E+01  0.51100000000E-03 0. -1.
        -11    1    4    4    0    0  0.67627018440E+01 -0.26482637344E+01 -0.10806688304E+02  0.13020443518E+02  0.51100000000E-03 0.  1.
        -12    1    4    4    0    0  0.22804140077E+02 -0.93403129524E+00 -0.20739404064E+02  0.30838678637E+02  0.00000000000E+00 0.  1.
</event>
<event>
 8    1  0.7489580E-009  0.9118800E+02  0.7816164E-02  0.1184000E+00
        -11   -1    0    0    0    0  0.00000000000E+00  0.00000000000E+00  0.45593999997E+02  0.45594000000E+02  0.51100000000E-03 0. -1.
         11   -1    0    0    0    0 -0.00000000000E+00 -0.00000000000E+00 -0.45593999997E+02  0.45594000000E+02  0.51100000000E-03 0.  1.
         23    2    1    2    0    0  0.00000000000E+00  0.00000000000E+00  0.00000000000E+00  0.91188000000E+02  0.91188000000E+02 0.  0.
    9900012    2    3    3    0    0  0.69390121211E+01  0.83149268863E+01 -0.43724428383E+02  0.46142317235E+02  0.99999952024E+01 0.  0.
         12    1    3    3    0    0 -0.69390121211E+01 -0.83149268863E+01  0.43724428383E+02  0.45045682765E+02  0.00000000000E+00 0. -1.
         11    1    4    4    0    0 -0.12386020797E+01  0.18593469627E+01 -0.39266902729E+01  0.45177652661E+01  0.51100000000E-03 0. -1.
        -11    1    4    4    0    0  0.65149998644E+01  0.76524864524E+01 -0.30870374981E+02  0.32465147833E+02  0.51100000000E-03 0.  1.
         12    1    4    4    0    0  0.16626143364E+01 -0.11969065288E+01 -0.89273631297E+01  0.91594041356E+01  0.00000000000E+00 0. -1.
</event>
<event>
 8    1  0.7489580E-009  0.9118800E+02  0.7816164E-02  0.1184000E+00
        -11   -1    0    0    0    0  0.00000000000E+00  0.00000000000E+00  0.45593999997E+02  0.45594000000E+02  0.51100000000E-03 0.  1.
         11   -1    0    0    0    0 -0.00000000000E+00 -0.00000000000E+00 -0.45593999997E+02  0.45594000000E+02  0.51100000000E-03 0. -1.
         23    2    1    2    0    0  0.00000000000E+00  0.00000000000E+00  0.00000000000E+00  0.91188000000E+02  0.91188000000E+02 0.  0.
    9900012    2    3    3    0    0  0.18575145837E+02  0.39131248272E+02 -0.12362154106E+02  0.46142317762E+02  0.10000000006E+02 0.  0.
         12    1    3    3    0    0 -0.18575145837E+02 -0.39131248272E+02  0.12362154106E+02  0.45045682238E+02  0.00000000000E+00 0. -1.
         11    1    4    4    0    0  0.84216152211E+01  0.13870760790E+02 -0.45982583714E+01  0.16866107676E+02  0.51100000000E-03 0. -1.
        -11    1    4    4    0    0  0.90776552239E+01  0.12943285122E+02 -0.52581790352E+01  0.16660759321E+02  0.51100000000E-03 0.  1.
         12    1    4    4    0    0  0.10758753917E+01  0.12317202360E+02 -0.25057166991E+01  0.12615450765E+02  0.00000000000E+00 0. -1.
</event>
<event>
 8    1  0.7489580E-009  0.9118800E+02  0.7816164E-02  0.1184000E+00
        -11   -1    0    0    0    0  0.00000000000E+00  0.00000000000E+00  0.45593999997E+02  0.45594000000E+02  0.51100000000E-03 0. -1.
         11   -1    0    0    0    0 -0.00000000000E+00 -0.00000000000E+00 -0.45593999997E+02  0.45594000000E+02  0.51100000000E-03 0.  1.
         23    2    1    2    0    0 -0.17763568394E-14  0.00000000000E+00  0.00000000000E+00  0.91188000000E+02  0.91188000000E+02 0.  0.
    9900012    2    3    3    0    0 -0.13987689791E+02 -0.36020416064E+02 -0.23151406623E+02  0.46142317991E+02  0.10000002094E+02 0.  0.
         12    1    3    3    0    0  0.13987689791E+02  0.36020416064E+02  0.23151406623E+02  0.45045682009E+02  0.00000000000E+00 0. -1.
         11    1    4    4    0    0 -0.26087565845E+01 -0.25537199020E+01 -0.21701070537E+01  0.42469355000E+01  0.51100000000E-03 0. -1.
        -11    1    4    4    0    0 -0.80031198927E+01 -0.15944907700E+02 -0.67634699444E+01  0.19079689084E+02  0.51100000000E-03 0.  1.
        -12    1    4    4    0    0 -0.33758133136E+01 -0.17521788461E+02 -0.14217829624E+02  0.22815693407E+02  0.00000000000E+00 0.  1.
</event>
<event>
 8    1  0.7489580E-009  0.9118800E+02  0.7816164E-02  0.1184000E+00
        -11   -1    0    0    0    0  0.00000000000E+00  0.00000000000E+00  0.45593999997E+02  0.45594000000E+02  0.51100000000E-03 0. -1.
         11   -1    0    0    0    0 -0.00000000000E+00 -0.00000000000E+00 -0.45593999997E+02  0.45594000000E+02  0.51100000000E-03 0.  1.
         23    2    1    2    0    0 -0.35527136788E-14  0.00000000000E+00  0.00000000000E+00  0.91188000000E+02  0.91188000000E+02 0.  0.
    9900012    2    3    3    0    0  0.23629279713E+02 -0.13615919083E+02 -0.35852159850E+02  0.46142317875E+02  0.10000001035E+02 0.  0.
         12    1    3    3    0    0 -0.23629279713E+02  0.13615919083E+02  0.35852159850E+02  0.45045682125E+02  0.00000000000E+00 0. -1.
         11    1    4    4    0    0  0.14253333744E+02 -0.11621136699E+02 -0.24062429416E+02  0.30285456091E+02  0.51100000000E-03 0. -1.
        -11    1    4    4    0    0  0.25647312255E+01 -0.11697841940E+01 -0.68360978675E+01  0.73944895452E+01  0.51100000000E-03 0.  1.
        -12    1    4    4    0    0  0.68112147430E+01 -0.82499819030E+00 -0.49536325666E+01  0.84623722380E+01  0.00000000000E+00 0.  1.
</event>
<event>
 8    1  0.7489580E-009  0.9118800E+02  0.7816164E-02  0.1184000E+00
        -11   -1    0    0    0    0  0.00000000000E+00  0.00000000000E+00  0.45593999997E+02  0.45594000000E+02  0.51100000000E-03 0.  1.
         11   -1    0    0    0    0 -0.00000000000E+00 -0.00000000000E+00 -0.45593999997E+02  0.45594000000E+02  0.51100000000E-03 0. -1.
         23    2    1    2    0    0 -0.26645352591E-14  0.00000000000E+00  0.00000000000E+00  0.91188000000E+02  0.91188000000E+02 0.  0.
    9900012    2    3    3    0    0 -0.73507564036E+01  0.40129716251E+02 -0.19096748289E+02  0.46142317174E+02  0.99999946434E+01 0.  0.
         12    1    3    3    0    0  0.73507564036E+01 -0.40129716251E+02  0.19096748289E+02  0.45045682826E+02  0.00000000000E+00 0. -1.
         11    1    4    4    0    0 -0.13267986666E-01  0.14638862110E+02 -0.58124018690E+01  0.15750570646E+02  0.51100000000E-03 0.  1.
        -11    1    4    4    0    0 -0.81210225425E+01  0.25197198670E+02 -0.12643743438E+02  0.29337928971E+02  0.51100000000E-03 0. -1.
         12    1    4    4    0    0  0.78353412560E+00  0.29365547056E+00 -0.64060298212E+00  0.10538175563E+01  0.00000000000E+00 0. -1.
</event>
<event>
 8    1  0.7489580E-009  0.9118800E+02  0.7816164E-02  0.1184000E+00
        -11   -1    0    0    0    0  0.00000000000E+00  0.00000000000E+00  0.45593999997E+02  0.45594000000E+02  0.51100000000E-03 0. -1.
         11   -1    0    0    0    0 -0.00000000000E+00 -0.00000000000E+00 -0.45593999997E+02  0.45594000000E+02  0.51100000000E-03 0.  1.
         23    2    1    2    0    0  0.35527136788E-14  0.00000000000E+00  0.00000000000E+00  0.91188000000E+02  0.91188000000E+02 0.  0.
    9900012    2    3    3    0    0 -0.22232433586E+02  0.93291757850E+01 -0.38049951802E+02  0.46142318120E+02  0.10000003269E+02 0.  0.
         12    1    3    3    0    0  0.22232433586E+02 -0.93291757850E+01  0.38049951802E+02  0.45045681880E+02  0.00000000000E+00 0. -1.
         11    1    4    4    0    0 -0.34114923250E-01  0.60047303279E+00 -0.20837912918E+00  0.63651693905E+00  0.51100000000E-03 0. -1.
        -11    1    4    4    0    0 -0.12337463578E+02  0.85819244671E+01 -0.26596150575E+02  0.30548611438E+02  0.51100000000E-03 0.  1.
        -12    1    4    4    0    0 -0.98608550838E+01  0.14677828509E+00 -0.11245422097E+02  0.14957189742E+02  0.00000000000E+00 0.  1.
</event>
<event>
 8    1  0.7489580E-009  0.9118800E+02  0.7816164E-02  0.1184000E+00
        -11   -1    0    0    0    0  0.00000000000E+00  0.00000000000E+00  0.45593999997E+02  0.45594000000E+02  0.51100000000E-03 0. -1.
         11   -1    0    0    0    0 -0.00000000000E+00 -0.00000000000E+00 -0.45593999997E+02  0.45594000000E+02  0.51100000000E-03 0.  1.
         23    2    1    2    0    0  0.55511151231E-16  0.00000000000E+00  0.00000000000E+00  0.91188000000E+02  0.91188000000E+02 0.  0.
    9900012    2    3    3    0    0  0.41065237937E+00 -0.15587902835E+02  0.42260645880E+02  0.46142317184E+02  0.99999947359E+01 0.  0.
        -12    1    3    3    0    0 -0.41065237937E+00  0.15587902835E+02 -0.42260645880E+02  0.45045682816E+02  0.00000000000E+00 0.  1.
         11    1    4    4    0    0 -0.14384300168E+01 -0.58089017825E+01  0.17658549593E+02  0.18645020645E+02  0.51100000000E-03 0. -1.
        -11    1    4    4    0    0  0.19586691496E+00  0.65133880842E+00 -0.46418700020E-01  0.68173385464E+00  0.51100000000E-03 0.  1.
         12    1    4    4    0    0  0.16532154812E+01 -0.10430339861E+02  0.24648514987E+02  0.26815562685E+02  0.00000000000E+00 0. -1.
</event>
<event>
 8    1  0.7489580E-009  0.9118800E+02  0.7816164E-02  0.1184000E+00
        -11   -1    0    0    0    0  0.00000000000E+00  0.00000000000E+00  0.45593999997E+02  0.45594000000E+02  0.51100000000E-03 0. -1.
         11   -1    0    0    0    0 -0.00000000000E+00 -0.00000000000E+00 -0.45593999997E+02  0.45594000000E+02  0.51100000000E-03 0.  1.
         23    2    1    2    0    0  0.00000000000E+00  0.00000000000E+00 -0.44408920985E-15  0.91188000000E+02  0.91188000000E+02 0.  0.
    9900012    2    3    3    0    0 -0.19328256653E+02  0.40510493812E+02  0.37989187691E+01  0.46142318765E+02  0.10000009152E+02 0.  0.
         12    1    3    3    0    0  0.19328256653E+02 -0.40510493812E+02 -0.37989187691E+01  0.45045681235E+02  0.00000000000E+00 0. -1.
         11    1    4    4    0    0 -0.12721880155E+02  0.22122177451E+02  0.65615406980E+01  0.26349398218E+02  0.51100000000E-03 0. -1.
        -11    1    4    4    0    0 -0.54230797515E-01  0.13549630404E+00 -0.17497176936E+00  0.22784997038E+00  0.51100000000E-03 0.  1.
        -12    1    4    4    0    0 -0.65521457004E+01  0.18252820057E+02 -0.25876501596E+01  0.19565070577E+02  0.00000000000E+00 0.  1.
</event>
<event>
 8    1  0.7489580E-009  0.9118800E+02  0.7816164E-02  0.1184000E+00
        -11   -1    0    0    0    0  0.00000000000E+00  0.00000000000E+00  0.45593999997E+02  0.45594000000E+02  0.51100000000E-03 0. -1.
         11   -1    0    0    0    0 -0.00000000000E+00 -0.00000000000E+00 -0.45593999997E+02  0.45594000000E+02  0.51100000000E-03 0.  1.
         23    2    1    2    0    0  0.00000000000E+00  0.00000000000E+00  0.00000000000E+00  0.91188000000E+02  0.91188000000E+02 0.  0.
    9900012    2    3    3    0    0 -0.23129316017E+02 -0.11093812190E+02 -0.37028036730E+02  0.46142318383E+02  0.10000005669E+02 0.  0.
         12    1    3    3    0    0  0.23129316017E+02  0.11093812190E+02  0.37028036730E+02  0.45045681617E+02  0.00000000000E+00 0. -1.
         11    1    4    4    0    0 -0.96654204300E+01 -0.12295365170E+01 -0.16406128320E+02  0.19081225297E+02  0.51100000000E-03 0. -1.
        -11    1    4    4    0    0 -0.73762711175E+01 -0.24496198417E+01 -0.74537276303E+01  0.10768847144E+02  0.51100000000E-03 0.  1.
        -12    1    4    4    0    0 -0.60876244693E+01 -0.74146558311E+01 -0.13168180780E+02  0.16292245941E+02  0.00000000000E+00 0.  1.
</event>
<event>
 8    1  0.7489580E-009  0.9118800E+02  0.7816164E-02  0.1184000E+00
        -11   -1    0    0    0    0  0.00000000000E+00  0.00000000000E+00  0.45593999997E+02  0.45594000000E+02  0.51100000000E-03 0. -1.
         11   -1    0    0    0    0 -0.00000000000E+00 -0.00000000000E+00 -0.45593999997E+02  0.45594000000E+02  0.51100000000E-03 0.  1.
         23    2    1    2    0    0 -0.35527136788E-14  0.00000000000E+00  0.00000000000E+00  0.91188000000E+02  0.91188000000E+02 0.  0.
    9900012    2    3    3    0    0 -0.17854180789E+02  0.21070681946E+02 -0.35586065599E+02  0.46142317919E+02  0.10000001440E+02 0.  0.
         12    1    3    3    0    0  0.17854180789E+02 -0.21070681946E+02  0.35586065599E+02  0.45045682081E+02  0.00000000000E+00 0. -1.
         11    1    4    4    0    0 -0.74777941292E+00  0.26186727895E+00  0.26480697665E+00  0.83538704692E+00  0.51100000000E-03 0. -1.
        -11    1    4    4    0    0 -0.13957776793E+02  0.12235629593E+02 -0.23513734631E+02  0.29957067298E+02  0.51100000000E-03 0.  1.
         12    1    4    4    0    0 -0.31486245835E+01  0.85731850743E+01 -0.12337137944E+02  0.15349863574E+02  0.00000000000E+00 0. -1.
</event>
<event>
 8    1  0.7489580E-009  0.9118800E+02  0.7816164E-02  0.1184000E+00
        -11   -1    0    0    0    0  0.00000000000E+00  0.00000000000E+00  0.45593999997E+02  0.45594000000E+02  0.51100000000E-03 0. -1.
         11   -1    0    0    0    0 -0.00000000000E+00 -0.00000000000E+00 -0.45593999997E+02  0.45594000000E+02  0.51100000000E-03 0.  1.
         23    2    1    2    0    0  0.00000000000E+00  0.00000000000E+00  0.00000000000E+00  0.91188000000E+02  0.91188000000E+02 0.  0.
    9900012    2    3    3    0    0  0.23926003041E+02  0.12982047171E+02  0.35890476981E+02  0.46142317541E+02  0.99999979926E+01 0.  0.
        -12    1    3    3    0    0 -0.23926003041E+02 -0.12982047171E+02 -0.35890476981E+02  0.45045682459E+02  0.00000000000E+00 0.  1.
         11    1    4    4    0    0  0.29762757845E+01  0.37669585101E+00  0.45511021556E+01  0.54509309665E+01  0.51100000000E-03 0. -1.
        -11    1    4    4    0    0  0.11349319455E+01  0.26863605767E+01  0.79697273725E+01  0.84865280488E+01  0.51100000000E-03 0.  1.
         12    1    4    4    0    0  0.19814795311E+02  0.99189907431E+01  0.23369647453E+02  0.32204858526E+02  0.00000000000E+00 0. -1.
</event>
<event>
 8    1  0.7489580E-009  0.9118800E+02  0.7816164E-02  0.1184000E+00
        -11   -1    0    0    0    0  0.00000000000E+00  0.00000000000E+00  0.45593999997E+02  0.45594000000E+02  0.51100000000E-03 0. -1.
         11   -1    0    0    0    0 -0.00000000000E+00 -0.00000000000E+00 -0.45593999997E+02  0.45594000000E+02  0.51100000000E-03 0.  1.
         23    2    1    2    0    0  0.44408920985E-15  0.00000000000E+00  0.00000000000E+00  0.91188000000E+02  0.91188000000E+02 0.  0.
    9900012    2    3    3    0    0 -0.72261547552E+00 -0.63474958853E+01 -0.44590364957E+02  0.46142317364E+02  0.99999963817E+01 0.  0.
         12    1    3    3    0    0  0.72261547552E+00  0.63474958853E+01  0.44590364957E+02  0.45045682636E+02  0.00000000000E+00 0. -1.
         11    1    4    4    0    0 -0.18115391804E+01 -0.51816933319E+00 -0.42001941480E+01  0.46034557456E+01  0.51100000000E-03 0. -1.
        -11    1    4    4    0    0  0.31665592539E+01 -0.12877166563E+01 -0.27555646729E+02  0.27766868361E+02  0.51100000000E-03 0.  1.
        -12    1    4    4    0    0 -0.20776355491E+01 -0.45416098958E+01 -0.12834524080E+02  0.13771993257E+02  0.00000000000E+00 0.  1.
</event>
<event>
 8    1  0.7489580E-009  0.9118800E+02  0.7816164E-02  0.1184000E+00
        -11   -1    0    0    0    0  0.00000000000E+00  0.00000000000E+00  0.45593999997E+02  0.45594000000E+02  0.51100000000E-03 0. -1.
         11   -1    0    0    0    0 -0.00000000000E+00 -0.00000000000E+00 -0.45593999997E+02  0.45594000000E+02  0.51100000000E-03 0.  1.
         23    2    1    2    0    0 -0.88817841970E-15 -0.88817841970E-15 -0.71054273576E-14  0.91188000000E+02  0.91188000000E+02 0.  0.
    9900012    2    3    3    0    0  0.75254288207E+01  0.71032849452E+01  0.43840890085E+02  0.46142330071E+02  0.10000112248E+02 0.  0.
        -12    1    3    3    0    0 -0.75254288207E+01 -0.71032849452E+01 -0.43840890085E+02  0.45045669929E+02  0.00000000000E+00 0.  1.
         11    1    4    4    0    0  0.37700013294E+01 -0.11442817311E+01  0.16063246792E+02  0.16539352722E+02  0.51100000000E-03 0. -1.
        -11    1    4    4    0    0  0.10725363548E+01  0.51639351507E+01  0.21302481876E+02  0.21945666880E+02  0.51100000000E-03 0.  1.
         12    1    4    4    0    0  0.26828911365E+01  0.30836315255E+01  0.64751614167E+01  0.76573104683E+01  0.00000000000E+00 0. -1.
</event>
<event>
 8    1  0.7489580E-009  0.9118800E+02  0.7816164E-02  0.1184000E+00
        -11   -1    0    0    0    0  0.00000000000E+00  0.00000000000E+00  0.45593999997E+02  0.45594000000E+02  0.51100000000E-03 0. -1.
         11   -1    0    0    0    0 -0.00000000000E+00 -0.00000000000E+00 -0.45593999997E+02  0.45594000000E+02  0.51100000000E-03 0.  1.
         23    2    1    2    0    0  0.00000000000E+00  0.00000000000E+00  0.00000000000E+00  0.91188000000E+02  0.91188000000E+02 0.  0.
    9900012    2    3    3    0    0  0.29220811052E+02  0.10405716359E+02 -0.32664640117E+02  0.46142318237E+02  0.10000004342E+02 0.  0.
         12    1    3    3    0    0 -0.29220811052E+02 -0.10405716359E+02  0.32664640117E+02  0.45045681763E+02  0.00000000000E+00 0. -1.
         11    1    4    4    0    0  0.19159379457E+02  0.70400678315E+01 -0.23156108202E+02  0.30868264019E+02  0.51100000000E-03 0. -1.
        -11    1    4    4    0    0  0.21297639045E+01  0.34061949590E+01 -0.30012194049E+01  0.50145165834E+01  0.51100000000E-03 0.  1.
        -12    1    4    4    0    0  0.79316676907E+01 -0.40546431308E-01 -0.65073125101E+01  0.10259537634E+02  0.00000000000E+00 0.  1.
</event>
<event>
 8    1  0.7489580E-009  0.9118800E+02  0.7816164E-02  0.1184000E+00
        -11   -1    0    0    0    0  0.00000000000E+00  0.00000000000E+00  0.45593999997E+02  0.45594000000E+02  0.51100000000E-03 0. -1.
         11   -1    0    0    0    0 -0.00000000000E+00 -0.00000000000E+00 -0.45593999997E+02  0.45594000000E+02  0.51100000000E-03 0.  1.
         23    2    1    2    0    0  0.00000000000E+00  0.44408920985E-15 -0.71054273576E-14  0.91188000000E+02  0.91188000000E+02 0.  0.
    9900012    2    3    3    0    0  0.20779159720E+02  0.34044570596E+01 -0.39821476241E+02  0.46142314563E+02  0.99999708328E+01 0.  0.
         12    1    3    3    0    0 -0.20779159720E+02 -0.34044570596E+01  0.39821476241E+02  0.45045685437E+02  0.00000000000E+00 0. -1.
         11    1    4    4    0    0  0.44029830060E+01 -0.28502376713E+01 -0.96955367731E+01  0.11023318362E+02  0.51100000000E-03 0. -1.
        -11    1    4    4    0    0  0.66015013346E+01  0.23030016584E+01 -0.81032625931E+01  0.10702639928E+02  0.51100000000E-03 0.  1.
         12    1    4    4    0    0  0.97746753798E+01  0.39516930725E+01 -0.22022676874E+02  0.24416356273E+02  0.00000000000E+00 0. -1.
</event>
<event>
 8    1  0.7489580E-009  0.9118800E+02  0.7816164E-02  0.1184000E+00
        -11   -1    0    0    0    0  0.00000000000E+00  0.00000000000E+00  0.45593999997E+02  0.45594000000E+02  0.51100000000E-03 0. -1.
         11   -1    0    0    0    0 -0.00000000000E+00 -0.00000000000E+00 -0.45593999997E+02  0.45594000000E+02  0.51100000000E-03 0.  1.
         23    2    1    2    0    0  0.00000000000E+00 -0.88817841970E-15  0.00000000000E+00  0.91188000000E+02  0.91188000000E+02 0.  0.
    9900012    2    3    3    0    0  0.37715101236E+02 -0.67341271742E+01  0.23692535693E+02  0.46142316770E+02  0.99999909663E+01 0.  0.
        -12    1    3    3    0    0 -0.37715101236E+02  0.67341271742E+01 -0.23692535693E+02  0.45045683230E+02  0.00000000000E+00 0.  1.
         11    1    4    4    0    0  0.76655312675E+01 -0.10104481384E+01  0.51807696923E+01  0.93070806336E+01  0.51100000000E-03 0. -1.
        -11    1    4    4    0    0  0.14541548549E+02 -0.28484848084E+01  0.38712852399E+01  0.15315265247E+02  0.51100000000E-03 0.  1.
        -12    1    4    4    0    0  0.15508021419E+02 -0.28751942274E+01  0.14640480761E+02  0.21519970890E+02  0.00000000000E+00 0.  1.
</event>
<event>
 8    1  0.7489580E-009  0.9118800E+02  0.7816164E-02  0.1184000E+00
        -11   -1    0    0    0    0  0.00000000000E+00  0.00000000000E+00  0.45593999997E+02  0.45594000000E+02  0.51100000000E-03 0. -1.
         11   -1    0    0    0    0 -0.00000000000E+00 -0.00000000000E+00 -0.45593999997E+02  0.45594000000E+02  0.51100000000E-03 0.  1.
         23    2    1    2    0    0  0.17763568394E-14  0.17763568394E-14 -0.71054273576E-14  0.91188000000E+02  0.91188000000E+02 0.  0.
    9900012    2    3    3    0    0  0.14656640229E+02  0.96781213283E+01 -0.41480481981E+02  0.46142317403E+02  0.99999967340E+01 0.  0.
         12    1    3    3    0    0 -0.14656640229E+02 -0.96781213283E+01  0.41480481981E+02  0.45045682597E+02  0.00000000000E+00 0. -1.
         11    1    4    4    0    0  0.13268551587E+02  0.70606515599E+01 -0.38019236726E+02  0.40882387689E+02  0.51100000000E-03 0. -1.
        -11    1    4    4    0    0 -0.76911087803E+00  0.75069680483E+00 -0.12634392391E+01  0.16587212567E+01  0.51100000000E-03 0.  1.
         12    1    4    4    0    0  0.21571995203E+01  0.18667729636E+01 -0.21978060157E+01  0.36012084570E+01  0.00000000000E+00 0. -1.
</event>
<event>
 8    1  0.7489580E-009  0.9118800E+02  0.7816164E-02  0.1184000E+00
        -11   -1    0    0    0    0  0.00000000000E+00  0.00000000000E+00  0.45593999997E+02  0.45594000000E+02  0.51100000000E-03 0. -1.
         11   -1    0    0    0    0 -0.00000000000E+00 -0.00000000000E+00 -0.45593999997E+02  0.45594000000E+02  0.51100000000E-03 0.  1.
         23    2    1    2    0    0 -0.71054273576E-14  0.00000000000E+00  0.35527136788E-14  0.91188000000E+02  0.91188000000E+02 0.  0.
    9900012    2    3    3    0    0  0.33083347292E+02 -0.10504673549E+02 -0.28709865836E+02  0.46142329501E+02  0.10000107050E+02 0.  0.
         12    1    3    3    0    0 -0.33083347292E+02  0.10504673549E+02  0.28709865836E+02  0.45045670499E+02  0.00000000000E+00 0. -1.
         11    1    4    4    0    0  0.11436804024E+02 -0.75459546121E+01 -0.10346513210E+02  0.17169515228E+02  0.51100000000E-03 0.  1.
        -11    1    4    4    0    0  0.65026789827E+01 -0.66984447453E+00 -0.27208174228E+01  0.70807042927E+01  0.51100000000E-03 0. -1.
         12    1    4    4    0    0  0.15143864285E+02 -0.22888744625E+01 -0.15642535203E+02  0.21892109980E+02  0.00000000000E+00 0. -1.
</event>
<event>
 8    1  0.9083390E-009  0.9118800E+02  0.7816164E-02  0.1184000E+00
        -11   -1    0    0    0    0  0.00000000000E+00  0.00000000000E+00  0.45593999997E+02  0.45594000000E+02  0.51100000000E-03 0. -1.
         11   -1    0    0    0    0 -0.00000000000E+00 -0.00000000000E+00 -0.45593999997E+02  0.45594000000E+02  0.51100000000E-03 0.  1.
         23    2    1    2    0    0  0.17763568394E-14  0.00000000000E+00  0.71054273576E-14  0.91188000000E+02  0.91188000000E+02 0.  0.
    9900012    2    3    3    0    0 -0.82024499758E+01 -0.14401221208E+02 -0.41886013722E+02  0.46142317594E+02  0.99999984792E+01 0.  0.
         12    1    3    3    0    0  0.82024499758E+01  0.14401221208E+02  0.41886013722E+02  0.45045682406E+02  0.00000000000E+00 0. -1.
         11    1    4    4    0    0 -0.36702910243E+01 -0.67612219435E+01 -0.11479945952E+02  0.13819345777E+02  0.51100000000E-03 0. -1.
        -11    1    4    4    0    0 -0.23027342389E+01 -0.45034791105E+01 -0.71945029605E+01  0.87945882327E+01  0.51100000000E-03 0.  1.
         12    1    4    4    0    0 -0.22294247126E+01 -0.31365201543E+01 -0.23211564809E+02  0.23528383585E+02  0.00000000000E+00 0. -1.
</event>
<event>
 8    1  0.7489580E-009  0.9118800E+02  0.7816164E-02  0.1184000E+00
        -11   -1    0    0    0    0  0.00000000000E+00  0.00000000000E+00  0.45593999997E+02  0.45594000000E+02  0.51100000000E-03 0.  1.
         11   -1    0    0    0    0 -0.00000000000E+00 -0.00000000000E+00 -0.45593999997E+02  0.45594000000E+02  0.51100000000E-03 0. -1.
         23    2    1    2    0    0  0.00000000000E+00  0.00000000000E+00  0.00000000000E+00  0.91188000000E+02  0.91188000000E+02 0.  0.
    9900012    2    3    3    0    0 -0.25976568182E+01  0.44648269460E+02  0.53756741674E+01  0.46142315862E+02  0.99999826840E+01 0.  0.
        -12    1    3    3    0    0  0.25976568182E+01 -0.44648269460E+02 -0.53756741674E+01  0.45045684138E+02  0.00000000000E+00 0.  1.
         11    1    4    4    0    0 -0.21089194278E+01  0.20031533846E+02  0.31067666799E+01  0.20380429065E+02  0.51100000000E-03 0. -1.
        -11    1    4    4    0    0  0.16129213681E+00  0.84366320541E+01  0.42499408738E+01  0.94480036654E+01  0.51100000000E-03 0.  1.
         12    1    4    4    0    0 -0.65002952725E+00  0.16180103559E+02 -0.19810333863E+01  0.16313883132E+02  0.00000000000E+00 0. -1.
</event>
<event>
 8    1  0.7489580E-009  0.9118800E+02  0.7816164E-02  0.1184000E+00
        -11   -1    0    0    0    0  0.00000000000E+00  0.00000000000E+00  0.45593999997E+02  0.45594000000E+02  0.51100000000E-03 0.  1.
         11   -1    0    0    0    0 -0.00000000000E+00 -0.00000000000E+00 -0.45593999997E+02  0.45594000000E+02  0.51100000000E-03 0. -1.
         23    2    1    2    0    0 -0.22204460493E-15 -0.71054273576E-14 -0.35527136788E-14  0.91188000000E+02  0.91188000000E+02 0.  0.
    9900012    2    3    3    0    0 -0.11212700155E+01  0.40352577560E+02  0.19988164388E+02  0.46142306779E+02  0.99998998529E+01 0.  0.
        -12    1    3    3    0    0  0.11212700155E+01 -0.40352577560E+02 -0.19988164388E+02  0.45045693221E+02  0.00000000000E+00 0.  1.
         11    1    4    4    0    0 -0.81341368561E+00  0.13211117657E+02  0.53607072188E+01  0.14280492069E+02  0.51100000000E-03 0.  1.
        -11    1    4    4    0    0 -0.21354653853E+01  0.25066398781E+02  0.11422677340E+02  0.27629008634E+02  0.51100000000E-03 0. -1.
        -12    1    4    4    0    0  0.18276090554E+01  0.20750611221E+01  0.32047798291E+01  0.42328060755E+01  0.00000000000E+00 0.  1.
</event>
<event>
 8    1  0.7489580E-009  0.9118800E+02  0.7816164E-02  0.1184000E+00
        -11   -1    0    0    0    0  0.00000000000E+00  0.00000000000E+00  0.45593999997E+02  0.45594000000E+02  0.51100000000E-03 0. -1.
         11   -1    0    0    0    0 -0.00000000000E+00 -0.00000000000E+00 -0.45593999997E+02  0.45594000000E+02  0.51100000000E-03 0.  1.
         23    2    1    2    0    0  0.00000000000E+00  0.35527136788E-14  0.71054273576E-14  0.91188000000E+02  0.91188000000E+02 0.  0.
    9900012    2    3    3    0    0  0.81718891798E+00 -0.22924366205E+02 -0.38767499835E+02  0.46142318663E+02  0.10000008228E+02 0.  0.
         12    1    3    3    0    0 -0.81718891798E+00  0.22924366205E+02  0.38767499835E+02  0.45045681337E+02  0.00000000000E+00 0. -1.
         11    1    4    4    0    0  0.16707189687E+01 -0.65787386655E+01 -0.66657013887E+01  0.95132896290E+01  0.51100000000E-03 0. -1.
        -11    1    4    4    0    0  0.60509814134E+00 -0.12410560854E+02 -0.17683380030E+02  0.21612267211E+02  0.51100000000E-03 0.  1.
        -12    1    4    4    0    0 -0.14586281921E+01 -0.39350666856E+01 -0.14418418417E+02  0.15016761824E+02  0.00000000000E+00 0.  1.
</event>
<event>
 8    1  0.7489580E-009  0.9118800E+02  0.7816164E-02  0.1184000E+00
        -11   -1    0    0    0    0  0.00000000000E+00  0.00000000000E+00  0.45593999997E+02  0.45594000000E+02  0.51100000000E-03 0. -1.
         11   -1    0    0    0    0 -0.00000000000E+00 -0.00000000000E+00 -0.45593999997E+02  0.45594000000E+02  0.51100000000E-03 0.  1.
         23    2    1    2    0    0  0.00000000000E+00 -0.35527136788E-14  0.00000000000E+00  0.91188000000E+02  0.91188000000E+02 0.  0.
    9900012    2    3    3    0    0  0.22544134758E+02 -0.27433442134E+02 -0.27717895623E+02  0.46142317664E+02  0.99999991145E+01 0.  0.
         12    1    3    3    0    0 -0.22544134758E+02  0.27433442134E+02  0.27717895623E+02  0.45045682336E+02  0.00000000000E+00 0. -1.
         11    1    4    4    0    0  0.41425661187E+01 -0.41915969145E+01 -0.53808765516E+01  0.79802363039E+01  0.51100000000E-03 0. -1.
        -11    1    4    4    0    0  0.96327982478E+01 -0.93017379707E+01 -0.15074376716E+02  0.20163084214E+02  0.51100000000E-03 0.  1.
         12    1    4    4    0    0  0.87687703918E+01 -0.13940107249E+02 -0.72626423554E+01  0.17998997146E+02  0.00000000000E+00 0. -1.
</event>
<event>
 8    1  0.7489580E-009  0.9118800E+02  0.7816164E-02  0.1184000E+00
        -11   -1    0    0    0    0  0.00000000000E+00  0.00000000000E+00  0.45593999997E+02  0.45594000000E+02  0.51100000000E-03 0. -1.
         11   -1    0    0    0    0 -0.00000000000E+00 -0.00000000000E+00 -0.45593999997E+02  0.45594000000E+02  0.51100000000E-03 0.  1.
         23    2    1    2    0    0 -0.88817841970E-15  0.22204460493E-15 -0.71054273576E-14  0.91188000000E+02  0.91188000000E+02 0.  0.
    9900012    2    3    3    0    0 -0.65367670915E+01  0.16396557054E+01 -0.44538698532E+02  0.46142318056E+02  0.10000002691E+02 0.  0.
         12    1    3    3    0    0  0.65367670915E+01 -0.16396557054E+01  0.44538698532E+02  0.45045681944E+02  0.00000000000E+00 0. -1.
         11    1    4    4    0    0 -0.11060558199E+01  0.30049832393E+00 -0.34499464380E+01  0.36353527209E+01  0.51100000000E-03 0. -1.
        -11    1    4    4    0    0 -0.21399799883E+01  0.76105073502E+00 -0.13794826301E+01  0.26573831413E+01  0.51100000000E-03 0.  1.
        -12    1    4    4    0    0 -0.32907312832E+01  0.57810664647E+00 -0.39709269464E+02  0.39849582194E+02  0.00000000000E+00 0.  1.
</event>
<event>
 8    1  0.7489580E-009  0.9118800E+02  0.7816164E-02  0.1184000E+00
        -11   -1    0    0    0    0  0.00000000000E+00  0.00000000000E+00  0.45593999997E+02  0.45594000000E+02  0.51100000000E-03 0. -1.
         11   -1    0    0    0    0 -0.00000000000E+00 -0.00000000000E+00 -0.45593999997E+02  0.45594000000E+02  0.51100000000E-03 0.  1.
         23    2    1    2    0    0 -0.71054273576E-14  0.17763568394E-14  0.00000000000E+00  0.91188000000E+02  0.91188000000E+02 0.  0.
    9900012    2    3    3    0    0  0.35696890331E+02 -0.12156720430E+02  0.24638584095E+02  0.46142315887E+02  0.99999829148E+01 0.  0.
        -12    1    3    3    0    0 -0.35696890331E+02  0.12156720430E+02 -0.24638584095E+02  0.45045684113E+02  0.00000000000E+00 0.  1.
         11    1    4    4    0    0  0.17142460164E+02 -0.93631209761E+01  0.10291630018E+02  0.22078261335E+02  0.51100000000E-03 0. -1.
        -11    1    4    4    0    0  0.44580179469E+01  0.42930640330E+00  0.15052249260E+01  0.47248206676E+01  0.51100000000E-03 0.  1.
        -12    1    4    4    0    0  0.14096412221E+02 -0.32229058569E+01  0.12841729152E+02  0.19339233885E+02  0.00000000000E+00 0.  1.
</event>
<event>
 8    1  0.7489580E-009  0.9118800E+02  0.7816164E-02  0.1184000E+00
        -11   -1    0    0    0    0  0.00000000000E+00  0.00000000000E+00  0.45593999997E+02  0.45594000000E+02  0.51100000000E-03 0. -1.
         11   -1    0    0    0    0 -0.00000000000E+00 -0.00000000000E+00 -0.45593999997E+02  0.45594000000E+02  0.51100000000E-03 0.  1.
         23    2    1    2    0    0  0.00000000000E+00 -0.35527136788E-14  0.00000000000E+00  0.91188000000E+02  0.91188000000E+02 0.  0.
    9900012    2    3    3    0    0  0.14409265027E+02 -0.21737331513E+02  0.36728395026E+02  0.46142317620E+02  0.99999987119E+01 0.  0.
        -12    1    3    3    0    0 -0.14409265027E+02  0.21737331513E+02 -0.36728395026E+02  0.45045682380E+02  0.00000000000E+00 0.  1.
         11    1    4    4    0    0  0.78688107079E+01 -0.75164043749E+01  0.13463814045E+02  0.17311522336E+02  0.51100000000E-03 0. -1.
        -11    1    4    4    0    0  0.35628872728E+01 -0.80514925058E+01  0.72248134657E+01  0.11389408552E+02  0.51100000000E-03 0.  1.
        -12    1    4    4    0    0  0.29775670464E+01 -0.61694346323E+01  0.16039767515E+02  0.17441386732E+02  0.00000000000E+00 0.  1.
</event>
<event>
 8    1  0.7489580E-009  0.9118800E+02  0.7816164E-02  0.1184000E+00
        -11   -1    0    0    0    0  0.00000000000E+00  0.00000000000E+00  0.45593999997E+02  0.45594000000E+02  0.51100000000E-03 0. -1.
         11   -1    0    0    0    0 -0.00000000000E+00 -0.00000000000E+00 -0.45593999997E+02  0.45594000000E+02  0.51100000000E-03 0.  1.
         23    2    1    2    0    0  0.00000000000E+00 -0.35527136788E-14  0.35527136788E-14  0.91188000000E+02  0.91188000000E+02 0.  0.
    9900012    2    3    3    0    0  0.21326053194E+02  0.30196365469E+02  0.25738916847E+02  0.46142324593E+02  0.10000062299E+02 0.  0.
        -12    1    3    3    0    0 -0.21326053194E+02 -0.30196365469E+02 -0.25738916847E+02  0.45045675407E+02  0.00000000000E+00 0.  1.
         11    1    4    4    0    0  0.15671592531E+02  0.23128540206E+02  0.15902319185E+02  0.32146725187E+02  0.51100000000E-03 0. -1.
        -11    1    4    4    0    0  0.30218003248E+01  0.79042635812E+00  0.35657841938E+01  0.47403447352E+01  0.51100000000E-03 0.  1.
         12    1    4    4    0    0  0.26326603388E+01  0.62773989056E+01  0.62708134680E+01  0.92552546713E+01  0.00000000000E+00 0. -1.
</event>
<event>
 8    1  0.7489580E-009  0.9118800E+02  0.7816164E-02  0.1184000E+00
        -11   -1    0    0    0    0  0.00000000000E+00  0.00000000000E+00  0.45593999997E+02  0.45594000000E+02  0.51100000000E-03 0. -1.
         11   -1    0    0    0    0 -0.00000000000E+00 -0.00000000000E+00 -0.45593999997E+02  0.45594000000E+02  0.51100000000E-03 0.  1.
         23    2    1    2    0    0 -0.35527136788E-14  0.00000000000E+00  0.88817841970E-15  0.91188000000E+02  0.91188000000E+02 0.  0.
    9900012    2    3    3    0    0  0.16833952151E+02  0.41548101860E+02 -0.44143775229E+01  0.46142318275E+02  0.10000004685E+02 0.  0.
        -12    1    3    3    0    0 -0.16833952151E+02 -0.41548101860E+02  0.44143775229E+01  0.45045681725E+02  0.00000000000E+00 0.  1.
         11    1    4    4    0    0  0.76834747753E+01  0.17591883639E+02  0.13120859722E+01  0.19241406509E+02  0.51100000000E-03 0. -1.
        -11    1    4    4    0    0  0.28185260533E+00  0.10317726672E+01 -0.16775876961E+01  0.19895467994E+01  0.51100000000E-03 0.  1.
        -12    1    4    4    0    0  0.88686247703E+01  0.22924445554E+02 -0.40488757991E+01  0.24911364966E+02  0.00000000000E+00 0.  1.
</event>
<event>
 8    1  0.7489580E-009  0.9118800E+02  0.7816164E-02  0.1184000E+00
        -11   -1    0    0    0    0  0.00000000000E+00  0.00000000000E+00  0.45593999997E+02  0.45594000000E+02  0.51100000000E-03 0. -1.
         11   -1    0    0    0    0 -0.00000000000E+00 -0.00000000000E+00 -0.45593999997E+02  0.45594000000E+02  0.51100000000E-03 0.  1.
         23    2    1    2    0    0  0.00000000000E+00  0.17763568394E-14  0.17763568394E-14  0.91188000000E+02  0.91188000000E+02 0.  0.
    9900012    2    3    3    0    0  0.40156307811E+02 -0.14609681237E+02 -0.14252777511E+02  0.46142317525E+02  0.99999978483E+01 0.  0.
         12    1    3    3    0    0 -0.40156307811E+02  0.14609681237E+02  0.14252777511E+02  0.45045682475E+02  0.00000000000E+00 0. -1.
         11    1    4    4    0    0  0.37476870181E+01 -0.37781226266E+01 -0.29345015757E+01  0.60770608296E+01  0.51100000000E-03 0. -1.
        -11    1    4    4    0    0  0.12394325755E+01 -0.15007569188E+00 -0.16321503160E+01  0.20549040702E+01  0.51100000000E-03 0.  1.
        -12    1    4    4    0    0  0.35169188217E+02 -0.10681482918E+02 -0.96861256197E+01  0.38010352625E+02  0.00000000000E+00 0.  1.
</event>
<event>
 8    1  0.7489580E-009  0.9118800E+02  0.7816164E-02  0.1184000E+00
        -11   -1    0    0    0    0  0.00000000000E+00  0.00000000000E+00  0.45593999997E+02  0.45594000000E+02  0.51100000000E-03 0. -1.
         11   -1    0    0    0    0 -0.00000000000E+00 -0.00000000000E+00 -0.45593999997E+02  0.45594000000E+02  0.51100000000E-03 0.  1.
         23    2    1    2    0    0  0.88817841970E-15  0.00000000000E+00  0.00000000000E+00  0.91188000000E+02  0.91188000000E+02 0.  0.
    9900012    2    3    3    0    0  0.49506969801E+01 -0.30837947129E+02  0.32459592241E+02  0.46142317497E+02  0.99999975924E+01 0.  0.
        -12    1    3    3    0    0 -0.49506969801E+01  0.30837947129E+02 -0.32459592241E+02  0.45045682503E+02  0.00000000000E+00 0.  1.
         11    1    4    4    0    0  0.48172209678E+01 -0.94348462724E+01  0.14011101872E+02  0.17565105122E+02  0.51100000000E-03 0.  1.
        -11    1    4    4    0    0  0.45095055826E+00 -0.68334085938E+01  0.34629882942E+01  0.76740548345E+01  0.51100000000E-03 0. -1.
        -12    1    4    4    0    0 -0.31747454604E+00 -0.14569692263E+02  0.14985502075E+02  0.20903157540E+02  0.00000000000E+00 0.  1.
</event>
<event>
 8    1  0.7489580E-009  0.9118800E+02  0.7816164E-02  0.1184000E+00
        -11   -1    0    0    0    0  0.00000000000E+00  0.00000000000E+00  0.45593999997E+02  0.45594000000E+02  0.51100000000E-03 0. -1.
         11   -1    0    0    0    0 -0.00000000000E+00 -0.00000000000E+00 -0.45593999997E+02  0.45594000000E+02  0.51100000000E-03 0.  1.
         23    2    1    2    0    0  0.17763568394E-14  0.17763568394E-14  0.00000000000E+00  0.91188000000E+02  0.91188000000E+02 0.  0.
    9900012    2    3    3    0    0 -0.11898215510E+02 -0.10543387022E+02  0.42147157039E+02  0.46142318867E+02  0.10000010085E+02 0.  0.
        -12    1    3    3    0    0  0.11898215510E+02  0.10543387022E+02 -0.42147157039E+02  0.45045681133E+02  0.00000000000E+00 0.  1.
         11    1    4    4    0    0 -0.64556811322E+01 -0.22162797775E+01  0.21770906342E+02  0.22815785723E+02  0.51100000000E-03 0. -1.
        -11    1    4    4    0    0 -0.56304808752E+00 -0.65135770939E+00 -0.15133134116E+00  0.87418044498E+00  0.51100000000E-03 0.  1.
        -12    1    4    4    0    0 -0.48794862905E+01 -0.76757495350E+01  0.20527582039E+02  0.22452352699E+02  0.00000000000E+00 0.  1.
</event>
<event>
 8    1  0.7489580E-009  0.9118800E+02  0.7816164E-02  0.1184000E+00
        -11   -1    0    0    0    0  0.00000000000E+00  0.00000000000E+00  0.45593999997E+02  0.45594000000E+02  0.51100000000E-03 0. -1.
         11   -1    0    0    0    0 -0.00000000000E+00 -0.00000000000E+00 -0.45593999997E+02  0.45594000000E+02  0.51100000000E-03 0.  1.
         23    2    1    2    0    0  0.00000000000E+00  0.00000000000E+00  0.00000000000E+00  0.91188000000E+02  0.91188000000E+02 0.  0.
    9900012    2    3    3    0    0  0.77836778689E+01 -0.74831550214E+01 -0.43732484607E+02  0.46142318074E+02  0.10000002856E+02 0.  0.
         12    1    3    3    0    0 -0.77836778689E+01  0.74831550214E+01  0.43732484607E+02  0.45045681926E+02  0.00000000000E+00 0. -1.
         11    1    4    4    0    0  0.32192865604E+01 -0.33508885921E+01 -0.11221156925E+02  0.12145230476E+02  0.51100000000E-03 0. -1.
        -11    1    4    4    0    0  0.71887281933E+00  0.66828806970E+00 -0.20303893667E+02  0.20327604024E+02  0.51100000000E-03 0.  1.
        -12    1    4    4    0    0  0.38455184891E+01 -0.48005544990E+01 -0.12207434016E+02  0.13669483575E+02  0.00000000000E+00 0.  1.
</event>
<event>
 8    1  0.7489580E-009  0.9118800E+02  0.7816164E-02  0.1184000E+00
        -11   -1    0    0    0    0  0.00000000000E+00  0.00000000000E+00  0.45593999997E+02  0.45594000000E+02  0.51100000000E-03 0.  1.
         11   -1    0    0    0    0 -0.00000000000E+00 -0.00000000000E+00 -0.45593999997E+02  0.45594000000E+02  0.51100000000E-03 0. -1.
         23    2    1    2    0    0  0.00000000000E+00  0.00000000000E+00  0.00000000000E+00  0.91188000000E+02  0.91188000000E+02 0.  0.
    9900012    2    3    3    0    0  0.34589458537E+02 -0.28131777545E+02 -0.64254101794E+01  0.46142318235E+02  0.10000004318E+02 0.  0.
         12    1    3    3    0    0 -0.34589458537E+02  0.28131777545E+02  0.64254101794E+01  0.45045681765E+02  0.00000000000E+00 0. -1.
         11    1    4    4    0    0  0.24783995879E+02 -0.20320512144E+02 -0.90345747465E+01  0.33298546615E+02  0.51100000000E-03 0. -1.
        -11    1    4    4    0    0  0.35615070189E+01 -0.31247247736E+01  0.55060098973E+00  0.47698426460E+01  0.51100000000E-03 0.  1.
         12    1    4    4    0    0  0.62439556395E+01 -0.46865406271E+01  0.20585635773E+01  0.80739289741E+01  0.00000000000E+00 0. -1.
</event>
<event>
 8    1  0.7489580E-009  0.9118800E+02  0.7816164E-02  0.1184000E+00
        -11   -1    0    0    0    0  0.00000000000E+00  0.00000000000E+00  0.45593999997E+02  0.45594000000E+02  0.51100000000E-03 0. -1.
         11   -1    0    0    0    0 -0.00000000000E+00 -0.00000000000E+00 -0.45593999997E+02  0.45594000000E+02  0.51100000000E-03 0.  1.
         23    2    1    2    0    0  0.00000000000E+00  0.00000000000E+00  0.00000000000E+00  0.91188000000E+02  0.91188000000E+02 0.  0.
    9900012    2    3    3    0    0  0.21383551447E+02  0.32197987909E+01 -0.39515693887E+02  0.46142318297E+02  0.10000004883E+02 0.  0.
         12    1    3    3    0    0 -0.21383551447E+02 -0.32197987909E+01  0.39515693887E+02  0.45045681703E+02  0.00000000000E+00 0. -1.
         11    1    4    4    0    0 -0.56087036341E+00 -0.19353989630E+00 -0.15786631509E+01  0.16864788350E+01  0.51100000000E-03 0. -1.
        -11    1    4    4    0    0  0.14565077926E+02 -0.84981788904E+00 -0.25506355316E+02  0.29384312944E+02  0.51100000000E-03 0.  1.
        -12    1    4    4    0    0  0.73793438844E+01  0.42631565763E+01 -0.12430675420E+02  0.15071526517E+02  0.00000000000E+00 0.  1.
</event>
<event>
 8    1  0.7489580E-009  0.9118800E+02  0.7816164E-02  0.1184000E+00
        -11   -1    0    0    0    0  0.00000000000E+00  0.00000000000E+00  0.45593999997E+02  0.45594000000E+02  0.51100000000E-03 0. -1.
         11   -1    0    0    0    0 -0.00000000000E+00 -0.00000000000E+00 -0.45593999997E+02  0.45594000000E+02  0.51100000000E-03 0.  1.
         23    2    1    2    0    0  0.17763568394E-14 -0.22204460493E-15  0.71054273576E-14  0.91188000000E+02  0.91188000000E+02 0.  0.
    9900012    2    3    3    0    0  0.14435068783E+02 -0.13960697353E+01  0.42647312886E+02  0.46142317434E+02  0.99999970152E+01 0.  0.
        -12    1    3    3    0    0 -0.14435068783E+02  0.13960697353E+01 -0.42647312886E+02  0.45045682566E+02  0.00000000000E+00 0.  1.
         11    1    4    4    0    0  0.82068769411E+01 -0.13310142241E+01  0.15727376249E+02  0.17789738388E+02  0.51100000000E-03 0. -1.
        -11    1    4    4    0    0  0.79012468934E+00 -0.92795544799E+00  0.42374964411E+00  0.12903342048E+01  0.51100000000E-03 0.  1.
         12    1    4    4    0    0  0.54380671529E+01  0.86289993680E+00  0.26496186993E+02  0.27062244840E+02  0.00000000000E+00 0. -1.
</event>
<event>
 8    1  0.7489580E-009  0.9118800E+02  0.7816164E-02  0.1184000E+00
        -11   -1    0    0    0    0  0.00000000000E+00  0.00000000000E+00  0.45593999997E+02  0.45594000000E+02  0.51100000000E-03 0. -1.
         11   -1    0    0    0    0 -0.00000000000E+00 -0.00000000000E+00 -0.45593999997E+02  0.45594000000E+02  0.51100000000E-03 0.  1.
         23    2    1    2    0    0  0.22204460493E-15 -0.71054273576E-14  0.35527136788E-14  0.91188000000E+02  0.91188000000E+02 0.  0.
    9900012    2    3    3    0    0 -0.15855953406E+01  0.35478474343E+02 -0.27710597253E+02  0.46142318138E+02  0.10000003439E+02 0.  0.
         12    1    3    3    0    0  0.15855953406E+01 -0.35478474343E+02  0.27710597253E+02  0.45045681862E+02  0.00000000000E+00 0. -1.
         11    1    4    4    0    0  0.65132581164E+00  0.15491552755E+01 -0.65398369428E+00  0.18032754404E+01  0.51100000000E-03 0. -1.
        -11    1    4    4    0    0  0.12835787539E+01  0.26644043902E+02 -0.23300404115E+02  0.35418377745E+02  0.51100000000E-03 0.  1.
         12    1    4    4    0    0 -0.35204999062E+01  0.72852751651E+01 -0.37562094434E+01  0.89206649530E+01  0.00000000000E+00 0. -1.
</event>
<event>
 8    1  0.7489580E-009  0.9118800E+02  0.7816164E-02  0.1184000E+00
        -11   -1    0    0    0    0  0.00000000000E+00  0.00000000000E+00  0.45593999997E+02  0.45594000000E+02  0.51100000000E-03 0. -1.
         11   -1    0    0    0    0 -0.00000000000E+00 -0.00000000000E+00 -0.45593999997E+02  0.45594000000E+02  0.51100000000E-03 0.  1.
         23    2    1    2    0    0  0.00000000000E+00  0.00000000000E+00  0.71054273576E-14  0.91188000000E+02  0.91188000000E+02 0.  0.
    9900012    2    3    3    0    0  0.54422176358E+01  0.21756556242E+02 -0.39065944000E+02  0.46142318155E+02  0.10000003592E+02 0.  0.
         12    1    3    3    0    0 -0.54422176358E+01 -0.21756556242E+02  0.39065944000E+02  0.45045681845E+02  0.00000000000E+00 0. -1.
         11    1    4    4    0    0  0.13738323697E+00 -0.60971401901E+00 -0.20196717892E+01  0.21141664400E+01  0.51100000000E-03 0. -1.
        -11    1    4    4    0    0  0.34807673148E+01  0.16137225413E+02 -0.20950705351E+02  0.26673167043E+02  0.51100000000E-03 0.  1.
         12    1    4    4    0    0  0.18240670840E+01  0.62290448477E+01 -0.16095566859E+02  0.17354984672E+02  0.00000000000E+00 0. -1.
</event>
<event>
 8    1  0.7489580E-009  0.9118800E+02  0.7816164E-02  0.1184000E+00
        -11   -1    0    0    0    0  0.00000000000E+00  0.00000000000E+00  0.45593999997E+02  0.45594000000E+02  0.51100000000E-03 0. -1.
         11   -1    0    0    0    0 -0.00000000000E+00 -0.00000000000E+00 -0.45593999997E+02  0.45594000000E+02  0.51100000000E-03 0.  1.
         23    2    1    2    0    0  0.00000000000E+00  0.00000000000E+00  0.00000000000E+00  0.91188000000E+02  0.91188000000E+02 0.  0.
    9900012    2    3    3    0    0 -0.13519636989E+02 -0.27302451110E+02  0.33179940933E+02  0.46142324278E+02  0.10000059422E+02 0.  0.
        -12    1    3    3    0    0  0.13519636989E+02  0.27302451110E+02 -0.33179940933E+02  0.45045675722E+02  0.00000000000E+00 0.  1.
         11    1    4    4    0    0 -0.49374566727E+01 -0.53356646619E+01  0.97135929357E+01  0.12132670100E+02  0.51100000000E-03 0. -1.
        -11    1    4    4    0    0 -0.56122128240E+01 -0.69300242513E+01  0.11567827562E+02  0.14606053665E+02  0.51100000000E-03 0.  1.
        -12    1    4    4    0    0 -0.29699674927E+01 -0.15036762197E+02  0.11898520436E+02  0.19403600512E+02  0.00000000000E+00 0.  1.
</event>
<event>
 8    1  0.9659197E-009  0.9118800E+02  0.7816164E-02  0.1184000E+00
        -11   -1    0    0    0    0  0.00000000000E+00  0.00000000000E+00  0.45593999997E+02  0.45594000000E+02  0.51100000000E-03 0. -1.
         11   -1    0    0    0    0 -0.00000000000E+00 -0.00000000000E+00 -0.45593999997E+02  0.45594000000E+02  0.51100000000E-03 0.  1.
         23    2    1    2    0    0 -0.17763568394E-14  0.44408920985E-15 -0.71054273576E-14  0.91188000000E+02  0.91188000000E+02 0.  0.
    9900012    2    3    3    0    0 -0.94012130997E+01  0.17440222679E+01 -0.44019189843E+02  0.46142317678E+02  0.99999992460E+01 0.  0.
         12    1    3    3    0    0  0.94012130997E+01 -0.17440222679E+01  0.44019189843E+02  0.45045682322E+02  0.00000000000E+00 0. -1.
         11    1    4    4    0    0 -0.34555794014E+01  0.31063843040E+01 -0.13358885654E+02  0.14143920200E+02  0.51100000000E-03 0.  1.
        -11    1    4    4    0    0 -0.58662560565E+01 -0.13992552909E+01 -0.31034016821E+02  0.31614570625E+02  0.51100000000E-03 0. -1.
         12    1    4    4    0    0 -0.79377641729E-01  0.36893254805E-01  0.37371263217E+00  0.38382685380E+00  0.00000000000E+00 0. -1.
</event>
<event>
 8    1  0.7489580E-009  0.9118800E+02  0.7816164E-02  0.1184000E+00
        -11   -1    0    0    0    0  0.00000000000E+00  0.00000000000E+00  0.45593999997E+02  0.45594000000E+02  0.51100000000E-03 0. -1.
         11   -1    0    0    0    0 -0.00000000000E+00 -0.00000000000E+00 -0.45593999997E+02  0.45594000000E+02  0.51100000000E-03 0.  1.
         23    2    1    2    0    0  0.88817841970E-15  0.00000000000E+00  0.35527136788E-14  0.91188000000E+02  0.91188000000E+02 0.  0.
    9900012    2    3    3    0    0  0.59766523784E+01  0.33778118664E+02  0.29196440000E+02  0.46142314492E+02  0.99999701922E+01 0.  0.
        -12    1    3    3    0    0 -0.59766523784E+01 -0.33778118664E+02 -0.29196440000E+02  0.45045685508E+02  0.00000000000E+00 0.  1.
         11    1    4    4    0    0  0.45639372171E+01  0.11814079496E+02  0.72912135627E+01  0.14613821976E+02  0.51100000000E-03 0. -1.
        -11    1    4    4    0    0  0.23096749699E+01  0.13290999212E+02  0.10099129688E+02  0.16851637286E+02  0.51100000000E-03 0.  1.
         12    1    4    4    0    0 -0.89695980867E+00  0.86730399570E+01  0.11806096750E+02  0.14676855230E+02  0.00000000000E+00 0. -1.
</event>
<event>
 8    1  0.7489580E-009  0.9118800E+02  0.7816164E-02  0.1184000E+00
        -11   -1    0    0    0    0  0.00000000000E+00  0.00000000000E+00  0.45593999997E+02  0.45594000000E+02  0.51100000000E-03 0. -1.
         11   -1    0    0    0    0 -0.00000000000E+00 -0.00000000000E+00 -0.45593999997E+02  0.45594000000E+02  0.51100000000E-03 0.  1.
         23    2    1    2    0    0  0.22204460493E-15  0.00000000000E+00  0.00000000000E+00  0.91188000000E+02  0.91188000000E+02 0.  0.
    9900012    2    3    3    0    0  0.10594141977E+01 -0.81263999406E+01 -0.44293935621E+02  0.46142317996E+02  0.10000002140E+02 0.  0.
         12    1    3    3    0    0 -0.10594141977E+01  0.81263999406E+01  0.44293935621E+02  0.45045682004E+02  0.00000000000E+00 0. -1.
         11    1    4    4    0    0  0.10121102678E+01 -0.42944657416E+01 -0.21189017466E+02  0.21643503983E+02  0.51100000000E-03 0. -1.
        -11    1    4    4    0    0  0.28689391342E+01 -0.41657493613E+01 -0.11723836943E+02  0.12768423255E+02  0.51100000000E-03 0.  1.
         12    1    4    4    0    0 -0.28216352043E+01  0.33381516231E+00 -0.11381081211E+02  0.11730390758E+02  0.00000000000E+00 0. -1.
</event>
<event>
 8    1  0.7489580E-009  0.9118800E+02  0.7816164E-02  0.1184000E+00
        -11   -1    0    0    0    0  0.00000000000E+00  0.00000000000E+00  0.45593999997E+02  0.45594000000E+02  0.51100000000E-03 0.  1.
         11   -1    0    0    0    0 -0.00000000000E+00 -0.00000000000E+00 -0.45593999997E+02  0.45594000000E+02  0.51100000000E-03 0. -1.
         23    2    1    2    0    0  0.00000000000E+00  0.00000000000E+00  0.44408920985E-15  0.91188000000E+02  0.91188000000E+02 0.  0.
    9900012    2    3    3    0    0 -0.34298916578E+02  0.29030007508E+02  0.31553861129E+01  0.46142317900E+02  0.10000001267E+02 0.  0.
         12    1    3    3    0    0  0.34298916578E+02 -0.29030007508E+02 -0.31553861129E+01  0.45045682100E+02  0.00000000000E+00 0. -1.
         11    1    4    4    0    0 -0.28756532872E+02  0.22279650882E+02  0.23798837044E+01  0.36455244794E+02  0.51100000000E-03 0. -1.
        -11    1    4    4    0    0 -0.55868716892E+01  0.41222100766E+01  0.11312299897E+01  0.70345883133E+01  0.51100000000E-03 0.  1.
         12    1    4    4    0    0  0.44487983468E-01  0.26281465494E+01 -0.35572758119E+00  0.26524847931E+01  0.00000000000E+00 0. -1.
</event>
<event>
 8    1  0.7489580E-009  0.9118800E+02  0.7816164E-02  0.1184000E+00
        -11   -1    0    0    0    0  0.00000000000E+00  0.00000000000E+00  0.45593999997E+02  0.45594000000E+02  0.51100000000E-03 0. -1.
         11   -1    0    0    0    0 -0.00000000000E+00 -0.00000000000E+00 -0.45593999997E+02  0.45594000000E+02  0.51100000000E-03 0.  1.
         23    2    1    2    0    0  0.00000000000E+00  0.00000000000E+00  0.00000000000E+00  0.91188000000E+02  0.91188000000E+02 0.  0.
    9900012    2    3    3    0    0 -0.92823387012E+01  0.36012748986E+02 -0.25417184145E+02  0.46142321505E+02  0.10000034136E+02 0.  0.
         12    1    3    3    0    0  0.92823387012E+01 -0.36012748986E+02  0.25417184145E+02  0.45045678495E+02  0.00000000000E+00 0. -1.
         11    1    4    4    0    0 -0.50950652690E+01  0.70084534065E+01 -0.64911024248E+01  0.10826473119E+02  0.51100000000E-03 0. -1.
        -11    1    4    4    0    0  0.89562788958E-01  0.13512473511E+00  0.31869855021E+00  0.35756008479E+00  0.51100000000E-03 0.  1.
        -12    1    4    4    0    0 -0.42768362212E+01  0.28869170844E+02 -0.19244780270E+02  0.34958288301E+02  0.00000000000E+00 0.  1.
</event>
<event>
 8    1  0.7489580E-009  0.9118800E+02  0.7816164E-02  0.1184000E+00
        -11   -1    0    0    0    0  0.00000000000E+00  0.00000000000E+00  0.45593999997E+02  0.45594000000E+02  0.51100000000E-03 0. -1.
         11   -1    0    0    0    0 -0.00000000000E+00 -0.00000000000E+00 -0.45593999997E+02  0.45594000000E+02  0.51100000000E-03 0.  1.
         23    2    1    2    0    0 -0.17763568394E-14  0.17763568394E-14 -0.71054273576E-14  0.91188000000E+02  0.91188000000E+02 0.  0.
    9900012    2    3    3    0    0  0.83638925925E+01 -0.11320012632E+02  0.42790373805E+02  0.46142317903E+02  0.10000001290E+02 0.  0.
        -12    1    3    3    0    0 -0.83638925925E+01  0.11320012632E+02 -0.42790373805E+02  0.45045682097E+02  0.00000000000E+00 0.  1.
         11    1    4    4    0    0  0.56647190620E+00  0.69425684031E+00  0.67143787094E+01  0.67739032097E+01  0.51100000000E-03 0.  1.
        -11    1    4    4    0    0  0.15728700512E+01 -0.12660798319E+01  0.13057887124E+02  0.13213072873E+02  0.51100000000E-03 0. -1.
        -12    1    4    4    0    0  0.62245506351E+01 -0.10748189640E+02  0.23018107971E+02  0.26155341820E+02  0.00000000000E+00 0.  1.
</event>
<event>
 8    1  0.7489580E-009  0.9118800E+02  0.7816164E-02  0.1184000E+00
        -11   -1    0    0    0    0  0.00000000000E+00  0.00000000000E+00  0.45593999997E+02  0.45594000000E+02  0.51100000000E-03 0. -1.
         11   -1    0    0    0    0 -0.00000000000E+00 -0.00000000000E+00 -0.45593999997E+02  0.45594000000E+02  0.51100000000E-03 0.  1.
         23    2    1    2    0    0  0.35527136788E-14 -0.35527136788E-14  0.71054273576E-14  0.91188000000E+02  0.91188000000E+02 0.  0.
    9900012    2    3    3    0    0  0.18044801069E+02 -0.26262654113E+02  0.31839782078E+02  0.46142316861E+02  0.99999917900E+01 0.  0.
        -12    1    3    3    0    0 -0.18044801069E+02  0.26262654113E+02 -0.31839782078E+02  0.45045683139E+02  0.00000000000E+00 0.  1.
         11    1    4    4    0    0  0.32564212979E+01 -0.12306106248E+02  0.13009618802E+02  0.18201503023E+02  0.51100000000E-03 0. -1.
        -11    1    4    4    0    0  0.59176868554E+01 -0.39443333648E+01  0.49550688967E+01  0.86677270056E+01  0.51100000000E-03 0.  1.
        -12    1    4    4    0    0  0.88706929159E+01 -0.10012214500E+02  0.13875094379E+02  0.19273086832E+02  0.00000000000E+00 0.  1.
</event>
<event>
 8    1  0.7489580E-009  0.9118800E+02  0.7816164E-02  0.1184000E+00
        -11   -1    0    0    0    0  0.00000000000E+00  0.00000000000E+00  0.45593999997E+02  0.45594000000E+02  0.51100000000E-03 0.  1.
         11   -1    0    0    0    0 -0.00000000000E+00 -0.00000000000E+00 -0.45593999997E+02  0.45594000000E+02  0.51100000000E-03 0. -1.
         23    2    1    2    0    0  0.00000000000E+00  0.00000000000E+00  0.17763568394E-14  0.91188000000E+02  0.91188000000E+02 0.  0.
    9900012    2    3    3    0    0  0.11284480060E+02 -0.42565362690E+02  0.94849434673E+01  0.46142314926E+02  0.99999741501E+01 0.  0.
         12    1    3    3    0    0 -0.11284480060E+02  0.42565362690E+02 -0.94849434673E+01  0.45045685074E+02  0.00000000000E+00 0. -1.
         11    1    4    4    0    0  0.14364632105E+01 -0.42932142326E+01 -0.55921457514E+00  0.45615607203E+01  0.51100000000E-03 0. -1.
        -11    1    4    4    0    0  0.62220804399E+01 -0.25004845826E+02  0.10487242348E+02  0.27819756507E+02  0.51100000000E-03 0.  1.
        -12    1    4    4    0    0  0.36259364094E+01 -0.13267302632E+02 -0.44308430597E+00  0.13760997699E+02  0.00000000000E+00 0.  1.
</event>
<event>
 8    1  0.9254168E-009  0.9118800E+02  0.7816164E-02  0.1184000E+00
        -11   -1    0    0    0    0  0.00000000000E+00  0.00000000000E+00  0.45593999997E+02  0.45594000000E+02  0.51100000000E-03 0. -1.
         11   -1    0    0    0    0 -0.00000000000E+00 -0.00000000000E+00 -0.45593999997E+02  0.45594000000E+02  0.51100000000E-03 0.  1.
         23    2    1    2    0    0 -0.35527136788E-14  0.00000000000E+00 -0.71054273576E-14  0.91188000000E+02  0.91188000000E+02 0.  0.
    9900012    2    3    3    0    0 -0.16448293594E+02 -0.29444286998E+02 -0.29859691040E+02  0.46142317099E+02  0.99999939632E+01 0.  0.
         12    1    3    3    0    0  0.16448293594E+02  0.29444286998E+02  0.29859691040E+02  0.45045682901E+02  0.00000000000E+00 0. -1.
         11    1    4    4    0    0 -0.30227829485E+01 -0.42981329867E+01 -0.51834241464E+01  0.73809924853E+01  0.51100000000E-03 0. -1.
        -11    1    4    4    0    0 -0.13532210896E+02 -0.18865637727E+02 -0.21818705993E+02  0.31860460606E+02  0.51100000000E-03 0.  1.
         12    1    4    4    0    0  0.10670025016E+00 -0.62805162852E+01 -0.28575609002E+01  0.69008640075E+01  0.00000000000E+00 0. -1.
</event>
<event>
 8    1  0.7489580E-009  0.9118800E+02  0.7816164E-02  0.1184000E+00
        -11   -1    0    0    0    0  0.00000000000E+00  0.00000000000E+00  0.45593999997E+02  0.45594000000E+02  0.51100000000E-03 0. -1.
         11   -1    0    0    0    0 -0.00000000000E+00 -0.00000000000E+00 -0.45593999997E+02  0.45594000000E+02  0.51100000000E-03 0.  1.
         23    2    1    2    0    0  0.00000000000E+00 -0.44408920985E-15  0.00000000000E+00  0.91188000000E+02  0.91188000000E+02 0.  0.
    9900012    2    3    3    0    0 -0.12568912687E+02 -0.36158574414E+01 -0.43105237117E+02  0.46142318097E+02  0.10000003062E+02 0.  0.
         12    1    3    3    0    0  0.12568912687E+02  0.36158574414E+01  0.43105237117E+02  0.45045681903E+02  0.00000000000E+00 0. -1.
         11    1    4    4    0    0  0.10624187293E+00  0.24437000836E+00  0.10300048580E-01  0.26666531209E+00  0.51100000000E-03 0. -1.
        -11    1    4    4    0    0 -0.34122550999E+01 -0.52746945839E+01 -0.16179805146E+02  0.17356612073E+02  0.51100000000E-03 0.  1.
        -12    1    4    4    0    0 -0.92628994602E+01  0.14144671342E+01 -0.26935732020E+02  0.28519040712E+02  0.00000000000E+00 0.  1.
</event>
<event>
 8    1  0.7489580E-009  0.9118800E+02  0.7816164E-02  0.1184000E+00
        -11   -1    0    0    0    0  0.00000000000E+00  0.00000000000E+00  0.45593999997E+02  0.45594000000E+02  0.51100000000E-03 0. -1.
         11   -1    0    0    0    0 -0.00000000000E+00 -0.00000000000E+00 -0.45593999997E+02  0.45594000000E+02  0.51100000000E-03 0.  1.
         23    2    1    2    0    0  0.00000000000E+00  0.35527136788E-14  0.00000000000E+00  0.91188000000E+02  0.91188000000E+02 0.  0.
    9900012    2    3    3    0    0  0.20845205993E+02  0.28169515322E+02 -0.28303167027E+02  0.46142317964E+02  0.10000001846E+02 0.  0.
         12    1    3    3    0    0 -0.20845205993E+02 -0.28169515322E+02  0.28303167027E+02  0.45045682036E+02  0.00000000000E+00 0. -1.
         11    1    4    4    0    0  0.11497976116E+01  0.39251532859E+01 -0.60141979204E+01  0.72732001040E+01  0.51100000000E-03 0. -1.
        -11    1    4    4    0    0  0.84815131540E+01  0.73544209166E+01 -0.10743089946E+02  0.15538260979E+02  0.51100000000E-03 0.  1.
        -12    1    4    4    0    0  0.11213895227E+02  0.16889941120E+02 -0.11545879161E+02  0.23330856881E+02  0.00000000000E+00 0.  1.
</event>
<event>
 8    1  0.7489580E-009  0.9118800E+02  0.7816164E-02  0.1184000E+00
        -11   -1    0    0    0    0  0.00000000000E+00  0.00000000000E+00  0.45593999997E+02  0.45594000000E+02  0.51100000000E-03 0.  1.
         11   -1    0    0    0    0 -0.00000000000E+00 -0.00000000000E+00 -0.45593999997E+02  0.45594000000E+02  0.51100000000E-03 0. -1.
         23    2    1    2    0    0 -0.35527136788E-14 -0.71054273576E-14  0.35527136788E-14  0.91188000000E+02  0.91188000000E+02 0.  0.
    9900012    2    3    3    0    0 -0.27292051882E+02 -0.28291531685E+02  0.21996516915E+02  0.46142316329E+02  0.99999869413E+01 0.  0.
        -12    1    3    3    0    0  0.27292051882E+02  0.28291531685E+02 -0.21996516915E+02  0.45045683671E+02  0.00000000000E+00 0.  1.
         11    1    4    4    0    0 -0.63240116017E+01 -0.66534312943E+01  0.28931223858E+01  0.96245222285E+01  0.51100000000E-03 0. -1.
        -11    1    4    4    0    0 -0.17831527950E+02 -0.13409649182E+02  0.13386717919E+02  0.26018960339E+02  0.51100000000E-03 0.  1.
         12    1    4    4    0    0 -0.31365123302E+01 -0.82284512089E+01  0.57166766095E+01  0.10498833762E+02  0.00000000000E+00 0. -1.
</event>
<event>
 8    1  0.7489580E-009  0.9118800E+02  0.7816164E-02  0.1184000E+00
        -11   -1    0    0    0    0  0.00000000000E+00  0.00000000000E+00  0.45593999997E+02  0.45594000000E+02  0.51100000000E-03 0. -1.
         11   -1    0    0    0    0 -0.00000000000E+00 -0.00000000000E+00 -0.45593999997E+02  0.45594000000E+02  0.51100000000E-03 0.  1.
         23    2    1    2    0    0  0.88817841970E-15 -0.44408920985E-15  0.00000000000E+00  0.91188000000E+02  0.91188000000E+02 0.  0.
    9900012    2    3    3    0    0  0.53250454845E+01 -0.33723971256E+01 -0.44602514194E+02  0.46142318251E+02  0.10000004466E+02 0.  0.
         12    1    3    3    0    0 -0.53250454845E+01  0.33723971256E+01  0.44602514194E+02  0.45045681749E+02  0.00000000000E+00 0. -1.
         11    1    4    4    0    0 -0.64462496916E+00 -0.86776336475E+00 -0.22443370394E+01  0.24911048986E+01  0.51100000000E-03 0. -1.
        -11    1    4    4    0    0  0.18485726725E+01 -0.44792235187E+01 -0.11846466425E+02  0.12799196509E+02  0.51100000000E-03 0.  1.
         12    1    4    4    0    0  0.41210977812E+01  0.19745897579E+01 -0.30511710730E+02  0.30852016843E+02  0.00000000000E+00 0. -1.
</event>
<event>
 8    1  0.7489580E-009  0.9118800E+02  0.7816164E-02  0.1184000E+00
        -11   -1    0    0    0    0  0.00000000000E+00  0.00000000000E+00  0.45593999997E+02  0.45594000000E+02  0.51100000000E-03 0. -1.
         11   -1    0    0    0    0 -0.00000000000E+00 -0.00000000000E+00 -0.45593999997E+02  0.45594000000E+02  0.51100000000E-03 0.  1.
         23    2    1    2    0    0  0.00000000000E+00  0.00000000000E+00  0.00000000000E+00  0.91188000000E+02  0.91188000000E+02 0.  0.
    9900012    2    3    3    0    0 -0.17783160789E+02 -0.14229068804E+02 -0.38863945961E+02  0.46142317606E+02  0.99999985855E+01 0.  0.
         12    1    3    3    0    0  0.17783160789E+02  0.14229068804E+02  0.38863945961E+02  0.45045682394E+02  0.00000000000E+00 0. -1.
         11    1    4    4    0    0 -0.18758425408E+01 -0.68133625911E+00 -0.79952748554E+01  0.82405961319E+01  0.51100000000E-03 0. -1.
        -11    1    4    4    0    0 -0.13393724892E+02 -0.11686338853E+02 -0.29598594601E+02  0.34525920478E+02  0.51100000000E-03 0.  1.
        -12    1    4    4    0    0 -0.25135933557E+01 -0.18613936917E+01 -0.12700765051E+01  0.33758009956E+01  0.00000000000E+00 0.  1.
</event>
<event>
 8    1  0.7489580E-009  0.9118800E+02  0.7816164E-02  0.1184000E+00
        -11   -1    0    0    0    0  0.00000000000E+00  0.00000000000E+00  0.45593999997E+02  0.45594000000E+02  0.51100000000E-03 0. -1.
         11   -1    0    0    0    0 -0.00000000000E+00 -0.00000000000E+00 -0.45593999997E+02  0.45594000000E+02  0.51100000000E-03 0.  1.
         23    2    1    2    0    0  0.00000000000E+00 -0.35527136788E-14  0.00000000000E+00  0.91188000000E+02  0.91188000000E+02 0.  0.
    9900012    2    3    3    0    0  0.13602161855E+02  0.17943224053E+02 -0.39014555214E+02  0.46142316354E+02  0.99999871732E+01 0.  0.
         12    1    3    3    0    0 -0.13602161855E+02 -0.17943224053E+02  0.39014555214E+02  0.45045683646E+02  0.00000000000E+00 0. -1.
         11    1    4    4    0    0  0.42675340156E+01  0.62969874175E+01 -0.95966217816E+01  0.12245776700E+02  0.51100000000E-03 0.  1.
        -11    1    4    4    0    0  0.77244412198E-01 -0.62447094158E-01  0.47446266164E+00  0.48474881866E+00  0.51100000000E-03 0. -1.
        -12    1    4    4    0    0  0.92573834272E+01  0.11708683729E+02 -0.29892396094E+02  0.33411790836E+02  0.00000000000E+00 0.  1.
</event>
<event>
 8    1  0.7489580E-009  0.9118800E+02  0.7816164E-02  0.1184000E+00
        -11   -1    0    0    0    0  0.00000000000E+00  0.00000000000E+00  0.45593999997E+02  0.45594000000E+02  0.51100000000E-03 0. -1.
         11   -1    0    0    0    0 -0.00000000000E+00 -0.00000000000E+00 -0.45593999997E+02  0.45594000000E+02  0.51100000000E-03 0.  1.
         23    2    1    2    0    0 -0.35527136788E-14  0.00000000000E+00  0.00000000000E+00  0.91188000000E+02  0.91188000000E+02 0.  0.
    9900012    2    3    3    0    0 -0.17505034330E+02 -0.26380380903E+02 -0.32043137836E+02  0.46142318677E+02  0.10000008349E+02 0.  0.
         12    1    3    3    0    0  0.17505034330E+02  0.26380380903E+02  0.32043137836E+02  0.45045681323E+02  0.00000000000E+00 0. -1.
         11    1    4    4    0    0 -0.39006317119E-01 -0.20363630575E+01 -0.43885971129E+01  0.48381898345E+01  0.51100000000E-03 0. -1.
        -11    1    4    4    0    0 -0.16854678755E+02 -0.19409283428E+02 -0.23024889956E+02  0.34510086016E+02  0.51100000000E-03 0.  1.
        -12    1    4    4    0    0 -0.61134925788E+00 -0.49347344182E+01 -0.46296507674E+01  0.67940428259E+01  0.00000000000E+00 0.  1.
</event>
<event>
 8    1  0.7489580E-009  0.9118800E+02  0.7816164E-02  0.1184000E+00
        -11   -1    0    0    0    0  0.00000000000E+00  0.00000000000E+00  0.45593999997E+02  0.45594000000E+02  0.51100000000E-03 0. -1.
         11   -1    0    0    0    0 -0.00000000000E+00 -0.00000000000E+00 -0.45593999997E+02  0.45594000000E+02  0.51100000000E-03 0.  1.
         23    2    1    2    0    0  0.00000000000E+00  0.00000000000E+00  0.00000000000E+00  0.91188000000E+02  0.91188000000E+02 0.  0.
    9900012    2    3    3    0    0  0.11418690814E+02 -0.19345447535E+02  0.39044598516E+02  0.46142317482E+02  0.99999974553E+01 0.  0.
        -12    1    3    3    0    0 -0.11418690814E+02  0.19345447535E+02 -0.39044598516E+02  0.45045682518E+02  0.00000000000E+00 0.  1.
         11    1    4    4    0    0  0.12078449512E+02 -0.16211146638E+02  0.27694195120E+02  0.34287879222E+02  0.51100000000E-03 0. -1.
        -11    1    4    4    0    0  0.71550632015E-01 -0.70065306723E+00  0.43592302458E+01  0.44157584638E+01  0.51100000000E-03 0.  1.
         12    1    4    4    0    0 -0.73130933008E+00 -0.24336478295E+01  0.69911731501E+01  0.74386797961E+01  0.00000000000E+00 0. -1.
</event>
<event>
 8    1  0.7489580E-009  0.9118800E+02  0.7816164E-02  0.1184000E+00
        -11   -1    0    0    0    0  0.00000000000E+00  0.00000000000E+00  0.45593999997E+02  0.45594000000E+02  0.51100000000E-03 0. -1.
         11   -1    0    0    0    0 -0.00000000000E+00 -0.00000000000E+00 -0.45593999997E+02  0.45594000000E+02  0.51100000000E-03 0.  1.
         23    2    1    2    0    0  0.35527136788E-14  0.00000000000E+00  0.00000000000E+00  0.91188000000E+02  0.91188000000E+02 0.  0.
    9900012    2    3    3    0    0  0.23628882552E+02  0.33287150202E+02  0.19046129374E+02  0.46142317595E+02  0.99999984833E+01 0.  0.
        -12    1    3    3    0    0 -0.23628882552E+02 -0.33287150202E+02 -0.19046129374E+02  0.45045682405E+02  0.00000000000E+00 0.  1.
         11    1    4    4    0    0  0.11576280679E+01  0.14626632616E+01  0.27793959236E+01  0.33473166151E+01  0.51100000000E-03 0. -1.
        -11    1    4    4    0    0 -0.12803157163E+00  0.22793299250E+01  0.17032525258E+01  0.28482988639E+01  0.51100000000E-03 0.  1.
         12    1    4    4    0    0  0.22599286056E+02  0.29545157015E+02  0.14563480925E+02  0.39946702116E+02  0.00000000000E+00 0. -1.
</event>
<event>
 8    1  0.7489580E-009  0.9118800E+02  0.7816164E-02  0.1184000E+00
        -11   -1    0    0    0    0  0.00000000000E+00  0.00000000000E+00  0.45593999997E+02  0.45594000000E+02  0.51100000000E-03 0. -1.
         11   -1    0    0    0    0 -0.00000000000E+00 -0.00000000000E+00 -0.45593999997E+02  0.45594000000E+02  0.51100000000E-03 0.  1.
         23    2    1    2    0    0  0.00000000000E+00  0.00000000000E+00 -0.71054273576E-14  0.91188000000E+02  0.91188000000E+02 0.  0.
    9900012    2    3    3    0    0  0.13308188307E+02 -0.18388751879E+02  0.38908345919E+02  0.46142318145E+02  0.10000003497E+02 0.  0.
        -12    1    3    3    0    0 -0.13308188307E+02  0.18388751879E+02 -0.38908345919E+02  0.45045681855E+02  0.00000000000E+00 0.  1.
         11    1    4    4    0    0  0.11547245039E+02 -0.88080363610E+01  0.23317399854E+02  0.27470375111E+02  0.51100000000E-03 0. -1.
        -11    1    4    4    0    0 -0.74633561200E+00 -0.43077526327E+01  0.56614520234E+01  0.71530265528E+01  0.51100000000E-03 0.  1.
         12    1    4    4    0    0  0.25072788797E+01 -0.52729628856E+01  0.99294940412E+01  0.11518916481E+02  0.00000000000E+00 0. -1.
</event>
<event>
 8    1  0.7489580E-009  0.9118800E+02  0.7816164E-02  0.1184000E+00
        -11   -1    0    0    0    0  0.00000000000E+00  0.00000000000E+00  0.45593999997E+02  0.45594000000E+02  0.51100000000E-03 0. -1.
         11   -1    0    0    0    0 -0.00000000000E+00 -0.00000000000E+00 -0.45593999997E+02  0.45594000000E+02  0.51100000000E-03 0.  1.
         23    2    1    2    0    0 -0.88817841970E-15  0.35527136788E-14  0.00000000000E+00  0.91188000000E+02  0.91188000000E+02 0.  0.
    9900012    2    3    3    0    0  0.61618713227E+01 -0.15937184821E+02  0.41679143364E+02  0.46142317523E+02  0.99999978316E+01 0.  0.
        -12    1    3    3    0    0 -0.61618713227E+01  0.15937184821E+02 -0.41679143364E+02  0.45045682477E+02  0.00000000000E+00 0.  1.
         11    1    4    4    0    0  0.28704833320E+01 -0.11679470369E+02  0.17401512554E+02  0.21153305701E+02  0.51100000000E-03 0. -1.
        -11    1    4    4    0    0  0.35827858856E+01 -0.36783866732E+01  0.19383544613E+02  0.20052149143E+02  0.51100000000E-03 0.  1.
         12    1    4    4    0    0 -0.29139789484E+00 -0.57932777867E+00  0.48940861967E+01  0.49368626787E+01  0.00000000000E+00 0. -1.
</event>
<event>
 8    1  0.7489580E-009  0.9118800E+02  0.7816164E-02  0.1184000E+00
        -11   -1    0    0    0    0  0.00000000000E+00  0.00000000000E+00  0.45593999997E+02  0.45594000000E+02  0.51100000000E-03 0. -1.
         11   -1    0    0    0    0 -0.00000000000E+00 -0.00000000000E+00 -0.45593999997E+02  0.45594000000E+02  0.51100000000E-03 0.  1.
         23    2    1    2    0    0  0.00000000000E+00  0.00000000000E+00  0.00000000000E+00  0.91188000000E+02  0.91188000000E+02 0.  0.
    9900012    2    3    3    0    0 -0.37489337689E+02 -0.89539990659E+01 -0.23312849583E+02  0.46142317684E+02  0.99999992983E+01 0.  0.
         12    1    3    3    0    0  0.37489337689E+02  0.89539990659E+01  0.23312849583E+02  0.45045682316E+02  0.00000000000E+00 0. -1.
         11    1    4    4    0    0 -0.18652255080E+02 -0.81584723053E+01 -0.10468019209E+02  0.22892066668E+02  0.51100000000E-03 0.  1.
        -11    1    4    4    0    0 -0.24107923564E+00 -0.26955298675E-01 -0.13570339494E+01  0.13785453155E+01  0.51100000000E-03 0. -1.
         12    1    4    4    0    0 -0.18596003374E+02 -0.76857146189E+00 -0.11487796424E+02  0.21871705701E+02  0.00000000000E+00 0. -1.
</event>
<event>
 8    1  0.7489580E-009  0.9118800E+02  0.7816164E-02  0.1184000E+00
        -11   -1    0    0    0    0  0.00000000000E+00  0.00000000000E+00  0.45593999997E+02  0.45594000000E+02  0.51100000000E-03 0. -1.
         11   -1    0    0    0    0 -0.00000000000E+00 -0.00000000000E+00 -0.45593999997E+02  0.45594000000E+02  0.51100000000E-03 0.  1.
         23    2    1    2    0    0  0.00000000000E+00  0.00000000000E+00  0.00000000000E+00  0.91188000000E+02  0.91188000000E+02 0.  0.
    9900012    2    3    3    0    0  0.38949787797E+02  0.17638585043E+02  0.14174197403E+02  0.46142317368E+02  0.99999964170E+01 0.  0.
        -12    1    3    3    0    0 -0.38949787797E+02 -0.17638585043E+02 -0.14174197403E+02  0.45045682632E+02  0.00000000000E+00 0.  1.
         11    1    4    4    0    0  0.17146241231E+01 -0.86885908911E-01  0.10201340784E+00  0.17198523312E+01  0.51100000000E-03 0.  1.
        -11    1    4    4    0    0  0.24091503518E+02  0.10072791746E+02  0.46274601714E+01  0.26519333763E+02  0.51100000000E-03 0. -1.
         12    1    4    4    0    0  0.13143660156E+02  0.76526792055E+01  0.94447238235E+01  0.17903131274E+02  0.00000000000E+00 0. -1.
</event>
<event>
 8    1  0.7489580E-009  0.9118800E+02  0.7816164E-02  0.1184000E+00
        -11   -1    0    0    0    0  0.00000000000E+00  0.00000000000E+00  0.45593999997E+02  0.45594000000E+02  0.51100000000E-03 0.  1.
         11   -1    0    0    0    0 -0.00000000000E+00 -0.00000000000E+00 -0.45593999997E+02  0.45594000000E+02  0.51100000000E-03 0. -1.
         23    2    1    2    0    0 -0.71054273576E-14 -0.71054273576E-14 -0.66613381478E-15  0.91188000000E+02  0.91188000000E+02 0.  0.
    9900012    2    3    3    0    0  0.22357206707E+02  0.39080267332E+02  0.14147726451E+01  0.46142316876E+02  0.99999919302E+01 0.  0.
        -12    1    3    3    0    0 -0.22357206707E+02 -0.39080267332E+02 -0.14147726451E+01  0.45045683124E+02  0.00000000000E+00 0.  1.
         11    1    4    4    0    0 -0.28329775174E+00  0.34424800550E+00  0.83610500856E-01  0.45360255996E+00  0.51100000000E-03 0. -1.
        -11    1    4    4    0    0  0.12238533391E+02  0.19511430329E+02  0.48821226876E+01  0.23543847078E+02  0.51100000000E-03 0.  1.
         12    1    4    4    0    0  0.10401971068E+02  0.19224588997E+02 -0.35509605434E+01  0.22144867238E+02  0.00000000000E+00 0. -1.
</event>
<event>
 8    1  0.7489580E-009  0.9118800E+02  0.7816164E-02  0.1184000E+00
        -11   -1    0    0    0    0  0.00000000000E+00  0.00000000000E+00  0.45593999997E+02  0.45594000000E+02  0.51100000000E-03 0. -1.
         11   -1    0    0    0    0 -0.00000000000E+00 -0.00000000000E+00 -0.45593999997E+02  0.45594000000E+02  0.51100000000E-03 0.  1.
         23    2    1    2    0    0  0.00000000000E+00  0.00000000000E+00  0.00000000000E+00  0.91188000000E+02  0.91188000000E+02 0.  0.
    9900012    2    3    3    0    0  0.21525506858E+02  0.31250685436E+02 -0.24272635984E+02  0.46142316041E+02  0.99999843180E+01 0.  0.
         12    1    3    3    0    0 -0.21525506858E+02 -0.31250685436E+02  0.24272635984E+02  0.45045683959E+02  0.00000000000E+00 0. -1.
         11    1    4    4    0    0  0.43633739826E+01  0.11866861825E+02 -0.85902224060E+01  0.15285724168E+02  0.51100000000E-03 0. -1.
        -11    1    4    4    0    0  0.10973373118E+02  0.16240989461E+02 -0.12243569777E+02  0.23110379863E+02  0.51100000000E-03 0.  1.
        -12    1    4    4    0    0  0.61887597576E+01  0.31428341496E+01 -0.34388438004E+01  0.77462120106E+01  0.00000000000E+00 0.  1.
</event>
<event>
 8    1  0.7489580E-009  0.9118800E+02  0.7816164E-02  0.1184000E+00
        -11   -1    0    0    0    0  0.00000000000E+00  0.00000000000E+00  0.45593999997E+02  0.45594000000E+02  0.51100000000E-03 0.  1.
         11   -1    0    0    0    0 -0.00000000000E+00 -0.00000000000E+00 -0.45593999997E+02  0.45594000000E+02  0.51100000000E-03 0. -1.
         23    2    1    2    0    0  0.00000000000E+00  0.00000000000E+00  0.00000000000E+00  0.91188000000E+02  0.91188000000E+02 0.  0.
    9900012    2    3    3    0    0  0.22678179311E+02 -0.78752209261E+01  0.38115541351E+02  0.46142318586E+02  0.10000007525E+02 0.  0.
        -12    1    3    3    0    0 -0.22678179311E+02  0.78752209261E+01 -0.38115541351E+02  0.45045681414E+02  0.00000000000E+00 0.  1.
         11    1    4    4    0    0  0.17885381164E+02 -0.29505422133E+01  0.27641689251E+02  0.33055340622E+02  0.51100000000E-03 0. -1.
        -11    1    4    4    0    0  0.27655041840E+01 -0.35390286331E+01  0.35020317075E+01  0.56953457664E+01  0.51100000000E-03 0.  1.
        -12    1    4    4    0    0  0.20272939636E+01 -0.13856500796E+01  0.69718203931E+01  0.73916321981E+01  0.00000000000E+00 0.  1.
</event>
<event>
 8    1  0.7489580E-009  0.9118800E+02  0.7816164E-02  0.1184000E+00
        -11   -1    0    0    0    0  0.00000000000E+00  0.00000000000E+00  0.45593999997E+02  0.45594000000E+02  0.51100000000E-03 0. -1.
         11   -1    0    0    0    0 -0.00000000000E+00 -0.00000000000E+00 -0.45593999997E+02  0.45594000000E+02  0.51100000000E-03 0.  1.
         23    2    1    2    0    0  0.00000000000E+00  0.00000000000E+00  0.00000000000E+00  0.91188000000E+02  0.91188000000E+02 0.  0.
    9900012    2    3    3    0    0 -0.32701383010E+02  0.30812935159E+02  0.32087525141E+01  0.46142317448E+02  0.99999971448E+01 0.  0.
        -12    1    3    3    0    0  0.32701383010E+02 -0.30812935159E+02 -0.32087525141E+01  0.45045682552E+02  0.00000000000E+00 0.  1.
         11    1    4    4    0    0 -0.93078856450E+01  0.38053989089E+01  0.61955685244E+00  0.10074802578E+02  0.51100000000E-03 0. -1.
        -11    1    4    4    0    0 -0.21997312060E+02  0.24914042956E+02  0.13505423823E+01  0.33262820675E+02  0.51100000000E-03 0.  1.
        -12    1    4    4    0    0 -0.13961853046E+01  0.20934932946E+01  0.12386532794E+01  0.28046941947E+01  0.00000000000E+00 0.  1.
</event>
<event>
 8    1  0.7489580E-009  0.9118800E+02  0.7816164E-02  0.1184000E+00
        -11   -1    0    0    0    0  0.00000000000E+00  0.00000000000E+00  0.45593999997E+02  0.45594000000E+02  0.51100000000E-03 0. -1.
         11   -1    0    0    0    0 -0.00000000000E+00 -0.00000000000E+00 -0.45593999997E+02  0.45594000000E+02  0.51100000000E-03 0.  1.
         23    2    1    2    0    0  0.00000000000E+00 -0.44408920985E-15  0.00000000000E+00  0.91188000000E+02  0.91188000000E+02 0.  0.
    9900012    2    3    3    0    0 -0.27758170375E+02  0.13068687591E+01 -0.35452638820E+02  0.46142317323E+02  0.99999960018E+01 0.  0.
         12    1    3    3    0    0  0.27758170375E+02 -0.13068687591E+01  0.35452638820E+02  0.45045682677E+02  0.00000000000E+00 0. -1.
         11    1    4    4    0    0 -0.17384996137E+01  0.25021775869E+01 -0.30890284295E+01  0.43388213241E+01  0.51100000000E-03 0. -1.
        -11    1    4    4    0    0 -0.14116651005E+02  0.16274808490E+01 -0.18129240052E+02  0.23034710214E+02  0.51100000000E-03 0.  1.
        -12    1    4    4    0    0 -0.11903019757E+02 -0.28227896768E+01 -0.14234370338E+02  0.18768785784E+02  0.00000000000E+00 0.  1.
</event>
<event>
 8    1  0.7489580E-009  0.9118800E+02  0.7816164E-02  0.1184000E+00
        -11   -1    0    0    0    0  0.00000000000E+00  0.00000000000E+00  0.45593999997E+02  0.45594000000E+02  0.51100000000E-03 0. -1.
         11   -1    0    0    0    0 -0.00000000000E+00 -0.00000000000E+00 -0.45593999997E+02  0.45594000000E+02  0.51100000000E-03 0.  1.
         23    2    1    2    0    0  0.00000000000E+00  0.00000000000E+00  0.00000000000E+00  0.91188000000E+02  0.91188000000E+02 0.  0.
    9900012    2    3    3    0    0  0.26727282814E+02 -0.18665289075E+02  0.31086537681E+02  0.46142317766E+02  0.10000000044E+02 0.  0.
        -12    1    3    3    0    0 -0.26727282814E+02  0.18665289075E+02 -0.31086537681E+02  0.45045682234E+02  0.00000000000E+00 0.  1.
         11    1    4    4    0    0  0.11981317943E+02 -0.60431727257E+01  0.15399100356E+02  0.20425577306E+02  0.51100000000E-03 0. -1.
        -11    1    4    4    0    0  0.15336733118E+02 -0.11902410790E+02  0.14637152520E+02  0.24313144583E+02  0.51100000000E-03 0.  1.
         12    1    4    4    0    0 -0.59076824656E+00 -0.71970555941E+00  0.10502848056E+01  0.14035958771E+01  0.00000000000E+00 0. -1.
</event>
<event>
 8    1  0.7489580E-009  0.9118800E+02  0.7816164E-02  0.1184000E+00
        -11   -1    0    0    0    0  0.00000000000E+00  0.00000000000E+00  0.45593999997E+02  0.45594000000E+02  0.51100000000E-03 0. -1.
         11   -1    0    0    0    0 -0.00000000000E+00 -0.00000000000E+00 -0.45593999997E+02  0.45594000000E+02  0.51100000000E-03 0.  1.
         23    2    1    2    0    0  0.00000000000E+00  0.00000000000E+00  0.00000000000E+00  0.91188000000E+02  0.91188000000E+02 0.  0.
    9900012    2    3    3    0    0 -0.18528029844E+02 -0.11080165840E+02  0.39535495188E+02  0.46142319356E+02  0.10000014544E+02 0.  0.
        -12    1    3    3    0    0  0.18528029844E+02  0.11080165840E+02 -0.39535495188E+02  0.45045680644E+02  0.00000000000E+00 0.  1.
         11    1    4    4    0    0 -0.12048091889E+02 -0.39145382036E+01  0.23794347396E+02  0.26956466678E+02  0.51100000000E-03 0. -1.
        -11    1    4    4    0    0 -0.43499470305E+01 -0.70267513342E+01  0.14571468655E+02  0.16751864747E+02  0.51100000000E-03 0.  1.
         12    1    4    4    0    0 -0.21299909241E+01 -0.13887630194E+00  0.11696791371E+01  0.24339879309E+01  0.00000000000E+00 0. -1.
</event>
<event>
 8    1  0.7489580E-009  0.9118800E+02  0.7816164E-02  0.1184000E+00
        -11   -1    0    0    0    0  0.00000000000E+00  0.00000000000E+00  0.45593999997E+02  0.45594000000E+02  0.51100000000E-03 0. -1.
         11   -1    0    0    0    0 -0.00000000000E+00 -0.00000000000E+00 -0.45593999997E+02  0.45594000000E+02  0.51100000000E-03 0.  1.
         23    2    1    2    0    0 -0.35527136788E-14 -0.35527136788E-14  0.00000000000E+00  0.91188000000E+02  0.91188000000E+02 0.  0.
    9900012    2    3    3    0    0  0.31885439569E+02  0.20229679167E+02  0.24559973419E+02  0.46142317964E+02  0.10000001850E+02 0.  0.
        -12    1    3    3    0    0 -0.31885439569E+02 -0.20229679167E+02 -0.24559973419E+02  0.45045682036E+02  0.00000000000E+00 0.  1.
         11    1    4    4    0    0  0.79169780295E+01  0.53033322247E+01  0.11348141536E+02  0.14818373406E+02  0.51100000000E-03 0. -1.
        -11    1    4    4    0    0  0.22224169808E+01  0.24979470798E+01  0.18384044118E+01  0.38155743857E+01  0.51100000000E-03 0.  1.
         12    1    4    4    0    0  0.21746044559E+02  0.12428399863E+02  0.11373427471E+02  0.27508370173E+02  0.00000000000E+00 0. -1.
</event>
<event>
 8    1  0.7489580E-009  0.9118800E+02  0.7816164E-02  0.1184000E+00
        -11   -1    0    0    0    0  0.00000000000E+00  0.00000000000E+00  0.45593999997E+02  0.45594000000E+02  0.51100000000E-03 0. -1.
         11   -1    0    0    0    0 -0.00000000000E+00 -0.00000000000E+00 -0.45593999997E+02  0.45594000000E+02  0.51100000000E-03 0.  1.
         23    2    1    2    0    0  0.00000000000E+00 -0.11102230246E-15  0.71054273576E-14  0.91188000000E+02  0.91188000000E+02 0.  0.
    9900012    2    3    3    0    0 -0.26945957300E+02  0.45744963861E+00 -0.36094594611E+02  0.46142316133E+02  0.99999851523E+01 0.  0.
         12    1    3    3    0    0  0.26945957300E+02 -0.45744963861E+00  0.36094594611E+02  0.45045683867E+02  0.00000000000E+00 0. -1.
         11    1    4    4    0    0 -0.68595051605E+01  0.81216457855E+00 -0.65093607809E+01  0.94912696931E+01  0.51100000000E-03 0. -1.
        -11    1    4    4    0    0 -0.78195301075E+01 -0.28093299399E+01 -0.71413925772E+01  0.10956134082E+02  0.51100000000E-03 0.  1.
         12    1    4    4    0    0 -0.12266922032E+02  0.24546150000E+01 -0.22443841252E+02  0.25694912358E+02  0.00000000000E+00 0. -1.
</event>
<event>
 8    1  0.7489580E-009  0.9118800E+02  0.7816164E-02  0.1184000E+00
        -11   -1    0    0    0    0  0.00000000000E+00  0.00000000000E+00  0.45593999997E+02  0.45594000000E+02  0.51100000000E-03 0. -1.
         11   -1    0    0    0    0 -0.00000000000E+00 -0.00000000000E+00 -0.45593999997E+02  0.45594000000E+02  0.51100000000E-03 0.  1.
         23    2    1    2    0    0  0.00000000000E+00  0.00000000000E+00  0.00000000000E+00  0.91188000000E+02  0.91188000000E+02 0.  0.
    9900012    2    3    3    0    0  0.77600707310E+01  0.20016069357E+02  0.39601158744E+02  0.46142317586E+02  0.99999984070E+01 0.  0.
        -12    1    3    3    0    0 -0.77600707310E+01 -0.20016069357E+02 -0.39601158744E+02  0.45045682414E+02  0.00000000000E+00 0.  1.
         11    1    4    4    0    0  0.14970563179E+01  0.18437124410E+01  0.11809235416E+02  0.12045683648E+02  0.51100000000E-03 0. -1.
        -11    1    4    4    0    0  0.42250707798E+01  0.16681732310E+02  0.24726047397E+02  0.30124887321E+02  0.51100000000E-03 0.  1.
         12    1    4    4    0    0  0.20379436332E+01  0.14906246056E+01  0.30658759310E+01  0.39717466172E+01  0.00000000000E+00 0. -1.
</event>
<event>
 8    1  0.7489580E-009  0.9118800E+02  0.7816164E-02  0.1184000E+00
        -11   -1    0    0    0    0  0.00000000000E+00  0.00000000000E+00  0.45593999997E+02  0.45594000000E+02  0.51100000000E-03 0. -1.
         11   -1    0    0    0    0 -0.00000000000E+00 -0.00000000000E+00 -0.45593999997E+02  0.45594000000E+02  0.51100000000E-03 0.  1.
         23    2    1    2    0    0  0.00000000000E+00  0.00000000000E+00  0.00000000000E+00  0.91188000000E+02  0.91188000000E+02 0.  0.
    9900012    2    3    3    0    0 -0.20388868317E+02 -0.43010175868E+01 -0.39936308896E+02  0.46142317945E+02  0.10000001679E+02 0.  0.
         12    1    3    3    0    0  0.20388868317E+02  0.43010175868E+01  0.39936308896E+02  0.45045682055E+02  0.00000000000E+00 0. -1.
         11    1    4    4    0    0 -0.13841213305E+02 -0.42997107424E+01 -0.24937186113E+02  0.28843195900E+02  0.51100000000E-03 0. -1.
        -11    1    4    4    0    0  0.76304924764E+00  0.65021129426E+00 -0.68880855636E+00  0.12163372764E+01  0.51100000000E-03 0.  1.
        -12    1    4    4    0    0 -0.73107042597E+01 -0.65151813865E+00 -0.14310314226E+02  0.16082784769E+02  0.00000000000E+00 0.  1.
</event>
<event>
 8    1  0.7489580E-009  0.9118800E+02  0.7816164E-02  0.1184000E+00
        -11   -1    0    0    0    0  0.00000000000E+00  0.00000000000E+00  0.45593999997E+02  0.45594000000E+02  0.51100000000E-03 0. -1.
         11   -1    0    0    0    0 -0.00000000000E+00 -0.00000000000E+00 -0.45593999997E+02  0.45594000000E+02  0.51100000000E-03 0.  1.
         23    2    1    2    0    0  0.00000000000E+00  0.00000000000E+00  0.00000000000E+00  0.91188000000E+02  0.91188000000E+02 0.  0.
    9900012    2    3    3    0    0 -0.11378706206E+02 -0.34957245589E+02  0.26031319038E+02  0.46142317133E+02  0.99999942724E+01 0.  0.
        -12    1    3    3    0    0  0.11378706206E+02  0.34957245589E+02 -0.26031319038E+02  0.45045682867E+02  0.00000000000E+00 0.  1.
         11    1    4    4    0    0 -0.19080655136E+01 -0.14131503813E+02  0.86225604655E+01  0.16663993017E+02  0.51100000000E-03 0. -1.
        -11    1    4    4    0    0 -0.12470222763E+01 -0.95509078651E+01  0.90185274634E+01  0.13195027225E+02  0.51100000000E-03 0.  1.
        -12    1    4    4    0    0 -0.82236184166E+01 -0.11274833911E+02  0.83902311087E+01  0.16283296891E+02  0.00000000000E+00 0.  1.
</event>
<event>
 8    1  0.7489580E-009  0.9118800E+02  0.7816164E-02  0.1184000E+00
        -11   -1    0    0    0    0  0.00000000000E+00  0.00000000000E+00  0.45593999997E+02  0.45594000000E+02  0.51100000000E-03 0. -1.
         11   -1    0    0    0    0 -0.00000000000E+00 -0.00000000000E+00 -0.45593999997E+02  0.45594000000E+02  0.51100000000E-03 0.  1.
         23    2    1    2    0    0  0.35527136788E-14  0.00000000000E+00  0.00000000000E+00  0.91188000000E+02  0.91188000000E+02 0.  0.
    9900012    2    3    3    0    0  0.29356439760E+02  0.33013917789E+02  0.87973530950E+01  0.46142326017E+02  0.10000075281E+02 0.  0.
         12    1    3    3    0    0 -0.29356439760E+02 -0.33013917789E+02 -0.87973530950E+01  0.45045673983E+02  0.00000000000E+00 0. -1.
         11    1    4    4    0    0  0.14493700054E+00 -0.62285478532E+00  0.54197715757E-01  0.64178849417E+00  0.51100000000E-03 0. -1.
        -11    1    4    4    0    0  0.15485167566E+02  0.18102517851E+02  0.61971268953E+01  0.24614953770E+02  0.51100000000E-03 0.  1.
         12    1    4    4    0    0  0.13726335193E+02  0.15534254723E+02  0.25460284839E+01  0.20885583753E+02  0.00000000000E+00 0. -1.
</event>
<event>
 8    1  0.7489580E-009  0.9118800E+02  0.7816164E-02  0.1184000E+00
        -11   -1    0    0    0    0  0.00000000000E+00  0.00000000000E+00  0.45593999997E+02  0.45594000000E+02  0.51100000000E-03 0.  1.
         11   -1    0    0    0    0 -0.00000000000E+00 -0.00000000000E+00 -0.45593999997E+02  0.45594000000E+02  0.51100000000E-03 0. -1.
         23    2    1    2    0    0  0.00000000000E+00  0.00000000000E+00  0.00000000000E+00  0.91188000000E+02  0.91188000000E+02 0.  0.
    9900012    2    3    3    0    0  0.42508920798E+02 -0.58093194168E+01  0.13724316358E+02  0.46142318753E+02  0.10000009049E+02 0.  0.
         12    1    3    3    0    0 -0.42508920798E+02  0.58093194168E+01 -0.13724316358E+02  0.45045681247E+02  0.00000000000E+00 0. -1.
         11    1    4    4    0    0  0.78888493107E+01 -0.11451327047E+01  0.55620901737E+01  0.97201913418E+01  0.51100000000E-03 0. -1.
        -11    1    4    4    0    0  0.23055402859E+02 -0.53560313942E+01  0.74532556893E+01  0.24815110193E+02  0.51100000000E-03 0.  1.
        -12    1    4    4    0    0  0.11564668628E+02  0.69184468210E+00  0.70897049472E+00  0.11607017218E+02  0.00000000000E+00 0.  1.
</event>
<event>
 8    1  0.7489580E-009  0.9118800E+02  0.7816164E-02  0.1184000E+00
        -11   -1    0    0    0    0  0.00000000000E+00  0.00000000000E+00  0.45593999997E+02  0.45594000000E+02  0.51100000000E-03 0. -1.
         11   -1    0    0    0    0 -0.00000000000E+00 -0.00000000000E+00 -0.45593999997E+02  0.45594000000E+02  0.51100000000E-03 0.  1.
         23    2    1    2    0    0  0.35527136788E-14  0.00000000000E+00  0.71054273576E-14  0.91188000000E+02  0.91188000000E+02 0.  0.
    9900012    2    3    3    0    0  0.17636484469E+02  0.22639812212E+02 -0.34720409232E+02  0.46142317646E+02  0.99999989537E+01 0.  0.
         12    1    3    3    0    0 -0.17636484469E+02 -0.22639812212E+02  0.34720409232E+02  0.45045682354E+02  0.00000000000E+00 0. -1.
         11    1    4    4    0    0  0.72894923778E+01  0.37644909500E+01 -0.71672007737E+01  0.10893890877E+02  0.51100000000E-03 0. -1.
        -11    1    4    4    0    0 -0.35014501894E+00  0.12452429840E+01 -0.10400612086E+01  0.16598069774E+01  0.51100000000E-03 0.  1.
        -12    1    4    4    0    0  0.10697137111E+02  0.17630078278E+02 -0.26513147250E+02  0.33588619792E+02  0.00000000000E+00 0.  1.
</event>
<event>
 8    1  0.7489580E-009  0.9118800E+02  0.7816164E-02  0.1184000E+00
        -11   -1    0    0    0    0  0.00000000000E+00  0.00000000000E+00  0.45593999997E+02  0.45594000000E+02  0.51100000000E-03 0. -1.
         11   -1    0    0    0    0 -0.00000000000E+00 -0.00000000000E+00 -0.45593999997E+02  0.45594000000E+02  0.51100000000E-03 0.  1.
         23    2    1    2    0    0  0.00000000000E+00  0.35527136788E-14  0.00000000000E+00  0.91188000000E+02  0.91188000000E+02 0.  0.
    9900012    2    3    3    0    0  0.53176637604E+01 -0.28819072349E+02 -0.34209604502E+02  0.46142317420E+02  0.99999968885E+01 0.  0.
         12    1    3    3    0    0 -0.53176637604E+01  0.28819072349E+02  0.34209604502E+02  0.45045682580E+02  0.00000000000E+00 0. -1.
         11    1    4    4    0    0 -0.48863318328E+00  0.19129437301E+00  0.45599348576E-01  0.52672145073E+00  0.51100000000E-03 0. -1.
        -11    1    4    4    0    0  0.48785389821E+01 -0.13960151445E+02 -0.19928785775E+02  0.24816173631E+02  0.51100000000E-03 0.  1.
         12    1    4    4    0    0  0.92775796155E+00 -0.15050215277E+02 -0.14326418076E+02  0.20799422338E+02  0.00000000000E+00 0. -1.
</event>
<event>
 8    1  0.7489580E-009  0.9118800E+02  0.7816164E-02  0.1184000E+00
        -11   -1    0    0    0    0  0.00000000000E+00  0.00000000000E+00  0.45593999997E+02  0.45594000000E+02  0.51100000000E-03 0. -1.
         11   -1    0    0    0    0 -0.00000000000E+00 -0.00000000000E+00 -0.45593999997E+02  0.45594000000E+02  0.51100000000E-03 0.  1.
         23    2    1    2    0    0  0.00000000000E+00  0.00000000000E+00  0.35527136788E-14  0.91188000000E+02  0.91188000000E+02 0.  0.
    9900012    2    3    3    0    0  0.33799684819E+02 -0.12691252466E+02  0.26937467797E+02  0.46142314809E+02  0.99999730811E+01 0.  0.
        -12    1    3    3    0    0 -0.33799684819E+02  0.12691252466E+02 -0.26937467797E+02  0.45045685191E+02  0.00000000000E+00 0.  1.
         11    1    4    4    0    0  0.61402694276E+01 -0.20694359919E+01  0.38902247856E+01  0.75577326701E+01  0.51100000000E-03 0. -1.
        -11    1    4    4    0    0  0.22563210801E+02 -0.11769951729E+02  0.17055206751E+02  0.30635115847E+02  0.51100000000E-03 0.  1.
        -12    1    4    4    0    0  0.50962045902E+01  0.11481352553E+01  0.59920362599E+01  0.79494662921E+01  0.00000000000E+00 0.  1.
</event>
<event>
 8    1  0.7489580E-009  0.9118800E+02  0.7816164E-02  0.1184000E+00
        -11   -1    0    0    0    0  0.00000000000E+00  0.00000000000E+00  0.45593999997E+02  0.45594000000E+02  0.51100000000E-03 0.  1.
         11   -1    0    0    0    0 -0.00000000000E+00 -0.00000000000E+00 -0.45593999997E+02  0.45594000000E+02  0.51100000000E-03 0. -1.
         23    2    1    2    0    0 -0.71054273576E-14  0.00000000000E+00  0.17763568394E-14  0.91188000000E+02  0.91188000000E+02 0.  0.
    9900012    2    3    3    0    0 -0.42065980911E+02  0.13694405337E+02  0.84870526692E+01  0.46142317071E+02  0.99999937033E+01 0.  0.
         12    1    3    3    0    0  0.42065980911E+02 -0.13694405337E+02 -0.84870526692E+01  0.45045682929E+02  0.00000000000E+00 0. -1.
         11    1    4    4    0    0 -0.83242254885E+01 -0.61874496145E+00  0.28778181725E+01  0.88293495233E+01  0.51100000000E-03 0. -1.
        -11    1    4    4    0    0 -0.58010847747E+01  0.15721950859E+01  0.22646503861E+01  0.64228516707E+01  0.51100000000E-03 0.  1.
        -12    1    4    4    0    0 -0.27940670648E+02  0.12740955212E+02  0.33445841106E+01  0.30890115877E+02  0.00000000000E+00 0.  1.
</event>
<event>
 8    1  0.7489580E-009  0.9118800E+02  0.7816164E-02  0.1184000E+00
        -11   -1    0    0    0    0  0.00000000000E+00  0.00000000000E+00  0.45593999997E+02  0.45594000000E+02  0.51100000000E-03 0. -1.
         11   -1    0    0    0    0 -0.00000000000E+00 -0.00000000000E+00 -0.45593999997E+02  0.45594000000E+02  0.51100000000E-03 0.  1.
         23    2    1    2    0    0 -0.35527136788E-14  0.17763568394E-14  0.00000000000E+00  0.91188000000E+02  0.91188000000E+02 0.  0.
    9900012    2    3    3    0    0 -0.24629645162E+02  0.10715468712E+02  0.36161758601E+02  0.46142317902E+02  0.10000001287E+02 0.  0.
        -12    1    3    3    0    0  0.24629645162E+02 -0.10715468712E+02 -0.36161758601E+02  0.45045682098E+02  0.00000000000E+00 0.  1.
         11    1    4    4    0    0 -0.61246808482E+01  0.54050044668E+01  0.12886685337E+02  0.15257537416E+02  0.51100000000E-03 0. -1.
        -11    1    4    4    0    0 -0.13986353530E+02  0.32567445224E+01  0.12569066954E+02  0.19084179687E+02  0.51100000000E-03 0.  1.
        -12    1    4    4    0    0 -0.45186107837E+01  0.20537197227E+01  0.10706006310E+02  0.11800600799E+02  0.00000000000E+00 0.  1.
</event>
<event>
 8    1  0.7489580E-009  0.9118800E+02  0.7816164E-02  0.1184000E+00
        -11   -1    0    0    0    0  0.00000000000E+00  0.00000000000E+00  0.45593999997E+02  0.45594000000E+02  0.51100000000E-03 0. -1.
         11   -1    0    0    0    0 -0.00000000000E+00 -0.00000000000E+00 -0.45593999997E+02  0.45594000000E+02  0.51100000000E-03 0.  1.
         23    2    1    2    0    0  0.44408920985E-15  0.00000000000E+00 -0.35527136788E-14  0.91188000000E+02  0.91188000000E+02 0.  0.
    9900012    2    3    3    0    0  0.24753101213E+01  0.37936288390E+02 -0.24162458771E+02  0.46142317067E+02  0.99999936733E+01 0.  0.
         12    1    3    3    0    0 -0.24753101213E+01 -0.37936288390E+02  0.24162458771E+02  0.45045682933E+02  0.00000000000E+00 0. -1.
         11    1    4    4    0    0 -0.15010508234E+01  0.16271813203E+02 -0.10155526556E+02  0.19239536855E+02  0.51100000000E-03 0. -1.
        -11    1    4    4    0    0  0.35506961052E+00  0.90561886848E+01 -0.23719981157E+01  0.93684045198E+01  0.51100000000E-03 0.  1.
        -12    1    4    4    0    0  0.36212913342E+01  0.12608286502E+02 -0.11634934099E+02  0.17534375693E+02  0.00000000000E+00 0.  1.
</event>
<event>
 8    1  0.7489580E-009  0.9118800E+02  0.7816164E-02  0.1184000E+00
        -11   -1    0    0    0    0  0.00000000000E+00  0.00000000000E+00  0.45593999997E+02  0.45594000000E+02  0.51100000000E-03 0. -1.
         11   -1    0    0    0    0 -0.00000000000E+00 -0.00000000000E+00 -0.45593999997E+02  0.45594000000E+02  0.51100000000E-03 0.  1.
         23    2    1    2    0    0  0.00000000000E+00  0.00000000000E+00  0.00000000000E+00  0.91188000000E+02  0.91188000000E+02 0.  0.
    9900012    2    3    3    0    0 -0.22567214987E+02 -0.51902388909E+01 -0.38638007792E+02  0.46142318540E+02  0.10000007104E+02 0.  0.
         12    1    3    3    0    0  0.22567214987E+02  0.51902388909E+01  0.38638007792E+02  0.45045681460E+02  0.00000000000E+00 0. -1.
         11    1    4    4    0    0 -0.22302636455E+00 -0.97556709596E+00 -0.55510407932E+01  0.56405253361E+01  0.51100000000E-03 0. -1.
        -11    1    4    4    0    0 -0.79685148600E+01  0.10012458713E+01 -0.10351267000E+02  0.13101467518E+02  0.51100000000E-03 0.  1.
        -12    1    4    4    0    0 -0.14375673763E+02 -0.52159176663E+01 -0.22735699999E+02  0.27400325686E+02  0.00000000000E+00 0.  1.
</event>
<event>
 8    1  0.7489580E-009  0.9118800E+02  0.7816164E-02  0.1184000E+00
        -11   -1    0    0    0    0  0.00000000000E+00  0.00000000000E+00  0.45593999997E+02  0.45594000000E+02  0.51100000000E-03 0. -1.
         11   -1    0    0    0    0 -0.00000000000E+00 -0.00000000000E+00 -0.45593999997E+02  0.45594000000E+02  0.51100000000E-03 0.  1.
         23    2    1    2    0    0 -0.35527136788E-14  0.00000000000E+00  0.00000000000E+00  0.91188000000E+02  0.91188000000E+02 0.  0.
    9900012    2    3    3    0    0 -0.25712239958E+02 -0.18058509142E+02 -0.32278235185E+02  0.46142317601E+02  0.99999985429E+01 0.  0.
         12    1    3    3    0    0  0.25712239958E+02  0.18058509142E+02  0.32278235185E+02  0.45045682399E+02  0.00000000000E+00 0. -1.
         11    1    4    4    0    0 -0.60809775896E+00  0.49976146399E+00 -0.99959292360E-01  0.79343337880E+00  0.51100000000E-03 0. -1.
        -11    1    4    4    0    0 -0.13933909508E+02 -0.60936447067E+01 -0.14787054860E+02  0.21211867709E+02  0.51100000000E-03 0.  1.
        -12    1    4    4    0    0 -0.11170232691E+02 -0.12464625899E+02 -0.17391221032E+02  0.24137016514E+02  0.00000000000E+00 0.  1.
</event>
<event>
 8    1  0.7489580E-009  0.9118800E+02  0.7816164E-02  0.1184000E+00
        -11   -1    0    0    0    0  0.00000000000E+00  0.00000000000E+00  0.45593999997E+02  0.45594000000E+02  0.51100000000E-03 0. -1.
         11   -1    0    0    0    0 -0.00000000000E+00 -0.00000000000E+00 -0.45593999997E+02  0.45594000000E+02  0.51100000000E-03 0.  1.
         23    2    1    2    0    0  0.00000000000E+00  0.00000000000E+00  0.00000000000E+00  0.91188000000E+02  0.91188000000E+02 0.  0.
    9900012    2    3    3    0    0  0.37401924860E+01 -0.44483870698E+02  0.60257421432E+01  0.46142319180E+02  0.10000012941E+02 0.  0.
        -12    1    3    3    0    0 -0.37401924860E+01  0.44483870698E+02 -0.60257421432E+01  0.45045680820E+02  0.00000000000E+00 0.  1.
         11    1    4    4    0    0  0.20330821826E+01 -0.47061056330E+01  0.12714404332E+01  0.52818003017E+01  0.51100000000E-03 0. -1.
        -11    1    4    4    0    0  0.10559021148E+01 -0.89391856987E+01  0.43855917439E+01  0.10012861002E+02  0.51100000000E-03 0.  1.
        -12    1    4    4    0    0  0.65120818857E+00 -0.30838579367E+02  0.36870996616E+00  0.30847657877E+02  0.00000000000E+00 0.  1.
</event>
<event>
 8    1  0.7489580E-009  0.9118800E+02  0.7816164E-02  0.1184000E+00
        -11   -1    0    0    0    0  0.00000000000E+00  0.00000000000E+00  0.45593999997E+02  0.45594000000E+02  0.51100000000E-03 0. -1.
         11   -1    0    0    0    0 -0.00000000000E+00 -0.00000000000E+00 -0.45593999997E+02  0.45594000000E+02  0.51100000000E-03 0.  1.
         23    2    1    2    0    0  0.00000000000E+00  0.17763568394E-14  0.00000000000E+00  0.91188000000E+02  0.91188000000E+02 0.  0.
    9900012    2    3    3    0    0  0.20695328623E+02  0.13735600872E+02 -0.37578585805E+02  0.46142317973E+02  0.10000001935E+02 0.  0.
         12    1    3    3    0    0 -0.20695328623E+02 -0.13735600872E+02  0.37578585805E+02  0.45045682027E+02  0.00000000000E+00 0. -1.
         11    1    4    4    0    0  0.97347636853E+01  0.14913034919E+01 -0.13183613125E+02  0.16455918856E+02  0.51100000000E-03 0. -1.
        -11    1    4    4    0    0  0.24313098037E+01  0.42494919833E+01 -0.47211623923E+01  0.68013839822E+01  0.51100000000E-03 0.  1.
         12    1    4    4    0    0  0.85292551344E+01  0.79948053963E+01 -0.19673810288E+02  0.22885015135E+02  0.00000000000E+00 0. -1.
</event>
<event>
 8    1  0.7489580E-009  0.9118800E+02  0.7816164E-02  0.1184000E+00
        -11   -1    0    0    0    0  0.00000000000E+00  0.00000000000E+00  0.45593999997E+02  0.45594000000E+02  0.51100000000E-03 0. -1.
         11   -1    0    0    0    0 -0.00000000000E+00 -0.00000000000E+00 -0.45593999997E+02  0.45594000000E+02  0.51100000000E-03 0.  1.
         23    2    1    2    0    0  0.00000000000E+00  0.00000000000E+00 -0.71054273576E-14  0.91188000000E+02  0.91188000000E+02 0.  0.
    9900012    2    3    3    0    0 -0.84071458602E+01  0.15327678883E+02 -0.41515004923E+02  0.46142317907E+02  0.10000001330E+02 0.  0.
         12    1    3    3    0    0  0.84071458602E+01 -0.15327678883E+02  0.41515004923E+02  0.45045682093E+02  0.00000000000E+00 0. -1.
         11    1    4    4    0    0  0.91715238503E+00  0.57214549802E-01 -0.48849903982E+01  0.49706713282E+01  0.51100000000E-03 0. -1.
        -11    1    4    4    0    0 -0.11767047034E+01  0.47665854646E+00 -0.65305641458E+00  0.14276975417E+01  0.51100000000E-03 0.  1.
         12    1    4    4    0    0 -0.81475935418E+01  0.14793805787E+02 -0.35976958110E+02  0.39743949037E+02  0.00000000000E+00 0. -1.
</event>
<event>
 8    1  0.7489580E-009  0.9118800E+02  0.7816164E-02  0.1184000E+00
        -11   -1    0    0    0    0  0.00000000000E+00  0.00000000000E+00  0.45593999997E+02  0.45594000000E+02  0.51100000000E-03 0. -1.
         11   -1    0    0    0    0 -0.00000000000E+00 -0.00000000000E+00 -0.45593999997E+02  0.45594000000E+02  0.51100000000E-03 0.  1.
         23    2    1    2    0    0  0.00000000000E+00  0.00000000000E+00  0.00000000000E+00  0.91188000000E+02  0.91188000000E+02 0.  0.
    9900012    2    3    3    0    0  0.76392000896E+01  0.58298435479E+01  0.44008738661E+02  0.46142317273E+02  0.99999955534E+01 0.  0.
        -12    1    3    3    0    0 -0.76392000896E+01 -0.58298435479E+01 -0.44008738661E+02  0.45045682727E+02  0.00000000000E+00 0.  1.
         11    1    4    4    0    0  0.30513304122E+01  0.20023119117E+00  0.26537943834E+01  0.40488683240E+01  0.51100000000E-03 0. -1.
        -11    1    4    4    0    0  0.16174747694E+00  0.23016154495E+01  0.12878910235E+02  0.13083956780E+02  0.51100000000E-03 0.  1.
         12    1    4    4    0    0  0.44261222004E+01  0.33279969073E+01  0.28476034042E+02  0.29009492169E+02  0.00000000000E+00 0. -1.
</event>
<event>
 8    1  0.7489580E-009  0.9118800E+02  0.7816164E-02  0.1184000E+00
        -11   -1    0    0    0    0  0.00000000000E+00  0.00000000000E+00  0.45593999997E+02  0.45594000000E+02  0.51100000000E-03 0. -1.
         11   -1    0    0    0    0 -0.00000000000E+00 -0.00000000000E+00 -0.45593999997E+02  0.45594000000E+02  0.51100000000E-03 0.  1.
         23    2    1    2    0    0  0.00000000000E+00  0.00000000000E+00  0.35527136788E-14  0.91188000000E+02  0.91188000000E+02 0.  0.
    9900012    2    3    3    0    0  0.36087308529E+02  0.16372318819E+02  0.21418862907E+02  0.46142308213E+02  0.99999129308E+01 0.  0.
        -12    1    3    3    0    0 -0.36087308529E+02 -0.16372318819E+02 -0.21418862907E+02  0.45045691787E+02  0.00000000000E+00 0.  1.
         11    1    4    4    0    0  0.18565702046E+02  0.69915040277E+01  0.12071994065E+02  0.23222822007E+02  0.51100000000E-03 0. -1.
        -11    1    4    4    0    0  0.66464947459E+01  0.13492921537E+00  0.27405572434E+01  0.71906016832E+01  0.51100000000E-03 0.  1.
        -12    1    4    4    0    0  0.10875111737E+02  0.92458855761E+01  0.66063115988E+01  0.15728884522E+02  0.00000000000E+00 0.  1.
</event>
<event>
 8    1  0.7489580E-009  0.9118800E+02  0.7816164E-02  0.1184000E+00
        -11   -1    0    0    0    0  0.00000000000E+00  0.00000000000E+00  0.45593999997E+02  0.45594000000E+02  0.51100000000E-03 0. -1.
         11   -1    0    0    0    0 -0.00000000000E+00 -0.00000000000E+00 -0.45593999997E+02  0.45594000000E+02  0.51100000000E-03 0.  1.
         23    2    1    2    0    0  0.00000000000E+00 -0.88817841970E-15  0.00000000000E+00  0.91188000000E+02  0.91188000000E+02 0.  0.
    9900012    2    3    3    0    0  0.38559117960E+02  0.48273746881E+01  0.22781667203E+02  0.46142317801E+02  0.10000000365E+02 0.  0.
        -12    1    3    3    0    0 -0.38559117960E+02 -0.48273746881E+01 -0.22781667203E+02  0.45045682199E+02  0.00000000000E+00 0.  1.
         11    1    4    4    0    0  0.25770006589E+02  0.46660058054E+01  0.12349913400E+02  0.28954882335E+02  0.51100000000E-03 0.  1.
        -11    1    4    4    0    0  0.11324042649E+02  0.17672311733E+01  0.83762246150E+01  0.14195710162E+02  0.51100000000E-03 0. -1.
        -12    1    4    4    0    0  0.14650687218E+01 -0.16058622906E+01  0.20555291879E+01  0.29917253046E+01  0.00000000000E+00 0.  1.
</event>
<event>
 8    1  0.7489580E-009  0.9118800E+02  0.7816164E-02  0.1184000E+00
        -11   -1    0    0    0    0  0.00000000000E+00  0.00000000000E+00  0.45593999997E+02  0.45594000000E+02  0.51100000000E-03 0. -1.
         11   -1    0    0    0    0 -0.00000000000E+00 -0.00000000000E+00 -0.45593999997E+02  0.45594000000E+02  0.51100000000E-03 0.  1.
         23    2    1    2    0    0  0.00000000000E+00 -0.22204460493E-15  0.00000000000E+00  0.91188000000E+02  0.91188000000E+02 0.  0.
    9900012    2    3    3    0    0 -0.42515288385E+02  0.17230273961E+01  0.14784954465E+02  0.46142318205E+02  0.10000004045E+02 0.  0.
        -12    1    3    3    0    0  0.42515288385E+02 -0.17230273961E+01 -0.14784954465E+02  0.45045681795E+02  0.00000000000E+00 0.  1.
         11    1    4    4    0    0 -0.72966697985E+01  0.19884061322E+00  0.48084959579E+01  0.87408558720E+01  0.51100000000E-03 0. -1.
        -11    1    4    4    0    0 -0.18322894271E+00  0.76792662860E+00  0.90868617525E+00  0.12037420731E+01  0.51100000000E-03 0.  1.
         12    1    4    4    0    0 -0.35035389644E+02  0.75626015423E+00  0.90677723315E+01  0.36197720260E+02  0.00000000000E+00 0. -1.
</event>
<event>
 8    1  0.7489580E-009  0.9118800E+02  0.7816164E-02  0.1184000E+00
        -11   -1    0    0    0    0  0.00000000000E+00  0.00000000000E+00  0.45593999997E+02  0.45594000000E+02  0.51100000000E-03 0.  1.
         11   -1    0    0    0    0 -0.00000000000E+00 -0.00000000000E+00 -0.45593999997E+02  0.45594000000E+02  0.51100000000E-03 0. -1.
         23    2    1    2    0    0  0.00000000000E+00 -0.44408920985E-15  0.00000000000E+00  0.91188000000E+02  0.91188000000E+02 0.  0.
    9900012    2    3    3    0    0 -0.44877898766E+02 -0.29617099381E+01  0.25131609998E+01  0.46142317614E+02  0.99999986629E+01 0.  0.
        -12    1    3    3    0    0  0.44877898766E+02  0.29617099381E+01 -0.25131609998E+01  0.45045682386E+02  0.00000000000E+00 0.  1.
         11    1    4    4    0    0 -0.24635717434E+02  0.13816653745E+00  0.26629984046E+01  0.24779613076E+02  0.51100000000E-03 0. -1.
        -11    1    4    4    0    0 -0.41076263618E+01  0.17407066178E+01 -0.66086843472E+00  0.45099225278E+01  0.51100000000E-03 0.  1.
        -12    1    4    4    0    0 -0.16134554970E+02 -0.48405830934E+01  0.51103102997E+00  0.16852782010E+02  0.00000000000E+00 0.  1.
</event>
<event>
 8    1  0.7489580E-009  0.9118800E+02  0.7816164E-02  0.1184000E+00
        -11   -1    0    0    0    0  0.00000000000E+00  0.00000000000E+00  0.45593999997E+02  0.45594000000E+02  0.51100000000E-03 0. -1.
         11   -1    0    0    0    0 -0.00000000000E+00 -0.00000000000E+00 -0.45593999997E+02  0.45594000000E+02  0.51100000000E-03 0.  1.
         23    2    1    2    0    0  0.00000000000E+00  0.00000000000E+00  0.35527136788E-14  0.91188000000E+02  0.91188000000E+02 0.  0.
    9900012    2    3    3    0    0 -0.21304648664E+02 -0.33336775399E+02 -0.21537982882E+02  0.46142319238E+02  0.10000013464E+02 0.  0.
         12    1    3    3    0    0  0.21304648664E+02  0.33336775399E+02  0.21537982882E+02  0.45045680762E+02  0.00000000000E+00 0. -1.
         11    1    4    4    0    0 -0.11642258360E+01 -0.34596571710E+01 -0.39743097712E+01  0.53962753781E+01  0.51100000000E-03 0. -1.
        -11    1    4    4    0    0 -0.61015254118E+00  0.16405769467E+00 -0.11969841883E+01  0.13535037713E+01  0.51100000000E-03 0.  1.
        -12    1    4    4    0    0 -0.19530270287E+02 -0.30041175923E+02 -0.16366688923E+02  0.39392540088E+02  0.00000000000E+00 0.  1.
</event>
<event>
 8    1  0.7489580E-009  0.9118800E+02  0.7816164E-02  0.1184000E+00
        -11   -1    0    0    0    0  0.00000000000E+00  0.00000000000E+00  0.45593999997E+02  0.45594000000E+02  0.51100000000E-03 0. -1.
         11   -1    0    0    0    0 -0.00000000000E+00 -0.00000000000E+00 -0.45593999997E+02  0.45594000000E+02  0.51100000000E-03 0.  1.
         23    2    1    2    0    0  0.35527136788E-14  0.35527136788E-14  0.00000000000E+00  0.91188000000E+02  0.91188000000E+02 0.  0.
    9900012    2    3    3    0    0  0.23462514761E+02  0.29416206929E+02 -0.24765109761E+02  0.46142317738E+02  0.99999997867E+01 0.  0.
         12    1    3    3    0    0 -0.23462514761E+02 -0.29416206929E+02  0.24765109761E+02  0.45045682262E+02  0.00000000000E+00 0. -1.
         11    1    4    4    0    0  0.12217959814E+02  0.12894744315E+02 -0.86701008926E+01  0.19766730198E+02  0.51100000000E-03 0.  1.
        -11    1    4    4    0    0  0.36175547024E+01  0.14869993601E+01 -0.42255094040E+01  0.57578467421E+01  0.51100000000E-03 0. -1.
        -12    1    4    4    0    0  0.76270002444E+01  0.15034463254E+02 -0.11869499464E+02  0.20617740797E+02  0.00000000000E+00 0.  1.
</event>
<event>
 8    1  0.7568520E-009  0.9118800E+02  0.7816164E-02  0.1184000E+00
        -11   -1    0    0    0    0  0.00000000000E+00  0.00000000000E+00  0.45593999997E+02  0.45594000000E+02  0.51100000000E-03 0. -1.
         11   -1    0    0    0    0 -0.00000000000E+00 -0.00000000000E+00 -0.45593999997E+02  0.45594000000E+02  0.51100000000E-03 0.  1.
         23    2    1    2    0    0 -0.35527136788E-14  0.00000000000E+00  0.00000000000E+00  0.91188000000E+02  0.91188000000E+02 0.  0.
    9900012    2    3    3    0    0 -0.23698844312E+02 -0.17632793643E+02  0.34008279491E+02  0.46142315330E+02  0.99999778341E+01 0.  0.
        -12    1    3    3    0    0  0.23698844312E+02  0.17632793643E+02 -0.34008279491E+02  0.45045684670E+02  0.00000000000E+00 0.  1.
         11    1    4    4    0    0 -0.68542333117E+00 -0.17269645787E+01  0.37951662594E+01  0.42255767650E+01  0.51100000000E-03 0. -1.
        -11    1    4    4    0    0  0.37578757004E+00  0.36964021594E+00  0.85246684257E+00  0.10022725008E+01  0.51100000000E-03 0.  1.
         12    1    4    4    0    0 -0.23389208551E+02 -0.16275469280E+02  0.29360646389E+02  0.40914466065E+02  0.00000000000E+00 0. -1.
</event>
<event>
 8    1  0.7489580E-009  0.9118800E+02  0.7816164E-02  0.1184000E+00
        -11   -1    0    0    0    0  0.00000000000E+00  0.00000000000E+00  0.45593999997E+02  0.45594000000E+02  0.51100000000E-03 0.  1.
         11   -1    0    0    0    0 -0.00000000000E+00 -0.00000000000E+00 -0.45593999997E+02  0.45594000000E+02  0.51100000000E-03 0. -1.
         23    2    1    2    0    0  0.00000000000E+00  0.71054273576E-14 -0.22204460493E-15  0.91188000000E+02  0.91188000000E+02 0.  0.
    9900012    2    3    3    0    0 -0.97897719640E+01 -0.43943825218E+02  0.14879768079E+01  0.46142317799E+02  0.10000000350E+02 0.  0.
         12    1    3    3    0    0  0.97897719640E+01  0.43943825218E+02 -0.14879768079E+01  0.45045682201E+02  0.00000000000E+00 0. -1.
         11    1    4    4    0    0 -0.56756825893E+01 -0.13661542634E+02  0.36818691095E+01  0.15244909983E+02  0.51100000000E-03 0. -1.
        -11    1    4    4    0    0 -0.88582517072E+00 -0.15574208281E+01 -0.78855947344E+00  0.19575679230E+01  0.51100000000E-03 0.  1.
         12    1    4    4    0    0 -0.32282642039E+01 -0.28724861757E+02 -0.14053328282E+01  0.28939839894E+02  0.00000000000E+00 0. -1.
</event>
<event>
 8    1  0.7489580E-009  0.9118800E+02  0.7816164E-02  0.1184000E+00
        -11   -1    0    0    0    0  0.00000000000E+00  0.00000000000E+00  0.45593999997E+02  0.45594000000E+02  0.51100000000E-03 0. -1.
         11   -1    0    0    0    0 -0.00000000000E+00 -0.00000000000E+00 -0.45593999997E+02  0.45594000000E+02  0.51100000000E-03 0.  1.
         23    2    1    2    0    0 -0.88817841970E-15 -0.17763568394E-14  0.71054273576E-14  0.91188000000E+02  0.91188000000E+02 0.  0.
    9900012    2    3    3    0    0 -0.35557614425E+01 -0.56525821920E+01  0.44547933189E+02  0.46142317895E+02  0.10000001220E+02 0.  0.
        -12    1    3    3    0    0  0.35557614425E+01  0.56525821920E+01 -0.44547933189E+02  0.45045682105E+02  0.00000000000E+00 0.  1.
         11    1    4    4    0    0 -0.15723811532E+01  0.19336756379E+00  0.31342646923E+02  0.31382659064E+02  0.51100000000E-03 0. -1.
        -11    1    4    4    0    0 -0.56967275380E+00 -0.85986506991E+00  0.76861671402E+00  0.12863385632E+01  0.51100000000E-03 0.  1.
        -12    1    4    4    0    0 -0.14137075356E+01 -0.49860846859E+01  0.12436669552E+02  0.13473320268E+02  0.00000000000E+00 0.  1.
</event>
<event>
 8    1  0.9331064E-009  0.9118800E+02  0.7816164E-02  0.1184000E+00
        -11   -1    0    0    0    0  0.00000000000E+00  0.00000000000E+00  0.45593999997E+02  0.45594000000E+02  0.51100000000E-03 0. -1.
         11   -1    0    0    0    0 -0.00000000000E+00 -0.00000000000E+00 -0.45593999997E+02  0.45594000000E+02  0.51100000000E-03 0.  1.
         23    2    1    2    0    0 -0.17763568394E-14  0.00000000000E+00  0.00000000000E+00  0.91188000000E+02  0.91188000000E+02 0.  0.
    9900012    2    3    3    0    0 -0.84700845231E+01  0.84523533984E+01 -0.43427282764E+02  0.46142317654E+02  0.99999990201E+01 0.  0.
         12    1    3    3    0    0  0.84700845231E+01 -0.84523533984E+01  0.43427282764E+02  0.45045682346E+02  0.00000000000E+00 0. -1.
         11    1    4    4    0    0 -0.29434790005E-01  0.27702918045E+01 -0.18092268169E+02  0.18303156855E+02  0.51100000000E-03 0. -1.
        -11    1    4    4    0    0 -0.15997829452E+01  0.38583189538E+01 -0.12522501078E+02  0.13200718319E+02  0.51100000000E-03 0.  1.
         12    1    4    4    0    0 -0.68408667879E+01  0.18237426401E+01 -0.12812513517E+02  0.14638442480E+02  0.00000000000E+00 0. -1.
</event>
<event>
 8    1  0.7489580E-009  0.9118800E+02  0.7816164E-02  0.1184000E+00
        -11   -1    0    0    0    0  0.00000000000E+00  0.00000000000E+00  0.45593999997E+02  0.45594000000E+02  0.51100000000E-03 0.  1.
         11   -1    0    0    0    0 -0.00000000000E+00 -0.00000000000E+00 -0.45593999997E+02  0.45594000000E+02  0.51100000000E-03 0. -1.
         23    2    1    2    0    0  0.17763568394E-14  0.00000000000E+00  0.00000000000E+00  0.91188000000E+02  0.91188000000E+02 0.  0.
    9900012    2    3    3    0    0 -0.82254356433E+01 -0.36353153575E+02  0.25296325337E+02  0.46142316056E+02  0.99999844532E+01 0.  0.
        -12    1    3    3    0    0  0.82254356433E+01  0.36353153575E+02 -0.25296325337E+02  0.45045683944E+02  0.00000000000E+00 0.  1.
         11    1    4    4    0    0 -0.41985627860E+01 -0.18879415325E+02  0.17641591309E+02  0.26177967772E+02  0.51100000000E-03 0. -1.
        -11    1    4    4    0    0 -0.31069303933E+00 -0.21817779536E+01  0.26586925937E+01  0.34533073672E+01  0.51100000000E-03 0.  1.
        -12    1    4    4    0    0 -0.37161798179E+01 -0.15291960296E+02  0.49960414345E+01  0.16511040917E+02  0.00000000000E+00 0.  1.
</event>
<event>
 8    1  0.7489580E-009  0.9118800E+02  0.7816164E-02  0.1184000E+00
        -11   -1    0    0    0    0  0.00000000000E+00  0.00000000000E+00  0.45593999997E+02  0.45594000000E+02  0.51100000000E-03 0. -1.
         11   -1    0    0    0    0 -0.00000000000E+00 -0.00000000000E+00 -0.45593999997E+02  0.45594000000E+02  0.51100000000E-03 0.  1.
         23    2    1    2    0    0  0.00000000000E+00  0.00000000000E+00  0.00000000000E+00  0.91188000000E+02  0.91188000000E+02 0.  0.
    9900012    2    3    3    0    0  0.57395335975E+01 -0.24518236078E+02  0.37350060989E+02  0.46142320937E+02  0.10000028964E+02 0.  0.
        -12    1    3    3    0    0 -0.57395335975E+01  0.24518236078E+02 -0.37350060989E+02  0.45045679063E+02  0.00000000000E+00 0.  1.
         11    1    4    4    0    0  0.29531057191E+01 -0.20590517598E+01  0.37868585143E+01  0.52250191585E+01  0.51100000000E-03 0. -1.
        -11    1    4    4    0    0 -0.49416374106E+00 -0.17689559389E+01  0.74298274997E+00  0.19812689229E+01  0.51100000000E-03 0.  1.
         12    1    4    4    0    0  0.32805916195E+01 -0.20690228379E+02  0.32820219725E+02  0.38936032856E+02  0.00000000000E+00 0. -1.
</event>
<event>
 8    1  0.7489580E-009  0.9118800E+02  0.7816164E-02  0.1184000E+00
        -11   -1    0    0    0    0  0.00000000000E+00  0.00000000000E+00  0.45593999997E+02  0.45594000000E+02  0.51100000000E-03 0. -1.
         11   -1    0    0    0    0 -0.00000000000E+00 -0.00000000000E+00 -0.45593999997E+02  0.45594000000E+02  0.51100000000E-03 0.  1.
         23    2    1    2    0    0  0.00000000000E+00  0.00000000000E+00 -0.71054273576E-14  0.91188000000E+02  0.91188000000E+02 0.  0.
    9900012    2    3    3    0    0 -0.22754094132E+02 -0.17239619593E+02 -0.34844802864E+02  0.46142316854E+02  0.99999917280E+01 0.  0.
         12    1    3    3    0    0  0.22754094132E+02  0.17239619593E+02  0.34844802864E+02  0.45045683146E+02  0.00000000000E+00 0. -1.
         11    1    4    4    0    0 -0.23838821102E+01 -0.77046693996E+00 -0.47512372117E+01  0.53712911413E+01  0.51100000000E-03 0. -1.
        -11    1    4    4    0    0 -0.58056758073E+01 -0.14083919911E+01 -0.10526516266E+02  0.12103593869E+02  0.51100000000E-03 0.  1.
        -12    1    4    4    0    0 -0.14564536215E+02 -0.15060760662E+02 -0.19567049386E+02  0.28667431844E+02  0.00000000000E+00 0.  1.
</event>
<event>
 8    1  0.7489580E-009  0.9118800E+02  0.7816164E-02  0.1184000E+00
        -11   -1    0    0    0    0  0.00000000000E+00  0.00000000000E+00  0.45593999997E+02  0.45594000000E+02  0.51100000000E-03 0. -1.
         11   -1    0    0    0    0 -0.00000000000E+00 -0.00000000000E+00 -0.45593999997E+02  0.45594000000E+02  0.51100000000E-03 0.  1.
         23    2    1    2    0    0  0.00000000000E+00  0.17763568394E-14  0.00000000000E+00  0.91188000000E+02  0.91188000000E+02 0.  0.
    9900012    2    3    3    0    0  0.39603595245E+02 -0.14906845672E+02 -0.15441979667E+02  0.46142317185E+02  0.99999947479E+01 0.  0.
         12    1    3    3    0    0 -0.39603595245E+02  0.14906845672E+02  0.15441979667E+02  0.45045682815E+02  0.00000000000E+00 0. -1.
         11    1    4    4    0    0 -0.38286163322E+00 -0.51179591349E+00 -0.37410789400E+00  0.74059102394E+00  0.51100000000E-03 0. -1.
        -11    1    4    4    0    0  0.37532281530E+01 -0.31116261179E+01 -0.19042776663E+01  0.52340435954E+01  0.51100000000E-03 0.  1.
        -12    1    4    4    0    0  0.36233228725E+02 -0.11283423641E+02 -0.13163594107E+02  0.40167682566E+02  0.00000000000E+00 0.  1.
</event>
<event>
 8    1  0.8275358E-009  0.9118800E+02  0.7816164E-02  0.1184000E+00
        -11   -1    0    0    0    0  0.00000000000E+00  0.00000000000E+00  0.45593999997E+02  0.45594000000E+02  0.51100000000E-03 0. -1.
         11   -1    0    0    0    0 -0.00000000000E+00 -0.00000000000E+00 -0.45593999997E+02  0.45594000000E+02  0.51100000000E-03 0.  1.
         23    2    1    2    0    0  0.00000000000E+00 -0.17763568394E-14  0.71054273576E-14  0.91188000000E+02  0.91188000000E+02 0.  0.
    9900012    2    3    3    0    0  0.10580424137E+02  0.14686012269E+02 -0.41249110707E+02  0.46142318016E+02  0.10000002326E+02 0.  0.
         12    1    3    3    0    0 -0.10580424137E+02 -0.14686012269E+02  0.41249110707E+02  0.45045681984E+02  0.00000000000E+00 0. -1.
         11    1    4    4    0    0  0.51786082800E+01  0.22644112804E+01 -0.10475579710E+02  0.11903079967E+02  0.51100000000E-03 0. -1.
        -11    1    4    4    0    0  0.48414545343E+01  0.55444776598E+01 -0.10494941484E+02  0.12818920061E+02  0.51100000000E-03 0.  1.
         12    1    4    4    0    0  0.56036132283E+00  0.68771233289E+01 -0.20278589512E+02  0.21420317988E+02  0.00000000000E+00 0. -1.
</event>
<event>
 8    1  0.7489580E-009  0.9118800E+02  0.7816164E-02  0.1184000E+00
        -11   -1    0    0    0    0  0.00000000000E+00  0.00000000000E+00  0.45593999997E+02  0.45594000000E+02  0.51100000000E-03 0. -1.
         11   -1    0    0    0    0 -0.00000000000E+00 -0.00000000000E+00 -0.45593999997E+02  0.45594000000E+02  0.51100000000E-03 0.  1.
         23    2    1    2    0    0  0.44408920985E-15  0.00000000000E+00  0.00000000000E+00  0.91188000000E+02  0.91188000000E+02 0.  0.
    9900012    2    3    3    0    0 -0.28681848659E+01  0.82480286877E+00 -0.44946709316E+02  0.46142318048E+02  0.10000002612E+02 0.  0.
         12    1    3    3    0    0  0.28681848659E+01 -0.82480286877E+00  0.44946709316E+02  0.45045681952E+02  0.00000000000E+00 0. -1.
         11    1    4    4    0    0 -0.14745236686E+01 -0.15104072488E+01 -0.47594049016E+01  0.52064849356E+01  0.51100000000E-03 0. -1.
        -11    1    4    4    0    0  0.14640003409E+01  0.14504654898E+01 -0.30663972906E+01  0.36945824852E+01  0.51100000000E-03 0.  1.
        -12    1    4    4    0    0 -0.28576615382E+01  0.88474462786E+00 -0.37120907124E+02  0.37241250627E+02  0.00000000000E+00 0.  1.
</event>
<event>
 8    1  0.7489580E-009  0.9118800E+02  0.7816164E-02  0.1184000E+00
        -11   -1    0    0    0    0  0.00000000000E+00  0.00000000000E+00  0.45593999997E+02  0.45594000000E+02  0.51100000000E-03 0. -1.
         11   -1    0    0    0    0 -0.00000000000E+00 -0.00000000000E+00 -0.45593999997E+02  0.45594000000E+02  0.51100000000E-03 0.  1.
         23    2    1    2    0    0  0.00000000000E+00 -0.35527136788E-14 -0.35527136788E-14  0.91188000000E+02  0.91188000000E+02 0.  0.
    9900012    2    3    3    0    0  0.21916748999E+02 -0.24455257780E+02  0.30833583649E+02  0.46142318738E+02  0.10000008906E+02 0.  0.
        -12    1    3    3    0    0 -0.21916748999E+02  0.24455257780E+02 -0.30833583649E+02  0.45045681262E+02  0.00000000000E+00 0.  1.
         11    1    4    4    0    0  0.83141911086E+01 -0.12287945404E+02  0.17373682424E+02  0.22846536220E+02  0.51100000000E-03 0. -1.
        -11    1    4    4    0    0  0.10402294342E+01 -0.17860032559E+00  0.26215011400E+01  0.28259943100E+01  0.51100000000E-03 0.  1.
        -12    1    4    4    0    0  0.12562328456E+02 -0.11988712050E+02  0.10838400085E+02  0.20469788207E+02  0.00000000000E+00 0.  1.
</event>
<event>
 8    1  0.7489580E-009  0.9118800E+02  0.7816164E-02  0.1184000E+00
        -11   -1    0    0    0    0  0.00000000000E+00  0.00000000000E+00  0.45593999997E+02  0.45594000000E+02  0.51100000000E-03 0. -1.
         11   -1    0    0    0    0 -0.00000000000E+00 -0.00000000000E+00 -0.45593999997E+02  0.45594000000E+02  0.51100000000E-03 0.  1.
         23    2    1    2    0    0  0.44408920985E-15  0.00000000000E+00 -0.71054273576E-14  0.91188000000E+02  0.91188000000E+02 0.  0.
    9900012    2    3    3    0    0  0.38769032254E+01 -0.32758589295E+02 -0.30675043550E+02  0.46142313769E+02  0.99999635970E+01 0.  0.
         12    1    3    3    0    0 -0.38769032254E+01  0.32758589295E+02  0.30675043550E+02  0.45045686231E+02  0.00000000000E+00 0. -1.
         11    1    4    4    0    0 -0.20510659183E+01 -0.15137502252E+02 -0.16505132314E+02  0.22489336113E+02  0.51100000000E-03 0. -1.
        -11    1    4    4    0    0  0.39948783614E+01 -0.69973888675E+01 -0.71597188909E+01  0.10778871877E+02  0.51100000000E-03 0.  1.
         12    1    4    4    0    0  0.19330907823E+01 -0.10623698175E+02 -0.70101923452E+01  0.12874105779E+02  0.00000000000E+00 0. -1.
</event>
<event>
 8    1  0.7489580E-009  0.9118800E+02  0.7816164E-02  0.1184000E+00
        -11   -1    0    0    0    0  0.00000000000E+00  0.00000000000E+00  0.45593999997E+02  0.45594000000E+02  0.51100000000E-03 0. -1.
         11   -1    0    0    0    0 -0.00000000000E+00 -0.00000000000E+00 -0.45593999997E+02  0.45594000000E+02  0.51100000000E-03 0.  1.
         23    2    1    2    0    0 -0.17763568394E-14  0.35527136788E-14  0.00000000000E+00  0.91188000000E+02  0.91188000000E+02 0.  0.
    9900012    2    3    3    0    0 -0.15989059585E+02  0.27324394529E+02  0.32044357446E+02  0.46142318665E+02  0.10000008245E+02 0.  0.
        -12    1    3    3    0    0  0.15989059585E+02 -0.27324394529E+02 -0.32044357446E+02  0.45045681335E+02  0.00000000000E+00 0.  1.
         11    1    4    4    0    0 -0.36351855428E+00  0.59221715958E+01  0.74407341427E+01  0.95167634726E+01  0.51100000000E-03 0. -1.
        -11    1    4    4    0    0 -0.13374338241E+02  0.19215483332E+02  0.23802210234E+02  0.33386418427E+02  0.51100000000E-03 0.  1.
        -12    1    4    4    0    0 -0.22512027891E+01  0.21867396015E+01  0.80141306918E+00  0.32391367661E+01  0.00000000000E+00 0.  1.
</event>
<event>
 8    1  0.7489580E-009  0.9118800E+02  0.7816164E-02  0.1184000E+00
        -11   -1    0    0    0    0  0.00000000000E+00  0.00000000000E+00  0.45593999997E+02  0.45594000000E+02  0.51100000000E-03 0. -1.
         11   -1    0    0    0    0 -0.00000000000E+00 -0.00000000000E+00 -0.45593999997E+02  0.45594000000E+02  0.51100000000E-03 0.  1.
         23    2    1    2    0    0  0.00000000000E+00  0.00000000000E+00  0.00000000000E+00  0.91188000000E+02  0.91188000000E+02 0.  0.
    9900012    2    3    3    0    0 -0.19497688107E+02 -0.18747225990E+02 -0.36020759763E+02  0.46142318101E+02  0.10000003102E+02 0.  0.
         12    1    3    3    0    0  0.19497688107E+02  0.18747225990E+02  0.36020759763E+02  0.45045681899E+02  0.00000000000E+00 0. -1.
         11    1    4    4    0    0 -0.16876016651E+01 -0.57733845657E+00 -0.61250802421E+01  0.63794927155E+01  0.51100000000E-03 0. -1.
        -11    1    4    4    0    0 -0.10361006496E+02 -0.12146830304E+02 -0.22833597116E+02  0.27861606191E+02  0.51100000000E-03 0.  1.
        -12    1    4    4    0    0 -0.74490799456E+01 -0.60230572291E+01 -0.70620824052E+01  0.11901219195E+02  0.00000000000E+00 0.  1.
</event>
<event>
 8    1  0.7489580E-009  0.9118800E+02  0.7816164E-02  0.1184000E+00
        -11   -1    0    0    0    0  0.00000000000E+00  0.00000000000E+00  0.45593999997E+02  0.45594000000E+02  0.51100000000E-03 0. -1.
         11   -1    0    0    0    0 -0.00000000000E+00 -0.00000000000E+00 -0.45593999997E+02  0.45594000000E+02  0.51100000000E-03 0.  1.
         23    2    1    2    0    0  0.17763568394E-14  0.71054273576E-14  0.44408920985E-15  0.91188000000E+02  0.91188000000E+02 0.  0.
    9900012    2    3    3    0    0  0.12381694795E+02 -0.43190042819E+02  0.32291354154E+01  0.46142317852E+02  0.10000000828E+02 0.  0.
        -12    1    3    3    0    0 -0.12381694795E+02  0.43190042819E+02 -0.32291354154E+01  0.45045682148E+02  0.00000000000E+00 0.  1.
         11    1    4    4    0    0  0.67905708103E+01 -0.25615043871E+02  0.21152931012E+01  0.26584145456E+02  0.51100000000E-03 0. -1.
        -11    1    4    4    0    0  0.77066194589E+00 -0.11337372558E+02  0.22775926577E+01  0.11589536873E+02  0.51100000000E-03 0.  1.
        -12    1    4    4    0    0  0.48204620385E+01 -0.62376263892E+01 -0.11637503434E+01  0.79686355229E+01  0.00000000000E+00 0.  1.
</event>
<event>
 8    1  0.7489580E-009  0.9118800E+02  0.7816164E-02  0.1184000E+00
        -11   -1    0    0    0    0  0.00000000000E+00  0.00000000000E+00  0.45593999997E+02  0.45594000000E+02  0.51100000000E-03 0. -1.
         11   -1    0    0    0    0 -0.00000000000E+00 -0.00000000000E+00 -0.45593999997E+02  0.45594000000E+02  0.51100000000E-03 0.  1.
         23    2    1    2    0    0  0.35527136788E-14  0.00000000000E+00  0.00000000000E+00  0.91188000000E+02  0.91188000000E+02 0.  0.
    9900012    2    3    3    0    0  0.23155250953E+02 -0.12420740879E+02  0.36587882535E+02  0.46142316532E+02  0.99999887896E+01 0.  0.
        -12    1    3    3    0    0 -0.23155250953E+02  0.12420740879E+02 -0.36587882535E+02  0.45045683468E+02  0.00000000000E+00 0.  1.
         11    1    4    4    0    0  0.21064458979E+01 -0.36189359190E+01  0.42399692343E+01  0.59591233311E+01  0.51100000000E-03 0.  1.
        -11    1    4    4    0    0  0.14333675371E+02 -0.54068737939E+01  0.26670136241E+02  0.30756864294E+02  0.51100000000E-03 0. -1.
         12    1    4    4    0    0  0.67151296844E+01 -0.33949311659E+01  0.56777770604E+01  0.94263289062E+01  0.00000000000E+00 0. -1.
</event>
<event>
 8    1  0.7489580E-009  0.9118800E+02  0.7816164E-02  0.1184000E+00
        -11   -1    0    0    0    0  0.00000000000E+00  0.00000000000E+00  0.45593999997E+02  0.45594000000E+02  0.51100000000E-03 0. -1.
         11   -1    0    0    0    0 -0.00000000000E+00 -0.00000000000E+00 -0.45593999997E+02  0.45594000000E+02  0.51100000000E-03 0.  1.
         23    2    1    2    0    0 -0.17763568394E-14  0.00000000000E+00  0.00000000000E+00  0.91188000000E+02  0.91188000000E+02 0.  0.
    9900012    2    3    3    0    0  0.10421645722E+02  0.23074131465E+02 -0.37257042935E+02  0.46142317735E+02  0.99999997604E+01 0.  0.
         12    1    3    3    0    0 -0.10421645722E+02 -0.23074131465E+02  0.37257042935E+02  0.45045682265E+02  0.00000000000E+00 0. -1.
         11    1    4    4    0    0  0.45283080339E+01  0.14648574533E+01 -0.54220927333E+01  0.72146012279E+01  0.51100000000E-03 0. -1.
        -11    1    4    4    0    0  0.93878992401E+00  0.34902708730E+01 -0.48487497330E+01  0.60476186654E+01  0.51100000000E-03 0.  1.
         12    1    4    4    0    0  0.49545477644E+01  0.18119003139E+02 -0.26986200469E+02  0.32880097841E+02  0.00000000000E+00 0. -1.
</event>
<event>
 8    1  0.7489580E-009  0.9118800E+02  0.7816164E-02  0.1184000E+00
        -11   -1    0    0    0    0  0.00000000000E+00  0.00000000000E+00  0.45593999997E+02  0.45594000000E+02  0.51100000000E-03 0.  1.
         11   -1    0    0    0    0 -0.00000000000E+00 -0.00000000000E+00 -0.45593999997E+02  0.45594000000E+02  0.51100000000E-03 0. -1.
         23    2    1    2    0    0  0.71054273576E-14  0.00000000000E+00  0.00000000000E+00  0.91188000000E+02  0.91188000000E+02 0.  0.
    9900012    2    3    3    0    0  0.35911544905E+02 -0.25096693563E+02 -0.10470448980E+02  0.46142318885E+02  0.10000010251E+02 0.  0.
        -12    1    3    3    0    0 -0.35911544905E+02  0.25096693563E+02  0.10470448980E+02  0.45045681115E+02  0.00000000000E+00 0.  1.
         11    1    4    4    0    0  0.12506764641E+02 -0.79450129461E+01 -0.37018375873E+01  0.15272393207E+02  0.51100000000E-03 0. -1.
        -11    1    4    4    0    0  0.49179971888E+01 -0.78616733184E+01 -0.35589136105E+01  0.99326970186E+01  0.51100000000E-03 0.  1.
         12    1    4    4    0    0  0.18486783076E+02 -0.92900072980E+01 -0.32096977820E+01  0.20937228659E+02  0.00000000000E+00 0. -1.
</event>
<event>
 8    1  0.7489580E-009  0.9118800E+02  0.7816164E-02  0.1184000E+00
        -11   -1    0    0    0    0  0.00000000000E+00  0.00000000000E+00  0.45593999997E+02  0.45594000000E+02  0.51100000000E-03 0. -1.
         11   -1    0    0    0    0 -0.00000000000E+00 -0.00000000000E+00 -0.45593999997E+02  0.45594000000E+02  0.51100000000E-03 0.  1.
         23    2    1    2    0    0 -0.44408920985E-15  0.00000000000E+00  0.00000000000E+00  0.91188000000E+02  0.91188000000E+02 0.  0.
    9900012    2    3    3    0    0  0.29725238989E+01 -0.13120113211E+02  0.42990005693E+02  0.46142313653E+02  0.99999625351E+01 0.  0.
        -12    1    3    3    0    0 -0.29725238989E+01  0.13120113211E+02 -0.42990005693E+02  0.45045686347E+02  0.00000000000E+00 0.  1.
         11    1    4    4    0    0 -0.77936317184E+00 -0.76091525440E+01  0.13008775955E+02  0.15090886704E+02  0.51100000000E-03 0. -1.
        -11    1    4    4    0    0  0.26655656196E+01 -0.52473283556E+01  0.16397151232E+02  0.17421431162E+02  0.51100000000E-03 0.  1.
         12    1    4    4    0    0  0.10863214511E+01 -0.26363231128E+00  0.13584078506E+02  0.13629995786E+02  0.00000000000E+00 0. -1.
</event>
<event>
 8    1  0.7489580E-009  0.9118800E+02  0.7816164E-02  0.1184000E+00
        -11   -1    0    0    0    0  0.00000000000E+00  0.00000000000E+00  0.45593999997E+02  0.45594000000E+02  0.51100000000E-03 0. -1.
         11   -1    0    0    0    0 -0.00000000000E+00 -0.00000000000E+00 -0.45593999997E+02  0.45594000000E+02  0.51100000000E-03 0.  1.
         23    2    1    2    0    0  0.00000000000E+00  0.35527136788E-14  0.00000000000E+00  0.91188000000E+02  0.91188000000E+02 0.  0.
    9900012    2    3    3    0    0 -0.47461861099E+01  0.30617469075E+02 -0.32697977534E+02  0.46142318409E+02  0.10000005908E+02 0.  0.
         12    1    3    3    0    0  0.47461861099E+01 -0.30617469075E+02  0.32697977534E+02  0.45045681591E+02  0.00000000000E+00 0. -1.
         11    1    4    4    0    0 -0.76077258427E+00  0.13559812712E+02 -0.10790538843E+02  0.17345980067E+02  0.51100000000E-03 0. -1.
        -11    1    4    4    0    0 -0.43100945734E+01  0.68556456149E+01 -0.68568342407E+01  0.10610983371E+02  0.51100000000E-03 0.  1.
         12    1    4    4    0    0  0.32468104780E+00  0.10202010749E+02 -0.15050604451E+02  0.18185354971E+02  0.00000000000E+00 0. -1.
</event>
<event>
 8    1  0.7489580E-009  0.9118800E+02  0.7816164E-02  0.1184000E+00
        -11   -1    0    0    0    0  0.00000000000E+00  0.00000000000E+00  0.45593999997E+02  0.45594000000E+02  0.51100000000E-03 0. -1.
         11   -1    0    0    0    0 -0.00000000000E+00 -0.00000000000E+00 -0.45593999997E+02  0.45594000000E+02  0.51100000000E-03 0.  1.
         23    2    1    2    0    0  0.17763568394E-14 -0.71054273576E-14 -0.35527136788E-14  0.91188000000E+02  0.91188000000E+02 0.  0.
    9900012    2    3    3    0    0  0.14600683492E+02 -0.35830056126E+02 -0.23068169486E+02  0.46142319588E+02  0.10000016656E+02 0.  0.
         12    1    3    3    0    0 -0.14600683492E+02  0.35830056126E+02  0.23068169486E+02  0.45045680412E+02  0.00000000000E+00 0. -1.
         11    1    4    4    0    0  0.79753811257E-01 -0.14168421728E+01 -0.19735781626E+01  0.24308051008E+01  0.51100000000E-03 0. -1.
        -11    1    4    4    0    0  0.35958126830E+01 -0.19065501326E+02 -0.11749018160E+02  0.22681768838E+02  0.51100000000E-03 0.  1.
         12    1    4    4    0    0  0.10925116997E+02 -0.15347712627E+02 -0.93455731630E+01  0.21029745648E+02  0.00000000000E+00 0. -1.
</event>
<event>
 8    1  0.7489580E-009  0.9118800E+02  0.7816164E-02  0.1184000E+00
        -11   -1    0    0    0    0  0.00000000000E+00  0.00000000000E+00  0.45593999997E+02  0.45594000000E+02  0.51100000000E-03 0. -1.
         11   -1    0    0    0    0 -0.00000000000E+00 -0.00000000000E+00 -0.45593999997E+02  0.45594000000E+02  0.51100000000E-03 0.  1.
         23    2    1    2    0    0  0.00000000000E+00 -0.35527136788E-14  0.35527136788E-14  0.91188000000E+02  0.91188000000E+02 0.  0.
    9900012    2    3    3    0    0 -0.17871606631E+02 -0.28470207258E+02  0.29986103444E+02  0.46142318469E+02  0.10000006453E+02 0.  0.
        -12    1    3    3    0    0  0.17871606631E+02  0.28470207258E+02 -0.29986103444E+02  0.45045681531E+02  0.00000000000E+00 0.  1.
         11    1    4    4    0    0 -0.13064181669E+02 -0.21442432720E+02  0.20020992229E+02  0.32113718154E+02  0.51100000000E-03 0. -1.
        -11    1    4    4    0    0 -0.36667164149E+01 -0.33812871400E+01  0.23605338804E+01  0.55181548050E+01  0.51100000000E-03 0.  1.
        -12    1    4    4    0    0 -0.11407085470E+01 -0.36464873986E+01  0.76045773342E+01  0.85104455095E+01  0.00000000000E+00 0.  1.
</event>
<event>
 8    1  0.7489580E-009  0.9118800E+02  0.7816164E-02  0.1184000E+00
        -11   -1    0    0    0    0  0.00000000000E+00  0.00000000000E+00  0.45593999997E+02  0.45594000000E+02  0.51100000000E-03 0. -1.
         11   -1    0    0    0    0 -0.00000000000E+00 -0.00000000000E+00 -0.45593999997E+02  0.45594000000E+02  0.51100000000E-03 0.  1.
         23    2    1    2    0    0  0.00000000000E+00  0.17763568394E-14  0.71054273576E-14  0.91188000000E+02  0.91188000000E+02 0.  0.
    9900012    2    3    3    0    0  0.11247307635E+02 -0.86714102507E+01 -0.42748311951E+02  0.46142318083E+02  0.10000002934E+02 0.  0.
         12    1    3    3    0    0 -0.11247307635E+02  0.86714102507E+01  0.42748311951E+02  0.45045681917E+02  0.00000000000E+00 0. -1.
         11    1    4    4    0    0  0.28010773137E+01  0.55068133478E-01 -0.11594146063E+02  0.11927836762E+02  0.51100000000E-03 0. -1.
        -11    1    4    4    0    0  0.49600794537E+01 -0.88374127864E+01 -0.26690466813E+02  0.28549663253E+02  0.51100000000E-03 0.  1.
         12    1    4    4    0    0  0.34861508673E+01  0.11093440216E+00 -0.44636990744E+01  0.56648180675E+01  0.00000000000E+00 0. -1.
</event>
<event>
 8    1  0.7489580E-009  0.9118800E+02  0.7816164E-02  0.1184000E+00
        -11   -1    0    0    0    0  0.00000000000E+00  0.00000000000E+00  0.45593999997E+02  0.45594000000E+02  0.51100000000E-03 0.  1.
         11   -1    0    0    0    0 -0.00000000000E+00 -0.00000000000E+00 -0.45593999997E+02  0.45594000000E+02  0.51100000000E-03 0. -1.
         23    2    1    2    0    0  0.00000000000E+00  0.00000000000E+00  0.00000000000E+00  0.91188000000E+02  0.91188000000E+02 0.  0.
    9900012    2    3    3    0    0 -0.37237752239E+02 -0.11319455127E+02 -0.22678913838E+02  0.46142318864E+02  0.10000010054E+02 0.  0.
         12    1    3    3    0    0  0.37237752239E+02  0.11319455127E+02  0.22678913838E+02  0.45045681136E+02  0.00000000000E+00 0. -1.
         11    1    4    4    0    0 -0.65927540890E+01 -0.20862167167E+01 -0.17964869183E+01  0.71445134317E+01  0.51100000000E-03 0. -1.
        -11    1    4    4    0    0 -0.15089883653E+02 -0.74672421627E+01 -0.14000073519E+02  0.21896720142E+02  0.51100000000E-03 0.  1.
        -12    1    4    4    0    0 -0.15555114497E+02 -0.17659962472E+01 -0.68823533999E+01  0.17101085290E+02  0.00000000000E+00 0.  1.
</event>
<event>
 8    1  0.7489580E-009  0.9118800E+02  0.7816164E-02  0.1184000E+00
        -11   -1    0    0    0    0  0.00000000000E+00  0.00000000000E+00  0.45593999997E+02  0.45594000000E+02  0.51100000000E-03 0. -1.
         11   -1    0    0    0    0 -0.00000000000E+00 -0.00000000000E+00 -0.45593999997E+02  0.45594000000E+02  0.51100000000E-03 0.  1.
         23    2    1    2    0    0  0.88817841970E-15  0.00000000000E+00  0.00000000000E+00  0.91188000000E+02  0.91188000000E+02 0.  0.
    9900012    2    3    3    0    0 -0.57624042575E+01  0.39339424654E+02 -0.21173514234E+02  0.46142319408E+02  0.10000015018E+02 0.  0.
         12    1    3    3    0    0  0.57624042575E+01 -0.39339424654E+02  0.21173514234E+02  0.45045680592E+02  0.00000000000E+00 0. -1.
         11    1    4    4    0    0 -0.68202597110E+01  0.26935040723E+02 -0.14826333445E+02  0.31493372715E+02  0.51100000000E-03 0. -1.
        -11    1    4    4    0    0 -0.86862902887E+00  0.10148374210E+02 -0.43671834454E+01  0.11082251892E+02  0.51100000000E-03 0.  1.
         12    1    4    4    0    0  0.19264844823E+01  0.22560097221E+01 -0.19799973437E+01  0.35666948016E+01  0.00000000000E+00 0. -1.
</event>
<event>
 8    1  0.7489580E-009  0.9118800E+02  0.7816164E-02  0.1184000E+00
        -11   -1    0    0    0    0  0.00000000000E+00  0.00000000000E+00  0.45593999997E+02  0.45594000000E+02  0.51100000000E-03 0. -1.
         11   -1    0    0    0    0 -0.00000000000E+00 -0.00000000000E+00 -0.45593999997E+02  0.45594000000E+02  0.51100000000E-03 0.  1.
         23    2    1    2    0    0  0.00000000000E+00  0.00000000000E+00  0.00000000000E+00  0.91188000000E+02  0.91188000000E+02 0.  0.
    9900012    2    3    3    0    0  0.39472161424E+02  0.13188230485E+02  0.17237533041E+02  0.46142317675E+02  0.99999992117E+01 0.  0.
        -12    1    3    3    0    0 -0.39472161424E+02 -0.13188230485E+02 -0.17237533041E+02  0.45045682325E+02  0.00000000000E+00 0.  1.
         11    1    4    4    0    0  0.66402907506E+01  0.53889641688E+01  0.48543232227E+01  0.98335573562E+01  0.51100000000E-03 0.  1.
        -11    1    4    4    0    0  0.22882411311E+01  0.18462434386E+01  0.41993526449E+00  0.29700182148E+01  0.51100000000E-03 0. -1.
         12    1    4    4    0    0  0.30543629542E+02  0.59530228772E+01  0.11963274554E+02  0.33338742104E+02  0.00000000000E+00 0. -1.
</event>
<event>
 8    1  0.7489580E-009  0.9118800E+02  0.7816164E-02  0.1184000E+00
        -11   -1    0    0    0    0  0.00000000000E+00  0.00000000000E+00  0.45593999997E+02  0.45594000000E+02  0.51100000000E-03 0.  1.
         11   -1    0    0    0    0 -0.00000000000E+00 -0.00000000000E+00 -0.45593999997E+02  0.45594000000E+02  0.51100000000E-03 0. -1.
         23    2    1    2    0    0  0.00000000000E+00  0.00000000000E+00  0.00000000000E+00  0.91188000000E+02  0.91188000000E+02 0.  0.
    9900012    2    3    3    0    0 -0.69553428188E+01 -0.42396537281E+02  0.13537735808E+02  0.46142318099E+02  0.10000003082E+02 0.  0.
        -12    1    3    3    0    0  0.69553428188E+01  0.42396537281E+02 -0.13537735808E+02  0.45045681901E+02  0.00000000000E+00 0.  1.
         11    1    4    4    0    0 -0.45435251275E+01 -0.21081970322E+02  0.89943822886E+01  0.23366471840E+02  0.51100000000E-03 0. -1.
        -11    1    4    4    0    0 -0.40374601574E+01 -0.15480599404E+02  0.17098687843E+01  0.16089552323E+02  0.51100000000E-03 0.  1.
         12    1    4    4    0    0  0.16256424662E+01 -0.58339675548E+01  0.28334847348E+01  0.66862939362E+01  0.00000000000E+00 0. -1.
</event>
<event>
 8    1  0.7489580E-009  0.9118800E+02  0.7816164E-02  0.1184000E+00
        -11   -1    0    0    0    0  0.00000000000E+00  0.00000000000E+00  0.45593999997E+02  0.45594000000E+02  0.51100000000E-03 0. -1.
         11   -1    0    0    0    0 -0.00000000000E+00 -0.00000000000E+00 -0.45593999997E+02  0.45594000000E+02  0.51100000000E-03 0.  1.
         23    2    1    2    0    0 -0.11102230246E-15  0.00000000000E+00 -0.71054273576E-14  0.91188000000E+02  0.91188000000E+02 0.  0.
    9900012    2    3    3    0    0 -0.64326625926E+00  0.72621953131E+01 -0.44451774035E+02  0.46142317775E+02  0.10000000131E+02 0.  0.
         12    1    3    3    0    0  0.64326625926E+00 -0.72621953131E+01  0.44451774035E+02  0.45045682225E+02  0.00000000000E+00 0. -1.
         11    1    4    4    0    0 -0.36293035105E+01  0.19282458065E+01 -0.17115724892E+02  0.17602216187E+02  0.51100000000E-03 0. -1.
        -11    1    4    4    0    0 -0.15008180538E+01  0.14919666325E+01 -0.10118955819E+02  0.10337876300E+02  0.51100000000E-03 0.  1.
        -12    1    4    4    0    0  0.44868553051E+01  0.38419828741E+01 -0.17217093324E+02  0.18202225289E+02  0.00000000000E+00 0.  1.
</event>
<event>
 8    1  0.7489580E-009  0.9118800E+02  0.7816164E-02  0.1184000E+00
        -11   -1    0    0    0    0  0.00000000000E+00  0.00000000000E+00  0.45593999997E+02  0.45594000000E+02  0.51100000000E-03 0. -1.
         11   -1    0    0    0    0 -0.00000000000E+00 -0.00000000000E+00 -0.45593999997E+02  0.45594000000E+02  0.51100000000E-03 0.  1.
         23    2    1    2    0    0  0.17763568394E-14  0.00000000000E+00  0.00000000000E+00  0.91188000000E+02  0.91188000000E+02 0.  0.
    9900012    2    3    3    0    0  0.14535368492E+02  0.26832846878E+02 -0.33133591981E+02  0.46142317340E+02  0.99999961562E+01 0.  0.
         12    1    3    3    0    0 -0.14535368492E+02 -0.26832846878E+02  0.33133591981E+02  0.45045682660E+02  0.00000000000E+00 0. -1.
         11    1    4    4    0    0  0.75727969541E+01  0.91284730065E+01 -0.75734787105E+01  0.14072450148E+02  0.51100000000E-03 0. -1.
        -11    1    4    4    0    0 -0.26303681685E+00  0.14149997007E+01 -0.11234633155E+01  0.18258101222E+01  0.51100000000E-03 0.  1.
        -12    1    4    4    0    0  0.72256083550E+01  0.16289374171E+02 -0.24436649955E+02  0.30244057069E+02  0.00000000000E+00 0.  1.
</event>
<event>
 8    1  0.7489580E-009  0.9118800E+02  0.7816164E-02  0.1184000E+00
        -11   -1    0    0    0    0  0.00000000000E+00  0.00000000000E+00  0.45593999997E+02  0.45594000000E+02  0.51100000000E-03 0. -1.
         11   -1    0    0    0    0 -0.00000000000E+00 -0.00000000000E+00 -0.45593999997E+02  0.45594000000E+02  0.51100000000E-03 0.  1.
         23    2    1    2    0    0  0.00000000000E+00  0.71054273576E-14  0.00000000000E+00  0.91188000000E+02  0.91188000000E+02 0.  0.
    9900012    2    3    3    0    0 -0.27832646107E+02 -0.34400653659E+02 -0.84292537456E+01  0.46142317852E+02  0.10000000831E+02 0.  0.
         12    1    3    3    0    0  0.27832646107E+02  0.34400653659E+02  0.84292537456E+01  0.45045682148E+02  0.00000000000E+00 0. -1.
         11    1    4    4    0    0 -0.15160921593E+02 -0.21762088294E+02 -0.65395931047E+01  0.27316813663E+02  0.51100000000E-03 0. -1.
        -11    1    4    4    0    0 -0.11553573577E+02 -0.10710347101E+02 -0.34207248463E+01  0.16121350941E+02  0.51100000000E-03 0.  1.
        -12    1    4    4    0    0 -0.11181509365E+01 -0.19282182635E+01  0.15310642055E+01  0.27041532482E+01  0.00000000000E+00 0.  1.
</event>
<event>
 8    1  0.7489580E-009  0.9118800E+02  0.7816164E-02  0.1184000E+00
        -11   -1    0    0    0    0  0.00000000000E+00  0.00000000000E+00  0.45593999997E+02  0.45594000000E+02  0.51100000000E-03 0. -1.
         11   -1    0    0    0    0 -0.00000000000E+00 -0.00000000000E+00 -0.45593999997E+02  0.45594000000E+02  0.51100000000E-03 0.  1.
         23    2    1    2    0    0  0.00000000000E+00 -0.88817841970E-15  0.00000000000E+00  0.91188000000E+02  0.91188000000E+02 0.  0.
    9900012    2    3    3    0    0  0.39083479837E+02  0.63137147541E+01  0.21487956308E+02  0.46142315895E+02  0.99999829850E+01 0.  0.
        -12    1    3    3    0    0 -0.39083479837E+02 -0.63137147541E+01 -0.21487956308E+02  0.45045684105E+02  0.00000000000E+00 0.  1.
         11    1    4    4    0    0  0.34034101196E+01  0.12861885351E+01  0.21292001971E+01  0.42155634416E+01  0.51100000000E-03 0. -1.
        -11    1    4    4    0    0  0.21534959704E+02 -0.37143498711E+00  0.79089494237E+01  0.22944366076E+02  0.51100000000E-03 0.  1.
         12    1    4    4    0    0  0.14145110014E+02  0.53989612061E+01  0.11449806687E+02  0.18982386377E+02  0.00000000000E+00 0. -1.
</event>
<event>
 8    1  0.7489580E-009  0.9118800E+02  0.7816164E-02  0.1184000E+00
        -11   -1    0    0    0    0  0.00000000000E+00  0.00000000000E+00  0.45593999997E+02  0.45594000000E+02  0.51100000000E-03 0. -1.
         11   -1    0    0    0    0 -0.00000000000E+00 -0.00000000000E+00 -0.45593999997E+02  0.45594000000E+02  0.51100000000E-03 0.  1.
         23    2    1    2    0    0  0.00000000000E+00  0.00000000000E+00  0.00000000000E+00  0.91188000000E+02  0.91188000000E+02 0.  0.
    9900012    2    3    3    0    0  0.23859065108E+02 -0.14143617513E+02  0.35493902366E+02  0.46142311978E+02  0.99999472645E+01 0.  0.
        -12    1    3    3    0    0 -0.23859065108E+02  0.14143617513E+02 -0.35493902366E+02  0.45045688022E+02  0.00000000000E+00 0.  1.
         11    1    4    4    0    0  0.70019745354E+01 -0.42987378844E+01  0.13491936753E+02  0.15796808298E+02  0.51100000000E-03 0. -1.
        -11    1    4    4    0    0  0.15130705034E+02 -0.10004036498E+02  0.16302992281E+02  0.24388655942E+02  0.51100000000E-03 0.  1.
        -12    1    4    4    0    0  0.17263855390E+01  0.15915686886E+00  0.56989733317E+01  0.59568477380E+01  0.00000000000E+00 0.  1.
</event>
<event>
 8    1  0.7489580E-009  0.9118800E+02  0.7816164E-02  0.1184000E+00
        -11   -1    0    0    0    0  0.00000000000E+00  0.00000000000E+00  0.45593999997E+02  0.45594000000E+02  0.51100000000E-03 0. -1.
         11   -1    0    0    0    0 -0.00000000000E+00 -0.00000000000E+00 -0.45593999997E+02  0.45594000000E+02  0.51100000000E-03 0.  1.
         23    2    1    2    0    0  0.00000000000E+00 -0.22204460493E-15  0.35527136788E-14  0.91188000000E+02  0.91188000000E+02 0.  0.
    9900012    2    3    3    0    0  0.35219924122E+02  0.58903497135E+00 -0.28077098255E+02  0.46142318034E+02  0.10000002485E+02 0.  0.
         12    1    3    3    0    0 -0.35219924122E+02 -0.58903497135E+00  0.28077098255E+02  0.45045681966E+02  0.00000000000E+00 0. -1.
         11    1    4    4    0    0  0.13282620885E+02  0.12012566020E+01 -0.13901062207E+02  0.19264230214E+02  0.51100000000E-03 0. -1.
        -11    1    4    4    0    0  0.17627169791E+02  0.20378324705E+01 -0.11606922212E+02  0.21203549691E+02  0.51100000000E-03 0.  1.
        -12    1    4    4    0    0  0.43101334463E+01 -0.26500541012E+01 -0.25691138366E+01  0.56745381282E+01  0.00000000000E+00 0.  1.
</event>
<event>
 8    1  0.7489580E-009  0.9118800E+02  0.7816164E-02  0.1184000E+00
        -11   -1    0    0    0    0  0.00000000000E+00  0.00000000000E+00  0.45593999997E+02  0.45594000000E+02  0.51100000000E-03 0. -1.
         11   -1    0    0    0    0 -0.00000000000E+00 -0.00000000000E+00 -0.45593999997E+02  0.45594000000E+02  0.51100000000E-03 0.  1.
         23    2    1    2    0    0 -0.17763568394E-14  0.14210854715E-13  0.35527136788E-14  0.91188000000E+02  0.91188000000E+02 0.  0.
    9900012    2    3    3    0    0  0.15757199225E+02 -0.36104723347E+02 -0.21846586273E+02  0.46142315332E+02  0.99999778502E+01 0.  0.
         12    1    3    3    0    0 -0.15757199225E+02  0.36104723347E+02  0.21846586273E+02  0.45045684668E+02  0.00000000000E+00 0. -1.
         11    1    4    4    0    0  0.57187444487E+00 -0.41334673652E+00  0.52508565584E+00  0.87955165418E+00  0.51100000000E-03 0. -1.
        -11    1    4    4    0    0  0.22670248293E+01 -0.28737488678E+01 -0.42563122512E+01  0.56137356878E+01  0.51100000000E-03 0.  1.
        -12    1    4    4    0    0  0.12918299951E+02 -0.32817627743E+02 -0.18115359678E+02  0.39649027990E+02  0.00000000000E+00 0.  1.
</event>
<event>
 8    1  0.7489580E-009  0.9118800E+02  0.7816164E-02  0.1184000E+00
        -11   -1    0    0    0    0  0.00000000000E+00  0.00000000000E+00  0.45593999997E+02  0.45594000000E+02  0.51100000000E-03 0. -1.
         11   -1    0    0    0    0 -0.00000000000E+00 -0.00000000000E+00 -0.45593999997E+02  0.45594000000E+02  0.51100000000E-03 0.  1.
         23    2    1    2    0    0  0.88817841970E-15  0.00000000000E+00 -0.71054273576E-14  0.91188000000E+02  0.91188000000E+02 0.  0.
    9900012    2    3    3    0    0 -0.41441591787E+01 -0.55050342722E+00  0.44851281707E+02  0.46142305643E+02  0.99998894995E+01 0.  0.
        -12    1    3    3    0    0  0.41441591787E+01  0.55050342722E+00 -0.44851281707E+02  0.45045694357E+02  0.00000000000E+00 0.  1.
         11    1    4    4    0    0  0.62671595142E+00  0.10758106488E+01  0.77298640077E+01  0.78294916358E+01  0.51100000000E-03 0. -1.
        -11    1    4    4    0    0 -0.20255186462E+00  0.27387770376E+00 -0.36617398497E+00  0.50011988849E+00  0.51100000000E-03 0.  1.
         12    1    4    4    0    0 -0.45683232655E+01 -0.19001917798E+01  0.37487591684E+02  0.37812694119E+02  0.00000000000E+00 0. -1.
</event>
<event>
 8    1  0.7489580E-009  0.9118800E+02  0.7816164E-02  0.1184000E+00
        -11   -1    0    0    0    0  0.00000000000E+00  0.00000000000E+00  0.45593999997E+02  0.45594000000E+02  0.51100000000E-03 0. -1.
         11   -1    0    0    0    0 -0.00000000000E+00 -0.00000000000E+00 -0.45593999997E+02  0.45594000000E+02  0.51100000000E-03 0.  1.
         23    2    1    2    0    0  0.00000000000E+00  0.00000000000E+00  0.35527136788E-14  0.91188000000E+02  0.91188000000E+02 0.  0.
    9900012    2    3    3    0    0 -0.29498574488E+02  0.22575302074E+02 -0.25481432507E+02  0.46142316931E+02  0.99999924273E+01 0.  0.
         12    1    3    3    0    0  0.29498574488E+02 -0.22575302074E+02  0.25481432507E+02  0.45045683069E+02  0.00000000000E+00 0. -1.
         11    1    4    4    0    0 -0.11018400096E+02  0.99310354888E+01 -0.65335487484E+01  0.16208573844E+02  0.51100000000E-03 0. -1.
        -11    1    4    4    0    0 -0.84895732400E+01  0.89419672708E+01 -0.82519590179E+01  0.14836659340E+02  0.51100000000E-03 0.  1.
         12    1    4    4    0    0 -0.99906011523E+01  0.37022993147E+01 -0.10695924741E+02  0.15097083747E+02  0.00000000000E+00 0. -1.
</event>
<event>
 8    1  0.7489580E-009  0.9118800E+02  0.7816164E-02  0.1184000E+00
        -11   -1    0    0    0    0  0.00000000000E+00  0.00000000000E+00  0.45593999997E+02  0.45594000000E+02  0.51100000000E-03 0. -1.
         11   -1    0    0    0    0 -0.00000000000E+00 -0.00000000000E+00 -0.45593999997E+02  0.45594000000E+02  0.51100000000E-03 0.  1.
         23    2    1    2    0    0  0.00000000000E+00 -0.35527136788E-14  0.35527136788E-14  0.91188000000E+02  0.91188000000E+02 0.  0.
    9900012    2    3    3    0    0 -0.22268237542E+02 -0.25011695086E+02  0.30127301491E+02  0.46142316639E+02  0.99999897696E+01 0.  0.
        -12    1    3    3    0    0  0.22268237542E+02  0.25011695086E+02 -0.30127301491E+02  0.45045683361E+02  0.00000000000E+00 0.  1.
         11    1    4    4    0    0 -0.15212622649E+01 -0.40734284104E+01  0.65673089140E+01  0.78763319208E+01  0.51100000000E-03 0. -1.
        -11    1    4    4    0    0 -0.54564631616E+01 -0.20051924029E+01  0.47740822536E+01  0.75223432806E+01  0.51100000000E-03 0.  1.
         12    1    4    4    0    0 -0.15290512116E+02 -0.18933074273E+02  0.18785910323E+02  0.30743641438E+02  0.00000000000E+00 0. -1.
</event>
<event>
 8    1  0.7489580E-009  0.9118800E+02  0.7816164E-02  0.1184000E+00
        -11   -1    0    0    0    0  0.00000000000E+00  0.00000000000E+00  0.45593999997E+02  0.45594000000E+02  0.51100000000E-03 0. -1.
         11   -1    0    0    0    0 -0.00000000000E+00 -0.00000000000E+00 -0.45593999997E+02  0.45594000000E+02  0.51100000000E-03 0.  1.
         23    2    1    2    0    0  0.00000000000E+00  0.35527136788E-14 -0.35527136788E-14  0.91188000000E+02  0.91188000000E+02 0.  0.
    9900012    2    3    3    0    0 -0.18555313418E+02 -0.26052013120E+02  0.31719180847E+02  0.46142317885E+02  0.10000001128E+02 0.  0.
        -12    1    3    3    0    0  0.18555313418E+02  0.26052013120E+02 -0.31719180847E+02  0.45045682115E+02  0.00000000000E+00 0.  1.
         11    1    4    4    0    0 -0.10737485846E+02 -0.17611985991E+02  0.23278585283E+02  0.31102543077E+02  0.51100000000E-03 0. -1.
        -11    1    4    4    0    0 -0.16329423358E+01 -0.36508117783E+01  0.52306262818E+01  0.65844042156E+01  0.51100000000E-03 0.  1.
        -12    1    4    4    0    0 -0.61848852361E+01 -0.47892153508E+01  0.32099692824E+01  0.84553705924E+01  0.00000000000E+00 0.  1.
</event>
<event>
 8    1  0.7489580E-009  0.9118800E+02  0.7816164E-02  0.1184000E+00
        -11   -1    0    0    0    0  0.00000000000E+00  0.00000000000E+00  0.45593999997E+02  0.45594000000E+02  0.51100000000E-03 0. -1.
         11   -1    0    0    0    0 -0.00000000000E+00 -0.00000000000E+00 -0.45593999997E+02  0.45594000000E+02  0.51100000000E-03 0.  1.
         23    2    1    2    0    0  0.00000000000E+00  0.00000000000E+00  0.00000000000E+00  0.91188000000E+02  0.91188000000E+02 0.  0.
    9900012    2    3    3    0    0 -0.32440807011E+02  0.18347073420E+02  0.25300045663E+02  0.46142319040E+02  0.10000011663E+02 0.  0.
        -12    1    3    3    0    0  0.32440807011E+02 -0.18347073420E+02 -0.25300045663E+02  0.45045680960E+02  0.00000000000E+00 0.  1.
         11    1    4    4    0    0 -0.14751033363E+02  0.10280143956E+02  0.88804246276E+01  0.20053336053E+02  0.51100000000E-03 0. -1.
        -11    1    4    4    0    0 -0.55271922934E+01  0.52250591676E+01  0.79220160072E+01  0.10982232734E+02  0.51100000000E-03 0.  1.
         12    1    4    4    0    0 -0.12162581354E+02  0.28418702968E+01  0.84976050283E+01  0.15106750253E+02  0.00000000000E+00 0. -1.
</event>
<event>
 8    1  0.7489580E-009  0.9118800E+02  0.7816164E-02  0.1184000E+00
        -11   -1    0    0    0    0  0.00000000000E+00  0.00000000000E+00  0.45593999997E+02  0.45594000000E+02  0.51100000000E-03 0. -1.
         11   -1    0    0    0    0 -0.00000000000E+00 -0.00000000000E+00 -0.45593999997E+02  0.45594000000E+02  0.51100000000E-03 0.  1.
         23    2    1    2    0    0 -0.35527136788E-14 -0.88817841970E-15  0.00000000000E+00  0.91188000000E+02  0.91188000000E+02 0.  0.
    9900012    2    3    3    0    0 -0.17925120583E+02 -0.16452763771E+01 -0.41292814922E+02  0.46142318227E+02  0.10000004247E+02 0.  0.
         12    1    3    3    0    0  0.17925120583E+02  0.16452763771E+01  0.41292814922E+02  0.45045681773E+02  0.00000000000E+00 0. -1.
         11    1    4    4    0    0 -0.69999956020E+01  0.31650665717E+01 -0.19460893020E+02  0.20922331185E+02  0.51100000000E-03 0. -1.
        -11    1    4    4    0    0 -0.19301413277E+01 -0.40287703151E+00 -0.73607521606E+01  0.76202643050E+01  0.51100000000E-03 0.  1.
         12    1    4    4    0    0 -0.89949836531E+01 -0.44074659174E+01 -0.14471169741E+02  0.17599722737E+02  0.00000000000E+00 0. -1.
</event>
<event>
 8    1  0.7489580E-009  0.9118800E+02  0.7816164E-02  0.1184000E+00
        -11   -1    0    0    0    0  0.00000000000E+00  0.00000000000E+00  0.45593999997E+02  0.45594000000E+02  0.51100000000E-03 0. -1.
         11   -1    0    0    0    0 -0.00000000000E+00 -0.00000000000E+00 -0.45593999997E+02  0.45594000000E+02  0.51100000000E-03 0.  1.
         23    2    1    2    0    0  0.00000000000E+00  0.00000000000E+00  0.00000000000E+00  0.91188000000E+02  0.91188000000E+02 0.  0.
    9900012    2    3    3    0    0 -0.15497114202E+02  0.77723047282E+01  0.41575765407E+02  0.46142317204E+02  0.99999949214E+01 0.  0.
        -12    1    3    3    0    0  0.15497114202E+02 -0.77723047282E+01 -0.41575765407E+02  0.45045682796E+02  0.00000000000E+00 0.  1.
         11    1    4    4    0    0 -0.27327239336E+01  0.53133460972E+01  0.17956462754E+02  0.18924428175E+02  0.51100000000E-03 0. -1.
        -11    1    4    4    0    0 -0.22722762966E+01  0.42131456674E+00  0.18280628251E+01  0.29466183136E+01  0.51100000000E-03 0.  1.
         12    1    4    4    0    0 -0.10492113972E+02  0.20376440642E+01  0.21791239828E+02  0.24271270716E+02  0.00000000000E+00 0. -1.
</event>
<event>
 8    1  0.7489580E-009  0.9118800E+02  0.7816164E-02  0.1184000E+00
        -11   -1    0    0    0    0  0.00000000000E+00  0.00000000000E+00  0.45593999997E+02  0.45594000000E+02  0.51100000000E-03 0. -1.
         11   -1    0    0    0    0 -0.00000000000E+00 -0.00000000000E+00 -0.45593999997E+02  0.45594000000E+02  0.51100000000E-03 0.  1.
         23    2    1    2    0    0  0.88817841970E-15  0.00000000000E+00  0.00000000000E+00  0.91188000000E+02  0.91188000000E+02 0.  0.
    9900012    2    3    3    0    0  0.60097792139E+01  0.26286932925E+02  0.36083143001E+02  0.46142317659E+02  0.99999990646E+01 0.  0.
        -12    1    3    3    0    0 -0.60097792139E+01 -0.26286932925E+02 -0.36083143001E+02  0.45045682341E+02  0.00000000000E+00 0.  1.
         11    1    4    4    0    0  0.35208268665E+01  0.31960051610E+01  0.10480952196E+02  0.11509171561E+02  0.51100000000E-03 0. -1.
        -11    1    4    4    0    0 -0.12200816754E+00  0.84905236644E+01  0.93377786934E+01  0.12621330725E+02  0.51100000000E-03 0.  1.
         12    1    4    4    0    0  0.26109605150E+01  0.14600404099E+02  0.16264412111E+02  0.22011815373E+02  0.00000000000E+00 0. -1.
</event>
<event>
 8    1  0.7489580E-009  0.9118800E+02  0.7816164E-02  0.1184000E+00
        -11   -1    0    0    0    0  0.00000000000E+00  0.00000000000E+00  0.45593999997E+02  0.45594000000E+02  0.51100000000E-03 0. -1.
         11   -1    0    0    0    0 -0.00000000000E+00 -0.00000000000E+00 -0.45593999997E+02  0.45594000000E+02  0.51100000000E-03 0.  1.
         23    2    1    2    0    0  0.00000000000E+00  0.88817841970E-15  0.00000000000E+00  0.91188000000E+02  0.91188000000E+02 0.  0.
    9900012    2    3    3    0    0 -0.16125169549E+02 -0.46028843980E+01  0.41807964432E+02  0.46142317325E+02  0.99999960214E+01 0.  0.
        -12    1    3    3    0    0  0.16125169549E+02  0.46028843980E+01 -0.41807964432E+02  0.45045682675E+02  0.00000000000E+00 0.  1.
         11    1    4    4    0    0 -0.93048637538E+01 -0.44863799713E+01  0.18529365808E+02  0.21214275671E+02  0.51100000000E-03 0. -1.
        -11    1    4    4    0    0 -0.10958929128E+01 -0.14313962410E+01  0.12708243947E+02  0.12835471980E+02  0.51100000000E-03 0.  1.
        -12    1    4    4    0    0 -0.57244128824E+01  0.13148918144E+01  0.10570354676E+02  0.12092569674E+02  0.00000000000E+00 0.  1.
</event>
<event>
 8    1  0.7489580E-009  0.9118800E+02  0.7816164E-02  0.1184000E+00
        -11   -1    0    0    0    0  0.00000000000E+00  0.00000000000E+00  0.45593999997E+02  0.45594000000E+02  0.51100000000E-03 0. -1.
         11   -1    0    0    0    0 -0.00000000000E+00 -0.00000000000E+00 -0.45593999997E+02  0.45594000000E+02  0.51100000000E-03 0.  1.
         23    2    1    2    0    0 -0.71054273576E-14  0.44408920985E-15  0.00000000000E+00  0.91188000000E+02  0.91188000000E+02 0.  0.
    9900012    2    3    3    0    0 -0.31016313526E+02  0.24069718875E+01 -0.32577726816E+02  0.46142317600E+02  0.99999985299E+01 0.  0.
         12    1    3    3    0    0  0.31016313526E+02 -0.24069718875E+01  0.32577726816E+02  0.45045682400E+02  0.00000000000E+00 0. -1.
         11    1    4    4    0    0 -0.22870592445E+01  0.70774150665E+00  0.31043886540E+00  0.24141065798E+01  0.51100000000E-03 0. -1.
        -11    1    4    4    0    0 -0.74295956831E+01 -0.13268643547E+00 -0.89861528206E+01  0.11660507728E+02  0.51100000000E-03 0.  1.
        -12    1    4    4    0    0 -0.21299658598E+02  0.18319168163E+01 -0.23902012861E+02  0.32067703292E+02  0.00000000000E+00 0.  1.
</event>
<event>
 8    1  0.7489580E-009  0.9118800E+02  0.7816164E-02  0.1184000E+00
        -11   -1    0    0    0    0  0.00000000000E+00  0.00000000000E+00  0.45593999997E+02  0.45594000000E+02  0.51100000000E-03 0. -1.
         11   -1    0    0    0    0 -0.00000000000E+00 -0.00000000000E+00 -0.45593999997E+02  0.45594000000E+02  0.51100000000E-03 0.  1.
         23    2    1    2    0    0  0.88817841970E-15  0.00000000000E+00  0.00000000000E+00  0.91188000000E+02  0.91188000000E+02 0.  0.
    9900012    2    3    3    0    0 -0.51030996984E+01  0.17171474254E+02 -0.41330524438E+02  0.46142318688E+02  0.10000008449E+02 0.  0.
         12    1    3    3    0    0  0.51030996984E+01 -0.17171474254E+02  0.41330524438E+02  0.45045681312E+02  0.00000000000E+00 0. -1.
         11    1    4    4    0    0 -0.34820409707E+01  0.19100716917E+01 -0.61881565953E+01  0.73529766420E+01  0.51100000000E-03 0. -1.
        -11    1    4    4    0    0 -0.11119765923E+01  0.69554782632E+01 -0.23110848463E+02  0.24160432255E+02  0.51100000000E-03 0.  1.
         12    1    4    4    0    0 -0.50908213544E+00  0.83059242987E+01 -0.12031519380E+02  0.14628909790E+02  0.00000000000E+00 0. -1.
</event>
<event>
 8    1  0.7489580E-009  0.9118800E+02  0.7816164E-02  0.1184000E+00
        -11   -1    0    0    0    0  0.00000000000E+00  0.00000000000E+00  0.45593999997E+02  0.45594000000E+02  0.51100000000E-03 0. -1.
         11   -1    0    0    0    0 -0.00000000000E+00 -0.00000000000E+00 -0.45593999997E+02  0.45594000000E+02  0.51100000000E-03 0.  1.
         23    2    1    2    0    0 -0.71054273576E-14 -0.17763568394E-14  0.00000000000E+00  0.91188000000E+02  0.91188000000E+02 0.  0.
    9900012    2    3    3    0    0 -0.38969409695E+02  0.12914557340E+02 -0.18539502742E+02  0.46142313800E+02  0.99999638818E+01 0.  0.
         12    1    3    3    0    0  0.38969409695E+02 -0.12914557340E+02  0.18539502742E+02  0.45045686200E+02  0.00000000000E+00 0. -1.
         11    1    4    4    0    0 -0.17890343472E+02  0.54748357744E+01 -0.13023749860E+02  0.22795970630E+02  0.51100000000E-03 0. -1.
        -11    1    4    4    0    0 -0.27971906532E+01  0.13646738867E+01  0.52574088571E+00  0.31564242597E+01  0.51100000000E-03 0.  1.
        -12    1    4    4    0    0 -0.18281875570E+02  0.60750476791E+01 -0.60414937682E+01  0.20189918910E+02  0.00000000000E+00 0.  1.
</event>
<event>
 8    1  0.7489580E-009  0.9118800E+02  0.7816164E-02  0.1184000E+00
        -11   -1    0    0    0    0  0.00000000000E+00  0.00000000000E+00  0.45593999997E+02  0.45594000000E+02  0.51100000000E-03 0. -1.
         11   -1    0    0    0    0 -0.00000000000E+00 -0.00000000000E+00 -0.45593999997E+02  0.45594000000E+02  0.51100000000E-03 0.  1.
         23    2    1    2    0    0  0.35527136788E-14  0.00000000000E+00  0.00000000000E+00  0.91188000000E+02  0.91188000000E+02 0.  0.
    9900012    2    3    3    0    0  0.26911201874E+02 -0.12822467667E+02  0.33771074039E+02  0.46142313135E+02  0.99999578174E+01 0.  0.
        -12    1    3    3    0    0 -0.26911201874E+02  0.12822467667E+02 -0.33771074039E+02  0.45045686865E+02  0.00000000000E+00 0.  1.
         11    1    4    4    0    0  0.19658601327E+01  0.42110072545E+00  0.63409413124E+01  0.66520274256E+01  0.51100000000E-03 0. -1.
        -11    1    4    4    0    0  0.23243336961E+01 -0.17977306152E+01  0.18318278232E+01  0.34626515751E+01  0.51100000000E-03 0.  1.
        -12    1    4    4    0    0  0.22621008045E+02 -0.11445837777E+02  0.25598304903E+02  0.36027634135E+02  0.00000000000E+00 0.  1.
</event>
<event>
 8    1  0.7489580E-009  0.9118800E+02  0.7816164E-02  0.1184000E+00
        -11   -1    0    0    0    0  0.00000000000E+00  0.00000000000E+00  0.45593999997E+02  0.45594000000E+02  0.51100000000E-03 0. -1.
         11   -1    0    0    0    0 -0.00000000000E+00 -0.00000000000E+00 -0.45593999997E+02  0.45594000000E+02  0.51100000000E-03 0.  1.
         23    2    1    2    0    0  0.00000000000E+00  0.11102230246E-15  0.00000000000E+00  0.91188000000E+02  0.91188000000E+02 0.  0.
    9900012    2    3    3    0    0  0.70574158725E+01  0.73532005268E+00  0.44483319124E+02  0.46142317691E+02  0.99999993584E+01 0.  0.
        -12    1    3    3    0    0 -0.70574158725E+01 -0.73532005268E+00 -0.44483319124E+02  0.45045682309E+02  0.00000000000E+00 0.  1.
         11    1    4    4    0    0  0.50011830499E+01  0.76624395055E+00  0.16654374749E+02  0.17405951863E+02  0.51100000000E-03 0. -1.
        -11    1    4    4    0    0  0.16265970956E+01  0.45956048954E+00  0.11384576249E+01  0.20379155969E+01  0.51100000000E-03 0.  1.
         12    1    4    4    0    0  0.42963572699E+00 -0.49048438741E+00  0.26690486750E+02  0.26698450231E+02  0.00000000000E+00 0. -1.
</event>
<event>
 8    1  0.7489580E-009  0.9118800E+02  0.7816164E-02  0.1184000E+00
        -11   -1    0    0    0    0  0.00000000000E+00  0.00000000000E+00  0.45593999997E+02  0.45594000000E+02  0.51100000000E-03 0. -1.
         11   -1    0    0    0    0 -0.00000000000E+00 -0.00000000000E+00 -0.45593999997E+02  0.45594000000E+02  0.51100000000E-03 0.  1.
         23    2    1    2    0    0  0.00000000000E+00  0.00000000000E+00 -0.71054273576E-14  0.91188000000E+02  0.91188000000E+02 0.  0.
    9900012    2    3    3    0    0  0.31402052703E+01  0.38075101619E+02  0.23865022849E+02  0.46142316877E+02  0.99999919391E+01 0.  0.
        -12    1    3    3    0    0 -0.31402052703E+01 -0.38075101619E+02 -0.23865022849E+02  0.45045683123E+02  0.00000000000E+00 0.  1.
         11    1    4    4    0    0 -0.15717378202E+01  0.15829756185E+02  0.14181865201E+02  0.21311425140E+02  0.51100000000E-03 0.  1.
        -11    1    4    4    0    0  0.18357877221E+01  0.55457556261E+01  0.33933490924E+01  0.67557634912E+01  0.51100000000E-03 0. -1.
        -12    1    4    4    0    0  0.28761553684E+01  0.16699589808E+02  0.62898085559E+01  0.18075128246E+02  0.00000000000E+00 0.  1.
</event>
<event>
 8    1  0.7489580E-009  0.9118800E+02  0.7816164E-02  0.1184000E+00
        -11   -1    0    0    0    0  0.00000000000E+00  0.00000000000E+00  0.45593999997E+02  0.45594000000E+02  0.51100000000E-03 0. -1.
         11   -1    0    0    0    0 -0.00000000000E+00 -0.00000000000E+00 -0.45593999997E+02  0.45594000000E+02  0.51100000000E-03 0.  1.
         23    2    1    2    0    0  0.00000000000E+00  0.17763568394E-14  0.71054273576E-14  0.91188000000E+02  0.91188000000E+02 0.  0.
    9900012    2    3    3    0    0  0.15850518191E+02  0.11860022908E+02  0.40462504256E+02  0.46142319619E+02  0.10000016941E+02 0.  0.
        -12    1    3    3    0    0 -0.15850518191E+02 -0.11860022908E+02 -0.40462504256E+02  0.45045680381E+02  0.00000000000E+00 0.  1.
         11    1    4    4    0    0  0.14403894254E+02  0.63175875642E+01  0.25509544180E+02  0.29968665750E+02  0.51100000000E-03 0.  1.
        -11    1    4    4    0    0  0.13028869840E+01  0.18219697301E+01  0.77238852963E+01  0.80421074677E+01  0.51100000000E-03 0. -1.
        -12    1    4    4    0    0  0.14373695261E+00  0.37204656133E+01  0.72290747805E+01  0.81315464011E+01  0.00000000000E+00 0.  1.
</event>
<event>
 8    1  0.7489580E-009  0.9118800E+02  0.7816164E-02  0.1184000E+00
        -11   -1    0    0    0    0  0.00000000000E+00  0.00000000000E+00  0.45593999997E+02  0.45594000000E+02  0.51100000000E-03 0. -1.
         11   -1    0    0    0    0 -0.00000000000E+00 -0.00000000000E+00 -0.45593999997E+02  0.45594000000E+02  0.51100000000E-03 0.  1.
         23    2    1    2    0    0  0.00000000000E+00  0.00000000000E+00  0.00000000000E+00  0.91188000000E+02  0.91188000000E+02 0.  0.
    9900012    2    3    3    0    0 -0.19043925254E+02 -0.32602970983E+02 -0.24566005667E+02  0.46142318293E+02  0.10000004848E+02 0.  0.
         12    1    3    3    0    0  0.19043925254E+02  0.32602970983E+02  0.24566005667E+02  0.45045681707E+02  0.00000000000E+00 0. -1.
         11    1    4    4    0    0  0.64228744355E-01  0.13799246017E+00  0.32298092877E+00  0.35704928530E+00  0.51100000000E-03 0. -1.
        -11    1    4    4    0    0 -0.44071122275E+01 -0.38098645501E+01 -0.53228940940E+01  0.78911917903E+01  0.51100000000E-03 0.  1.
         12    1    4    4    0    0 -0.14701041771E+02 -0.28931098893E+02 -0.19566092502E+02  0.37894077217E+02  0.00000000000E+00 0. -1.
</event>
<event>
 8    1  0.7489580E-009  0.9118800E+02  0.7816164E-02  0.1184000E+00
        -11   -1    0    0    0    0  0.00000000000E+00  0.00000000000E+00  0.45593999997E+02  0.45594000000E+02  0.51100000000E-03 0.  1.
         11   -1    0    0    0    0 -0.00000000000E+00 -0.00000000000E+00 -0.45593999997E+02  0.45594000000E+02  0.51100000000E-03 0. -1.
         23    2    1    2    0    0  0.00000000000E+00  0.00000000000E+00  0.00000000000E+00  0.91188000000E+02  0.91188000000E+02 0.  0.
    9900012    2    3    3    0    0 -0.39495370349E+02  0.20708327253E+02  0.63556527169E+01  0.46142318541E+02  0.10000007114E+02 0.  0.
        -12    1    3    3    0    0  0.39495370349E+02 -0.20708327253E+02 -0.63556527169E+01  0.45045681459E+02  0.00000000000E+00 0.  1.
         11    1    4    4    0    0 -0.28131455119E+02  0.10365859990E+02  0.30456647233E+01  0.30134795408E+02  0.51100000000E-03 0. -1.
        -11    1    4    4    0    0 -0.42567479740E+01  0.38933703038E+01 -0.24322195714E+00  0.57738542429E+01  0.51100000000E-03 0.  1.
         12    1    4    4    0    0 -0.71071672563E+01  0.64490969590E+01  0.35532099508E+01  0.10233668890E+02  0.00000000000E+00 0. -1.
</event>
<event>
 8    1  0.7489580E-009  0.9118800E+02  0.7816164E-02  0.1184000E+00
        -11   -1    0    0    0    0  0.00000000000E+00  0.00000000000E+00  0.45593999997E+02  0.45594000000E+02  0.51100000000E-03 0. -1.
         11   -1    0    0    0    0 -0.00000000000E+00 -0.00000000000E+00 -0.45593999997E+02  0.45594000000E+02  0.51100000000E-03 0.  1.
         23    2    1    2    0    0  0.00000000000E+00  0.71054273576E-14  0.00000000000E+00  0.91188000000E+02  0.91188000000E+02 0.  0.
    9900012    2    3    3    0    0  0.24521180804E+02 -0.33528367307E+02 -0.17426231467E+02  0.46142320235E+02  0.10000022563E+02 0.  0.
         12    1    3    3    0    0 -0.24521180804E+02  0.33528367307E+02  0.17426231467E+02  0.45045679765E+02  0.00000000000E+00 0. -1.
         11    1    4    4    0    0  0.54627949448E+01 -0.41998190578E+01 -0.42273472816E+00  0.69035725272E+01  0.51100000000E-03 0. -1.
        -11    1    4    4    0    0  0.49928537607E+01 -0.93427751850E+01 -0.27401454886E+01  0.10941866129E+02  0.51100000000E-03 0.  1.
        -12    1    4    4    0    0  0.14065532098E+02 -0.19985773064E+02 -0.14263351251E+02  0.28296881579E+02  0.00000000000E+00 0.  1.
</event>
<event>
 8    1  0.7489580E-009  0.9118800E+02  0.7816164E-02  0.1184000E+00
        -11   -1    0    0    0    0  0.00000000000E+00  0.00000000000E+00  0.45593999997E+02  0.45594000000E+02  0.51100000000E-03 0. -1.
         11   -1    0    0    0    0 -0.00000000000E+00 -0.00000000000E+00 -0.45593999997E+02  0.45594000000E+02  0.51100000000E-03 0.  1.
         23    2    1    2    0    0  0.71054273576E-14  0.17763568394E-14  0.00000000000E+00  0.91188000000E+02  0.91188000000E+02 0.  0.
    9900012    2    3    3    0    0  0.37856860895E+02 -0.13888790226E+02 -0.20076682711E+02  0.46142316528E+02  0.99999887600E+01 0.  0.
         12    1    3    3    0    0 -0.37856860895E+02  0.13888790226E+02  0.20076682711E+02  0.45045683472E+02  0.00000000000E+00 0. -1.
         11    1    4    4    0    0  0.12688978936E+02 -0.12487320801E+01 -0.82100043985E+01  0.15164883473E+02  0.51100000000E-03 0. -1.
        -11    1    4    4    0    0 -0.17850463807E+00  0.50904492612E-01 -0.31976615218E+00  0.36973751011E+00  0.51100000000E-03 0.  1.
        -12    1    4    4    0    0  0.25346386596E+02 -0.12690962638E+02 -0.11546912160E+02  0.30607695546E+02  0.00000000000E+00 0.  1.
</event>
<event>
 8    1  0.7489580E-009  0.9118800E+02  0.7816164E-02  0.1184000E+00
        -11   -1    0    0    0    0  0.00000000000E+00  0.00000000000E+00  0.45593999997E+02  0.45594000000E+02  0.51100000000E-03 0. -1.
         11   -1    0    0    0    0 -0.00000000000E+00 -0.00000000000E+00 -0.45593999997E+02  0.45594000000E+02  0.51100000000E-03 0.  1.
         23    2    1    2    0    0 -0.17763568394E-14 -0.17763568394E-14  0.00000000000E+00  0.91188000000E+02  0.91188000000E+02 0.  0.
    9900012    2    3    3    0    0 -0.89215200143E+01  0.10333668119E+02  0.42927093140E+02  0.46142317170E+02  0.99999946120E+01 0.  0.
        -12    1    3    3    0    0  0.89215200143E+01 -0.10333668119E+02 -0.42927093140E+02  0.45045682830E+02  0.00000000000E+00 0.  1.
         11    1    4    4    0    0 -0.89397249813E+01  0.76491703906E+01  0.29893275543E+02  0.32125323553E+02  0.51100000000E-03 0. -1.
        -11    1    4    4    0    0  0.54556948930E+00  0.35454117805E-01  0.97488328141E+01  0.97641509902E+01  0.51100000000E-03 0.  1.
        -12    1    4    4    0    0 -0.52736452226E+00  0.26490436107E+01  0.32849847828E+01  0.42528426275E+01  0.00000000000E+00 0.  1.
</event>
<event>
 8    1  0.7489580E-009  0.9118800E+02  0.7816164E-02  0.1184000E+00
        -11   -1    0    0    0    0  0.00000000000E+00  0.00000000000E+00  0.45593999997E+02  0.45594000000E+02  0.51100000000E-03 0. -1.
         11   -1    0    0    0    0 -0.00000000000E+00 -0.00000000000E+00 -0.45593999997E+02  0.45594000000E+02  0.51100000000E-03 0.  1.
         23    2    1    2    0    0 -0.88817841970E-15  0.00000000000E+00  0.71054273576E-14  0.91188000000E+02  0.91188000000E+02 0.  0.
    9900012    2    3    3    0    0 -0.21726813470E+01 -0.21542296969E+02  0.39500907599E+02  0.46142325357E+02  0.10000069262E+02 0.  0.
        -12    1    3    3    0    0  0.21726813470E+01  0.21542296969E+02 -0.39500907599E+02  0.45045674643E+02  0.00000000000E+00 0.  1.
         11    1    4    4    0    0 -0.51522411356E-03 -0.19506429130E+01  0.18628530915E+01  0.26972634171E+01  0.51100000000E-03 0. -1.
        -11    1    4    4    0    0 -0.15462732370E+01 -0.46996209505E+01  0.31270271609E+01  0.58528366736E+01  0.51100000000E-03 0.  1.
         12    1    4    4    0    0 -0.62589288588E+00 -0.14892033105E+02  0.34511027347E+02  0.37592225266E+02  0.00000000000E+00 0. -1.
</event>
<event>
 8    1  0.7489580E-009  0.9118800E+02  0.7816164E-02  0.1184000E+00
        -11   -1    0    0    0    0  0.00000000000E+00  0.00000000000E+00  0.45593999997E+02  0.45594000000E+02  0.51100000000E-03 0. -1.
         11   -1    0    0    0    0 -0.00000000000E+00 -0.00000000000E+00 -0.45593999997E+02  0.45594000000E+02  0.51100000000E-03 0.  1.
         23    2    1    2    0    0 -0.35527136788E-14 -0.44408920985E-15  0.00000000000E+00  0.91188000000E+02  0.91188000000E+02 0.  0.
    9900012    2    3    3    0    0  0.28865943474E+02  0.26889537357E+01  0.34476662497E+02  0.46142318500E+02  0.10000006741E+02 0.  0.
        -12    1    3    3    0    0 -0.28865943474E+02 -0.26889537357E+01 -0.34476662497E+02  0.45045681500E+02  0.00000000000E+00 0.  1.
         11    1    4    4    0    0  0.54437751736E+01 -0.23145294831E+00  0.90319515629E+01  0.10548194533E+02  0.51100000000E-03 0. -1.
        -11    1    4    4    0    0  0.16431988710E+02  0.56612099269E+01  0.17962141249E+02  0.24993960656E+02  0.51100000000E-03 0.  1.
         12    1    4    4    0    0  0.69901795913E+01 -0.27408032429E+01  0.74825696849E+01  0.10600163311E+02  0.00000000000E+00 0. -1.
</event>
<event>
 8    1  0.7489580E-009  0.9118800E+02  0.7816164E-02  0.1184000E+00
        -11   -1    0    0    0    0  0.00000000000E+00  0.00000000000E+00  0.45593999997E+02  0.45594000000E+02  0.51100000000E-03 0. -1.
         11   -1    0    0    0    0 -0.00000000000E+00 -0.00000000000E+00 -0.45593999997E+02  0.45594000000E+02  0.51100000000E-03 0.  1.
         23    2    1    2    0    0  0.00000000000E+00  0.00000000000E+00  0.00000000000E+00  0.91188000000E+02  0.91188000000E+02 0.  0.
    9900012    2    3    3    0    0 -0.24002404785E+02  0.88696892931E+01  0.37071912376E+02  0.46142317511E+02  0.99999977233E+01 0.  0.
        -12    1    3    3    0    0  0.24002404785E+02 -0.88696892931E+01 -0.37071912376E+02  0.45045682489E+02  0.00000000000E+00 0.  1.
         11    1    4    4    0    0 -0.32228272362E+01  0.20312919440E+01  0.41927444049E+01  0.56649685138E+01  0.51100000000E-03 0. -1.
        -11    1    4    4    0    0 -0.38395685214E+01 -0.20029477543E+01  0.43339395007E+01  0.61267542789E+01  0.51100000000E-03 0.  1.
         12    1    4    4    0    0 -0.16940009027E+02  0.88413451034E+01  0.28545228471E+02  0.34350594719E+02  0.00000000000E+00 0. -1.
</event>
<event>
 8    1  0.7489580E-009  0.9118800E+02  0.7816164E-02  0.1184000E+00
        -11   -1    0    0    0    0  0.00000000000E+00  0.00000000000E+00  0.45593999997E+02  0.45594000000E+02  0.51100000000E-03 0. -1.
         11   -1    0    0    0    0 -0.00000000000E+00 -0.00000000000E+00 -0.45593999997E+02  0.45594000000E+02  0.51100000000E-03 0.  1.
         23    2    1    2    0    0 -0.17763568394E-14 -0.17763568394E-14  0.71054273576E-14  0.91188000000E+02  0.91188000000E+02 0.  0.
    9900012    2    3    3    0    0 -0.10814924231E+02 -0.11895701937E+02  0.42079009924E+02  0.46142318887E+02  0.10000010271E+02 0.  0.
        -12    1    3    3    0    0  0.10814924231E+02  0.11895701937E+02 -0.42079009924E+02  0.45045681113E+02  0.00000000000E+00 0.  1.
         11    1    4    4    0    0 -0.73921469216E+01 -0.63245100738E+01  0.18021596717E+02  0.20479775689E+02  0.51100000000E-03 0. -1.
        -11    1    4    4    0    0 -0.44205494699E+01 -0.14376420084E+01  0.11463423112E+02  0.12370050197E+02  0.51100000000E-03 0.  1.
        -12    1    4    4    0    0  0.99777216046E+00 -0.41335498549E+01  0.12593990095E+02  0.13292493002E+02  0.00000000000E+00 0.  1.
</event>
<event>
 8    1  0.7489580E-009  0.9118800E+02  0.7816164E-02  0.1184000E+00
        -11   -1    0    0    0    0  0.00000000000E+00  0.00000000000E+00  0.45593999997E+02  0.45594000000E+02  0.51100000000E-03 0. -1.
         11   -1    0    0    0    0 -0.00000000000E+00 -0.00000000000E+00 -0.45593999997E+02  0.45594000000E+02  0.51100000000E-03 0.  1.
         23    2    1    2    0    0 -0.35527136788E-14  0.00000000000E+00  0.00000000000E+00  0.91188000000E+02  0.91188000000E+02 0.  0.
    9900012    2    3    3    0    0 -0.23007253994E+02 -0.21066724100E+02  0.32495747854E+02  0.46142309538E+02  0.99999250115E+01 0.  0.
        -12    1    3    3    0    0  0.23007253994E+02  0.21066724100E+02 -0.32495747854E+02  0.45045690462E+02  0.00000000000E+00 0.  1.
         11    1    4    4    0    0 -0.31086893912E+01 -0.16340476724E+01  0.22994397029E+01  0.41977952231E+01  0.51100000000E-03 0. -1.
        -11    1    4    4    0    0 -0.14761871189E+02 -0.12945129390E+02  0.15250834500E+02  0.24861157840E+02  0.51100000000E-03 0.  1.
        -12    1    4    4    0    0 -0.51366934131E+01 -0.64875470381E+01  0.14945473651E+02  0.17083356475E+02  0.00000000000E+00 0.  1.
</event>
<event>
 8    1  0.7489580E-009  0.9118800E+02  0.7816164E-02  0.1184000E+00
        -11   -1    0    0    0    0  0.00000000000E+00  0.00000000000E+00  0.45593999997E+02  0.45594000000E+02  0.51100000000E-03 0.  1.
         11   -1    0    0    0    0 -0.00000000000E+00 -0.00000000000E+00 -0.45593999997E+02  0.45594000000E+02  0.51100000000E-03 0. -1.
         23    2    1    2    0    0  0.00000000000E+00 -0.26645352591E-14  0.17763568394E-14  0.91188000000E+02  0.91188000000E+02 0.  0.
    9900012    2    3    3    0    0 -0.43919469338E+02 -0.65804053314E+01  0.75426758753E+01  0.46142317847E+02  0.10000000781E+02 0.  0.
        -12    1    3    3    0    0  0.43919469338E+02  0.65804053314E+01 -0.75426758753E+01  0.45045682153E+02  0.00000000000E+00 0.  1.
         11    1    4    4    0    0 -0.13987870463E+02  0.91329562545E+00  0.64014645453E+00  0.14032263422E+02  0.51100000000E-03 0. -1.
        -11    1    4    4    0    0 -0.48016428274E+01  0.55439886717E+00  0.21848337255E+01  0.53043972905E+01  0.51100000000E-03 0.  1.
         12    1    4    4    0    0 -0.25129956048E+02 -0.80480998240E+01  0.47176956953E+01  0.26805657135E+02  0.00000000000E+00 0. -1.
</event>
<event>
 8    1  0.7489580E-009  0.9118800E+02  0.7816164E-02  0.1184000E+00
        -11   -1    0    0    0    0  0.00000000000E+00  0.00000000000E+00  0.45593999997E+02  0.45594000000E+02  0.51100000000E-03 0. -1.
         11   -1    0    0    0    0 -0.00000000000E+00 -0.00000000000E+00 -0.45593999997E+02  0.45594000000E+02  0.51100000000E-03 0.  1.
         23    2    1    2    0    0 -0.44408920985E-15  0.00000000000E+00  0.00000000000E+00  0.91188000000E+02  0.91188000000E+02 0.  0.
    9900012    2    3    3    0    0 -0.28840145770E+01 -0.16492299766E+02  0.41818656348E+02  0.46142317517E+02  0.99999977698E+01 0.  0.
        -12    1    3    3    0    0  0.28840145770E+01  0.16492299766E+02 -0.41818656348E+02  0.45045682483E+02  0.00000000000E+00 0.  1.
         11    1    4    4    0    0 -0.63159992660E+00 -0.98283243453E+01  0.18470749925E+02  0.20932354883E+02  0.51100000000E-03 0. -1.
        -11    1    4    4    0    0 -0.38676461078E+01 -0.25873693989E+01  0.15901779209E+02  0.16568637514E+02  0.51100000000E-03 0.  1.
        -12    1    4    4    0    0  0.16152314575E+01 -0.40766060223E+01  0.74461272140E+01  0.86413251188E+01  0.00000000000E+00 0.  1.
</event>
<event>
 8    1  0.7489580E-009  0.9118800E+02  0.7816164E-02  0.1184000E+00
        -11   -1    0    0    0    0  0.00000000000E+00  0.00000000000E+00  0.45593999997E+02  0.45594000000E+02  0.51100000000E-03 0. -1.
         11   -1    0    0    0    0 -0.00000000000E+00 -0.00000000000E+00 -0.45593999997E+02  0.45594000000E+02  0.51100000000E-03 0.  1.
         23    2    1    2    0    0  0.00000000000E+00  0.55511151231E-16  0.00000000000E+00  0.91188000000E+02  0.91188000000E+02 0.  0.
    9900012    2    3    3    0    0 -0.32267934985E+02  0.49314300548E+00 -0.31426909314E+02  0.46142318218E+02  0.10000004164E+02 0.  0.
         12    1    3    3    0    0  0.32267934985E+02 -0.49314300548E+00  0.31426909314E+02  0.45045681782E+02  0.00000000000E+00 0. -1.
         11    1    4    4    0    0 -0.14152470670E+02  0.17560894770E+01 -0.18005866419E+02  0.22969272998E+02  0.51100000000E-03 0. -1.
        -11    1    4    4    0    0 -0.57367540273E+01 -0.26154231870E+01 -0.58433177327E+01  0.85962286849E+01  0.51100000000E-03 0.  1.
        -12    1    4    4    0    0 -0.12378710287E+02  0.13524767155E+01 -0.75777251627E+01  0.14576816534E+02  0.00000000000E+00 0.  1.
</event>
<event>
 8    1  0.7489580E-009  0.9118800E+02  0.7816164E-02  0.1184000E+00
        -11   -1    0    0    0    0  0.00000000000E+00  0.00000000000E+00  0.45593999997E+02  0.45594000000E+02  0.51100000000E-03 0. -1.
         11   -1    0    0    0    0 -0.00000000000E+00 -0.00000000000E+00 -0.45593999997E+02  0.45594000000E+02  0.51100000000E-03 0.  1.
         23    2    1    2    0    0  0.00000000000E+00  0.00000000000E+00  0.44408920985E-15  0.91188000000E+02  0.91188000000E+02 0.  0.
    9900012    2    3    3    0    0  0.39031950033E+01  0.44826353133E+02 -0.21157749424E+01  0.46142319075E+02  0.10000011977E+02 0.  0.
        -12    1    3    3    0    0 -0.39031950033E+01 -0.44826353133E+02  0.21157749424E+01  0.45045680925E+02  0.00000000000E+00 0.  1.
         11    1    4    4    0    0  0.34719205571E+01  0.19903787418E+02 -0.45936016509E+01  0.20719946002E+02  0.51100000000E-03 0. -1.
        -11    1    4    4    0    0  0.50078315524E+00  0.15145869504E+02  0.36154643150E+01  0.15579464986E+02  0.51100000000E-03 0.  1.
        -12    1    4    4    0    0 -0.69508709120E-01  0.97766962115E+01 -0.11376376065E+01  0.98429080863E+01  0.00000000000E+00 0.  1.
</event>
<event>
 8    1  0.7489580E-009  0.9118800E+02  0.7816164E-02  0.1184000E+00
        -11   -1    0    0    0    0  0.00000000000E+00  0.00000000000E+00  0.45593999997E+02  0.45594000000E+02  0.51100000000E-03 0. -1.
         11   -1    0    0    0    0 -0.00000000000E+00 -0.00000000000E+00 -0.45593999997E+02  0.45594000000E+02  0.51100000000E-03 0.  1.
         23    2    1    2    0    0  0.00000000000E+00  0.00000000000E+00  0.00000000000E+00  0.91188000000E+02  0.91188000000E+02 0.  0.
    9900012    2    3    3    0    0  0.10130079530E+02 -0.16250852088E+02 -0.40772599483E+02  0.46142316816E+02  0.99999913819E+01 0.  0.
         12    1    3    3    0    0 -0.10130079530E+02  0.16250852088E+02  0.40772599483E+02  0.45045683184E+02  0.00000000000E+00 0. -1.
         11    1    4    4    0    0  0.15075774177E+00 -0.64732519429E+01 -0.82345047288E+01  0.10475341856E+02  0.51100000000E-03 0. -1.
        -11    1    4    4    0    0  0.71745493478E+01 -0.86380676071E+01 -0.28402920466E+02  0.30542040887E+02  0.51100000000E-03 0.  1.
         12    1    4    4    0    0  0.28047724402E+01 -0.11395325384E+01 -0.41351742889E+01  0.51249340724E+01  0.00000000000E+00 0. -1.
</event>
<event>
 8    1  0.7489580E-009  0.9118800E+02  0.7816164E-02  0.1184000E+00
        -11   -1    0    0    0    0  0.00000000000E+00  0.00000000000E+00  0.45593999997E+02  0.45594000000E+02  0.51100000000E-03 0. -1.
         11   -1    0    0    0    0 -0.00000000000E+00 -0.00000000000E+00 -0.45593999997E+02  0.45594000000E+02  0.51100000000E-03 0.  1.
         23    2    1    2    0    0  0.00000000000E+00  0.00000000000E+00  0.35527136788E-14  0.91188000000E+02  0.91188000000E+02 0.  0.
    9900012    2    3    3    0    0 -0.28776491012E+02  0.22662821773E+02 -0.26218768241E+02  0.46142315037E+02  0.99999751623E+01 0.  0.
         12    1    3    3    0    0  0.28776491012E+02 -0.22662821773E+02  0.26218768241E+02  0.45045684963E+02  0.00000000000E+00 0. -1.
         11    1    4    4    0    0 -0.24460325262E+01  0.27876045772E+00 -0.13065267971E+01  0.27870764332E+01  0.51100000000E-03 0. -1.
        -11    1    4    4    0    0 -0.24702818503E+01  0.45192156856E+01 -0.12550317435E+01  0.53010100708E+01  0.51100000000E-03 0.  1.
        -12    1    4    4    0    0 -0.23860176635E+02  0.17864845630E+02 -0.23657209701E+02  0.38054228533E+02  0.00000000000E+00 0.  1.
</event>
<event>
 8    1  0.7489580E-009  0.9118800E+02  0.7816164E-02  0.1184000E+00
        -11   -1    0    0    0    0  0.00000000000E+00  0.00000000000E+00  0.45593999997E+02  0.45594000000E+02  0.51100000000E-03 0. -1.
         11   -1    0    0    0    0 -0.00000000000E+00 -0.00000000000E+00 -0.45593999997E+02  0.45594000000E+02  0.51100000000E-03 0.  1.
         23    2    1    2    0    0  0.00000000000E+00  0.00000000000E+00  0.00000000000E+00  0.91188000000E+02  0.91188000000E+02 0.  0.
    9900012    2    3    3    0    0 -0.46424281693E+01 -0.38238732528E+02  0.23352958632E+02  0.46142317837E+02  0.10000000695E+02 0.  0.
        -12    1    3    3    0    0  0.46424281693E+01  0.38238732528E+02 -0.23352958632E+02  0.45045682163E+02  0.00000000000E+00 0.  1.
         11    1    4    4    0    0 -0.33685726393E+01 -0.19282097638E+02  0.15539680230E+02  0.24992563551E+02  0.51100000000E-03 0. -1.
        -11    1    4    4    0    0 -0.41255598308E+00  0.44664681923E-02  0.82698322268E+00  0.92418823852E+00  0.51100000000E-03 0.  1.
         12    1    4    4    0    0 -0.86129954687E+00 -0.18961101358E+02  0.69862951795E+01  0.20225566048E+02  0.00000000000E+00 0. -1.
</event>
<event>
 8    1  0.7489580E-009  0.9118800E+02  0.7816164E-02  0.1184000E+00
        -11   -1    0    0    0    0  0.00000000000E+00  0.00000000000E+00  0.45593999997E+02  0.45594000000E+02  0.51100000000E-03 0. -1.
         11   -1    0    0    0    0 -0.00000000000E+00 -0.00000000000E+00 -0.45593999997E+02  0.45594000000E+02  0.51100000000E-03 0.  1.
         23    2    1    2    0    0 -0.35527136788E-14  0.35527136788E-14  0.00000000000E+00  0.91188000000E+02  0.91188000000E+02 0.  0.
    9900012    2    3    3    0    0  0.16503102055E+02 -0.21285459125E+02 -0.36106653652E+02  0.46142316682E+02  0.99999901634E+01 0.  0.
         12    1    3    3    0    0 -0.16503102055E+02  0.21285459125E+02  0.36106653652E+02  0.45045683318E+02  0.00000000000E+00 0. -1.
         11    1    4    4    0    0  0.43109912020E+01 -0.12509150064E+02 -0.15099261752E+02  0.20076134742E+02  0.51100000000E-03 0. -1.
        -11    1    4    4    0    0  0.93098062426E+01 -0.79516282064E+01 -0.18352703667E+02  0.22061790851E+02  0.51100000000E-03 0.  1.
         12    1    4    4    0    0  0.28823046104E+01 -0.82468085408E+00 -0.26546882335E+01  0.40043910893E+01  0.00000000000E+00 0. -1.
</event>
<event>
 8    1  0.7489580E-009  0.9118800E+02  0.7816164E-02  0.1184000E+00
        -11   -1    0    0    0    0  0.00000000000E+00  0.00000000000E+00  0.45593999997E+02  0.45594000000E+02  0.51100000000E-03 0. -1.
         11   -1    0    0    0    0 -0.00000000000E+00 -0.00000000000E+00 -0.45593999997E+02  0.45594000000E+02  0.51100000000E-03 0.  1.
         23    2    1    2    0    0  0.00000000000E+00  0.17763568394E-14  0.71054273576E-14  0.91188000000E+02  0.91188000000E+02 0.  0.
    9900012    2    3    3    0    0  0.28141956010E+02 -0.12353491314E+02 -0.32932279088E+02  0.46142318280E+02  0.10000004731E+02 0.  0.
         12    1    3    3    0    0 -0.28141956010E+02  0.12353491314E+02  0.32932279088E+02  0.45045681720E+02  0.00000000000E+00 0. -1.
         11    1    4    4    0    0  0.67846184154E+01  0.14472470724E+00 -0.80354396080E+01  0.10517617707E+02  0.51100000000E-03 0.  1.
        -11    1    4    4    0    0  0.27699599433E+01 -0.14618997490E+01 -0.76014219478E+00  0.32229870278E+01  0.51100000000E-03 0. -1.
        -12    1    4    4    0    0  0.18587377652E+02 -0.11036316272E+02 -0.24136697285E+02  0.32401713545E+02  0.00000000000E+00 0.  1.
</event>
<event>
 8    1  0.7489580E-009  0.9118800E+02  0.7816164E-02  0.1184000E+00
        -11   -1    0    0    0    0  0.00000000000E+00  0.00000000000E+00  0.45593999997E+02  0.45594000000E+02  0.51100000000E-03 0. -1.
         11   -1    0    0    0    0 -0.00000000000E+00 -0.00000000000E+00 -0.45593999997E+02  0.45594000000E+02  0.51100000000E-03 0.  1.
         23    2    1    2    0    0 -0.17763568394E-14  0.00000000000E+00  0.71054273576E-14  0.91188000000E+02  0.91188000000E+02 0.  0.
    9900012    2    3    3    0    0  0.10634319400E+02  0.17005332348E+02 -0.40334146819E+02  0.46142317887E+02  0.10000001150E+02 0.  0.
         12    1    3    3    0    0 -0.10634319400E+02 -0.17005332348E+02  0.40334146819E+02  0.45045682113E+02  0.00000000000E+00 0. -1.
         11    1    4    4    0    0  0.23773187087E+00  0.18809726221E+01 -0.36573078765E+00  0.19308893592E+01  0.51100000000E-03 0. -1.
        -11    1    4    4    0    0  0.71920396310E+01  0.67418985833E+01 -0.19056848882E+02  0.21455584824E+02  0.51100000000E-03 0.  1.
         12    1    4    4    0    0  0.32045478980E+01  0.83824611430E+01 -0.20911567149E+02  0.22755843704E+02  0.00000000000E+00 0. -1.
</event>
<event>
 8    1  0.7489580E-009  0.9118800E+02  0.7816164E-02  0.1184000E+00
        -11   -1    0    0    0    0  0.00000000000E+00  0.00000000000E+00  0.45593999997E+02  0.45594000000E+02  0.51100000000E-03 0.  1.
         11   -1    0    0    0    0 -0.00000000000E+00 -0.00000000000E+00 -0.45593999997E+02  0.45594000000E+02  0.51100000000E-03 0. -1.
         23    2    1    2    0    0  0.00000000000E+00  0.00000000000E+00  0.17763568394E-14  0.91188000000E+02  0.91188000000E+02 0.  0.
    9900012    2    3    3    0    0 -0.31431890679E+02 -0.29057252950E+02 -0.14029458263E+02  0.46142318744E+02  0.10000008965E+02 0.  0.
        -12    1    3    3    0    0  0.31431890679E+02  0.29057252950E+02  0.14029458263E+02  0.45045681256E+02  0.00000000000E+00 0.  1.
         11    1    4    4    0    0 -0.96704018286E+01 -0.11018936439E+02 -0.32091531060E+01  0.15007741192E+02  0.51100000000E-03 0. -1.
        -11    1    4    4    0    0 -0.13270514418E+02 -0.92138781228E+01 -0.25454928916E+01  0.16354865860E+02  0.51100000000E-03 0.  1.
        -12    1    4    4    0    0 -0.84909744329E+01 -0.88244383883E+01 -0.82748122650E+01  0.14779711692E+02  0.00000000000E+00 0.  1.
</event>
<event>
 8    1  0.7489580E-009  0.9118800E+02  0.7816164E-02  0.1184000E+00
        -11   -1    0    0    0    0  0.00000000000E+00  0.00000000000E+00  0.45593999997E+02  0.45594000000E+02  0.51100000000E-03 0. -1.
         11   -1    0    0    0    0 -0.00000000000E+00 -0.00000000000E+00 -0.45593999997E+02  0.45594000000E+02  0.51100000000E-03 0.  1.
         23    2    1    2    0    0  0.35527136788E-14  0.17763568394E-14 -0.35527136788E-14  0.91188000000E+02  0.91188000000E+02 0.  0.
    9900012    2    3    3    0    0 -0.31712112672E+02 -0.15513457122E+02  0.27978344871E+02  0.46142320699E+02  0.10000026792E+02 0.  0.
        -12    1    3    3    0    0  0.31712112672E+02  0.15513457122E+02 -0.27978344871E+02  0.45045679301E+02  0.00000000000E+00 0.  1.
         11    1    4    4    0    0 -0.11524928181E+01 -0.16550080651E+01  0.15158095472E+01  0.25228892635E+01  0.51100000000E-03 0. -1.
        -11    1    4    4    0    0 -0.89941642920E+01 -0.86185168273E+01  0.10324472560E+02  0.16179263195E+02  0.51100000000E-03 0.  1.
         12    1    4    4    0    0 -0.21565455562E+02 -0.52399322294E+01  0.16138062763E+02  0.27440168241E+02  0.00000000000E+00 0. -1.
</event>
<event>
 8    1  0.7489580E-009  0.9118800E+02  0.7816164E-02  0.1184000E+00
        -11   -1    0    0    0    0  0.00000000000E+00  0.00000000000E+00  0.45593999997E+02  0.45594000000E+02  0.51100000000E-03 0. -1.
         11   -1    0    0    0    0 -0.00000000000E+00 -0.00000000000E+00 -0.45593999997E+02  0.45594000000E+02  0.51100000000E-03 0.  1.
         23    2    1    2    0    0  0.00000000000E+00  0.00000000000E+00  0.00000000000E+00  0.91188000000E+02  0.91188000000E+02 0.  0.
    9900012    2    3    3    0    0 -0.41149714104E+02  0.18137921100E+02  0.26134974692E+01  0.46142317392E+02  0.99999966305E+01 0.  0.
         12    1    3    3    0    0  0.41149714104E+02 -0.18137921100E+02 -0.26134974692E+01  0.45045682608E+02  0.00000000000E+00 0. -1.
         11    1    4    4    0    0 -0.14819107312E+00 -0.21665796420E+00 -0.43499851878E-02  0.26252704831E+00  0.51100000000E-03 0. -1.
        -11    1    4    4    0    0 -0.27973234230E+02  0.14637233155E+02  0.54510298364E+01  0.32038479275E+02  0.51100000000E-03 0.  1.
        -12    1    4    4    0    0 -0.13028288801E+02  0.37173459093E+01 -0.28331823821E+01  0.13841311069E+02  0.00000000000E+00 0.  1.
</event>
<event>
 8    1  0.7489580E-009  0.9118800E+02  0.7816164E-02  0.1184000E+00
        -11   -1    0    0    0    0  0.00000000000E+00  0.00000000000E+00  0.45593999997E+02  0.45594000000E+02  0.51100000000E-03 0.  1.
         11   -1    0    0    0    0 -0.00000000000E+00 -0.00000000000E+00 -0.45593999997E+02  0.45594000000E+02  0.51100000000E-03 0. -1.
         23    2    1    2    0    0  0.00000000000E+00  0.00000000000E+00 -0.11102230246E-15  0.91188000000E+02  0.91188000000E+02 0.  0.
    9900012    2    3    3    0    0 -0.44245000546E+02 -0.84290376551E+01 -0.66688347388E+00  0.46142317825E+02  0.10000000580E+02 0.  0.
         12    1    3    3    0    0  0.44245000546E+02  0.84290376551E+01  0.66688347388E+00  0.45045682175E+02  0.00000000000E+00 0. -1.
         11    1    4    4    0    0 -0.13878299449E+02 -0.87388171512E+00  0.24452040947E+01  0.14119131991E+02  0.51100000000E-03 0. -1.
        -11    1    4    4    0    0 -0.20559598886E+02 -0.58922274030E+01 -0.48375635617E+01  0.21927550515E+02  0.51100000000E-03 0.  1.
        -12    1    4    4    0    0 -0.98071022102E+01 -0.16629285370E+01  0.17254759931E+01  0.10095635318E+02  0.00000000000E+00 0.  1.
</event>
<event>
 8    1  0.7489580E-009  0.9118800E+02  0.7816164E-02  0.1184000E+00
        -11   -1    0    0    0    0  0.00000000000E+00  0.00000000000E+00  0.45593999997E+02  0.45594000000E+02  0.51100000000E-03 0. -1.
         11   -1    0    0    0    0 -0.00000000000E+00 -0.00000000000E+00 -0.45593999997E+02  0.45594000000E+02  0.51100000000E-03 0.  1.
         23    2    1    2    0    0 -0.33306690739E-15  0.00000000000E+00  0.00000000000E+00  0.91188000000E+02  0.91188000000E+02 0.  0.
    9900012    2    3    3    0    0  0.63156444024E+00 -0.38864077421E+01 -0.44873270899E+02  0.46142317855E+02  0.10000000854E+02 0.  0.
         12    1    3    3    0    0 -0.63156444024E+00  0.38864077421E+01  0.44873270899E+02  0.45045682145E+02  0.00000000000E+00 0. -1.
         11    1    4    4    0    0  0.97808776642E+00 -0.12173890111E+01 -0.19894209566E+01  0.25291278511E+01  0.51100000000E-03 0. -1.
        -11    1    4    4    0    0  0.34501723290E+01 -0.14002418922E+01 -0.25756417917E+02  0.26024170124E+02  0.51100000000E-03 0.  1.
        -12    1    4    4    0    0 -0.37966956552E+01 -0.12687768389E+01 -0.17127432025E+02  0.17589019880E+02  0.00000000000E+00 0.  1.
</event>
<event>
 8    1  0.7489580E-009  0.9118800E+02  0.7816164E-02  0.1184000E+00
        -11   -1    0    0    0    0  0.00000000000E+00  0.00000000000E+00  0.45593999997E+02  0.45594000000E+02  0.51100000000E-03 0. -1.
         11   -1    0    0    0    0 -0.00000000000E+00 -0.00000000000E+00 -0.45593999997E+02  0.45594000000E+02  0.51100000000E-03 0.  1.
         23    2    1    2    0    0 -0.71054273576E-14  0.00000000000E+00 -0.17763568394E-14  0.91188000000E+02  0.91188000000E+02 0.  0.
    9900012    2    3    3    0    0 -0.27945889254E+02 -0.32285737434E+02 -0.14344753497E+02  0.46142317401E+02  0.99999967169E+01 0.  0.
         12    1    3    3    0    0  0.27945889254E+02  0.32285737434E+02  0.14344753497E+02  0.45045682599E+02  0.00000000000E+00 0. -1.
         11    1    4    4    0    0 -0.10680985543E+02 -0.12344106391E+02 -0.88900793243E+01  0.18587466891E+02  0.51100000000E-03 0. -1.
        -11    1    4    4    0    0 -0.76788131063E+01 -0.72058028420E+01 -0.48748666124E+01  0.11603968721E+02  0.51100000000E-03 0.  1.
        -12    1    4    4    0    0 -0.95860906047E+01 -0.12735828201E+02 -0.57980756085E+00  0.15950881789E+02  0.00000000000E+00 0.  1.
</event>
<event>
 8    1  0.7489580E-009  0.9118800E+02  0.7816164E-02  0.1184000E+00
        -11   -1    0    0    0    0  0.00000000000E+00  0.00000000000E+00  0.45593999997E+02  0.45594000000E+02  0.51100000000E-03 0. -1.
         11   -1    0    0    0    0 -0.00000000000E+00 -0.00000000000E+00 -0.45593999997E+02  0.45594000000E+02  0.51100000000E-03 0.  1.
         23    2    1    2    0    0  0.00000000000E+00  0.17763568394E-14  0.00000000000E+00  0.91188000000E+02  0.91188000000E+02 0.  0.
    9900012    2    3    3    0    0  0.33825791671E+02 -0.91950925821E+01 -0.28290980974E+02  0.46142317474E+02  0.99999973825E+01 0.  0.
         12    1    3    3    0    0 -0.33825791671E+02  0.91950925821E+01  0.28290980974E+02  0.45045682526E+02  0.00000000000E+00 0. -1.
         11    1    4    4    0    0  0.73556959090E+01 -0.62606224870E+00 -0.60877202176E+01  0.95686234095E+01  0.51100000000E-03 0. -1.
        -11    1    4    4    0    0  0.12141764214E+02 -0.55415329517E+01 -0.57089972282E+01  0.14516324442E+02  0.51100000000E-03 0.  1.
        -12    1    4    4    0    0  0.14328331548E+02 -0.30274973817E+01 -0.16494263528E+02  0.22057369623E+02  0.00000000000E+00 0.  1.
</event>
<event>
 8    1  0.7489580E-009  0.9118800E+02  0.7816164E-02  0.1184000E+00
        -11   -1    0    0    0    0  0.00000000000E+00  0.00000000000E+00  0.45593999997E+02  0.45594000000E+02  0.51100000000E-03 0. -1.
         11   -1    0    0    0    0 -0.00000000000E+00 -0.00000000000E+00 -0.45593999997E+02  0.45594000000E+02  0.51100000000E-03 0.  1.
         23    2    1    2    0    0  0.00000000000E+00  0.00000000000E+00  0.00000000000E+00  0.91188000000E+02  0.91188000000E+02 0.  0.
    9900012    2    3    3    0    0 -0.26433355264E+02  0.16835527270E+02 -0.32356701795E+02  0.46142318741E+02  0.10000008939E+02 0.  0.
         12    1    3    3    0    0  0.26433355264E+02 -0.16835527270E+02  0.32356701795E+02  0.45045681259E+02  0.00000000000E+00 0. -1.
         11    1    4    4    0    0 -0.48882018082E+01  0.43639795054E+01 -0.30877312464E+01  0.72438193346E+01  0.51100000000E-03 0. -1.
        -11    1    4    4    0    0 -0.10100750384E+02  0.42026121283E+01 -0.88404956895E+01  0.14065613080E+02  0.51100000000E-03 0.  1.
        -12    1    4    4    0    0 -0.11444403072E+02  0.82689356365E+01 -0.20428474860E+02  0.24832886327E+02  0.00000000000E+00 0.  1.
</event>
<event>
 8    1  0.7489580E-009  0.9118800E+02  0.7816164E-02  0.1184000E+00
        -11   -1    0    0    0    0  0.00000000000E+00  0.00000000000E+00  0.45593999997E+02  0.45594000000E+02  0.51100000000E-03 0. -1.
         11   -1    0    0    0    0 -0.00000000000E+00 -0.00000000000E+00 -0.45593999997E+02  0.45594000000E+02  0.51100000000E-03 0.  1.
         23    2    1    2    0    0  0.00000000000E+00  0.44408920985E-15  0.35527136788E-14  0.91188000000E+02  0.91188000000E+02 0.  0.
    9900012    2    3    3    0    0 -0.36052599033E+02 -0.26708387773E+01 -0.26873597773E+02  0.46142317254E+02  0.99999953724E+01 0.  0.
         12    1    3    3    0    0  0.36052599033E+02  0.26708387773E+01  0.26873597773E+02  0.45045682746E+02  0.00000000000E+00 0. -1.
         11    1    4    4    0    0 -0.20148496431E+01  0.13872571835E+01 -0.23323192170E+01  0.33799134262E+01  0.51100000000E-03 0. -1.
        -11    1    4    4    0    0 -0.93881249728E+01 -0.11803762363E+01 -0.10934033450E+02  0.14459711833E+02  0.51100000000E-03 0.  1.
        -12    1    4    4    0    0 -0.24649624417E+02 -0.28777197245E+01 -0.13607245106E+02  0.28302691994E+02  0.00000000000E+00 0.  1.
</event>
<event>
 8    1  0.7489580E-009  0.9118800E+02  0.7816164E-02  0.1184000E+00
        -11   -1    0    0    0    0  0.00000000000E+00  0.00000000000E+00  0.45593999997E+02  0.45594000000E+02  0.51100000000E-03 0.  1.
         11   -1    0    0    0    0 -0.00000000000E+00 -0.00000000000E+00 -0.45593999997E+02  0.45594000000E+02  0.51100000000E-03 0. -1.
         23    2    1    2    0    0 -0.44408920985E-15 -0.71054273576E-14  0.00000000000E+00  0.91188000000E+02  0.91188000000E+02 0.  0.
    9900012    2    3    3    0    0  0.77693993565E+00  0.41297785548E+02  0.17972277263E+02  0.46142317889E+02  0.10000001163E+02 0.  0.
        -12    1    3    3    0    0 -0.77693993565E+00 -0.41297785548E+02 -0.17972277263E+02  0.45045682111E+02  0.00000000000E+00 0.  1.
         11    1    4    4    0    0 -0.65977194736E+00  0.52557130528E+01 -0.61520529122E+00  0.53325694114E+01  0.51100000000E-03 0. -1.
        -11    1    4    4    0    0 -0.15594796528E+01  0.11835153328E+02  0.63039780231E+01  0.13499739636E+02  0.51100000000E-03 0.  1.
         12    1    4    4    0    0  0.29961915358E+01  0.24206919168E+02  0.12283504531E+02  0.27310008841E+02  0.00000000000E+00 0. -1.
</event>
<event>
 8    1  0.7489580E-009  0.9118800E+02  0.7816164E-02  0.1184000E+00
        -11   -1    0    0    0    0  0.00000000000E+00  0.00000000000E+00  0.45593999997E+02  0.45594000000E+02  0.51100000000E-03 0. -1.
         11   -1    0    0    0    0 -0.00000000000E+00 -0.00000000000E+00 -0.45593999997E+02  0.45594000000E+02  0.51100000000E-03 0.  1.
         23    2    1    2    0    0  0.00000000000E+00  0.00000000000E+00  0.00000000000E+00  0.91188000000E+02  0.91188000000E+02 0.  0.
    9900012    2    3    3    0    0 -0.36591455573E+02  0.23600797432E+02  0.11540409919E+02  0.46142319613E+02  0.10000016890E+02 0.  0.
        -12    1    3    3    0    0  0.36591455573E+02 -0.23600797432E+02 -0.11540409919E+02  0.45045680387E+02  0.00000000000E+00 0.  1.
         11    1    4    4    0    0 -0.19346468637E+02  0.11773943880E+02  0.95279060608E+01  0.24570156641E+02  0.51100000000E-03 0. -1.
        -11    1    4    4    0    0 -0.10642260539E+00  0.28666760882E+00 -0.67054381405E+00  0.73697581817E+00  0.51100000000E-03 0.  1.
         12    1    4    4    0    0 -0.17138564331E+02  0.11540185943E+02  0.26830476725E+01  0.20835187154E+02  0.00000000000E+00 0. -1.
</event>
<event>
 8    1  0.7489580E-009  0.9118800E+02  0.7816164E-02  0.1184000E+00
        -11   -1    0    0    0    0  0.00000000000E+00  0.00000000000E+00  0.45593999997E+02  0.45594000000E+02  0.51100000000E-03 0. -1.
         11   -1    0    0    0    0 -0.00000000000E+00 -0.00000000000E+00 -0.45593999997E+02  0.45594000000E+02  0.51100000000E-03 0.  1.
         23    2    1    2    0    0  0.00000000000E+00  0.00000000000E+00  0.00000000000E+00  0.91188000000E+02  0.91188000000E+02 0.  0.
    9900012    2    3    3    0    0 -0.33796395759E+02 -0.88974055681E+01 -0.28421001150E+02  0.46142317649E+02  0.99999989776E+01 0.  0.
         12    1    3    3    0    0  0.33796395759E+02  0.88974055681E+01  0.28421001150E+02  0.45045682351E+02  0.00000000000E+00 0. -1.
         11    1    4    4    0    0  0.18459669717E+00  0.16383501781E+00  0.13316468843E+00  0.28044776525E+00  0.51100000000E-03 0. -1.
        -11    1    4    4    0    0 -0.20445733017E+02 -0.71901285333E+01 -0.13511932674E+02  0.25540130614E+02  0.51100000000E-03 0.  1.
        -12    1    4    4    0    0 -0.13535259439E+02 -0.18711120526E+01 -0.15042233164E+02  0.20321739270E+02  0.00000000000E+00 0.  1.
</event>
<event>
 8    1  0.7489580E-009  0.9118800E+02  0.7816164E-02  0.1184000E+00
        -11   -1    0    0    0    0  0.00000000000E+00  0.00000000000E+00  0.45593999997E+02  0.45594000000E+02  0.51100000000E-03 0.  1.
         11   -1    0    0    0    0 -0.00000000000E+00 -0.00000000000E+00 -0.45593999997E+02  0.45594000000E+02  0.51100000000E-03 0. -1.
         23    2    1    2    0    0  0.00000000000E+00  0.00000000000E+00 -0.44408920985E-15  0.91188000000E+02  0.91188000000E+02 0.  0.
    9900012    2    3    3    0    0  0.85908590704E+01 -0.44046561647E+02  0.39001068907E+01  0.46142320005E+02  0.10000020462E+02 0.  0.
        -12    1    3    3    0    0 -0.85908590704E+01  0.44046561647E+02 -0.39001068907E+01  0.45045679995E+02  0.00000000000E+00 0.  1.
         11    1    4    4    0    0  0.27913003318E+01 -0.11556286175E+02  0.20574030427E+01  0.12065322840E+02  0.51100000000E-03 0. -1.
        -11    1    4    4    0    0  0.59547184972E+01 -0.30131760364E+02 -0.54213232665E+00  0.30719302771E+02  0.51100000000E-03 0.  1.
        -12    1    4    4    0    0 -0.15515975857E+00 -0.23585151083E+01  0.23848361747E+01  0.33576943945E+01  0.00000000000E+00 0.  1.
</event>
<event>
 8    1  0.7489580E-009  0.9118800E+02  0.7816164E-02  0.1184000E+00
        -11   -1    0    0    0    0  0.00000000000E+00  0.00000000000E+00  0.45593999997E+02  0.45594000000E+02  0.51100000000E-03 0. -1.
         11   -1    0    0    0    0 -0.00000000000E+00 -0.00000000000E+00 -0.45593999997E+02  0.45594000000E+02  0.51100000000E-03 0.  1.
         23    2    1    2    0    0 -0.88817841970E-15 -0.35527136788E-14  0.71054273576E-14  0.91188000000E+02  0.91188000000E+02 0.  0.
    9900012    2    3    3    0    0  0.79211379002E+01  0.25536801348E+02 -0.36252459441E+02  0.46142318029E+02  0.10000002439E+02 0.  0.
         12    1    3    3    0    0 -0.79211379002E+01 -0.25536801348E+02  0.36252459441E+02  0.45045681971E+02  0.00000000000E+00 0. -1.
         11    1    4    4    0    0 -0.18676190182E+01  0.45046383520E+01 -0.58567800065E+01  0.76211311355E+01  0.51100000000E-03 0. -1.
        -11    1    4    4    0    0  0.20491176801E+01  0.11992684125E+01 -0.30073301253E+01  0.38316005449E+01  0.51100000000E-03 0.  1.
        -12    1    4    4    0    0  0.77396392383E+01  0.19832894584E+02 -0.27388349310E+02  0.34689586348E+02  0.00000000000E+00 0.  1.
</event>
<event>
 8    1  0.7489580E-009  0.9118800E+02  0.7816164E-02  0.1184000E+00
        -11   -1    0    0    0    0  0.00000000000E+00  0.00000000000E+00  0.45593999997E+02  0.45594000000E+02  0.51100000000E-03 0. -1.
         11   -1    0    0    0    0 -0.00000000000E+00 -0.00000000000E+00 -0.45593999997E+02  0.45594000000E+02  0.51100000000E-03 0.  1.
         23    2    1    2    0    0 -0.35527136788E-14  0.00000000000E+00  0.00000000000E+00  0.91188000000E+02  0.91188000000E+02 0.  0.
    9900012    2    3    3    0    0  0.28228614530E+02 -0.28027220556E+02  0.21136085765E+02  0.46142313283E+02  0.99999591620E+01 0.  0.
        -12    1    3    3    0    0 -0.28228614530E+02  0.28027220556E+02 -0.21136085765E+02  0.45045686717E+02  0.00000000000E+00 0.  1.
         11    1    4    4    0    0  0.37186297520E+01 -0.47817329635E+01  0.41233252014E+01  0.73276864251E+01  0.51100000000E-03 0. -1.
        -11    1    4    4    0    0  0.24422048690E+02 -0.23065023042E+02  0.14995125669E+02  0.36787029565E+02  0.51100000000E-03 0.  1.
        -12    1    4    4    0    0  0.87936087313E-01 -0.18046455043E+00  0.20176348950E+01  0.20275972921E+01  0.00000000000E+00 0.  1.
</event>
<event>
 8    1  0.7489580E-009  0.9118800E+02  0.7816164E-02  0.1184000E+00
        -11   -1    0    0    0    0  0.00000000000E+00  0.00000000000E+00  0.45593999997E+02  0.45594000000E+02  0.51100000000E-03 0. -1.
         11   -1    0    0    0    0 -0.00000000000E+00 -0.00000000000E+00 -0.45593999997E+02  0.45594000000E+02  0.51100000000E-03 0.  1.
         23    2    1    2    0    0  0.00000000000E+00  0.00000000000E+00  0.00000000000E+00  0.91188000000E+02  0.91188000000E+02 0.  0.
    9900012    2    3    3    0    0 -0.82386429132E+01  0.26072961739E+02  0.35797193607E+02  0.46142316067E+02  0.99999845482E+01 0.  0.
        -12    1    3    3    0    0  0.82386429132E+01 -0.26072961739E+02 -0.35797193607E+02  0.45045683933E+02  0.00000000000E+00 0.  1.
         11    1    4    4    0    0 -0.25989659698E+01  0.72735863125E+01  0.15127665032E+02  0.16985462359E+02  0.51100000000E-03 0. -1.
        -11    1    4    4    0    0  0.96463706771E+00  0.63218582084E+01  0.74216374698E+01  0.97967912539E+01  0.51100000000E-03 0.  1.
         12    1    4    4    0    0 -0.66043140111E+01  0.12477517219E+02  0.13247891105E+02  0.19360062454E+02  0.00000000000E+00 0. -1.
</event>
<event>
 8    1  0.7489580E-009  0.9118800E+02  0.7816164E-02  0.1184000E+00
        -11   -1    0    0    0    0  0.00000000000E+00  0.00000000000E+00  0.45593999997E+02  0.45594000000E+02  0.51100000000E-03 0. -1.
         11   -1    0    0    0    0 -0.00000000000E+00 -0.00000000000E+00 -0.45593999997E+02  0.45594000000E+02  0.51100000000E-03 0.  1.
         23    2    1    2    0    0  0.71054273576E-14  0.00000000000E+00  0.00000000000E+00  0.91188000000E+02  0.91188000000E+02 0.  0.
    9900012    2    3    3    0    0  0.44131229936E+02 -0.70207983315E+00  0.90030732128E+01  0.46142315423E+02  0.99999786778E+01 0.  0.
        -12    1    3    3    0    0 -0.44131229936E+02  0.70207983315E+00 -0.90030732128E+01  0.45045684577E+02  0.00000000000E+00 0.  1.
         11    1    4    4    0    0  0.51831350688E+00 -0.33529686794E+00 -0.75843732959E+00  0.97790609217E+00  0.51100000000E-03 0. -1.
        -11    1    4    4    0    0  0.45541567489E+01 -0.64439557090E-01  0.31774809920E+01  0.55534567492E+01  0.51100000000E-03 0.  1.
         12    1    4    4    0    0  0.39058759680E+02 -0.30234340812E+00  0.65840295504E+01  0.39610952581E+02  0.00000000000E+00 0. -1.
</event>
<event>
 8    1  0.7489580E-009  0.9118800E+02  0.7816164E-02  0.1184000E+00
        -11   -1    0    0    0    0  0.00000000000E+00  0.00000000000E+00  0.45593999997E+02  0.45594000000E+02  0.51100000000E-03 0.  1.
         11   -1    0    0    0    0 -0.00000000000E+00 -0.00000000000E+00 -0.45593999997E+02  0.45594000000E+02  0.51100000000E-03 0. -1.
         23    2    1    2    0    0  0.35527136788E-14  0.00000000000E+00 -0.27755575616E-15  0.91188000000E+02  0.91188000000E+02 0.  0.
    9900012    2    3    3    0    0  0.23312787710E+02  0.38542429870E+02 -0.32964578295E+00  0.46142316107E+02  0.99999849141E+01 0.  0.
        -12    1    3    3    0    0 -0.23312787710E+02 -0.38542429870E+02  0.32964578295E+00  0.45045683893E+02  0.00000000000E+00 0.  1.
         11    1    4    4    0    0  0.14773652743E+02  0.20283021824E+02 -0.23418926403E+01  0.25202108068E+02  0.51100000000E-03 0. -1.
        -11    1    4    4    0    0  0.62542373169E+01  0.10286334144E+02 -0.10838992112E+01  0.12087141610E+02  0.51100000000E-03 0.  1.
        -12    1    4    4    0    0  0.22848976505E+01  0.79730739014E+01  0.30961460686E+01  0.88530664286E+01  0.00000000000E+00 0.  1.
</event>
<event>
 8    1  0.7489580E-009  0.9118800E+02  0.7816164E-02  0.1184000E+00
        -11   -1    0    0    0    0  0.00000000000E+00  0.00000000000E+00  0.45593999997E+02  0.45594000000E+02  0.51100000000E-03 0. -1.
         11   -1    0    0    0    0 -0.00000000000E+00 -0.00000000000E+00 -0.45593999997E+02  0.45594000000E+02  0.51100000000E-03 0.  1.
         23    2    1    2    0    0  0.35527136788E-14  0.00000000000E+00  0.00000000000E+00  0.91188000000E+02  0.91188000000E+02 0.  0.
    9900012    2    3    3    0    0  0.29640605218E+02  0.39504559349E+01 -0.33688899497E+02  0.46142317309E+02  0.99999958766E+01 0.  0.
         12    1    3    3    0    0 -0.29640605218E+02 -0.39504559349E+01  0.33688899497E+02  0.45045682691E+02  0.00000000000E+00 0. -1.
         11    1    4    4    0    0  0.16083064686E+01 -0.56687723346E+00 -0.30934025525E+01  0.35322994080E+01  0.51100000000E-03 0. -1.
        -11    1    4    4    0    0  0.19482956032E+01 -0.97808255376E+00 -0.58310084668E+01  0.62252037108E+01  0.51100000000E-03 0.  1.
        -12    1    4    4    0    0  0.26084003146E+02  0.54954157221E+01 -0.24764488478E+02  0.36384814190E+02  0.00000000000E+00 0.  1.
</event>
<event>
 8    1  0.7489580E-009  0.9118800E+02  0.7816164E-02  0.1184000E+00
        -11   -1    0    0    0    0  0.00000000000E+00  0.00000000000E+00  0.45593999997E+02  0.45594000000E+02  0.51100000000E-03 0.  1.
         11   -1    0    0    0    0 -0.00000000000E+00 -0.00000000000E+00 -0.45593999997E+02  0.45594000000E+02  0.51100000000E-03 0. -1.
         23    2    1    2    0    0  0.00000000000E+00 -0.71054273576E-14 -0.35527136788E-14  0.91188000000E+02  0.91188000000E+02 0.  0.
    9900012    2    3    3    0    0  0.13200212878E+02  0.39100497829E+02  0.18055994163E+02  0.46142317901E+02  0.10000001278E+02 0.  0.
        -12    1    3    3    0    0 -0.13200212878E+02 -0.39100497829E+02 -0.18055994163E+02  0.45045682099E+02  0.00000000000E+00 0.  1.
         11    1    4    4    0    0  0.57276847740E+01  0.25720893150E+02  0.92094103130E+01  0.27913866731E+02  0.51100000000E-03 0. -1.
        -11    1    4    4    0    0  0.34704935283E+01  0.36059290712E+01  0.47515567595E+01  0.69010391751E+01  0.51100000000E-03 0.  1.
        -12    1    4    4    0    0  0.40020345752E+01  0.97736756081E+01  0.40950270905E+01  0.11327411995E+02  0.00000000000E+00 0.  1.
</event>
<event>
 8    1  0.1121834E-008  0.9118800E+02  0.7816164E-02  0.1184000E+00
        -11   -1    0    0    0    0  0.00000000000E+00  0.00000000000E+00  0.45593999997E+02  0.45594000000E+02  0.51100000000E-03 0. -1.
         11   -1    0    0    0    0 -0.00000000000E+00 -0.00000000000E+00 -0.45593999997E+02  0.45594000000E+02  0.51100000000E-03 0.  1.
         23    2    1    2    0    0 -0.17763568394E-14  0.00000000000E+00  0.00000000000E+00  0.91188000000E+02  0.91188000000E+02 0.  0.
    9900012    2    3    3    0    0 -0.15698339087E+02 -0.13790812771E+02 -0.39906003488E+02  0.46142317839E+02  0.10000000708E+02 0.  0.
         12    1    3    3    0    0  0.15698339087E+02  0.13790812771E+02  0.39906003488E+02  0.45045682161E+02  0.00000000000E+00 0. -1.
         11    1    4    4    0    0 -0.14605414744E+01 -0.17171929346E+01 -0.83753789397E+01  0.86734598413E+01  0.51100000000E-03 0. -1.
        -11    1    4    4    0    0 -0.34719311462E+01 -0.57061185455E+01 -0.17177611541E+02  0.18430529923E+02  0.51100000000E-03 0.  1.
         12    1    4    4    0    0 -0.10765866467E+02 -0.63675012911E+01 -0.14353013007E+02  0.19038328074E+02  0.00000000000E+00 0. -1.
</event>
<event>
 8    1  0.7489580E-009  0.9118800E+02  0.7816164E-02  0.1184000E+00
        -11   -1    0    0    0    0  0.00000000000E+00  0.00000000000E+00  0.45593999997E+02  0.45594000000E+02  0.51100000000E-03 0. -1.
         11   -1    0    0    0    0 -0.00000000000E+00 -0.00000000000E+00 -0.45593999997E+02  0.45594000000E+02  0.51100000000E-03 0.  1.
         23    2    1    2    0    0  0.00000000000E+00  0.35527136788E-14  0.00000000000E+00  0.91188000000E+02  0.91188000000E+02 0.  0.
    9900012    2    3    3    0    0 -0.20240136640E+02 -0.27681572078E+02  0.29209268092E+02  0.46142313121E+02  0.99999576861E+01 0.  0.
        -12    1    3    3    0    0  0.20240136640E+02  0.27681572078E+02 -0.29209268092E+02  0.45045686879E+02  0.00000000000E+00 0.  1.
         11    1    4    4    0    0 -0.88659141049E+01 -0.92036908572E+01  0.15349193045E+02  0.19972733556E+02  0.51100000000E-03 0. -1.
        -11    1    4    4    0    0 -0.22332383761E+01 -0.26961343723E+01  0.44470993736E+00  0.35290595613E+01  0.51100000000E-03 0.  1.
         12    1    4    4    0    0 -0.91409841587E+01 -0.15781746849E+02  0.13415365111E+02  0.22640520004E+02  0.00000000000E+00 0. -1.
</event>
<event>
 8    1  0.7489580E-009  0.9118800E+02  0.7816164E-02  0.1184000E+00
        -11   -1    0    0    0    0  0.00000000000E+00  0.00000000000E+00  0.45593999997E+02  0.45594000000E+02  0.51100000000E-03 0. -1.
         11   -1    0    0    0    0 -0.00000000000E+00 -0.00000000000E+00 -0.45593999997E+02  0.45594000000E+02  0.51100000000E-03 0.  1.
         23    2    1    2    0    0  0.00000000000E+00  0.00000000000E+00  0.00000000000E+00  0.91188000000E+02  0.91188000000E+02 0.  0.
    9900012    2    3    3    0    0  0.19250328289E+02 -0.11417041896E+02 -0.39092065315E+02  0.46142317016E+02  0.99999932067E+01 0.  0.
         12    1    3    3    0    0 -0.19250328289E+02  0.11417041896E+02  0.39092065315E+02  0.45045682984E+02  0.00000000000E+00 0. -1.
         11    1    4    4    0    0  0.90229794940E+01 -0.39929224040E+01 -0.12792624857E+02  0.16155767987E+02  0.51100000000E-03 0.  1.
        -11    1    4    4    0    0  0.55428153809E+01 -0.77434849339E+01 -0.19771982584E+02  0.21945743479E+02  0.51100000000E-03 0. -1.
        -12    1    4    4    0    0  0.46845334138E+01  0.31936544227E+00 -0.65274578742E+01  0.80408055498E+01  0.00000000000E+00 0.  1.
</event>
<event>
 8    1  0.7489580E-009  0.9118800E+02  0.7816164E-02  0.1184000E+00
        -11   -1    0    0    0    0  0.00000000000E+00  0.00000000000E+00  0.45593999997E+02  0.45594000000E+02  0.51100000000E-03 0. -1.
         11   -1    0    0    0    0 -0.00000000000E+00 -0.00000000000E+00 -0.45593999997E+02  0.45594000000E+02  0.51100000000E-03 0.  1.
         23    2    1    2    0    0  0.00000000000E+00  0.35527136788E-14  0.00000000000E+00  0.91188000000E+02  0.91188000000E+02 0.  0.
    9900012    2    3    3    0    0  0.38649678824E+02 -0.22137917008E+02  0.67252135546E+01  0.46142317188E+02  0.99999947711E+01 0.  0.
         12    1    3    3    0    0 -0.38649678824E+02  0.22137917008E+02 -0.67252135546E+01  0.45045682812E+02  0.00000000000E+00 0. -1.
         11    1    4    4    0    0  0.25627578536E+01 -0.40243024472E+01  0.94422443606E+00  0.48635684481E+01  0.51100000000E-03 0. -1.
        -11    1    4    4    0    0  0.16900260175E+02 -0.87716285254E+01 -0.45402882458E+00  0.19046427576E+02  0.51100000000E-03 0.  1.
        -12    1    4    4    0    0  0.19186660796E+02 -0.93419860356E+01  0.62350179431E+01  0.22232321164E+02  0.00000000000E+00 0.  1.
</event>
<event>
 8    1  0.9646257E-009  0.9118800E+02  0.7816164E-02  0.1184000E+00
        -11   -1    0    0    0    0  0.00000000000E+00  0.00000000000E+00  0.45593999997E+02  0.45594000000E+02  0.51100000000E-03 0. -1.
         11   -1    0    0    0    0 -0.00000000000E+00 -0.00000000000E+00 -0.45593999997E+02  0.45594000000E+02  0.51100000000E-03 0.  1.
         23    2    1    2    0    0  0.35527136788E-14  0.00000000000E+00  0.00000000000E+00  0.91188000000E+02  0.91188000000E+02 0.  0.
    9900012    2    3    3    0    0  0.27838559826E+02 -0.18225412880E+02 -0.30363834026E+02  0.46142317581E+02  0.99999983545E+01 0.  0.
         12    1    3    3    0    0 -0.27838559826E+02  0.18225412880E+02  0.30363834026E+02  0.45045682419E+02  0.00000000000E+00 0. -1.
         11    1    4    4    0    0  0.81964749971E+01 -0.48785900623E+01 -0.89429641519E+01  0.13075146326E+02  0.51100000000E-03 0. -1.
        -11    1    4    4    0    0  0.15338089962E+02 -0.67957301934E+01 -0.17711263483E+02  0.24395241482E+02  0.51100000000E-03 0.  1.
         12    1    4    4    0    0  0.43039948677E+01 -0.65510926248E+01 -0.37096063907E+01  0.86719297722E+01  0.00000000000E+00 0. -1.
</event>
<event>
 8    1  0.7489580E-009  0.9118800E+02  0.7816164E-02  0.1184000E+00
        -11   -1    0    0    0    0  0.00000000000E+00  0.00000000000E+00  0.45593999997E+02  0.45594000000E+02  0.51100000000E-03 0. -1.
         11   -1    0    0    0    0 -0.00000000000E+00 -0.00000000000E+00 -0.45593999997E+02  0.45594000000E+02  0.51100000000E-03 0.  1.
         23    2    1    2    0    0  0.00000000000E+00  0.00000000000E+00  0.00000000000E+00  0.91188000000E+02  0.91188000000E+02 0.  0.
    9900012    2    3    3    0    0  0.11336047859E+02 -0.41954066134E+02  0.11851744212E+02  0.46142317775E+02  0.10000000129E+02 0.  0.
        -12    1    3    3    0    0 -0.11336047859E+02  0.41954066134E+02 -0.11851744212E+02  0.45045682225E+02  0.00000000000E+00 0.  1.
         11    1    4    4    0    0  0.50852017046E+00 -0.84076079810E+01  0.57581202483E+00  0.84426313715E+01  0.51100000000E-03 0. -1.
        -11    1    4    4    0    0 -0.92083579404E+00 -0.11220000105E+01  0.79527838963E+00  0.16550802280E+01  0.51100000000E-03 0.  1.
         12    1    4    4    0    0  0.11748363482E+02 -0.32424458142E+02  0.10480653797E+02  0.36044606176E+02  0.00000000000E+00 0. -1.
</event>
<event>
 8    1  0.7489580E-009  0.9118800E+02  0.7816164E-02  0.1184000E+00
        -11   -1    0    0    0    0  0.00000000000E+00  0.00000000000E+00  0.45593999997E+02  0.45594000000E+02  0.51100000000E-03 0. -1.
         11   -1    0    0    0    0 -0.00000000000E+00 -0.00000000000E+00 -0.45593999997E+02  0.45594000000E+02  0.51100000000E-03 0.  1.
         23    2    1    2    0    0  0.71054273576E-14  0.00000000000E+00  0.35527136788E-14  0.91188000000E+02  0.91188000000E+02 0.  0.
    9900012    2    3    3    0    0  0.39830138712E+02  0.72813786921E+01  0.19739679434E+02  0.46142319079E+02  0.10000012021E+02 0.  0.
        -12    1    3    3    0    0 -0.39830138712E+02 -0.72813786921E+01 -0.19739679434E+02  0.45045680921E+02  0.00000000000E+00 0.  1.
         11    1    4    4    0    0  0.10940413133E+02  0.28690032771E+00  0.22179005693E+01  0.11166648311E+02  0.51100000000E-03 0. -1.
        -11    1    4    4    0    0  0.26305732113E+02  0.48051199107E+01  0.14410357373E+02  0.30376621261E+02  0.51100000000E-03 0.  1.
        -12    1    4    4    0    0  0.25839934661E+01  0.21893584537E+01  0.31114214912E+01  0.45990495070E+01  0.00000000000E+00 0.  1.
</event>
<event>
 8    1  0.7489580E-009  0.9118800E+02  0.7816164E-02  0.1184000E+00
        -11   -1    0    0    0    0  0.00000000000E+00  0.00000000000E+00  0.45593999997E+02  0.45594000000E+02  0.51100000000E-03 0. -1.
         11   -1    0    0    0    0 -0.00000000000E+00 -0.00000000000E+00 -0.45593999997E+02  0.45594000000E+02  0.51100000000E-03 0.  1.
         23    2    1    2    0    0  0.00000000000E+00  0.23245294578E-15 -0.71054273576E-14  0.91188000000E+02  0.91188000000E+02 0.  0.
    9900012    2    3    3    0    0  0.21102916592E+02 -0.22884167026E-01  0.39796731567E+02  0.46142318123E+02  0.10000003298E+02 0.  0.
        -12    1    3    3    0    0 -0.21102916592E+02  0.22884167026E-01 -0.39796731567E+02  0.45045681877E+02  0.00000000000E+00 0.  1.
         11    1    4    4    0    0  0.20514523406E+01 -0.11924622512E+01  0.88113201244E+01  0.91252279710E+01  0.51100000000E-03 0. -1.
        -11    1    4    4    0    0  0.47021120412E+01  0.29662985407E+01  0.11268311294E+02  0.12565175063E+02  0.51100000000E-03 0.  1.
        -12    1    4    4    0    0  0.14349352211E+02 -0.17967204565E+01  0.19717100148E+02  0.24451915089E+02  0.00000000000E+00 0.  1.
</event>
<event>
 8    1  0.7489580E-009  0.9118800E+02  0.7816164E-02  0.1184000E+00
        -11   -1    0    0    0    0  0.00000000000E+00  0.00000000000E+00  0.45593999997E+02  0.45594000000E+02  0.51100000000E-03 0. -1.
         11   -1    0    0    0    0 -0.00000000000E+00 -0.00000000000E+00 -0.45593999997E+02  0.45594000000E+02  0.51100000000E-03 0.  1.
         23    2    1    2    0    0 -0.17763568394E-14  0.00000000000E+00 -0.71054273576E-14  0.91188000000E+02  0.91188000000E+02 0.  0.
    9900012    2    3    3    0    0 -0.15671677173E+02  0.93972597461E+01  0.41172849546E+02  0.46142317678E+02  0.99999992390E+01 0.  0.
        -12    1    3    3    0    0  0.15671677173E+02 -0.93972597461E+01 -0.41172849546E+02  0.45045682322E+02  0.00000000000E+00 0.  1.
         11    1    4    4    0    0 -0.21979727607E+01  0.85010895473E+00  0.11021415586E+02  0.11270553281E+02  0.51100000000E-03 0. -1.
        -11    1    4    4    0    0 -0.85755079460E+01  0.14367574957E+01  0.17689549285E+02  0.19711006134E+02  0.51100000000E-03 0.  1.
         12    1    4    4    0    0 -0.48981964666E+01  0.71103932957E+01  0.12461884675E+02  0.15160758263E+02  0.00000000000E+00 0. -1.
</event>
<event>
 8    1  0.7489580E-009  0.9118800E+02  0.7816164E-02  0.1184000E+00
        -11   -1    0    0    0    0  0.00000000000E+00  0.00000000000E+00  0.45593999997E+02  0.45594000000E+02  0.51100000000E-03 0. -1.
         11   -1    0    0    0    0 -0.00000000000E+00 -0.00000000000E+00 -0.45593999997E+02  0.45594000000E+02  0.51100000000E-03 0.  1.
         23    2    1    2    0    0  0.00000000000E+00  0.00000000000E+00  0.35527136788E-14  0.91188000000E+02  0.91188000000E+02 0.  0.
    9900012    2    3    3    0    0  0.32638194828E+02 -0.22049527398E+02  0.21855893943E+02  0.46142317408E+02  0.99999967801E+01 0.  0.
        -12    1    3    3    0    0 -0.32638194828E+02  0.22049527398E+02 -0.21855893943E+02  0.45045682592E+02  0.00000000000E+00 0.  1.
         11    1    4    4    0    0  0.33914392834E+01 -0.46289305636E+01  0.16499252566E+00  0.57407387477E+01  0.51100000000E-03 0. -1.
        -11    1    4    4    0    0  0.13726170931E+02 -0.72454979586E+01  0.95218952889E+01  0.18209104845E+02  0.51100000000E-03 0.  1.
         12    1    4    4    0    0  0.15520584614E+02 -0.10175098875E+02  0.12169006129E+02  0.22192473815E+02  0.00000000000E+00 0. -1.
</event>
<event>
 8    1  0.7489580E-009  0.9118800E+02  0.7816164E-02  0.1184000E+00
        -11   -1    0    0    0    0  0.00000000000E+00  0.00000000000E+00  0.45593999997E+02  0.45594000000E+02  0.51100000000E-03 0. -1.
         11   -1    0    0    0    0 -0.00000000000E+00 -0.00000000000E+00 -0.45593999997E+02  0.45594000000E+02  0.51100000000E-03 0.  1.
         23    2    1    2    0    0 -0.35527136788E-14  0.00000000000E+00  0.00000000000E+00  0.91188000000E+02  0.91188000000E+02 0.  0.
    9900012    2    3    3    0    0  0.23662165631E+02 -0.24394677985E+02  0.29565436356E+02  0.46142318483E+02  0.10000006587E+02 0.  0.
        -12    1    3    3    0    0 -0.23662165631E+02  0.24394677985E+02 -0.29565436356E+02  0.45045681517E+02  0.00000000000E+00 0.  1.
         11    1    4    4    0    0  0.26850218380E+01 -0.34592145490E+01  0.89263546248E+00  0.44690385875E+01  0.51100000000E-03 0. -1.
        -11    1    4    4    0    0  0.21332400467E+01 -0.53564651577E+01  0.61617826867E+01  0.84386016745E+01  0.51100000000E-03 0.  1.
         12    1    4    4    0    0  0.18843903747E+02 -0.15578998278E+02  0.22511018207E+02  0.33234678221E+02  0.00000000000E+00 0. -1.
</event>
<event>
 8    1  0.7489580E-009  0.9118800E+02  0.7816164E-02  0.1184000E+00
        -11   -1    0    0    0    0  0.00000000000E+00  0.00000000000E+00  0.45593999997E+02  0.45594000000E+02  0.51100000000E-03 0. -1.
         11   -1    0    0    0    0 -0.00000000000E+00 -0.00000000000E+00 -0.45593999997E+02  0.45594000000E+02  0.51100000000E-03 0.  1.
         23    2    1    2    0    0  0.00000000000E+00  0.00000000000E+00  0.00000000000E+00  0.91188000000E+02  0.91188000000E+02 0.  0.
    9900012    2    3    3    0    0 -0.21442252398E+02  0.35824334107E+02 -0.16910361588E+02  0.46142318396E+02  0.10000005789E+02 0.  0.
         12    1    3    3    0    0  0.21442252398E+02 -0.35824334107E+02  0.16910361588E+02  0.45045681604E+02  0.00000000000E+00 0. -1.
         11    1    4    4    0    0 -0.40577103549E+01  0.73350377326E+01 -0.66004290862E+01  0.10669276276E+02  0.51100000000E-03 0. -1.
        -11    1    4    4    0    0 -0.62608040573E+00  0.62950297762E+00  0.71804185473E+00  0.11418559627E+01  0.51100000000E-03 0.  1.
        -12    1    4    4    0    0 -0.16758461637E+02  0.27859793397E+02 -0.11027974357E+02  0.34331186158E+02  0.00000000000E+00 0.  1.
</event>
<event>
 8    1  0.7489580E-009  0.9118800E+02  0.7816164E-02  0.1184000E+00
        -11   -1    0    0    0    0  0.00000000000E+00  0.00000000000E+00  0.45593999997E+02  0.45594000000E+02  0.51100000000E-03 0. -1.
         11   -1    0    0    0    0 -0.00000000000E+00 -0.00000000000E+00 -0.45593999997E+02  0.45594000000E+02  0.51100000000E-03 0.  1.
         23    2    1    2    0    0  0.35527136788E-14  0.71054273576E-14 -0.44408920985E-15  0.91188000000E+02  0.91188000000E+02 0.  0.
    9900012    2    3    3    0    0  0.19768332296E+02  0.40373357026E+02 -0.28841180462E+01  0.46142322558E+02  0.10000043745E+02 0.  0.
         12    1    3    3    0    0 -0.19768332296E+02 -0.40373357026E+02  0.28841180462E+01  0.45045677442E+02  0.00000000000E+00 0. -1.
         11    1    4    4    0    0  0.10942491897E+01  0.17018834170E+00 -0.60695157853E+00  0.12628285080E+01  0.51100000000E-03 0. -1.
        -11    1    4    4    0    0  0.12511067113E+01  0.44832841319E+01 -0.21729445745E+01  0.51368076658E+01  0.51100000000E-03 0.  1.
        -12    1    4    4    0    0  0.17422976395E+02  0.35719884552E+02 -0.10422189324E+00  0.39742686385E+02  0.00000000000E+00 0.  1.
</event>
<event>
 8    1  0.7489580E-009  0.9118800E+02  0.7816164E-02  0.1184000E+00
        -11   -1    0    0    0    0  0.00000000000E+00  0.00000000000E+00  0.45593999997E+02  0.45594000000E+02  0.51100000000E-03 0. -1.
         11   -1    0    0    0    0 -0.00000000000E+00 -0.00000000000E+00 -0.45593999997E+02  0.45594000000E+02  0.51100000000E-03 0.  1.
         23    2    1    2    0    0  0.00000000000E+00  0.71054273576E-14  0.00000000000E+00  0.91188000000E+02  0.91188000000E+02 0.  0.
    9900012    2    3    3    0    0 -0.27503048331E+02 -0.35143130157E+02 -0.61364639655E+01  0.46142318135E+02  0.10000003407E+02 0.  0.
        -12    1    3    3    0    0  0.27503048331E+02  0.35143130157E+02  0.61364639655E+01  0.45045681865E+02  0.00000000000E+00 0.  1.
         11    1    4    4    0    0 -0.86596750727E+01 -0.90306888436E+01  0.24704184659E+00  0.12514165705E+02  0.51100000000E-03 0. -1.
        -11    1    4    4    0    0 -0.64935941244E+01 -0.11985395777E+02  0.50186353921E+00  0.13640687075E+02  0.51100000000E-03 0.  1.
        -12    1    4    4    0    0 -0.12349779134E+02 -0.14127045536E+02 -0.68853693513E+01  0.19987465355E+02  0.00000000000E+00 0.  1.
</event>
<event>
 8    1  0.7489580E-009  0.9118800E+02  0.7816164E-02  0.1184000E+00
        -11   -1    0    0    0    0  0.00000000000E+00  0.00000000000E+00  0.45593999997E+02  0.45594000000E+02  0.51100000000E-03 0. -1.
         11   -1    0    0    0    0 -0.00000000000E+00 -0.00000000000E+00 -0.45593999997E+02  0.45594000000E+02  0.51100000000E-03 0.  1.
         23    2    1    2    0    0  0.71054273576E-14 -0.88817841970E-15  0.71054273576E-14  0.91188000000E+02  0.91188000000E+02 0.  0.
    9900012    2    3    3    0    0 -0.30252556316E+02  0.77146389092E+01 -0.32471228155E+02  0.46142317909E+02  0.10000001348E+02 0.  0.
         12    1    3    3    0    0  0.30252556316E+02 -0.77146389092E+01  0.32471228155E+02  0.45045682091E+02  0.00000000000E+00 0. -1.
         11    1    4    4    0    0 -0.99578109612E+01  0.43554203056E+01 -0.54413318323E+01  0.12154660734E+02  0.51100000000E-03 0. -1.
        -11    1    4    4    0    0 -0.10503999385E+02  0.23075879451E+01 -0.13822542217E+02  0.17513470210E+02  0.51100000000E-03 0.  1.
        -12    1    4    4    0    0 -0.97907459701E+01  0.10516306584E+01 -0.13207354106E+02  0.16474186965E+02  0.00000000000E+00 0.  1.
</event>
<event>
 8    1  0.7489580E-009  0.9118800E+02  0.7816164E-02  0.1184000E+00
        -11   -1    0    0    0    0  0.00000000000E+00  0.00000000000E+00  0.45593999997E+02  0.45594000000E+02  0.51100000000E-03 0. -1.
         11   -1    0    0    0    0 -0.00000000000E+00 -0.00000000000E+00 -0.45593999997E+02  0.45594000000E+02  0.51100000000E-03 0.  1.
         23    2    1    2    0    0 -0.17763568394E-14  0.71054273576E-14  0.17763568394E-14  0.91188000000E+02  0.91188000000E+02 0.  0.
    9900012    2    3    3    0    0 -0.11137663037E+02  0.42641738362E+02 -0.93138603295E+01  0.46142318934E+02  0.10000010696E+02 0.  0.
         12    1    3    3    0    0  0.11137663037E+02 -0.42641738362E+02  0.93138603295E+01  0.45045681066E+02  0.00000000000E+00 0. -1.
         11    1    4    4    0    0 -0.52603721217E+01  0.99651618923E+01 -0.46304738234E+01  0.12182662044E+02  0.51100000000E-03 0. -1.
        -11    1    4    4    0    0 -0.45275337187E+01  0.13462109904E+02 -0.30426202445E+00  0.14206320434E+02  0.51100000000E-03 0.  1.
         12    1    4    4    0    0 -0.13497571970E+01  0.19214466566E+02 -0.43791244816E+01  0.19753336456E+02  0.00000000000E+00 0. -1.
</event>
<event>
 8    1  0.8032821E-009  0.9118800E+02  0.7816164E-02  0.1184000E+00
        -11   -1    0    0    0    0  0.00000000000E+00  0.00000000000E+00  0.45593999997E+02  0.45594000000E+02  0.51100000000E-03 0. -1.
         11   -1    0    0    0    0 -0.00000000000E+00 -0.00000000000E+00 -0.45593999997E+02  0.45594000000E+02  0.51100000000E-03 0.  1.
         23    2    1    2    0    0  0.11102230246E-15  0.00000000000E+00  0.00000000000E+00  0.91188000000E+02  0.91188000000E+02 0.  0.
    9900012    2    3    3    0    0  0.96012548642E+00 -0.11415129887E+02 -0.43564737549E+02  0.46142318864E+02  0.10000010056E+02 0.  0.
         12    1    3    3    0    0 -0.96012548642E+00  0.11415129887E+02  0.43564737549E+02  0.45045681136E+02  0.00000000000E+00 0. -1.
         11    1    4    4    0    0 -0.28963538977E+00 -0.10102571476E+02 -0.29804113710E+02  0.31471114270E+02  0.51100000000E-03 0. -1.
        -11    1    4    4    0    0 -0.65658263716E+00 -0.10578781200E+01 -0.11997913375E+02  0.12062343574E+02  0.51100000000E-03 0.  1.
         12    1    4    4    0    0  0.19063435133E+01 -0.25468029046E+00 -0.17627104636E+01  0.26088610197E+01  0.00000000000E+00 0. -1.
</event>
<event>
 8    1  0.7489580E-009  0.9118800E+02  0.7816164E-02  0.1184000E+00
        -11   -1    0    0    0    0  0.00000000000E+00  0.00000000000E+00  0.45593999997E+02  0.45594000000E+02  0.51100000000E-03 0. -1.
         11   -1    0    0    0    0 -0.00000000000E+00 -0.00000000000E+00 -0.45593999997E+02  0.45594000000E+02  0.51100000000E-03 0.  1.
         23    2    1    2    0    0  0.00000000000E+00  0.00000000000E+00 -0.35527136788E-14  0.91188000000E+02  0.91188000000E+02 0.  0.
    9900012    2    3    3    0    0 -0.34572389154E+02  0.31900463312E+01 -0.28699947307E+02  0.46142318045E+02  0.10000002589E+02 0.  0.
         12    1    3    3    0    0  0.34572389154E+02 -0.31900463312E+01  0.28699947307E+02  0.45045681955E+02  0.00000000000E+00 0. -1.
         11    1    4    4    0    0  0.45799408356E+00 -0.14616806942E-01 -0.33122756277E+00  0.56540621776E+00  0.51100000000E-03 0. -1.
        -11    1    4    4    0    0 -0.11058017728E+02  0.34013952210E+01 -0.74530731296E+01  0.13762178057E+02  0.51100000000E-03 0.  1.
        -12    1    4    4    0    0 -0.23972365509E+02 -0.19673208282E+00 -0.20915646614E+02  0.31814733771E+02  0.00000000000E+00 0.  1.
</event>
<event>
 8    1  0.7489580E-009  0.9118800E+02  0.7816164E-02  0.1184000E+00
        -11   -1    0    0    0    0  0.00000000000E+00  0.00000000000E+00  0.45593999997E+02  0.45594000000E+02  0.51100000000E-03 0.  1.
         11   -1    0    0    0    0 -0.00000000000E+00 -0.00000000000E+00 -0.45593999997E+02  0.45594000000E+02  0.51100000000E-03 0. -1.
         23    2    1    2    0    0  0.00000000000E+00 -0.17763568394E-14  0.00000000000E+00  0.91188000000E+02  0.91188000000E+02 0.  0.
    9900012    2    3    3    0    0 -0.41750698646E+02  0.14551210521E+02  0.86171282324E+01  0.46142318031E+02  0.10000002464E+02 0.  0.
         12    1    3    3    0    0  0.41750698646E+02 -0.14551210521E+02 -0.86171282324E+01  0.45045681969E+02  0.00000000000E+00 0. -1.
         11    1    4    4    0    0 -0.99380364298E+00  0.57968016175E+00  0.15007261521E+01  0.18909928650E+01  0.51100000000E-03 0. -1.
        -11    1    4    4    0    0 -0.84312381033E+01  0.46505930368E+01  0.41274948561E+01  0.10476163687E+02  0.51100000000E-03 0.  1.
        -12    1    4    4    0    0 -0.32325656900E+02  0.93209373220E+01  0.29889072242E+01  0.33775161479E+02  0.00000000000E+00 0.  1.
</event>
<event>
 8    1  0.7489580E-009  0.9118800E+02  0.7816164E-02  0.1184000E+00
        -11   -1    0    0    0    0  0.00000000000E+00  0.00000000000E+00  0.45593999997E+02  0.45594000000E+02  0.51100000000E-03 0.  1.
         11   -1    0    0    0    0 -0.00000000000E+00 -0.00000000000E+00 -0.45593999997E+02  0.45594000000E+02  0.51100000000E-03 0. -1.
         23    2    1    2    0    0  0.71054273576E-14  0.35527136788E-14  0.00000000000E+00  0.91188000000E+02  0.91188000000E+02 0.  0.
    9900012    2    3    3    0    0 -0.34623123870E+02 -0.27860715550E+02 -0.73575344803E+01  0.46142317731E+02  0.99999997261E+01 0.  0.
        -12    1    3    3    0    0  0.34623123870E+02  0.27860715550E+02  0.73575344803E+01  0.45045682269E+02  0.00000000000E+00 0.  1.
         11    1    4    4    0    0 -0.12446346729E+02 -0.11259944625E+02 -0.57740906473E+01  0.17749310492E+02  0.51100000000E-03 0. -1.
        -11    1    4    4    0    0 -0.34467440161E+01 -0.20885912580E+01 -0.23890541125E+01  0.46850653751E+01  0.51100000000E-03 0.  1.
         12    1    4    4    0    0 -0.18730033124E+02 -0.14512179667E+02  0.80561027947E+00  0.23707941864E+02  0.00000000000E+00 0. -1.
</event>
<event>
 8    1  0.7489580E-009  0.9118800E+02  0.7816164E-02  0.1184000E+00
        -11   -1    0    0    0    0  0.00000000000E+00  0.00000000000E+00  0.45593999997E+02  0.45594000000E+02  0.51100000000E-03 0. -1.
         11   -1    0    0    0    0 -0.00000000000E+00 -0.00000000000E+00 -0.45593999997E+02  0.45594000000E+02  0.51100000000E-03 0.  1.
         23    2    1    2    0    0  0.00000000000E+00  0.17763568394E-14  0.35527136788E-14  0.91188000000E+02  0.91188000000E+02 0.  0.
    9900012    2    3    3    0    0  0.36728931121E+02  0.10369749757E+02  0.23928380556E+02  0.46142317773E+02  0.10000000107E+02 0.  0.
        -12    1    3    3    0    0 -0.36728931121E+02 -0.10369749757E+02 -0.23928380556E+02  0.45045682227E+02  0.00000000000E+00 0.  1.
         11    1    4    4    0    0  0.41990224336E+01  0.14111984313E+01  0.36956499596E+01  0.57689773180E+01  0.51100000000E-03 0. -1.
        -11    1    4    4    0    0  0.32786624286E+02  0.77537830071E+01  0.19293110524E+02  0.38824064663E+02  0.51100000000E-03 0.  1.
        -12    1    4    4    0    0 -0.25671559857E+00  0.12047683189E+01  0.93962007169E+00  0.15492757921E+01  0.00000000000E+00 0.  1.
</event>
<event>
 8    1  0.7489580E-009  0.9118800E+02  0.7816164E-02  0.1184000E+00
        -11   -1    0    0    0    0  0.00000000000E+00  0.00000000000E+00  0.45593999997E+02  0.45594000000E+02  0.51100000000E-03 0. -1.
         11   -1    0    0    0    0 -0.00000000000E+00 -0.00000000000E+00 -0.45593999997E+02  0.45594000000E+02  0.51100000000E-03 0.  1.
         23    2    1    2    0    0  0.00000000000E+00  0.71054273576E-14  0.35527136788E-14  0.91188000000E+02  0.91188000000E+02 0.  0.
    9900012    2    3    3    0    0 -0.10997609515E+02  0.37830152859E+02  0.21841388988E+02  0.46142310380E+02  0.99999326941E+01 0.  0.
        -12    1    3    3    0    0  0.10997609515E+02 -0.37830152859E+02 -0.21841388988E+02  0.45045689620E+02  0.00000000000E+00 0.  1.
         11    1    4    4    0    0 -0.11493136209E+01  0.10944378123E+01  0.14561296482E+01  0.21538406946E+01  0.51100000000E-03 0. -1.
        -11    1    4    4    0    0 -0.18300806260E+01  0.61944805962E+00  0.53959179080E+00  0.20060086136E+01  0.51100000000E-03 0.  1.
         12    1    4    4    0    0 -0.80182152686E+01  0.36116266987E+02  0.19845667549E+02  0.41982461072E+02  0.00000000000E+00 0. -1.
</event>
<event>
 8    1  0.7489580E-009  0.9118800E+02  0.7816164E-02  0.1184000E+00
        -11   -1    0    0    0    0  0.00000000000E+00  0.00000000000E+00  0.45593999997E+02  0.45594000000E+02  0.51100000000E-03 0. -1.
         11   -1    0    0    0    0 -0.00000000000E+00 -0.00000000000E+00 -0.45593999997E+02  0.45594000000E+02  0.51100000000E-03 0.  1.
         23    2    1    2    0    0  0.00000000000E+00  0.71054273576E-14  0.00000000000E+00  0.91188000000E+02  0.91188000000E+02 0.  0.
    9900012    2    3    3    0    0  0.22544123440E+02  0.37284804600E+02 -0.11433253766E+02  0.46142318216E+02  0.10000004145E+02 0.  0.
         12    1    3    3    0    0 -0.22544123440E+02 -0.37284804600E+02  0.11433253766E+02  0.45045681784E+02  0.00000000000E+00 0. -1.
         11    1    4    4    0    0  0.10129820328E+02  0.97168213598E+01 -0.25305400051E+01  0.14263011961E+02  0.51100000000E-03 0. -1.
        -11    1    4    4    0    0  0.27925532975E+01  0.25477927420E+01 -0.15242187172E+01  0.40758857608E+01  0.51100000000E-03 0.  1.
        -12    1    4    4    0    0  0.96217498146E+01  0.25020190498E+02 -0.73784950432E+01  0.27803420494E+02  0.00000000000E+00 0.  1.
</event>
<event>
 8    1  0.7489580E-009  0.9118800E+02  0.7816164E-02  0.1184000E+00
        -11   -1    0    0    0    0  0.00000000000E+00  0.00000000000E+00  0.45593999997E+02  0.45594000000E+02  0.51100000000E-03 0. -1.
         11   -1    0    0    0    0 -0.00000000000E+00 -0.00000000000E+00 -0.45593999997E+02  0.45594000000E+02  0.51100000000E-03 0.  1.
         23    2    1    2    0    0  0.33306690739E-15  0.11102230246E-15  0.00000000000E+00  0.91188000000E+02  0.91188000000E+02 0.  0.
    9900012    2    3    3    0    0  0.11445703723E+00 -0.23282403920E+00 -0.45044935033E+02  0.46142317858E+02  0.10000000887E+02 0.  0.
         12    1    3    3    0    0 -0.11445703723E+00  0.23282403920E+00  0.45044935033E+02  0.45045682142E+02  0.00000000000E+00 0. -1.
         11    1    4    4    0    0 -0.42614544535E+01 -0.20480351363E+01 -0.20207104188E+02  0.20752867318E+02  0.51100000000E-03 0. -1.
        -11    1    4    4    0    0  0.11404716521E+01  0.47147316814E-01 -0.24854619955E+01  0.27350356581E+01  0.51100000000E-03 0.  1.
        -12    1    4    4    0    0  0.32354398387E+01  0.17680637803E+01 -0.22352368850E+02  0.22654414882E+02  0.00000000000E+00 0.  1.
</event>
<event>
 8    1  0.7489580E-009  0.9118800E+02  0.7816164E-02  0.1184000E+00
        -11   -1    0    0    0    0  0.00000000000E+00  0.00000000000E+00  0.45593999997E+02  0.45594000000E+02  0.51100000000E-03 0. -1.
         11   -1    0    0    0    0 -0.00000000000E+00 -0.00000000000E+00 -0.45593999997E+02  0.45594000000E+02  0.51100000000E-03 0.  1.
         23    2    1    2    0    0 -0.71054273576E-14 -0.44408920985E-15  0.00000000000E+00  0.91188000000E+02  0.91188000000E+02 0.  0.
    9900012    2    3    3    0    0  0.39893747549E+02  0.98650935264E+00 -0.20895673963E+02  0.46142317803E+02  0.10000000380E+02 0.  0.
         12    1    3    3    0    0 -0.39893747549E+02 -0.98650935264E+00  0.20895673963E+02  0.45045682197E+02  0.00000000000E+00 0. -1.
         11    1    4    4    0    0  0.64736275181E+01 -0.14404905340E+01 -0.21660596072E+01  0.69767242102E+01  0.51100000000E-03 0.  1.
        -11    1    4    4    0    0  0.29223573782E+02 -0.55638284686E+00 -0.15451534270E+02  0.33061711057E+02  0.51100000000E-03 0. -1.
         12    1    4    4    0    0  0.41965462492E+01  0.29833827335E+01 -0.32780800859E+01  0.61038825353E+01  0.00000000000E+00 0. -1.
</event>
<event>
 8    1  0.7489580E-009  0.9118800E+02  0.7816164E-02  0.1184000E+00
        -11   -1    0    0    0    0  0.00000000000E+00  0.00000000000E+00  0.45593999997E+02  0.45594000000E+02  0.51100000000E-03 0. -1.
         11   -1    0    0    0    0 -0.00000000000E+00 -0.00000000000E+00 -0.45593999997E+02  0.45594000000E+02  0.51100000000E-03 0.  1.
         23    2    1    2    0    0  0.00000000000E+00  0.00000000000E+00  0.00000000000E+00  0.91188000000E+02  0.91188000000E+02 0.  0.
    9900012    2    3    3    0    0  0.20534222393E+02  0.34430449804E+02  0.20542720641E+02  0.46142317251E+02  0.99999953468E+01 0.  0.
        -12    1    3    3    0    0 -0.20534222393E+02 -0.34430449804E+02 -0.20542720641E+02  0.45045682749E+02  0.00000000000E+00 0.  1.
         11    1    4    4    0    0  0.22781732719E+01  0.41207416249E+01  0.40217204440E+01  0.61923194836E+01  0.51100000000E-03 0. -1.
        -11    1    4    4    0    0  0.14914688860E+02  0.29260545781E+02  0.14445274895E+02  0.35878871920E+02  0.51100000000E-03 0.  1.
        -12    1    4    4    0    0  0.33413602615E+01  0.10491623978E+01  0.20757253013E+01  0.40711258468E+01  0.00000000000E+00 0.  1.
</event>
<event>
 8    1  0.7489580E-009  0.9118800E+02  0.7816164E-02  0.1184000E+00
        -11   -1    0    0    0    0  0.00000000000E+00  0.00000000000E+00  0.45593999997E+02  0.45594000000E+02  0.51100000000E-03 0.  1.
         11   -1    0    0    0    0 -0.00000000000E+00 -0.00000000000E+00 -0.45593999997E+02  0.45594000000E+02  0.51100000000E-03 0. -1.
         23    2    1    2    0    0  0.00000000000E+00  0.00000000000E+00 -0.88817841970E-15  0.91188000000E+02  0.91188000000E+02 0.  0.
    9900012    2    3    3    0    0  0.21142898487E+02  0.39551537910E+02 -0.42151602262E+01  0.46142313378E+02  0.99999600321E+01 0.  0.
         12    1    3    3    0    0 -0.21142898487E+02 -0.39551537910E+02  0.42151602262E+01  0.45045686622E+02  0.00000000000E+00 0. -1.
         11    1    4    4    0    0  0.96307134407E+01  0.10451428325E+02 -0.42258756193E+01  0.14827036805E+02  0.51100000000E-03 0. -1.
        -11    1    4    4    0    0  0.21998288355E+01  0.63189034356E+01  0.37733740419E+00  0.67015051527E+01  0.51100000000E-03 0.  1.
         12    1    4    4    0    0  0.93123562110E+01  0.22781206149E+02 -0.36662201108E+00  0.24613771420E+02  0.00000000000E+00 0. -1.
</event>
<event>
 8    1  0.7489580E-009  0.9118800E+02  0.7816164E-02  0.1184000E+00
        -11   -1    0    0    0    0  0.00000000000E+00  0.00000000000E+00  0.45593999997E+02  0.45594000000E+02  0.51100000000E-03 0. -1.
         11   -1    0    0    0    0 -0.00000000000E+00 -0.00000000000E+00 -0.45593999997E+02  0.45594000000E+02  0.51100000000E-03 0.  1.
         23    2    1    2    0    0  0.00000000000E+00  0.00000000000E+00  0.00000000000E+00  0.91188000000E+02  0.91188000000E+02 0.  0.
    9900012    2    3    3    0    0  0.31267466745E+02 -0.21318307605E+02  0.24433353863E+02  0.46142317668E+02  0.99999991501E+01 0.  0.
        -12    1    3    3    0    0 -0.31267466745E+02  0.21318307605E+02 -0.24433353863E+02  0.45045682332E+02  0.00000000000E+00 0.  1.
         11    1    4    4    0    0  0.13189372922E+02 -0.41356779525E+01  0.82467931599E+01  0.16095744403E+02  0.51100000000E-03 0. -1.
        -11    1    4    4    0    0  0.26759724077E+01 -0.48688887583E+01  0.28836394659E+01  0.62595752969E+01  0.51100000000E-03 0.  1.
         12    1    4    4    0    0  0.15402121415E+02 -0.12313740894E+02  0.13302921237E+02  0.23786997968E+02  0.00000000000E+00 0. -1.
</event>
<event>
 8    1  0.7489580E-009  0.9118800E+02  0.7816164E-02  0.1184000E+00
        -11   -1    0    0    0    0  0.00000000000E+00  0.00000000000E+00  0.45593999997E+02  0.45594000000E+02  0.51100000000E-03 0.  1.
         11   -1    0    0    0    0 -0.00000000000E+00 -0.00000000000E+00 -0.45593999997E+02  0.45594000000E+02  0.51100000000E-03 0. -1.
         23    2    1    2    0    0  0.00000000000E+00  0.35527136788E-14  0.00000000000E+00  0.91188000000E+02  0.91188000000E+02 0.  0.
    9900012    2    3    3    0    0  0.35720775007E+02 -0.19746489900E+02 -0.19058223211E+02  0.46142317605E+02  0.99999985777E+01 0.  0.
         12    1    3    3    0    0 -0.35720775007E+02  0.19746489900E+02  0.19058223211E+02  0.45045682395E+02  0.00000000000E+00 0. -1.
         11    1    4    4    0    0  0.49752276506E+01 -0.47892519491E+01 -0.68072574088E+01  0.96968334057E+01  0.51100000000E-03 0.  1.
        -11    1    4    4    0    0  0.11961495329E+02 -0.74737091345E+01 -0.51268304387E+01  0.15007267884E+02  0.51100000000E-03 0. -1.
        -12    1    4    4    0    0  0.18784052028E+02 -0.74835288161E+01 -0.71241353635E+01  0.21438216316E+02  0.00000000000E+00 0.  1.
</event>
<event>
 8    1  0.7489580E-009  0.9118800E+02  0.7816164E-02  0.1184000E+00
        -11   -1    0    0    0    0  0.00000000000E+00  0.00000000000E+00  0.45593999997E+02  0.45594000000E+02  0.51100000000E-03 0. -1.
         11   -1    0    0    0    0 -0.00000000000E+00 -0.00000000000E+00 -0.45593999997E+02  0.45594000000E+02  0.51100000000E-03 0.  1.
         23    2    1    2    0    0  0.13322676296E-14  0.00000000000E+00  0.00000000000E+00  0.91188000000E+02  0.91188000000E+02 0.  0.
    9900012    2    3    3    0    0  0.33804617910E+01  0.25640588109E+02  0.36881513761E+02  0.46142319433E+02  0.10000015243E+02 0.  0.
        -12    1    3    3    0    0 -0.33804617910E+01 -0.25640588109E+02 -0.36881513761E+02  0.45045680567E+02  0.00000000000E+00 0.  1.
         11    1    4    4    0    0 -0.81223594258E+00  0.10482295139E+02  0.14407725561E+02  0.17835941094E+02  0.51100000000E-03 0. -1.
        -11    1    4    4    0    0 -0.14637760613E+01  0.41686294394E+01  0.89764278805E+01  0.10004817315E+02  0.51100000000E-03 0.  1.
         12    1    4    4    0    0  0.56564737949E+01  0.10989663530E+02  0.13497360320E+02  0.18301561023E+02  0.00000000000E+00 0. -1.
</event>
<event>
 8    1  0.7489580E-009  0.9118800E+02  0.7816164E-02  0.1184000E+00
        -11   -1    0    0    0    0  0.00000000000E+00  0.00000000000E+00  0.45593999997E+02  0.45594000000E+02  0.51100000000E-03 0. -1.
         11   -1    0    0    0    0 -0.00000000000E+00 -0.00000000000E+00 -0.45593999997E+02  0.45594000000E+02  0.51100000000E-03 0.  1.
         23    2    1    2    0    0  0.00000000000E+00  0.00000000000E+00  0.00000000000E+00  0.91188000000E+02  0.91188000000E+02 0.  0.
    9900012    2    3    3    0    0  0.30229824381E+02 -0.78161100842E+01 -0.32468130960E+02  0.46142318886E+02  0.10000010259E+02 0.  0.
         12    1    3    3    0    0 -0.30229824381E+02  0.78161100842E+01  0.32468130960E+02  0.45045681114E+02  0.00000000000E+00 0. -1.
         11    1    4    4    0    0  0.13014149801E+02  0.13482349578E+00 -0.11175662964E+02  0.17154641220E+02  0.51100000000E-03 0. -1.
        -11    1    4    4    0    0  0.42783219019E+01 -0.99282850411E+00 -0.82371453562E+01  0.93348974614E+01  0.51100000000E-03 0.  1.
        -12    1    4    4    0    0  0.12937352678E+02 -0.69581050759E+01 -0.13055322640E+02  0.19652780205E+02  0.00000000000E+00 0.  1.
</event>
<event>
 8    1  0.7489580E-009  0.9118800E+02  0.7816164E-02  0.1184000E+00
        -11   -1    0    0    0    0  0.00000000000E+00  0.00000000000E+00  0.45593999997E+02  0.45594000000E+02  0.51100000000E-03 0. -1.
         11   -1    0    0    0    0 -0.00000000000E+00 -0.00000000000E+00 -0.45593999997E+02  0.45594000000E+02  0.51100000000E-03 0.  1.
         23    2    1    2    0    0 -0.17763568394E-14  0.00000000000E+00 -0.35527136788E-14  0.91188000000E+02  0.91188000000E+02 0.  0.
    9900012    2    3    3    0    0  0.14840341124E+02  0.28218595815E+02  0.31821199664E+02  0.46142316273E+02  0.99999864267E+01 0.  0.
        -12    1    3    3    0    0 -0.14840341124E+02 -0.28218595815E+02 -0.31821199664E+02  0.45045683727E+02  0.00000000000E+00 0.  1.
         11    1    4    4    0    0 -0.90990899325E+00  0.43639411218E+01  0.41005790781E+01  0.60569518346E+01  0.51100000000E-03 0.  1.
        -11    1    4    4    0    0  0.37781305917E+01  0.97359500232E+01  0.10116380151E+02  0.14539743507E+02  0.51100000000E-03 0. -1.
        -12    1    4    4    0    0  0.11972119525E+02  0.14118704670E+02  0.17604240435E+02  0.25545620931E+02  0.00000000000E+00 0.  1.
</event>
<event>
 8    1  0.7489580E-009  0.9118800E+02  0.7816164E-02  0.1184000E+00
        -11   -1    0    0    0    0  0.00000000000E+00  0.00000000000E+00  0.45593999997E+02  0.45594000000E+02  0.51100000000E-03 0. -1.
         11   -1    0    0    0    0 -0.00000000000E+00 -0.00000000000E+00 -0.45593999997E+02  0.45594000000E+02  0.51100000000E-03 0.  1.
         23    2    1    2    0    0  0.35527136788E-14 -0.88817841970E-15  0.00000000000E+00  0.91188000000E+02  0.91188000000E+02 0.  0.
    9900012    2    3    3    0    0  0.19662370537E+02  0.51802476449E+01  0.40195394843E+02  0.46142317106E+02  0.99999940260E+01 0.  0.
        -12    1    3    3    0    0 -0.19662370537E+02 -0.51802476449E+01 -0.40195394843E+02  0.45045682894E+02  0.00000000000E+00 0.  1.
         11    1    4    4    0    0  0.81309341493E+01  0.20003866109E+01  0.88559702729E+01  0.12187774467E+02  0.51100000000E-03 0. -1.
        -11    1    4    4    0    0 -0.33121051716E+00 -0.46317164500E+00  0.73373649924E+00  0.92876148221E+00  0.51100000000E-03 0.  1.
        -12    1    4    4    0    0  0.11862646905E+02  0.36430326790E+01  0.30605688071E+02  0.33025781156E+02  0.00000000000E+00 0.  1.
</event>
<event>
 8    1  0.7489580E-009  0.9118800E+02  0.7816164E-02  0.1184000E+00
        -11   -1    0    0    0    0  0.00000000000E+00  0.00000000000E+00  0.45593999997E+02  0.45594000000E+02  0.51100000000E-03 0.  1.
         11   -1    0    0    0    0 -0.00000000000E+00 -0.00000000000E+00 -0.45593999997E+02  0.45594000000E+02  0.51100000000E-03 0. -1.
         23    2    1    2    0    0 -0.44408920985E-15  0.71054273576E-14 -0.35527136788E-14  0.91188000000E+02  0.91188000000E+02 0.  0.
    9900012    2    3    3    0    0  0.18884833323E+01 -0.37409153703E+02  0.25022037505E+02  0.46142317510E+02  0.99999977135E+01 0.  0.
        -12    1    3    3    0    0 -0.18884833323E+01  0.37409153703E+02 -0.25022037505E+02  0.45045682490E+02  0.00000000000E+00 0.  1.
         11    1    4    4    0    0  0.85043058411E+00 -0.26237283918E+01  0.14769798781E+01  0.31286822584E+01  0.51100000000E-03 0. -1.
        -11    1    4    4    0    0 -0.53486378284E+00 -0.11098687181E+01 -0.76523922460E+00  0.14503376054E+01  0.51100000000E-03 0.  1.
        -12    1    4    4    0    0  0.15729165310E+01 -0.33675556593E+02  0.24310296851E+02  0.41563297647E+02  0.00000000000E+00 0.  1.
</event>
<event>
 8    1  0.7489580E-009  0.9118800E+02  0.7816164E-02  0.1184000E+00
        -11   -1    0    0    0    0  0.00000000000E+00  0.00000000000E+00  0.45593999997E+02  0.45594000000E+02  0.51100000000E-03 0. -1.
         11   -1    0    0    0    0 -0.00000000000E+00 -0.00000000000E+00 -0.45593999997E+02  0.45594000000E+02  0.51100000000E-03 0.  1.
         23    2    1    2    0    0  0.00000000000E+00 -0.71054273576E-14 -0.17763568394E-14  0.91188000000E+02  0.91188000000E+02 0.  0.
    9900012    2    3    3    0    0  0.25069858626E+02 -0.35087927974E+02 -0.13017407977E+02  0.46142318614E+02  0.10000007782E+02 0.  0.
         12    1    3    3    0    0 -0.25069858626E+02  0.35087927974E+02  0.13017407977E+02  0.45045681386E+02  0.00000000000E+00 0. -1.
         11    1    4    4    0    0  0.10998226256E+02 -0.10363053417E+02 -0.18503895418E+01  0.15224250347E+02  0.51100000000E-03 0. -1.
        -11    1    4    4    0    0  0.20595987061E+01 -0.61521892006E+01 -0.96186453561E+00  0.65587012767E+01  0.51100000000E-03 0.  1.
         12    1    4    4    0    0  0.12012033664E+02 -0.18572685356E+02 -0.10205153900E+02  0.24359366991E+02  0.00000000000E+00 0. -1.
</event>
<event>
 8    1  0.7489580E-009  0.9118800E+02  0.7816164E-02  0.1184000E+00
        -11   -1    0    0    0    0  0.00000000000E+00  0.00000000000E+00  0.45593999997E+02  0.45594000000E+02  0.51100000000E-03 0. -1.
         11   -1    0    0    0    0 -0.00000000000E+00 -0.00000000000E+00 -0.45593999997E+02  0.45594000000E+02  0.51100000000E-03 0.  1.
         23    2    1    2    0    0  0.00000000000E+00  0.00000000000E+00  0.00000000000E+00  0.91188000000E+02  0.91188000000E+02 0.  0.
    9900012    2    3    3    0    0  0.33079648962E+02 -0.14133584156E+02  0.27112581581E+02  0.46142318114E+02  0.10000003219E+02 0.  0.
        -12    1    3    3    0    0 -0.33079648962E+02  0.14133584156E+02 -0.27112581581E+02  0.45045681886E+02  0.00000000000E+00 0.  1.
         11    1    4    4    0    0  0.10164972113E+02 -0.64565708874E+01  0.10072550104E+02  0.15699370419E+02  0.51100000000E-03 0. -1.
        -11    1    4    4    0    0  0.18471409712E+02 -0.35886792797E+01  0.15018867422E+02  0.24075671842E+02  0.51100000000E-03 0.  1.
        -12    1    4    4    0    0  0.44432671369E+01 -0.40883339893E+01  0.20211640548E+01  0.63672758535E+01  0.00000000000E+00 0.  1.
</event>
<event>
 8    1  0.7489580E-009  0.9118800E+02  0.7816164E-02  0.1184000E+00
        -11   -1    0    0    0    0  0.00000000000E+00  0.00000000000E+00  0.45593999997E+02  0.45594000000E+02  0.51100000000E-03 0.  1.
         11   -1    0    0    0    0 -0.00000000000E+00 -0.00000000000E+00 -0.45593999997E+02  0.45594000000E+02  0.51100000000E-03 0. -1.
         23    2    1    2    0    0  0.71054273576E-14  0.00000000000E+00 -0.35527136788E-14  0.91188000000E+02  0.91188000000E+02 0.  0.
    9900012    2    3    3    0    0  0.33355769328E+02  0.15417442639E+02  0.26053955526E+02  0.46142317814E+02  0.10000000486E+02 0.  0.
        -12    1    3    3    0    0 -0.33355769328E+02 -0.15417442639E+02 -0.26053955526E+02  0.45045682186E+02  0.00000000000E+00 0.  1.
         11    1    4    4    0    0  0.14814501194E+02  0.47406499913E+01  0.99684106708E+01  0.18474642609E+02  0.51100000000E-03 0. -1.
        -11    1    4    4    0    0 -0.62317426259E+00  0.47102326712E+00  0.36928846454E+00  0.86405052565E+00  0.51100000000E-03 0.  1.
        -12    1    4    4    0    0  0.19164442397E+02  0.10205769381E+02  0.15716256391E+02  0.26803624680E+02  0.00000000000E+00 0.  1.
</event>
<event>
 8    1  0.7489580E-009  0.9118800E+02  0.7816164E-02  0.1184000E+00
        -11   -1    0    0    0    0  0.00000000000E+00  0.00000000000E+00  0.45593999997E+02  0.45594000000E+02  0.51100000000E-03 0. -1.
         11   -1    0    0    0    0 -0.00000000000E+00 -0.00000000000E+00 -0.45593999997E+02  0.45594000000E+02  0.51100000000E-03 0.  1.
         23    2    1    2    0    0  0.88817841970E-15 -0.17763568394E-14  0.00000000000E+00  0.91188000000E+02  0.91188000000E+02 0.  0.
    9900012    2    3    3    0    0 -0.72970099822E+01  0.11869120299E+02 -0.42836795567E+02  0.46142318456E+02  0.10000006335E+02 0.  0.
         12    1    3    3    0    0  0.72970099822E+01 -0.11869120299E+02  0.42836795567E+02  0.45045681544E+02  0.00000000000E+00 0. -1.
         11    1    4    4    0    0 -0.73249401429E+01  0.79841264375E+01 -0.21162046310E+02  0.23774634116E+02  0.51100000000E-03 0. -1.
        -11    1    4    4    0    0  0.13042313918E+01  0.18675582683E-01 -0.33258121300E+01  0.35724494239E+01  0.51100000000E-03 0.  1.
        -12    1    4    4    0    0 -0.12763012312E+01  0.38663182792E+01 -0.18348937126E+02  0.18795234916E+02  0.00000000000E+00 0.  1.
</event>
<event>
 8    1  0.7489580E-009  0.9118800E+02  0.7816164E-02  0.1184000E+00
        -11   -1    0    0    0    0  0.00000000000E+00  0.00000000000E+00  0.45593999997E+02  0.45594000000E+02  0.51100000000E-03 0.  1.
         11   -1    0    0    0    0 -0.00000000000E+00 -0.00000000000E+00 -0.45593999997E+02  0.45594000000E+02  0.51100000000E-03 0. -1.
         23    2    1    2    0    0  0.35527136788E-14  0.71054273576E-14 -0.35527136788E-14  0.91188000000E+02  0.91188000000E+02 0.  0.
    9900012    2    3    3    0    0 -0.13953820516E+02 -0.40064858470E+02  0.15139732283E+02  0.46142317801E+02  0.10000000363E+02 0.  0.
        -12    1    3    3    0    0  0.13953820516E+02  0.40064858470E+02 -0.15139732283E+02  0.45045682199E+02  0.00000000000E+00 0.  1.
         11    1    4    4    0    0  0.48657891852E+00 -0.22374377788E+00  0.10991056850E+01  0.12226421758E+01  0.51100000000E-03 0. -1.
        -11    1    4    4    0    0 -0.13857964996E+01 -0.11643374306E+01  0.22174630500E+00  0.18235364749E+01  0.51100000000E-03 0.  1.
         12    1    4    4    0    0 -0.13054602935E+02 -0.38676777261E+02  0.13818880293E+02  0.43096139150E+02  0.00000000000E+00 0. -1.
</event>
<event>
 8    1  0.7489580E-009  0.9118800E+02  0.7816164E-02  0.1184000E+00
        -11   -1    0    0    0    0  0.00000000000E+00  0.00000000000E+00  0.45593999997E+02  0.45594000000E+02  0.51100000000E-03 0. -1.
         11   -1    0    0    0    0 -0.00000000000E+00 -0.00000000000E+00 -0.45593999997E+02  0.45594000000E+02  0.51100000000E-03 0.  1.
         23    2    1    2    0    0  0.00000000000E+00  0.00000000000E+00  0.00000000000E+00  0.91188000000E+02  0.91188000000E+02 0.  0.
    9900012    2    3    3    0    0  0.21994399760E+02 -0.34575557345E+02  0.18705363793E+02  0.46142318507E+02  0.10000006803E+02 0.  0.
        -12    1    3    3    0    0 -0.21994399760E+02  0.34575557345E+02 -0.18705363793E+02  0.45045681493E+02  0.00000000000E+00 0.  1.
         11    1    4    4    0    0  0.13393416511E+02 -0.19426819507E+02  0.82572306207E+01  0.24999335586E+02  0.51100000000E-03 0. -1.
        -11    1    4    4    0    0  0.83000028105E+01 -0.12098336058E+02  0.62561768048E+01  0.15949906912E+02  0.51100000000E-03 0.  1.
        -12    1    4    4    0    0  0.30098043912E+00 -0.30504017799E+01  0.41919563674E+01  0.51930760085E+01  0.00000000000E+00 0.  1.
</event>
<event>
 8    1  0.7489580E-009  0.9118800E+02  0.7816164E-02  0.1184000E+00
        -11   -1    0    0    0    0  0.00000000000E+00  0.00000000000E+00  0.45593999997E+02  0.45594000000E+02  0.51100000000E-03 0. -1.
         11   -1    0    0    0    0 -0.00000000000E+00 -0.00000000000E+00 -0.45593999997E+02  0.45594000000E+02  0.51100000000E-03 0.  1.
         23    2    1    2    0    0  0.00000000000E+00 -0.88817841970E-15 -0.71054273576E-14  0.91188000000E+02  0.91188000000E+02 0.  0.
    9900012    2    3    3    0    0 -0.19983989286E+02 -0.42041668380E+01 -0.40150698959E+02  0.46142317926E+02  0.10000001503E+02 0.  0.
         12    1    3    3    0    0  0.19983989286E+02  0.42041668380E+01  0.40150698959E+02  0.45045682074E+02  0.00000000000E+00 0. -1.
         11    1    4    4    0    0 -0.10924113601E+01 -0.20411112050E+01 -0.59744947277E+01  0.64073461779E+01  0.51100000000E-03 0. -1.
        -11    1    4    4    0    0 -0.40076709978E+01  0.14485141018E+01 -0.37719031208E+01  0.56909466122E+01  0.51100000000E-03 0.  1.
         12    1    4    4    0    0 -0.14883906928E+02 -0.36115697347E+01 -0.30404301111E+02  0.34044025136E+02  0.00000000000E+00 0. -1.
</event>
<event>
 8    1  0.7489580E-009  0.9118800E+02  0.7816164E-02  0.1184000E+00
        -11   -1    0    0    0    0  0.00000000000E+00  0.00000000000E+00  0.45593999997E+02  0.45594000000E+02  0.51100000000E-03 0. -1.
         11   -1    0    0    0    0 -0.00000000000E+00 -0.00000000000E+00 -0.45593999997E+02  0.45594000000E+02  0.51100000000E-03 0.  1.
         23    2    1    2    0    0  0.17763568394E-14  0.71054273576E-14 -0.71054273576E-14  0.91188000000E+02  0.91188000000E+02 0.  0.
    9900012    2    3    3    0    0  0.10345706842E+02  0.35906603218E+02 -0.25155424419E+02  0.46142321157E+02  0.10000030969E+02 0.  0.
         12    1    3    3    0    0 -0.10345706842E+02 -0.35906603218E+02  0.25155424419E+02  0.45045678843E+02  0.00000000000E+00 0. -1.
         11    1    4    4    0    0  0.24476703246E+01  0.13995190572E+02 -0.47495375640E+01  0.14980472506E+02  0.51100000000E-03 0. -1.
        -11    1    4    4    0    0  0.36532891147E+00  0.43781204591E+01 -0.48303153875E+01  0.65294219478E+01  0.51100000000E-03 0.  1.
        -12    1    4    4    0    0  0.75327076055E+01  0.17533292187E+02 -0.15575571467E+02  0.24632426703E+02  0.00000000000E+00 0.  1.
</event>
<event>
 8    1  0.7489580E-009  0.9118800E+02  0.7816164E-02  0.1184000E+00
        -11   -1    0    0    0    0  0.00000000000E+00  0.00000000000E+00  0.45593999997E+02  0.45594000000E+02  0.51100000000E-03 0. -1.
         11   -1    0    0    0    0 -0.00000000000E+00 -0.00000000000E+00 -0.45593999997E+02  0.45594000000E+02  0.51100000000E-03 0.  1.
         23    2    1    2    0    0  0.35527136788E-14  0.71054273576E-14  0.00000000000E+00  0.91188000000E+02  0.91188000000E+02 0.  0.
    9900012    2    3    3    0    0  0.20619898705E+02 -0.39901186854E+02  0.34392775688E+01  0.46142316908E+02  0.99999922245E+01 0.  0.
         12    1    3    3    0    0 -0.20619898705E+02  0.39901186854E+02 -0.34392775688E+01  0.45045683092E+02  0.00000000000E+00 0. -1.
         11    1    4    4    0    0  0.59002347360E+01 -0.10629859680E+02 -0.25376416632E+01  0.12419593883E+02  0.51100000000E-03 0. -1.
        -11    1    4    4    0    0  0.61448096049E+01 -0.12511057682E+02 -0.10262434909E+00  0.13939002167E+02  0.51100000000E-03 0.  1.
        -12    1    4    4    0    0  0.85748543642E+01 -0.16760269493E+02  0.60795435810E+01  0.19783720858E+02  0.00000000000E+00 0.  1.
</event>
<event>
 8    1  0.7489580E-009  0.9118800E+02  0.7816164E-02  0.1184000E+00
        -11   -1    0    0    0    0  0.00000000000E+00  0.00000000000E+00  0.45593999997E+02  0.45594000000E+02  0.51100000000E-03 0. -1.
         11   -1    0    0    0    0 -0.00000000000E+00 -0.00000000000E+00 -0.45593999997E+02  0.45594000000E+02  0.51100000000E-03 0.  1.
         23    2    1    2    0    0  0.00000000000E+00 -0.35527136788E-14  0.00000000000E+00  0.91188000000E+02  0.91188000000E+02 0.  0.
    9900012    2    3    3    0    0 -0.19898633366E+02 -0.19425598301E+02 -0.35437322936E+02  0.46142319452E+02  0.10000015415E+02 0.  0.
         12    1    3    3    0    0  0.19898633366E+02  0.19425598301E+02  0.35437322936E+02  0.45045680548E+02  0.00000000000E+00 0. -1.
         11    1    4    4    0    0 -0.10855730799E+02 -0.14764869342E+02 -0.22794668376E+02  0.29247994196E+02  0.51100000000E-03 0. -1.
        -11    1    4    4    0    0 -0.53391111090E+01 -0.61449618121E+00 -0.83448633169E+01  0.99257471774E+01  0.51100000000E-03 0.  1.
        -12    1    4    4    0    0 -0.37037914585E+01 -0.40462327782E+01 -0.42977912429E+01  0.69685780781E+01  0.00000000000E+00 0.  1.
</event>
<event>
 8    1  0.7489580E-009  0.9118800E+02  0.7816164E-02  0.1184000E+00
        -11   -1    0    0    0    0  0.00000000000E+00  0.00000000000E+00  0.45593999997E+02  0.45594000000E+02  0.51100000000E-03 0. -1.
         11   -1    0    0    0    0 -0.00000000000E+00 -0.00000000000E+00 -0.45593999997E+02  0.45594000000E+02  0.51100000000E-03 0.  1.
         23    2    1    2    0    0  0.00000000000E+00  0.00000000000E+00  0.00000000000E+00  0.91188000000E+02  0.91188000000E+02 0.  0.
    9900012    2    3    3    0    0  0.63511025550E+01  0.74890079574E+01 -0.43962383567E+02  0.46142324150E+02  0.10000058259E+02 0.  0.
         12    1    3    3    0    0 -0.63511025550E+01 -0.74890079574E+01  0.43962383567E+02  0.45045675850E+02  0.00000000000E+00 0. -1.
         11    1    4    4    0    0  0.57985001930E+01  0.17460153532E+01 -0.14227032458E+02  0.15462199938E+02  0.51100000000E-03 0. -1.
        -11    1    4    4    0    0  0.18756499511E+01  0.37751746212E+01 -0.10745191358E+02  0.11542492960E+02  0.51100000000E-03 0.  1.
        -12    1    4    4    0    0 -0.13230475890E+01  0.19678179830E+01 -0.18990159752E+02  0.19137631252E+02  0.00000000000E+00 0.  1.
</event>
<event>
 8    1  0.7489580E-009  0.9118800E+02  0.7816164E-02  0.1184000E+00
        -11   -1    0    0    0    0  0.00000000000E+00  0.00000000000E+00  0.45593999997E+02  0.45594000000E+02  0.51100000000E-03 0.  1.
         11   -1    0    0    0    0 -0.00000000000E+00 -0.00000000000E+00 -0.45593999997E+02  0.45594000000E+02  0.51100000000E-03 0. -1.
         23    2    1    2    0    0  0.00000000000E+00  0.00000000000E+00  0.35527136788E-14  0.91188000000E+02  0.91188000000E+02 0.  0.
    9900012    2    3    3    0    0 -0.57619759235E+00 -0.37406817816E+02  0.25090066585E+02  0.46142318031E+02  0.10000002462E+02 0.  0.
        -12    1    3    3    0    0  0.57619759235E+00  0.37406817816E+02 -0.25090066585E+02  0.45045681969E+02  0.00000000000E+00 0.  1.
         11    1    4    4    0    0 -0.65582861172E+00 -0.15026341719E+02  0.15854627150E+02  0.21853838541E+02  0.51100000000E-03 0. -1.
        -11    1    4    4    0    0 -0.78127042556E+00 -0.87432849988E+01  0.30938129363E+01  0.93073677694E+01  0.51100000000E-03 0.  1.
        -12    1    4    4    0    0  0.86090144493E+00 -0.13637191098E+02  0.61416264982E+01  0.14981111721E+02  0.00000000000E+00 0.  1.
</event>
<event>
 8    1  0.7489580E-009  0.9118800E+02  0.7816164E-02  0.1184000E+00
        -11   -1    0    0    0    0  0.00000000000E+00  0.00000000000E+00  0.45593999997E+02  0.45594000000E+02  0.51100000000E-03 0. -1.
         11   -1    0    0    0    0 -0.00000000000E+00 -0.00000000000E+00 -0.45593999997E+02  0.45594000000E+02  0.51100000000E-03 0.  1.
         23    2    1    2    0    0  0.00000000000E+00  0.00000000000E+00  0.00000000000E+00  0.91188000000E+02  0.91188000000E+02 0.  0.
    9900012    2    3    3    0    0  0.36817302109E+02 -0.95110322962E+01  0.24148293110E+02  0.46142317298E+02  0.99999957810E+01 0.  0.
        -12    1    3    3    0    0 -0.36817302109E+02  0.95110322962E+01 -0.24148293110E+02  0.45045682702E+02  0.00000000000E+00 0.  1.
         11    1    4    4    0    0  0.20660716209E+02 -0.75218209895E+01  0.10279998778E+02  0.24271822354E+02  0.51100000000E-03 0. -1.
        -11    1    4    4    0    0  0.85290486065E+01 -0.28963786935E+01  0.57082076058E+01  0.10663832050E+02  0.51100000000E-03 0.  1.
        -12    1    4    4    0    0  0.76275372935E+01  0.90716738669E+00  0.81600867264E+01  0.11206662894E+02  0.00000000000E+00 0.  1.
</event>
<event>
 8    1  0.7489580E-009  0.9118800E+02  0.7816164E-02  0.1184000E+00
        -11   -1    0    0    0    0  0.00000000000E+00  0.00000000000E+00  0.45593999997E+02  0.45594000000E+02  0.51100000000E-03 0. -1.
         11   -1    0    0    0    0 -0.00000000000E+00 -0.00000000000E+00 -0.45593999997E+02  0.45594000000E+02  0.51100000000E-03 0.  1.
         23    2    1    2    0    0  0.35527136788E-14  0.35527136788E-14  0.00000000000E+00  0.91188000000E+02  0.91188000000E+02 0.  0.
    9900012    2    3    3    0    0  0.27681783545E+02  0.19218624530E+02  0.29891082657E+02  0.46142317726E+02  0.99999996835E+01 0.  0.
        -12    1    3    3    0    0 -0.27681783545E+02 -0.19218624530E+02 -0.29891082657E+02  0.45045682274E+02  0.00000000000E+00 0.  1.
         11    1    4    4    0    0  0.16449726995E+02  0.11593204267E+02  0.12683683862E+02  0.23788058768E+02  0.51100000000E-03 0. -1.
        -11    1    4    4    0    0  0.31477522464E+01  0.45427660224E+01  0.79584954338E+01  0.96893094269E+01  0.51100000000E-03 0.  1.
        -12    1    4    4    0    0  0.80843043034E+01  0.30826542408E+01  0.92489033612E+01  0.12664949531E+02  0.00000000000E+00 0.  1.
</event>
<event>
 8    1  0.7489580E-009  0.9118800E+02  0.7816164E-02  0.1184000E+00
        -11   -1    0    0    0    0  0.00000000000E+00  0.00000000000E+00  0.45593999997E+02  0.45594000000E+02  0.51100000000E-03 0. -1.
         11   -1    0    0    0    0 -0.00000000000E+00 -0.00000000000E+00 -0.45593999997E+02  0.45594000000E+02  0.51100000000E-03 0.  1.
         23    2    1    2    0    0  0.00000000000E+00  0.00000000000E+00  0.00000000000E+00  0.91188000000E+02  0.91188000000E+02 0.  0.
    9900012    2    3    3    0    0 -0.35317316895E+02 -0.14776024799E+02 -0.23737514756E+02  0.46142318872E+02  0.10000010126E+02 0.  0.
         12    1    3    3    0    0  0.35317316895E+02  0.14776024799E+02  0.23737514756E+02  0.45045681128E+02  0.00000000000E+00 0. -1.
         11    1    4    4    0    0 -0.34410851568E+02 -0.12385110780E+02 -0.23505672918E+02  0.43474295098E+02  0.51100000000E-03 0. -1.
        -11    1    4    4    0    0 -0.98421066983E+00 -0.17151601606E+01 -0.18799431225E+00  0.19864005491E+01  0.51100000000E-03 0.  1.
         12    1    4    4    0    0  0.77745342375E-01 -0.67575385814E+00 -0.43847526003E-01  0.68162322480E+00  0.00000000000E+00 0. -1.
</event>
<event>
 8    1  0.7489580E-009  0.9118800E+02  0.7816164E-02  0.1184000E+00
        -11   -1    0    0    0    0  0.00000000000E+00  0.00000000000E+00  0.45593999997E+02  0.45594000000E+02  0.51100000000E-03 0. -1.
         11   -1    0    0    0    0 -0.00000000000E+00 -0.00000000000E+00 -0.45593999997E+02  0.45594000000E+02  0.51100000000E-03 0.  1.
         23    2    1    2    0    0  0.22204460493E-15  0.00000000000E+00  0.00000000000E+00  0.91188000000E+02  0.91188000000E+02 0.  0.
    9900012    2    3    3    0    0  0.11090441870E+01 -0.93567447817E+01 -0.44049232152E+02  0.46142317575E+02  0.99999983068E+01 0.  0.
         12    1    3    3    0    0 -0.11090441870E+01  0.93567447817E+01  0.44049232152E+02  0.45045682425E+02  0.00000000000E+00 0. -1.
         11    1    4    4    0    0 -0.23977145423E+01 -0.40748115833E+01 -0.10114951985E+02  0.11165365126E+02  0.51100000000E-03 0. -1.
        -11    1    4    4    0    0  0.21577199745E+01  0.71724356908E+00 -0.11008434842E+02  0.11240810992E+02  0.51100000000E-03 0.  1.
        -12    1    4    4    0    0  0.13490387548E+01 -0.59991767675E+01 -0.22925845325E+02  0.23736141458E+02  0.00000000000E+00 0.  1.
</event>
<event>
 8    1  0.7489580E-009  0.9118800E+02  0.7816164E-02  0.1184000E+00
        -11   -1    0    0    0    0  0.00000000000E+00  0.00000000000E+00  0.45593999997E+02  0.45594000000E+02  0.51100000000E-03 0. -1.
         11   -1    0    0    0    0 -0.00000000000E+00 -0.00000000000E+00 -0.45593999997E+02  0.45594000000E+02  0.51100000000E-03 0.  1.
         23    2    1    2    0    0  0.00000000000E+00  0.00000000000E+00  0.17763568394E-14  0.91188000000E+02  0.91188000000E+02 0.  0.
    9900012    2    3    3    0    0  0.24840797396E+02  0.34253518521E+02 -0.15451368152E+02  0.46142317364E+02  0.99999963811E+01 0.  0.
         12    1    3    3    0    0 -0.24840797396E+02 -0.34253518521E+02  0.15451368152E+02  0.45045682636E+02  0.00000000000E+00 0. -1.
         11    1    4    4    0    0  0.18229592687E+02  0.27425015279E+02 -0.11561196120E+02  0.34901443646E+02  0.51100000000E-03 0.  1.
        -11    1    4    4    0    0  0.69784347935E+01  0.71771522079E+01 -0.38748489350E+01  0.10734268513E+02  0.51100000000E-03 0. -1.
         12    1    4    4    0    0 -0.36723008515E+00 -0.34864896543E+00 -0.15323097487E-01  0.50660520511E+00  0.00000000000E+00 0. -1.
</event>
<event>
 8    1  0.7489580E-009  0.9118800E+02  0.7816164E-02  0.1184000E+00
        -11   -1    0    0    0    0  0.00000000000E+00  0.00000000000E+00  0.45593999997E+02  0.45594000000E+02  0.51100000000E-03 0. -1.
         11   -1    0    0    0    0 -0.00000000000E+00 -0.00000000000E+00 -0.45593999997E+02  0.45594000000E+02  0.51100000000E-03 0.  1.
         23    2    1    2    0    0  0.17763568394E-14  0.88817841970E-15  0.71054273576E-14  0.91188000000E+02  0.91188000000E+02 0.  0.
    9900012    2    3    3    0    0 -0.13428906167E+02 -0.60834164691E+01 -0.42564890750E+02  0.46142318727E+02  0.10000008811E+02 0.  0.
         12    1    3    3    0    0  0.13428906167E+02  0.60834164691E+01  0.42564890750E+02  0.45045681273E+02  0.00000000000E+00 0. -1.
         11    1    4    4    0    0 -0.22051385041E+01 -0.22025862103E+01 -0.81594235629E+01  0.87344269976E+01  0.51100000000E-03 0.  1.
        -11    1    4    4    0    0 -0.11758464860E+02 -0.22599342282E+01 -0.23550872624E+02  0.26419924304E+02  0.51100000000E-03 0. -1.
         12    1    4    4    0    0  0.53469719759E+00 -0.16208960305E+01 -0.10854594563E+02  0.10987967426E+02  0.00000000000E+00 0. -1.
</event>
<event>
 8    1  0.7489580E-009  0.9118800E+02  0.7816164E-02  0.1184000E+00
        -11   -1    0    0    0    0  0.00000000000E+00  0.00000000000E+00  0.45593999997E+02  0.45594000000E+02  0.51100000000E-03 0. -1.
         11   -1    0    0    0    0 -0.00000000000E+00 -0.00000000000E+00 -0.45593999997E+02  0.45594000000E+02  0.51100000000E-03 0.  1.
         23    2    1    2    0    0  0.00000000000E+00  0.44408920985E-15 -0.71054273576E-14  0.91188000000E+02  0.91188000000E+02 0.  0.
    9900012    2    3    3    0    0  0.14807585353E+02  0.25425081493E+01  0.42466274146E+02  0.46142319058E+02  0.10000011824E+02 0.  0.
        -12    1    3    3    0    0 -0.14807585353E+02 -0.25425081493E+01 -0.42466274146E+02  0.45045680942E+02  0.00000000000E+00 0.  1.
         11    1    4    4    0    0  0.74009399510E+01  0.32882829841E+01  0.20668278233E+02  0.22198298190E+02  0.51100000000E-03 0. -1.
        -11    1    4    4    0    0  0.25014755005E+01  0.28294832148E+01  0.96845985856E+01  0.10394941316E+02  0.51100000000E-03 0.  1.
        -12    1    4    4    0    0  0.49051699010E+01 -0.35752580496E+01  0.12113397328E+02  0.13549079552E+02  0.00000000000E+00 0.  1.
</event>
<event>
 8    1  0.7489580E-009  0.9118800E+02  0.7816164E-02  0.1184000E+00
        -11   -1    0    0    0    0  0.00000000000E+00  0.00000000000E+00  0.45593999997E+02  0.45594000000E+02  0.51100000000E-03 0. -1.
         11   -1    0    0    0    0 -0.00000000000E+00 -0.00000000000E+00 -0.45593999997E+02  0.45594000000E+02  0.51100000000E-03 0.  1.
         23    2    1    2    0    0  0.00000000000E+00 -0.71054273576E-14  0.00000000000E+00  0.91188000000E+02  0.91188000000E+02 0.  0.
    9900012    2    3    3    0    0 -0.87139269145E+01 -0.42786658462E+02 -0.11067198466E+02  0.46142317116E+02  0.99999941168E+01 0.  0.
         12    1    3    3    0    0  0.87139269145E+01  0.42786658462E+02  0.11067198466E+02  0.45045682884E+02  0.00000000000E+00 0. -1.
         11    1    4    4    0    0 -0.20724364837E+01 -0.34467957832E+01 -0.30986761246E+01  0.50771240024E+01  0.51100000000E-03 0. -1.
        -11    1    4    4    0    0 -0.46476758262E+01 -0.18081985595E+02 -0.60612318906E+01  0.19628999616E+02  0.51100000000E-03 0.  1.
        -12    1    4    4    0    0 -0.19938146046E+01 -0.21257877084E+02 -0.19072904507E+01  0.21436193498E+02  0.00000000000E+00 0.  1.
</event>
<event>
 8    1  0.7489580E-009  0.9118800E+02  0.7816164E-02  0.1184000E+00
        -11   -1    0    0    0    0  0.00000000000E+00  0.00000000000E+00  0.45593999997E+02  0.45594000000E+02  0.51100000000E-03 0. -1.
         11   -1    0    0    0    0 -0.00000000000E+00 -0.00000000000E+00 -0.45593999997E+02  0.45594000000E+02  0.51100000000E-03 0.  1.
         23    2    1    2    0    0  0.00000000000E+00  0.00000000000E+00  0.00000000000E+00  0.91188000000E+02  0.91188000000E+02 0.  0.
    9900012    2    3    3    0    0 -0.25366077319E+02  0.17540328794E+02  0.32833100281E+02  0.46142317778E+02  0.10000000158E+02 0.  0.
        -12    1    3    3    0    0  0.25366077319E+02 -0.17540328794E+02 -0.32833100281E+02  0.45045682222E+02  0.00000000000E+00 0.  1.
         11    1    4    4    0    0 -0.15300161061E+02  0.53054218651E+01  0.13267757252E+02  0.20935037913E+02  0.51100000000E-03 0. -1.
        -11    1    4    4    0    0 -0.53645808966E+01  0.72260699471E+01  0.10402140663E+02  0.13754975308E+02  0.51100000000E-03 0.  1.
         12    1    4    4    0    0 -0.47013353615E+01  0.50088369818E+01  0.91632023652E+01  0.11452304558E+02  0.00000000000E+00 0. -1.
</event>
<event>
 8    1  0.7489580E-009  0.9118800E+02  0.7816164E-02  0.1184000E+00
        -11   -1    0    0    0    0  0.00000000000E+00  0.00000000000E+00  0.45593999997E+02  0.45594000000E+02  0.51100000000E-03 0. -1.
         11   -1    0    0    0    0 -0.00000000000E+00 -0.00000000000E+00 -0.45593999997E+02  0.45594000000E+02  0.51100000000E-03 0.  1.
         23    2    1    2    0    0  0.17763568394E-14  0.00000000000E+00  0.00000000000E+00  0.91188000000E+02  0.91188000000E+02 0.  0.
    9900012    2    3    3    0    0  0.94426904926E+01 -0.13031663529E+02 -0.42072852739E+02  0.46142316570E+02  0.99999891367E+01 0.  0.
         12    1    3    3    0    0 -0.94426904926E+01  0.13031663529E+02  0.42072852739E+02  0.45045683430E+02  0.00000000000E+00 0. -1.
         11    1    4    4    0    0  0.75507673749E+00 -0.17919241803E+01 -0.81605644145E+00  0.21088104524E+01  0.51100000000E-03 0. -1.
        -11    1    4    4    0    0  0.26481698477E+01 -0.63071938715E+01 -0.26187956231E+02  0.27066631669E+02  0.51100000000E-03 0.  1.
        -12    1    4    4    0    0  0.60394439074E+01 -0.49325454772E+01 -0.15068840067E+02  0.16966874449E+02  0.00000000000E+00 0.  1.
</event>
<event>
 8    1  0.7489580E-009  0.9118800E+02  0.7816164E-02  0.1184000E+00
        -11   -1    0    0    0    0  0.00000000000E+00  0.00000000000E+00  0.45593999997E+02  0.45594000000E+02  0.51100000000E-03 0. -1.
         11   -1    0    0    0    0 -0.00000000000E+00 -0.00000000000E+00 -0.45593999997E+02  0.45594000000E+02  0.51100000000E-03 0.  1.
         23    2    1    2    0    0 -0.88817841970E-15 -0.71054273576E-14  0.00000000000E+00  0.91188000000E+02  0.91188000000E+02 0.  0.
    9900012    2    3    3    0    0 -0.63946055519E+01 -0.37910080914E+02  0.23474416361E+02  0.46142318314E+02  0.10000005039E+02 0.  0.
        -12    1    3    3    0    0  0.63946055519E+01  0.37910080914E+02 -0.23474416361E+02  0.45045681686E+02  0.00000000000E+00 0.  1.
         11    1    4    4    0    0  0.23205452045E+01 -0.60134534474E+01  0.31732700873E+01  0.71844412252E+01  0.51100000000E-03 0. -1.
        -11    1    4    4    0    0 -0.55741007949E+01 -0.18990642209E+02  0.10165758992E+02  0.22249893198E+02  0.51100000000E-03 0.  1.
         12    1    4    4    0    0 -0.31410499614E+01 -0.12905985258E+02  0.10135387281E+02  0.16707983890E+02  0.00000000000E+00 0. -1.
</event>
<event>
 8    1  0.7489580E-009  0.9118800E+02  0.7816164E-02  0.1184000E+00
        -11   -1    0    0    0    0  0.00000000000E+00  0.00000000000E+00  0.45593999997E+02  0.45594000000E+02  0.51100000000E-03 0. -1.
         11   -1    0    0    0    0 -0.00000000000E+00 -0.00000000000E+00 -0.45593999997E+02  0.45594000000E+02  0.51100000000E-03 0.  1.
         23    2    1    2    0    0  0.00000000000E+00  0.00000000000E+00  0.00000000000E+00  0.91188000000E+02  0.91188000000E+02 0.  0.
    9900012    2    3    3    0    0  0.24046160940E+02 -0.41062335588E+01  0.37868648184E+02  0.46142317352E+02  0.99999962650E+01 0.  0.
        -12    1    3    3    0    0 -0.24046160940E+02  0.41062335588E+01 -0.37868648184E+02  0.45045682648E+02  0.00000000000E+00 0.  1.
         11    1    4    4    0    0  0.60745569881E+01 -0.38500541858E+01  0.75920132671E+01  0.10457620453E+02  0.51100000000E-03 0. -1.
        -11    1    4    4    0    0  0.30662977438E+01 -0.16589376511E+00  0.18440732564E+01  0.35819420753E+01  0.51100000000E-03 0.  1.
        -12    1    4    4    0    0  0.14905306208E+02 -0.90285607891E-01  0.28432561660E+02  0.32102754823E+02  0.00000000000E+00 0.  1.
</event>
<event>
 8    1  0.7489580E-009  0.9118800E+02  0.7816164E-02  0.1184000E+00
        -11   -1    0    0    0    0  0.00000000000E+00  0.00000000000E+00  0.45593999997E+02  0.45594000000E+02  0.51100000000E-03 0. -1.
         11   -1    0    0    0    0 -0.00000000000E+00 -0.00000000000E+00 -0.45593999997E+02  0.45594000000E+02  0.51100000000E-03 0.  1.
         23    2    1    2    0    0  0.00000000000E+00  0.00000000000E+00 -0.71054273576E-14  0.91188000000E+02  0.91188000000E+02 0.  0.
    9900012    2    3    3    0    0  0.11296374402E+02  0.77304431311E+01 -0.42915560693E+02  0.46142321237E+02  0.10000031699E+02 0.  0.
         12    1    3    3    0    0 -0.11296374402E+02 -0.77304431311E+01  0.42915560693E+02  0.45045678763E+02  0.00000000000E+00 0. -1.
         11    1    4    4    0    0  0.26079572859E+01  0.46476172048E+01 -0.84247937675E+01  0.99688984935E+01  0.51100000000E-03 0. -1.
        -11    1    4    4    0    0  0.70056126729E+01  0.41153663129E+01 -0.20622770864E+02  0.22165593319E+02  0.51100000000E-03 0.  1.
        -12    1    4    4    0    0  0.16828044430E+01 -0.10325403865E+01 -0.13867996061E+02  0.14007829425E+02  0.00000000000E+00 0.  1.
</event>
<event>
 8    1  0.8407477E-009  0.9118800E+02  0.7816164E-02  0.1184000E+00
        -11   -1    0    0    0    0  0.00000000000E+00  0.00000000000E+00  0.45593999997E+02  0.45594000000E+02  0.51100000000E-03 0. -1.
         11   -1    0    0    0    0 -0.00000000000E+00 -0.00000000000E+00 -0.45593999997E+02  0.45594000000E+02  0.51100000000E-03 0.  1.
         23    2    1    2    0    0  0.00000000000E+00  0.00000000000E+00  0.00000000000E+00  0.91188000000E+02  0.91188000000E+02 0.  0.
    9900012    2    3    3    0    0 -0.37621731172E+02 -0.18802386451E+02 -0.16130377855E+02  0.46142317827E+02  0.10000000605E+02 0.  0.
         12    1    3    3    0    0  0.37621731172E+02  0.18802386451E+02  0.16130377855E+02  0.45045682173E+02  0.00000000000E+00 0. -1.
         11    1    4    4    0    0 -0.23829439776E+02 -0.14018130018E+02 -0.10464694258E+02  0.29561123040E+02  0.51100000000E-03 0. -1.
        -11    1    4    4    0    0 -0.10690851580E+02 -0.57428055133E+01 -0.55190565784E+01  0.13331695633E+02  0.51100000000E-03 0.  1.
         12    1    4    4    0    0 -0.31014398161E+01  0.95854908001E+00 -0.14662701941E+00  0.32494991544E+01  0.00000000000E+00 0. -1.
</event>
<event>
 8    1  0.7489580E-009  0.9118800E+02  0.7816164E-02  0.1184000E+00
        -11   -1    0    0    0    0  0.00000000000E+00  0.00000000000E+00  0.45593999997E+02  0.45594000000E+02  0.51100000000E-03 0. -1.
         11   -1    0    0    0    0 -0.00000000000E+00 -0.00000000000E+00 -0.45593999997E+02  0.45594000000E+02  0.51100000000E-03 0.  1.
         23    2    1    2    0    0 -0.35527136788E-14  0.00000000000E+00  0.00000000000E+00  0.91188000000E+02  0.91188000000E+02 0.  0.
    9900012    2    3    3    0    0  0.24353312706E+02  0.18494351192E+02  0.33075502821E+02  0.46142314828E+02  0.99999732530E+01 0.  0.
        -12    1    3    3    0    0 -0.24353312706E+02 -0.18494351192E+02 -0.33075502821E+02  0.45045685172E+02  0.00000000000E+00 0.  1.
         11    1    4    4    0    0  0.88291370108E-01  0.58158377947E+00  0.18848237961E+01  0.19744862780E+01  0.51100000000E-03 0. -1.
        -11    1    4    4    0    0  0.20089855509E+01  0.48268353025E+01  0.34078623247E+01  0.62408242938E+01  0.51100000000E-03 0.  1.
         12    1    4    4    0    0  0.22256035785E+02  0.13085932110E+02  0.27782816700E+02  0.37927004256E+02  0.00000000000E+00 0. -1.
</event>
<event>
 8    1  0.7489580E-009  0.9118800E+02  0.7816164E-02  0.1184000E+00
        -11   -1    0    0    0    0  0.00000000000E+00  0.00000000000E+00  0.45593999997E+02  0.45594000000E+02  0.51100000000E-03 0. -1.
         11   -1    0    0    0    0 -0.00000000000E+00 -0.00000000000E+00 -0.45593999997E+02  0.45594000000E+02  0.51100000000E-03 0.  1.
         23    2    1    2    0    0  0.35527136788E-14 -0.35527136788E-14 -0.71054273576E-14  0.91188000000E+02  0.91188000000E+02 0.  0.
    9900012    2    3    3    0    0  0.16431633585E+02 -0.26281478029E+02 -0.32686369332E+02  0.46142318633E+02  0.10000007951E+02 0.  0.
         12    1    3    3    0    0 -0.16431633585E+02  0.26281478029E+02  0.32686369332E+02  0.45045681367E+02  0.00000000000E+00 0. -1.
         11    1    4    4    0    0  0.12768310679E+02 -0.21448295150E+02 -0.27615036383E+02  0.37224311372E+02  0.51100000000E-03 0.  1.
        -11    1    4    4    0    0  0.20809802601E+01 -0.29891941053E+01 -0.41496418675E+00  0.36657817420E+01  0.51100000000E-03 0. -1.
        -12    1    4    4    0    0  0.15823426464E+01 -0.18439887737E+01 -0.46563687623E+01  0.52522255187E+01  0.00000000000E+00 0.  1.
</event>
<event>
 8    1  0.7489580E-009  0.9118800E+02  0.7816164E-02  0.1184000E+00
        -11   -1    0    0    0    0  0.00000000000E+00  0.00000000000E+00  0.45593999997E+02  0.45594000000E+02  0.51100000000E-03 0. -1.
         11   -1    0    0    0    0 -0.00000000000E+00 -0.00000000000E+00 -0.45593999997E+02  0.45594000000E+02  0.51100000000E-03 0.  1.
         23    2    1    2    0    0 -0.22204460493E-15  0.00000000000E+00  0.00000000000E+00  0.91188000000E+02  0.91188000000E+02 0.  0.
    9900012    2    3    3    0    0  0.13257142547E+01  0.30136632031E+02 -0.33453546336E+02  0.46142313515E+02  0.99999612815E+01 0.  0.
         12    1    3    3    0    0 -0.13257142547E+01 -0.30136632031E+02  0.33453546336E+02  0.45045686485E+02  0.00000000000E+00 0. -1.
         11    1    4    4    0    0  0.11414554829E-01  0.10401390063E+02 -0.70332215764E+01  0.12556084244E+02  0.51100000000E-03 0. -1.
        -11    1    4    4    0    0  0.29065544846E+01  0.16591682617E+02 -0.23960201690E+02  0.29288619911E+02  0.51100000000E-03 0.  1.
         12    1    4    4    0    0 -0.15922547847E+01  0.31435593512E+01 -0.24601230698E+01  0.42976093601E+01  0.00000000000E+00 0. -1.
</event>
<event>
 8    1  0.7489580E-009  0.9118800E+02  0.7816164E-02  0.1184000E+00
        -11   -1    0    0    0    0  0.00000000000E+00  0.00000000000E+00  0.45593999997E+02  0.45594000000E+02  0.51100000000E-03 0. -1.
         11   -1    0    0    0    0 -0.00000000000E+00 -0.00000000000E+00 -0.45593999997E+02  0.45594000000E+02  0.51100000000E-03 0.  1.
         23    2    1    2    0    0  0.00000000000E+00 -0.33306690739E-15  0.00000000000E+00  0.91188000000E+02  0.91188000000E+02 0.  0.
    9900012    2    3    3    0    0 -0.60390327127E+01  0.85725163155E+00  0.44630799632E+02  0.46142322380E+02  0.10000042118E+02 0.  0.
        -12    1    3    3    0    0  0.60390327127E+01 -0.85725163155E+00 -0.44630799632E+02  0.45045677620E+02  0.00000000000E+00 0.  1.
         11    1    4    4    0    0 -0.43021644016E+01 -0.12759994924E+01  0.20510060654E+02  0.20995222827E+02  0.51100000000E-03 0. -1.
        -11    1    4    4    0    0  0.78250217537E+00 -0.20107059582E+01  0.55807758845E+01  0.59833358454E+01  0.51100000000E-03 0.  1.
        -12    1    4    4    0    0 -0.25193704865E+01  0.41439570822E+01  0.18539963094E+02  0.19163763708E+02  0.00000000000E+00 0.  1.
</event>
<event>
 8    1  0.7489580E-009  0.9118800E+02  0.7816164E-02  0.1184000E+00
        -11   -1    0    0    0    0  0.00000000000E+00  0.00000000000E+00  0.45593999997E+02  0.45594000000E+02  0.51100000000E-03 0. -1.
         11   -1    0    0    0    0 -0.00000000000E+00 -0.00000000000E+00 -0.45593999997E+02  0.45594000000E+02  0.51100000000E-03 0.  1.
         23    2    1    2    0    0  0.00000000000E+00  0.10547118734E-14  0.00000000000E+00  0.91188000000E+02  0.91188000000E+02 0.  0.
    9900012    2    3    3    0    0  0.18882285771E+01 -0.49276984545E+00 -0.45003392060E+02  0.46142317342E+02  0.99999961763E+01 0.  0.
         12    1    3    3    0    0 -0.18882285771E+01  0.49276984545E+00  0.45003392060E+02  0.45045682658E+02  0.00000000000E+00 0. -1.
         11    1    4    4    0    0  0.27671776681E+00  0.85566511737E+00 -0.13413126761E+01  0.16148855909E+01  0.51100000000E-03 0. -1.
        -11    1    4    4    0    0  0.15049001120E+01  0.35301960135E+01 -0.17795312323E+02  0.18204399171E+02  0.51100000000E-03 0.  1.
        -12    1    4    4    0    0  0.10661069831E+00 -0.48786309764E+01 -0.25866767060E+02  0.26323032580E+02  0.00000000000E+00 0.  1.
</event>
<event>
 8    1  0.7489580E-009  0.9118800E+02  0.7816164E-02  0.1184000E+00
        -11   -1    0    0    0    0  0.00000000000E+00  0.00000000000E+00  0.45593999997E+02  0.45594000000E+02  0.51100000000E-03 0. -1.
         11   -1    0    0    0    0 -0.00000000000E+00 -0.00000000000E+00 -0.45593999997E+02  0.45594000000E+02  0.51100000000E-03 0.  1.
         23    2    1    2    0    0 -0.17763568394E-14  0.71054273576E-14  0.00000000000E+00  0.91188000000E+02  0.91188000000E+02 0.  0.
    9900012    2    3    3    0    0 -0.82503787863E+01  0.36796063912E+02 -0.24639285723E+02  0.46142317960E+02  0.10000001811E+02 0.  0.
         12    1    3    3    0    0  0.82503787863E+01 -0.36796063912E+02  0.24639285723E+02  0.45045682040E+02  0.00000000000E+00 0. -1.
         11    1    4    4    0    0  0.90481740950E-03  0.17244719209E+02 -0.14372154751E+02  0.22448589574E+02  0.51100000000E-03 0. -1.
        -11    1    4    4    0    0 -0.56085180905E+01  0.14111498800E+02 -0.84544733785E+01  0.17380103392E+02  0.51100000000E-03 0.  1.
         12    1    4    4    0    0 -0.26427655133E+01  0.54398459039E+01 -0.18126575935E+01  0.63136249942E+01  0.00000000000E+00 0. -1.
</event>
<event>
 8    1  0.7489580E-009  0.9118800E+02  0.7816164E-02  0.1184000E+00
        -11   -1    0    0    0    0  0.00000000000E+00  0.00000000000E+00  0.45593999997E+02  0.45594000000E+02  0.51100000000E-03 0. -1.
         11   -1    0    0    0    0 -0.00000000000E+00 -0.00000000000E+00 -0.45593999997E+02  0.45594000000E+02  0.51100000000E-03 0.  1.
         23    2    1    2    0    0  0.00000000000E+00  0.00000000000E+00  0.00000000000E+00  0.91188000000E+02  0.91188000000E+02 0.  0.
    9900012    2    3    3    0    0  0.48521111685E+01 -0.36623794532E+02 -0.25773393730E+02  0.46142321704E+02  0.10000035958E+02 0.  0.
         12    1    3    3    0    0 -0.48521111685E+01  0.36623794532E+02  0.25773393730E+02  0.45045678296E+02  0.00000000000E+00 0. -1.
         11    1    4    4    0    0  0.32467635783E+01 -0.11797882615E+02 -0.45143579819E+01  0.13042658325E+02  0.51100000000E-03 0.  1.
        -11    1    4    4    0    0 -0.99149967877E+00 -0.17501991762E+02 -0.15836079407E+02  0.23623805759E+02  0.51100000000E-03 0. -1.
        -12    1    4    4    0    0  0.25968472690E+01 -0.73239201545E+01 -0.54229563413E+01  0.94758576207E+01  0.00000000000E+00 0.  1.
</event>
<event>
 8    1  0.7489580E-009  0.9118800E+02  0.7816164E-02  0.1184000E+00
        -11   -1    0    0    0    0  0.00000000000E+00  0.00000000000E+00  0.45593999997E+02  0.45594000000E+02  0.51100000000E-03 0.  1.
         11   -1    0    0    0    0 -0.00000000000E+00 -0.00000000000E+00 -0.45593999997E+02  0.45594000000E+02  0.51100000000E-03 0. -1.
         23    2    1    2    0    0  0.00000000000E+00  0.00000000000E+00  0.00000000000E+00  0.91188000000E+02  0.91188000000E+02 0.  0.
    9900012    2    3    3    0    0 -0.96145988386E+01  0.43324481798E+02 -0.77241365443E+01  0.46142317418E+02  0.99999968747E+01 0.  0.
        -12    1    3    3    0    0  0.96145988386E+01 -0.43324481798E+02  0.77241365443E+01  0.45045682582E+02  0.00000000000E+00 0.  1.
         11    1    4    4    0    0 -0.33320842711E+01  0.17692088682E+02 -0.30164590760E+01  0.18254090313E+02  0.51100000000E-03 0. -1.
        -11    1    4    4    0    0 -0.38613063383E+01  0.20190732322E+02 -0.66790331773E+01  0.21614459114E+02  0.51100000000E-03 0.  1.
        -12    1    4    4    0    0 -0.24212082292E+01  0.54416607934E+01  0.19713557090E+01  0.62737679914E+01  0.00000000000E+00 0.  1.
</event>
<event>
 8    1  0.7489580E-009  0.9118800E+02  0.7816164E-02  0.1184000E+00
        -11   -1    0    0    0    0  0.00000000000E+00  0.00000000000E+00  0.45593999997E+02  0.45594000000E+02  0.51100000000E-03 0. -1.
         11   -1    0    0    0    0 -0.00000000000E+00 -0.00000000000E+00 -0.45593999997E+02  0.45594000000E+02  0.51100000000E-03 0.  1.
         23    2    1    2    0    0  0.00000000000E+00  0.71054273576E-14  0.00000000000E+00  0.91188000000E+02  0.91188000000E+02 0.  0.
    9900012    2    3    3    0    0  0.13150787429E+02  0.38676270079E+02  0.18982001962E+02  0.46142317902E+02  0.10000001284E+02 0.  0.
        -12    1    3    3    0    0 -0.13150787429E+02 -0.38676270079E+02 -0.18982001962E+02  0.45045682098E+02  0.00000000000E+00 0.  1.
         11    1    4    4    0    0  0.16233731756E+01  0.46863301822E+01  0.42148103481E+01  0.65085833770E+01  0.51100000000E-03 0. -1.
        -11    1    4    4    0    0 -0.17745655227E+00  0.96516659290E+01  0.25007537599E+01  0.99719564611E+01  0.51100000000E-03 0.  1.
        -12    1    4    4    0    0  0.11704870805E+02  0.24338273967E+02  0.12266437854E+02  0.29661778064E+02  0.00000000000E+00 0.  1.
</event>
<event>
 8    1  0.7489580E-009  0.9118800E+02  0.7816164E-02  0.1184000E+00
        -11   -1    0    0    0    0  0.00000000000E+00  0.00000000000E+00  0.45593999997E+02  0.45594000000E+02  0.51100000000E-03 0. -1.
         11   -1    0    0    0    0 -0.00000000000E+00 -0.00000000000E+00 -0.45593999997E+02  0.45594000000E+02  0.51100000000E-03 0.  1.
         23    2    1    2    0    0  0.88817841970E-15  0.00000000000E+00 -0.35527136788E-14  0.91188000000E+02  0.91188000000E+02 0.  0.
    9900012    2    3    3    0    0  0.59494366827E+01  0.31678755234E+02 -0.31467035002E+02  0.46142316280E+02  0.99999864896E+01 0.  0.
         12    1    3    3    0    0 -0.59494366827E+01 -0.31678755234E+02  0.31467035002E+02  0.45045683720E+02  0.00000000000E+00 0. -1.
         11    1    4    4    0    0  0.54945011611E+01  0.24148329785E+02 -0.27277097295E+02  0.36842521785E+02  0.51100000000E-03 0. -1.
        -11    1    4    4    0    0 -0.11228266072E+01  0.15243533160E+01 -0.18970822041E+01  0.26801704744E+01  0.51100000000E-03 0.  1.
         12    1    4    4    0    0  0.15777621287E+01  0.60060721334E+01 -0.22928555032E+01  0.66196240200E+01  0.00000000000E+00 0. -1.
</event>
<event>
 8    1  0.7489580E-009  0.9118800E+02  0.7816164E-02  0.1184000E+00
        -11   -1    0    0    0    0  0.00000000000E+00  0.00000000000E+00  0.45593999997E+02  0.45594000000E+02  0.51100000000E-03 0. -1.
         11   -1    0    0    0    0 -0.00000000000E+00 -0.00000000000E+00 -0.45593999997E+02  0.45594000000E+02  0.51100000000E-03 0.  1.
         23    2    1    2    0    0  0.14210854715E-13  0.35527136788E-14  0.00000000000E+00  0.91188000000E+02  0.91188000000E+02 0.  0.
    9900012    2    3    3    0    0  0.42023730596E+02  0.16150989341E+02  0.15050020071E+01  0.46142318510E+02  0.10000006826E+02 0.  0.
        -12    1    3    3    0    0 -0.42023730596E+02 -0.16150989341E+02 -0.15050020071E+01  0.45045681490E+02  0.00000000000E+00 0.  1.
         11    1    4    4    0    0  0.22063400172E+02  0.51811359388E+01  0.47639793629E+00  0.22668585135E+02  0.51100000000E-03 0. -1.
        -11    1    4    4    0    0  0.16818295391E+02  0.74997337726E+01  0.24605788236E+01  0.18578361470E+02  0.51100000000E-03 0.  1.
        -12    1    4    4    0    0  0.31420350334E+01  0.34701196293E+01 -0.14319747527E+01  0.48953719048E+01  0.00000000000E+00 0.  1.
</event>
<event>
 8    1  0.7489580E-009  0.9118800E+02  0.7816164E-02  0.1184000E+00
        -11   -1    0    0    0    0  0.00000000000E+00  0.00000000000E+00  0.45593999997E+02  0.45594000000E+02  0.51100000000E-03 0. -1.
         11   -1    0    0    0    0 -0.00000000000E+00 -0.00000000000E+00 -0.45593999997E+02  0.45594000000E+02  0.51100000000E-03 0.  1.
         23    2    1    2    0    0  0.00000000000E+00  0.00000000000E+00  0.00000000000E+00  0.91188000000E+02  0.91188000000E+02 0.  0.
    9900012    2    3    3    0    0 -0.23285930528E+02 -0.36766344153E+02  0.11623889032E+02  0.46142318529E+02  0.10000007004E+02 0.  0.
        -12    1    3    3    0    0  0.23285930528E+02  0.36766344153E+02 -0.11623889032E+02  0.45045681471E+02  0.00000000000E+00 0.  1.
         11    1    4    4    0    0 -0.14495197658E+02 -0.22873225625E+02  0.88996057925E+01  0.28504353863E+02  0.51100000000E-03 0. -1.
        -11    1    4    4    0    0 -0.88302815785E+00 -0.25294957317E+01  0.26858243219E+01  0.37936446767E+01  0.51100000000E-03 0.  1.
        -12    1    4    4    0    0 -0.79077047127E+01 -0.11363622796E+02  0.38458917610E-01  0.13844319989E+02  0.00000000000E+00 0.  1.
</event>
<event>
 8    1  0.7489580E-009  0.9118800E+02  0.7816164E-02  0.1184000E+00
        -11   -1    0    0    0    0  0.00000000000E+00  0.00000000000E+00  0.45593999997E+02  0.45594000000E+02  0.51100000000E-03 0. -1.
         11   -1    0    0    0    0 -0.00000000000E+00 -0.00000000000E+00 -0.45593999997E+02  0.45594000000E+02  0.51100000000E-03 0.  1.
         23    2    1    2    0    0  0.35527136788E-14  0.00000000000E+00  0.00000000000E+00  0.91188000000E+02  0.91188000000E+02 0.  0.
    9900012    2    3    3    0    0 -0.19791324006E+02  0.14883887245E+02  0.37628274058E+02  0.46142316366E+02  0.99999872798E+01 0.  0.
        -12    1    3    3    0    0  0.19791324006E+02 -0.14883887245E+02 -0.37628274058E+02  0.45045683634E+02  0.00000000000E+00 0.  1.
         11    1    4    4    0    0 -0.90699685314E+01  0.65772715971E+01  0.12124009467E+02  0.16508071863E+02  0.51100000000E-03 0. -1.
        -11    1    4    4    0    0 -0.87067838304E+01  0.78478127794E+01  0.15578934721E+02  0.19496139551E+02  0.51100000000E-03 0.  1.
        -12    1    4    4    0    0 -0.20145716440E+01  0.45880286860E+00  0.99253298707E+01  0.10138104952E+02  0.00000000000E+00 0.  1.
</event>
<event>
 8    1  0.7489580E-009  0.9118800E+02  0.7816164E-02  0.1184000E+00
        -11   -1    0    0    0    0  0.00000000000E+00  0.00000000000E+00  0.45593999997E+02  0.45594000000E+02  0.51100000000E-03 0. -1.
         11   -1    0    0    0    0 -0.00000000000E+00 -0.00000000000E+00 -0.45593999997E+02  0.45594000000E+02  0.51100000000E-03 0.  1.
         23    2    1    2    0    0  0.71054273576E-14  0.00000000000E+00  0.00000000000E+00  0.91188000000E+02  0.91188000000E+02 0.  0.
    9900012    2    3    3    0    0  0.40012983119E+02  0.35360140868E+01 -0.20385565071E+02  0.46142317888E+02  0.10000001153E+02 0.  0.
         12    1    3    3    0    0 -0.40012983119E+02 -0.35360140868E+01  0.20385565071E+02  0.45045682112E+02  0.00000000000E+00 0. -1.
         11    1    4    4    0    0  0.57346401142E+01 -0.10190859547E+00 -0.68975833827E+00  0.57768719415E+01  0.51100000000E-03 0. -1.
        -11    1    4    4    0    0  0.20563845225E+01 -0.32550101046E+00 -0.35304513670E+01  0.40986284691E+01  0.51100000000E-03 0.  1.
        -12    1    4    4    0    0  0.32221958483E+02  0.39634236928E+01 -0.16165355365E+02  0.36266817477E+02  0.00000000000E+00 0.  1.
</event>
<event>
 8    1  0.9338307E-009  0.9118800E+02  0.7816164E-02  0.1184000E+00
        -11   -1    0    0    0    0  0.00000000000E+00  0.00000000000E+00  0.45593999997E+02  0.45594000000E+02  0.51100000000E-03 0. -1.
         11   -1    0    0    0    0 -0.00000000000E+00 -0.00000000000E+00 -0.45593999997E+02  0.45594000000E+02  0.51100000000E-03 0.  1.
         23    2    1    2    0    0  0.00000000000E+00 -0.44408920985E-15  0.00000000000E+00  0.91188000000E+02  0.91188000000E+02 0.  0.
    9900012    2    3    3    0    0 -0.20122226065E+02 -0.22431640411E+01 -0.40239006998E+02  0.46142318176E+02  0.10000003788E+02 0.  0.
         12    1    3    3    0    0  0.20122226065E+02  0.22431640411E+01  0.40239006998E+02  0.45045681824E+02  0.00000000000E+00 0. -1.
         11    1    4    4    0    0 -0.56774746420E+01  0.15920752273E+01 -0.56020927099E+01  0.81333796685E+01  0.51100000000E-03 0. -1.
        -11    1    4    4    0    0 -0.63887925005E+01  0.51900644392E+00 -0.12357924946E+02  0.13921362955E+02  0.51100000000E-03 0.  1.
         12    1    4    4    0    0 -0.80559589230E+01 -0.43542457123E+01 -0.22278989343E+02  0.24087575553E+02  0.00000000000E+00 0. -1.
</event>
<event>
 8    1  0.7489580E-009  0.9118800E+02  0.7816164E-02  0.1184000E+00
        -11   -1    0    0    0    0  0.00000000000E+00  0.00000000000E+00  0.45593999997E+02  0.45594000000E+02  0.51100000000E-03 0. -1.
         11   -1    0    0    0    0 -0.00000000000E+00 -0.00000000000E+00 -0.45593999997E+02  0.45594000000E+02  0.51100000000E-03 0.  1.
         23    2    1    2    0    0  0.35527136788E-14  0.00000000000E+00  0.35527136788E-14  0.91188000000E+02  0.91188000000E+02 0.  0.
    9900012    2    3    3    0    0  0.22741267470E+02  0.32261768764E+02  0.21705449046E+02  0.46142317763E+02  0.10000000021E+02 0.  0.
        -12    1    3    3    0    0 -0.22741267470E+02 -0.32261768764E+02 -0.21705449046E+02  0.45045682237E+02  0.00000000000E+00 0.  1.
         11    1    4    4    0    0  0.89699227378E+00  0.12908245609E+01 -0.35698120871E+00  0.16119116076E+01  0.51100000000E-03 0.  1.
        -11    1    4    4    0    0  0.13123914749E+02  0.11946178723E+02  0.97359574580E+01  0.20241966118E+02  0.51100000000E-03 0. -1.
        -12    1    4    4    0    0  0.87203604465E+01  0.19024765479E+02  0.12326472797E+02  0.24288440038E+02  0.00000000000E+00 0.  1.
</event>
<event>
 8    1  0.7489580E-009  0.9118800E+02  0.7816164E-02  0.1184000E+00
        -11   -1    0    0    0    0  0.00000000000E+00  0.00000000000E+00  0.45593999997E+02  0.45594000000E+02  0.51100000000E-03 0. -1.
         11   -1    0    0    0    0 -0.00000000000E+00 -0.00000000000E+00 -0.45593999997E+02  0.45594000000E+02  0.51100000000E-03 0.  1.
         23    2    1    2    0    0  0.00000000000E+00  0.00000000000E+00  0.00000000000E+00  0.91188000000E+02  0.91188000000E+02 0.  0.
    9900012    2    3    3    0    0 -0.54668811452E+01  0.26410112489E+02  0.36079532284E+02  0.46142317844E+02  0.10000000752E+02 0.  0.
        -12    1    3    3    0    0  0.54668811452E+01 -0.26410112489E+02 -0.36079532284E+02  0.45045682156E+02  0.00000000000E+00 0.  1.
         11    1    4    4    0    0  0.17962151045E+01  0.21737670605E+01  0.33598015500E+01  0.43863331669E+01  0.51100000000E-03 0. -1.
        -11    1    4    4    0    0 -0.11845855576E+01  0.11176600982E+02  0.11256287199E+02  0.15906717267E+02  0.51100000000E-03 0.  1.
         12    1    4    4    0    0 -0.60785106920E+01  0.13059744446E+02  0.21463443534E+02  0.25849267409E+02  0.00000000000E+00 0. -1.
</event>
<event>
 8    1  0.7489580E-009  0.9118800E+02  0.7816164E-02  0.1184000E+00
        -11   -1    0    0    0    0  0.00000000000E+00  0.00000000000E+00  0.45593999997E+02  0.45594000000E+02  0.51100000000E-03 0.  1.
         11   -1    0    0    0    0 -0.00000000000E+00 -0.00000000000E+00 -0.45593999997E+02  0.45594000000E+02  0.51100000000E-03 0. -1.
         23    2    1    2    0    0 -0.35527136788E-14  0.35527136788E-14  0.00000000000E+00  0.91188000000E+02  0.91188000000E+02 0.  0.
    9900012    2    3    3    0    0  0.30985134035E+02 -0.27288731309E+02  0.18010000675E+02  0.46142317499E+02  0.99999976124E+01 0.  0.
        -12    1    3    3    0    0 -0.30985134035E+02  0.27288731309E+02 -0.18010000675E+02  0.45045682501E+02  0.00000000000E+00 0.  1.
         11    1    4    4    0    0  0.19639408791E+02 -0.13466607359E+02  0.91934727584E+01  0.25525983488E+02  0.51100000000E-03 0. -1.
        -11    1    4    4    0    0  0.41032481352E+01 -0.16635738193E+01  0.27974478766E+01  0.52373502838E+01  0.51100000000E-03 0.  1.
        -12    1    4    4    0    0  0.72424771091E+01 -0.12158550131E+02  0.60190800402E+01  0.15378983727E+02  0.00000000000E+00 0.  1.
</event>
<event>
 8    1  0.7489580E-009  0.9118800E+02  0.7816164E-02  0.1184000E+00
        -11   -1    0    0    0    0  0.00000000000E+00  0.00000000000E+00  0.45593999997E+02  0.45594000000E+02  0.51100000000E-03 0. -1.
         11   -1    0    0    0    0 -0.00000000000E+00 -0.00000000000E+00 -0.45593999997E+02  0.45594000000E+02  0.51100000000E-03 0.  1.
         23    2    1    2    0    0 -0.35527136788E-14  0.35527136788E-14  0.00000000000E+00  0.91188000000E+02  0.91188000000E+02 0.  0.
    9900012    2    3    3    0    0 -0.16671774866E+02  0.17183204393E+02 -0.38156296350E+02  0.46142317171E+02  0.99999946183E+01 0.  0.
         12    1    3    3    0    0  0.16671774866E+02 -0.17183204393E+02  0.38156296350E+02  0.45045682829E+02  0.00000000000E+00 0. -1.
         11    1    4    4    0    0 -0.36685282821E+01  0.18011793804E+01 -0.19782105140E+01  0.45404475568E+01  0.51100000000E-03 0. -1.
        -11    1    4    4    0    0 -0.50119227177E+01  0.50579081551E+01 -0.16682514186E+02  0.18138579990E+02  0.51100000000E-03 0.  1.
         12    1    4    4    0    0 -0.79913238665E+01  0.10324116857E+02 -0.19495571650E+02  0.23463289624E+02  0.00000000000E+00 0. -1.
</event>
<event>
 8    1  0.7489580E-009  0.9118800E+02  0.7816164E-02  0.1184000E+00
        -11   -1    0    0    0    0  0.00000000000E+00  0.00000000000E+00  0.45593999997E+02  0.45594000000E+02  0.51100000000E-03 0. -1.
         11   -1    0    0    0    0 -0.00000000000E+00 -0.00000000000E+00 -0.45593999997E+02  0.45594000000E+02  0.51100000000E-03 0.  1.
         23    2    1    2    0    0  0.17763568394E-14  0.00000000000E+00  0.00000000000E+00  0.91188000000E+02  0.91188000000E+02 0.  0.
    9900012    2    3    3    0    0 -0.14416307527E+02  0.21062912989E+01 -0.42624490186E+02  0.46142317084E+02  0.99999938257E+01 0.  0.
         12    1    3    3    0    0  0.14416307527E+02 -0.21062912989E+01  0.42624490186E+02  0.45045682916E+02  0.00000000000E+00 0. -1.
         11    1    4    4    0    0 -0.28836780113E+01 -0.29322106025E+01 -0.88767008888E+01  0.97831118169E+01  0.51100000000E-03 0. -1.
        -11    1    4    4    0    0 -0.56894952532E+01  0.11677836086E+01 -0.21258499296E+02  0.22037646594E+02  0.51100000000E-03 0.  1.
        -12    1    4    4    0    0 -0.58431342628E+01  0.38707182929E+01 -0.12489290001E+02  0.14321558674E+02  0.00000000000E+00 0.  1.
</event>
<event>
 8    1  0.7489580E-009  0.9118800E+02  0.7816164E-02  0.1184000E+00
        -11   -1    0    0    0    0  0.00000000000E+00  0.00000000000E+00  0.45593999997E+02  0.45594000000E+02  0.51100000000E-03 0. -1.
         11   -1    0    0    0    0 -0.00000000000E+00 -0.00000000000E+00 -0.45593999997E+02  0.45594000000E+02  0.51100000000E-03 0.  1.
         23    2    1    2    0    0 -0.88817841970E-15  0.71054273576E-14 -0.35527136788E-14  0.91188000000E+02  0.91188000000E+02 0.  0.
    9900012    2    3    3    0    0  0.57764165457E+01 -0.31645646198E+02  0.31532516007E+02  0.46142317886E+02  0.10000001137E+02 0.  0.
        -12    1    3    3    0    0 -0.57764165457E+01  0.31645646198E+02 -0.31532516007E+02  0.45045682114E+02  0.00000000000E+00 0.  1.
         11    1    4    4    0    0  0.30071555795E+01 -0.15529572865E+02  0.19974714427E+02  0.25479400203E+02  0.51100000000E-03 0. -1.
        -11    1    4    4    0    0  0.18566569411E+01 -0.14525515518E+02  0.80642956963E+01  0.16717375434E+02  0.51100000000E-03 0.  1.
        -12    1    4    4    0    0  0.91260402502E+00 -0.15905578152E+01  0.34935058844E+01  0.39455422485E+01  0.00000000000E+00 0.  1.
</event>
<event>
 8    1  0.7489580E-009  0.9118800E+02  0.7816164E-02  0.1184000E+00
        -11   -1    0    0    0    0  0.00000000000E+00  0.00000000000E+00  0.45593999997E+02  0.45594000000E+02  0.51100000000E-03 0. -1.
         11   -1    0    0    0    0 -0.00000000000E+00 -0.00000000000E+00 -0.45593999997E+02  0.45594000000E+02  0.51100000000E-03 0.  1.
         23    2    1    2    0    0 -0.55511151231E-15  0.35527136788E-14 -0.71054273576E-14  0.91188000000E+02  0.91188000000E+02 0.  0.
    9900012    2    3    3    0    0  0.72811413174E+00 -0.31110262211E+02  0.32568922059E+02  0.46142320417E+02  0.10000024215E+02 0.  0.
        -12    1    3    3    0    0 -0.72811413174E+00  0.31110262211E+02 -0.32568922059E+02  0.45045679583E+02  0.00000000000E+00 0.  1.
         11    1    4    4    0    0  0.20389745470E+01 -0.38751482162E+01  0.20824460421E+01  0.48487908472E+01  0.51100000000E-03 0.  1.
        -11    1    4    4    0    0 -0.31180144139E+01 -0.18675208134E+02  0.18665855990E+02  0.26587583434E+02  0.51100000000E-03 0. -1.
         12    1    4    4    0    0  0.18071539986E+01 -0.85599058604E+01  0.11820620027E+02  0.14705946136E+02  0.00000000000E+00 0. -1.
</event>
<event>
 8    1  0.7489580E-009  0.9118800E+02  0.7816164E-02  0.1184000E+00
        -11   -1    0    0    0    0  0.00000000000E+00  0.00000000000E+00  0.45593999997E+02  0.45594000000E+02  0.51100000000E-03 0. -1.
         11   -1    0    0    0    0 -0.00000000000E+00 -0.00000000000E+00 -0.45593999997E+02  0.45594000000E+02  0.51100000000E-03 0.  1.
         23    2    1    2    0    0  0.35527136788E-14 -0.22204460493E-15  0.00000000000E+00  0.91188000000E+02  0.91188000000E+02 0.  0.
    9900012    2    3    3    0    0 -0.21399669168E+02  0.14777219903E+01 -0.39610404574E+02  0.46142315930E+02  0.99999833030E+01 0.  0.
         12    1    3    3    0    0  0.21399669168E+02 -0.14777219903E+01  0.39610404574E+02  0.45045684070E+02  0.00000000000E+00 0. -1.
         11    1    4    4    0    0 -0.20928236560E+01  0.64603362350E+00 -0.76098920755E+01  0.79188211219E+01  0.51100000000E-03 0. -1.
        -11    1    4    4    0    0 -0.82380419629E+01 -0.35778978777E+01 -0.14290130394E+02  0.16878226078E+02  0.51100000000E-03 0.  1.
        -12    1    4    4    0    0 -0.11068803550E+02  0.44095862445E+01 -0.17710382104E+02  0.21345268730E+02  0.00000000000E+00 0.  1.
</event>
<event>
 8    1  0.7489580E-009  0.9118800E+02  0.7816164E-02  0.1184000E+00
        -11   -1    0    0    0    0  0.00000000000E+00  0.00000000000E+00  0.45593999997E+02  0.45594000000E+02  0.51100000000E-03 0. -1.
         11   -1    0    0    0    0 -0.00000000000E+00 -0.00000000000E+00 -0.45593999997E+02  0.45594000000E+02  0.51100000000E-03 0.  1.
         23    2    1    2    0    0  0.00000000000E+00 -0.35527136788E-14  0.00000000000E+00  0.91188000000E+02  0.91188000000E+02 0.  0.
    9900012    2    3    3    0    0 -0.26274921247E+02 -0.21043793088E+02  0.29931605783E+02  0.46142314981E+02  0.99999746525E+01 0.  0.
        -12    1    3    3    0    0  0.26274921247E+02  0.21043793088E+02 -0.29931605783E+02  0.45045685019E+02  0.00000000000E+00 0.  1.
         11    1    4    4    0    0 -0.28369515354E+01 -0.78535497273E+00  0.38113882509E+01  0.48157820868E+01  0.51100000000E-03 0. -1.
        -11    1    4    4    0    0 -0.38506526501E+01 -0.24616707612E-01  0.35334030539E+01  0.52261906985E+01  0.51100000000E-03 0.  1.
         12    1    4    4    0    0 -0.19587317061E+02 -0.20233821408E+02  0.22586814478E+02  0.36100342196E+02  0.00000000000E+00 0. -1.
</event>
<event>
 8    1  0.7489580E-009  0.9118800E+02  0.7816164E-02  0.1184000E+00
        -11   -1    0    0    0    0  0.00000000000E+00  0.00000000000E+00  0.45593999997E+02  0.45594000000E+02  0.51100000000E-03 0.  1.
         11   -1    0    0    0    0 -0.00000000000E+00 -0.00000000000E+00 -0.45593999997E+02  0.45594000000E+02  0.51100000000E-03 0. -1.
         23    2    1    2    0    0  0.00000000000E+00 -0.35527136788E-14  0.17763568394E-14  0.91188000000E+02  0.91188000000E+02 0.  0.
    9900012    2    3    3    0    0 -0.35712026419E+02 -0.24830674792E+02  0.11713336476E+02  0.46142317710E+02  0.99999995328E+01 0.  0.
        -12    1    3    3    0    0  0.35712026419E+02  0.24830674792E+02 -0.11713336476E+02  0.45045682290E+02  0.00000000000E+00 0.  1.
         11    1    4    4    0    0 -0.22677349635E+02 -0.13413677763E+02  0.46409143845E+01  0.26753075042E+02  0.51100000000E-03 0. -1.
        -11    1    4    4    0    0 -0.62338942918E+01 -0.22929636743E+01  0.20584882663E+01  0.69538834227E+01  0.51100000000E-03 0.  1.
        -12    1    4    4    0    0 -0.68007824923E+01 -0.91240333544E+01  0.50139338249E+01  0.12435359245E+02  0.00000000000E+00 0.  1.
</event>
<event>
 8    1  0.7489580E-009  0.9118800E+02  0.7816164E-02  0.1184000E+00
        -11   -1    0    0    0    0  0.00000000000E+00  0.00000000000E+00  0.45593999997E+02  0.45594000000E+02  0.51100000000E-03 0. -1.
         11   -1    0    0    0    0 -0.00000000000E+00 -0.00000000000E+00 -0.45593999997E+02  0.45594000000E+02  0.51100000000E-03 0.  1.
         23    2    1    2    0    0 -0.71054273576E-14  0.00000000000E+00  0.17763568394E-14  0.91188000000E+02  0.91188000000E+02 0.  0.
    9900012    2    3    3    0    0  0.43005715687E+02  0.73715920873E+00 -0.13382037754E+02  0.46142312971E+02  0.99999563183E+01 0.  0.
         12    1    3    3    0    0 -0.43005715687E+02 -0.73715920873E+00  0.13382037754E+02  0.45045687029E+02  0.00000000000E+00 0. -1.
         11    1    4    4    0    0 -0.70496586124E-02 -0.13199491083E+00 -0.12243147989E+00  0.18017236903E+00  0.51100000000E-03 0. -1.
        -11    1    4    4    0    0  0.37686267378E+02 -0.31443934405E+00 -0.14475413966E+02  0.40371911408E+02  0.51100000000E-03 0.  1.
        -12    1    4    4    0    0  0.53264979681E+01  0.11835934636E+01  0.12158076929E+01  0.55902291936E+01  0.00000000000E+00 0.  1.
</event>
<event>
 8    1  0.7489580E-009  0.9118800E+02  0.7816164E-02  0.1184000E+00
        -11   -1    0    0    0    0  0.00000000000E+00  0.00000000000E+00  0.45593999997E+02  0.45594000000E+02  0.51100000000E-03 0. -1.
         11   -1    0    0    0    0 -0.00000000000E+00 -0.00000000000E+00 -0.45593999997E+02  0.45594000000E+02  0.51100000000E-03 0.  1.
         23    2    1    2    0    0  0.00000000000E+00  0.00000000000E+00  0.00000000000E+00  0.91188000000E+02  0.91188000000E+02 0.  0.
    9900012    2    3    3    0    0 -0.16299397864E+02 -0.16469077128E+02 -0.38629169145E+02  0.46142316733E+02  0.99999906257E+01 0.  0.
         12    1    3    3    0    0  0.16299397864E+02  0.16469077128E+02  0.38629169145E+02  0.45045683267E+02  0.00000000000E+00 0. -1.
         11    1    4    4    0    0 -0.15892782337E+01  0.11373328745E+00 -0.66212518067E+01  0.68102655098E+01  0.51100000000E-03 0. -1.
        -11    1    4    4    0    0 -0.92064203148E+00  0.24697791381E+00 -0.60776916788E+00  0.11304704607E+01  0.51100000000E-03 0.  1.
        -12    1    4    4    0    0 -0.13789477599E+02 -0.16829788330E+02 -0.31400148170E+02  0.38201580763E+02  0.00000000000E+00 0.  1.
</event>
<event>
 8    1  0.7489580E-009  0.9118800E+02  0.7816164E-02  0.1184000E+00
        -11   -1    0    0    0    0  0.00000000000E+00  0.00000000000E+00  0.45593999997E+02  0.45594000000E+02  0.51100000000E-03 0.  1.
         11   -1    0    0    0    0 -0.00000000000E+00 -0.00000000000E+00 -0.45593999997E+02  0.45594000000E+02  0.51100000000E-03 0. -1.
         23    2    1    2    0    0  0.35527136788E-14  0.00000000000E+00  0.00000000000E+00  0.91188000000E+02  0.91188000000E+02 0.  0.
    9900012    2    3    3    0    0  0.27173131383E+02  0.35818988242E+02  0.27810950610E+01  0.46142317881E+02  0.10000001092E+02 0.  0.
         12    1    3    3    0    0 -0.27173131383E+02 -0.35818988242E+02 -0.27810950610E+01  0.45045682119E+02  0.00000000000E+00 0. -1.
         11    1    4    4    0    0  0.46417351276E+01  0.74463913046E+01  0.27924386567E+01  0.92082659806E+01  0.51100000000E-03 0. -1.
        -11    1    4    4    0    0  0.92544932210E+01  0.14508425664E+02 -0.31157795115E+01  0.17488514581E+02  0.51100000000E-03 0.  1.
         12    1    4    4    0    0  0.13276903034E+02  0.13864171274E+02  0.31044359158E+01  0.19445537319E+02  0.00000000000E+00 0. -1.
</event>
<event>
 8    1  0.7489580E-009  0.9118800E+02  0.7816164E-02  0.1184000E+00
        -11   -1    0    0    0    0  0.00000000000E+00  0.00000000000E+00  0.45593999997E+02  0.45594000000E+02  0.51100000000E-03 0.  1.
         11   -1    0    0    0    0 -0.00000000000E+00 -0.00000000000E+00 -0.45593999997E+02  0.45594000000E+02  0.51100000000E-03 0. -1.
         23    2    1    2    0    0  0.00000000000E+00  0.00000000000E+00  0.00000000000E+00  0.91188000000E+02  0.91188000000E+02 0.  0.
    9900012    2    3    3    0    0  0.23900506722E+02 -0.32782835360E+02 -0.19574597024E+02  0.46142319136E+02  0.10000012540E+02 0.  0.
         12    1    3    3    0    0 -0.23900506722E+02  0.32782835360E+02  0.19574597024E+02  0.45045680864E+02  0.00000000000E+00 0. -1.
         11    1    4    4    0    0  0.10974080903E+02 -0.10683215811E+02 -0.94128642627E+01  0.17976750697E+02  0.51100000000E-03 0.  1.
        -11    1    4    4    0    0  0.31583273615E+01 -0.39128390803E+01  0.26979373166E+00  0.50356856841E+01  0.51100000000E-03 0. -1.
         12    1    4    4    0    0  0.97680984573E+01 -0.18186780468E+02 -0.10431526493E+02  0.23129882755E+02  0.00000000000E+00 0. -1.
</event>
<event>
 8    1  0.7489580E-009  0.9118800E+02  0.7816164E-02  0.1184000E+00
        -11   -1    0    0    0    0  0.00000000000E+00  0.00000000000E+00  0.45593999997E+02  0.45594000000E+02  0.51100000000E-03 0. -1.
         11   -1    0    0    0    0 -0.00000000000E+00 -0.00000000000E+00 -0.45593999997E+02  0.45594000000E+02  0.51100000000E-03 0.  1.
         23    2    1    2    0    0  0.00000000000E+00  0.00000000000E+00  0.00000000000E+00  0.91188000000E+02  0.91188000000E+02 0.  0.
    9900012    2    3    3    0    0 -0.18851800806E+02 -0.59574995625E+01  0.40475070308E+02  0.46142317509E+02  0.99999976972E+01 0.  0.
        -12    1    3    3    0    0  0.18851800806E+02  0.59574995625E+01 -0.40475070308E+02  0.45045682491E+02  0.00000000000E+00 0.  1.
         11    1    4    4    0    0 -0.10659804241E+02 -0.28699062413E+01  0.26162373622E+02  0.28396083922E+02  0.51100000000E-03 0. -1.
        -11    1    4    4    0    0 -0.13035983893E+01  0.16663063377E+01  0.31435938597E+01  0.37892120800E+01  0.51100000000E-03 0.  1.
         12    1    4    4    0    0 -0.68883981758E+01 -0.47538996589E+01  0.11169102826E+02  0.13957021507E+02  0.00000000000E+00 0. -1.
</event>
<event>
 8    1  0.7489580E-009  0.9118800E+02  0.7816164E-02  0.1184000E+00
        -11   -1    0    0    0    0  0.00000000000E+00  0.00000000000E+00  0.45593999997E+02  0.45594000000E+02  0.51100000000E-03 0. -1.
         11   -1    0    0    0    0 -0.00000000000E+00 -0.00000000000E+00 -0.45593999997E+02  0.45594000000E+02  0.51100000000E-03 0.  1.
         23    2    1    2    0    0  0.00000000000E+00  0.71054273576E-14  0.00000000000E+00  0.91188000000E+02  0.91188000000E+02 0.  0.
    9900012    2    3    3    0    0  0.61805933302E+01  0.39637853436E+02 -0.20487906611E+02  0.46142317896E+02  0.10000001233E+02 0.  0.
         12    1    3    3    0    0 -0.61805933302E+01 -0.39637853436E+02  0.20487906611E+02  0.45045682104E+02  0.00000000000E+00 0. -1.
         11    1    4    4    0    0  0.31445955285E+01  0.14889227270E+02 -0.11614740288E+02  0.19143661143E+02  0.51100000000E-03 0. -1.
        -11    1    4    4    0    0  0.79415915807E+00  0.85514330082E+01 -0.57932840278E+01  0.10359528722E+02  0.51100000000E-03 0.  1.
        -12    1    4    4    0    0  0.22418386436E+01  0.16197193157E+02 -0.30798822946E+01  0.16639128031E+02  0.00000000000E+00 0.  1.
</event>
<event>
 8    1  0.7489580E-009  0.9118800E+02  0.7816164E-02  0.1184000E+00
        -11   -1    0    0    0    0  0.00000000000E+00  0.00000000000E+00  0.45593999997E+02  0.45594000000E+02  0.51100000000E-03 0. -1.
         11   -1    0    0    0    0 -0.00000000000E+00 -0.00000000000E+00 -0.45593999997E+02  0.45594000000E+02  0.51100000000E-03 0.  1.
         23    2    1    2    0    0  0.88817841970E-15  0.00000000000E+00 -0.35527136788E-14  0.91188000000E+02  0.91188000000E+02 0.  0.
    9900012    2    3    3    0    0 -0.66957819497E+01 -0.32246880945E+02  0.30731392547E+02  0.46142319691E+02  0.10000017600E+02 0.  0.
        -12    1    3    3    0    0  0.66957819497E+01  0.32246880945E+02 -0.30731392547E+02  0.45045680309E+02  0.00000000000E+00 0.  1.
         11    1    4    4    0    0 -0.20378170461E+01 -0.13559325626E+01  0.66377296717E+00  0.25361084836E+01  0.51100000000E-03 0.  1.
        -11    1    4    4    0    0 -0.30033031173E+01 -0.78769500481E+01  0.94443821189E+01  0.12659483621E+02  0.51100000000E-03 0. -1.
        -12    1    4    4    0    0 -0.16546617864E+01 -0.23013998334E+02  0.20623237461E+02  0.30946727587E+02  0.00000000000E+00 0.  1.
</event>
<event>
 8    1  0.7489580E-009  0.9118800E+02  0.7816164E-02  0.1184000E+00
        -11   -1    0    0    0    0  0.00000000000E+00  0.00000000000E+00  0.45593999997E+02  0.45594000000E+02  0.51100000000E-03 0. -1.
         11   -1    0    0    0    0 -0.00000000000E+00 -0.00000000000E+00 -0.45593999997E+02  0.45594000000E+02  0.51100000000E-03 0.  1.
         23    2    1    2    0    0 -0.35527136788E-14 -0.22204460493E-15  0.00000000000E+00  0.91188000000E+02  0.91188000000E+02 0.  0.
    9900012    2    3    3    0    0 -0.27412403359E+02 -0.12261487056E+01  0.35723524017E+02  0.46142318001E+02  0.10000002185E+02 0.  0.
        -12    1    3    3    0    0  0.27412403359E+02  0.12261487056E+01 -0.35723524017E+02  0.45045681999E+02  0.00000000000E+00 0.  1.
         11    1    4    4    0    0 -0.18975678017E+02 -0.57983580577E+00  0.23455730330E+02  0.30175881948E+02  0.51100000000E-03 0. -1.
        -11    1    4    4    0    0 -0.92428095241E+01 -0.10348406358E+00  0.10969029365E+02  0.14344331365E+02  0.51100000000E-03 0.  1.
        -12    1    4    4    0    0  0.80608418147E+00 -0.54282883621E+00  0.12987643218E+01  0.16221046873E+01  0.00000000000E+00 0.  1.
</event>
<event>
 8    1  0.7489580E-009  0.9118800E+02  0.7816164E-02  0.1184000E+00
        -11   -1    0    0    0    0  0.00000000000E+00  0.00000000000E+00  0.45593999997E+02  0.45594000000E+02  0.51100000000E-03 0. -1.
         11   -1    0    0    0    0 -0.00000000000E+00 -0.00000000000E+00 -0.45593999997E+02  0.45594000000E+02  0.51100000000E-03 0.  1.
         23    2    1    2    0    0  0.44408920985E-15  0.17763568394E-14  0.00000000000E+00  0.91188000000E+02  0.91188000000E+02 0.  0.
    9900012    2    3    3    0    0  0.28373423159E+01  0.13960881634E+02  0.42733555399E+02  0.46142317804E+02  0.10000000394E+02 0.  0.
        -12    1    3    3    0    0 -0.28373423159E+01 -0.13960881634E+02 -0.42733555399E+02  0.45045682196E+02  0.00000000000E+00 0.  1.
         11    1    4    4    0    0  0.31912609805E+01  0.14848709167E+01  0.10476707604E+02  0.11052166791E+02  0.51100000000E-03 0. -1.
        -11    1    4    4    0    0  0.11750501345E+01  0.11956817965E+02  0.29989481370E+02  0.32306581864E+02  0.51100000000E-03 0.  1.
        -12    1    4    4    0    0 -0.15289687992E+01  0.51919275291E+00  0.22673664247E+01  0.27835691490E+01  0.00000000000E+00 0.  1.
</event>
<event>
 8    1  0.7489580E-009  0.9118800E+02  0.7816164E-02  0.1184000E+00
        -11   -1    0    0    0    0  0.00000000000E+00  0.00000000000E+00  0.45593999997E+02  0.45594000000E+02  0.51100000000E-03 0.  1.
         11   -1    0    0    0    0 -0.00000000000E+00 -0.00000000000E+00 -0.45593999997E+02  0.45594000000E+02  0.51100000000E-03 0. -1.
         23    2    1    2    0    0  0.00000000000E+00  0.35527136788E-14 -0.88817841970E-15  0.91188000000E+02  0.91188000000E+02 0.  0.
    9900012    2    3    3    0    0  0.35011645239E+02  0.27402474420E+02  0.72389611360E+01  0.46142318021E+02  0.10000002366E+02 0.  0.
        -12    1    3    3    0    0 -0.35011645239E+02 -0.27402474420E+02 -0.72389611360E+01  0.45045681979E+02  0.00000000000E+00 0.  1.
         11    1    4    4    0    0  0.14869285082E+01  0.36526036329E+01  0.33375615335E+00  0.39577598612E+01  0.51100000000E-03 0. -1.
        -11    1    4    4    0    0  0.77392383933E+01  0.26108952424E+01  0.25610546667E+01  0.85598823673E+01  0.51100000000E-03 0.  1.
         12    1    4    4    0    0  0.25785478337E+02  0.21138975545E+02  0.43441503159E+01  0.33624675792E+02  0.00000000000E+00 0. -1.
</event>
<event>
 8    1  0.7489580E-009  0.9118800E+02  0.7816164E-02  0.1184000E+00
        -11   -1    0    0    0    0  0.00000000000E+00  0.00000000000E+00  0.45593999997E+02  0.45594000000E+02  0.51100000000E-03 0. -1.
         11   -1    0    0    0    0 -0.00000000000E+00 -0.00000000000E+00 -0.45593999997E+02  0.45594000000E+02  0.51100000000E-03 0.  1.
         23    2    1    2    0    0  0.17763568394E-14  0.00000000000E+00  0.00000000000E+00  0.91188000000E+02  0.91188000000E+02 0.  0.
    9900012    2    3    3    0    0  0.15670650291E+02 -0.19378861991E+02  0.37523378196E+02  0.46142317811E+02  0.10000000458E+02 0.  0.
        -12    1    3    3    0    0 -0.15670650291E+02  0.19378861991E+02 -0.37523378196E+02  0.45045682189E+02  0.00000000000E+00 0.  1.
         11    1    4    4    0    0  0.63416848998E+01 -0.14109630080E+02  0.26158084714E+02  0.30389867136E+02  0.51100000000E-03 0. -1.
        -11    1    4    4    0    0  0.36227106647E+01 -0.32112260045E+01  0.50944398128E+01  0.70277537150E+01  0.51100000000E-03 0.  1.
         12    1    4    4    0    0  0.57062547263E+01 -0.20580059062E+01  0.62708536695E+01  0.87246969607E+01  0.00000000000E+00 0. -1.
</event>
<event>
 8    1  0.7489580E-009  0.9118800E+02  0.7816164E-02  0.1184000E+00
        -11   -1    0    0    0    0  0.00000000000E+00  0.00000000000E+00  0.45593999997E+02  0.45594000000E+02  0.51100000000E-03 0. -1.
         11   -1    0    0    0    0 -0.00000000000E+00 -0.00000000000E+00 -0.45593999997E+02  0.45594000000E+02  0.51100000000E-03 0.  1.
         23    2    1    2    0    0  0.71054273576E-14  0.17763568394E-14 -0.35527136788E-14  0.91188000000E+02  0.91188000000E+02 0.  0.
    9900012    2    3    3    0    0 -0.33809540692E+02 -0.15414541739E+02  0.25464098143E+02  0.46142318375E+02  0.10000005599E+02 0.  0.
        -12    1    3    3    0    0  0.33809540692E+02  0.15414541739E+02 -0.25464098143E+02  0.45045681625E+02  0.00000000000E+00 0.  1.
         11    1    4    4    0    0 -0.28009844340E+02 -0.12833600011E+02  0.22369041087E+02  0.38073963132E+02  0.51100000000E-03 0. -1.
        -11    1    4    4    0    0 -0.56992708384E+00 -0.81415457084E+00  0.22815313589E+01  0.24885839646E+01  0.51100000000E-03 0.  1.
         12    1    4    4    0    0 -0.52297692680E+01 -0.17667871573E+01  0.81352569688E+00  0.55797712781E+01  0.00000000000E+00 0. -1.
</event>
<event>
 8    1  0.7489580E-009  0.9118800E+02  0.7816164E-02  0.1184000E+00
        -11   -1    0    0    0    0  0.00000000000E+00  0.00000000000E+00  0.45593999997E+02  0.45594000000E+02  0.51100000000E-03 0.  1.
         11   -1    0    0    0    0 -0.00000000000E+00 -0.00000000000E+00 -0.45593999997E+02  0.45594000000E+02  0.51100000000E-03 0. -1.
         23    2    1    2    0    0  0.71054273576E-14  0.00000000000E+00  0.00000000000E+00  0.91188000000E+02  0.91188000000E+02 0.  0.
    9900012    2    3    3    0    0  0.41880133598E+02 -0.14903636542E+02 -0.72835023720E+01  0.46142318973E+02  0.10000011051E+02 0.  0.
         12    1    3    3    0    0 -0.41880133598E+02  0.14903636542E+02  0.72835023720E+01  0.45045681027E+02  0.00000000000E+00 0. -1.
         11    1    4    4    0    0  0.73454670062E+01 -0.56339531151E+00 -0.66982068940E-01  0.73673459722E+01  0.51100000000E-03 0. -1.
        -11    1    4    4    0    0  0.87622126465E+01 -0.44650646257E+01 -0.51421534144E+01  0.11097518397E+02  0.51100000000E-03 0.  1.
        -12    1    4    4    0    0  0.25772453946E+02 -0.98751766050E+01 -0.20743668887E+01  0.27677454604E+02  0.00000000000E+00 0.  1.
</event>
<event>
 8    1  0.7489580E-009  0.9118800E+02  0.7816164E-02  0.1184000E+00
        -11   -1    0    0    0    0  0.00000000000E+00  0.00000000000E+00  0.45593999997E+02  0.45594000000E+02  0.51100000000E-03 0. -1.
         11   -1    0    0    0    0 -0.00000000000E+00 -0.00000000000E+00 -0.45593999997E+02  0.45594000000E+02  0.51100000000E-03 0.  1.
         23    2    1    2    0    0  0.00000000000E+00  0.35527136788E-14  0.22204460493E-15  0.91188000000E+02  0.91188000000E+02 0.  0.
    9900012    2    3    3    0    0  0.35792131952E+02 -0.27307239867E+02 -0.15334459349E+01  0.46142317462E+02  0.99999972770E+01 0.  0.
        -12    1    3    3    0    0 -0.35792131952E+02  0.27307239867E+02  0.15334459349E+01  0.45045682538E+02  0.00000000000E+00 0.  1.
         11    1    4    4    0    0  0.25464149833E+01 -0.12536679444E+01  0.94528358474E+00  0.29915671309E+01  0.51100000000E-03 0.  1.
        -11    1    4    4    0    0  0.49637616683E+01 -0.70594784932E+00 -0.11763623452E+01  0.51498661045E+01  0.51100000000E-03 0. -1.
        -12    1    4    4    0    0  0.28281955300E+02 -0.25347624073E+02 -0.13023671744E+01  0.38000884227E+02  0.00000000000E+00 0.  1.
</event>
<event>
 8    1  0.1055520E-008  0.9118800E+02  0.7816164E-02  0.1184000E+00
        -11   -1    0    0    0    0  0.00000000000E+00  0.00000000000E+00  0.45593999997E+02  0.45594000000E+02  0.51100000000E-03 0. -1.
         11   -1    0    0    0    0 -0.00000000000E+00 -0.00000000000E+00 -0.45593999997E+02  0.45594000000E+02  0.51100000000E-03 0.  1.
         23    2    1    2    0    0  0.00000000000E+00 -0.44408920985E-15  0.00000000000E+00  0.91188000000E+02  0.91188000000E+02 0.  0.
    9900012    2    3    3    0    0  0.30701345945E+02 -0.16387492812E+01 -0.32921958327E+02  0.46142317831E+02  0.10000000636E+02 0.  0.
         12    1    3    3    0    0 -0.30701345945E+02  0.16387492812E+01  0.32921958327E+02  0.45045682169E+02  0.00000000000E+00 0. -1.
         11    1    4    4    0    0  0.55600340223E+01  0.28977175528E+01 -0.55252715775E+01  0.83569953698E+01  0.51100000000E-03 0. -1.
        -11    1    4    4    0    0  0.17446346715E+02 -0.82032501008E+00 -0.18913256961E+02  0.25744110704E+02  0.51100000000E-03 0.  1.
         12    1    4    4    0    0  0.76949652077E+01 -0.37161418239E+01 -0.84834297889E+01  0.12041211757E+02  0.00000000000E+00 0. -1.
</event>
<event>
 8    1  0.7489580E-009  0.9118800E+02  0.7816164E-02  0.1184000E+00
        -11   -1    0    0    0    0  0.00000000000E+00  0.00000000000E+00  0.45593999997E+02  0.45594000000E+02  0.51100000000E-03 0.  1.
         11   -1    0    0    0    0 -0.00000000000E+00 -0.00000000000E+00 -0.45593999997E+02  0.45594000000E+02  0.51100000000E-03 0. -1.
         23    2    1    2    0    0 -0.17763568394E-14  0.00000000000E+00  0.22204460493E-15  0.91188000000E+02  0.91188000000E+02 0.  0.
    9900012    2    3    3    0    0 -0.10127392656E+02 -0.43878899427E+02  0.10916603757E+01  0.46142316308E+02  0.99999867455E+01 0.  0.
        -12    1    3    3    0    0  0.10127392656E+02  0.43878899427E+02 -0.10916603757E+01  0.45045683692E+02  0.00000000000E+00 0.  1.
         11    1    4    4    0    0 -0.38984068167E+01 -0.20657145260E+02  0.36663715369E+01  0.21339107444E+02  0.51100000000E-03 0. -1.
        -11    1    4    4    0    0 -0.27704568141E+01 -0.16775159758E+02  0.13171526809E+00  0.17002904606E+02  0.51100000000E-03 0.  1.
        -12    1    4    4    0    0 -0.34585290252E+01 -0.64465944091E+01 -0.27064264293E+01  0.78003042576E+01  0.00000000000E+00 0.  1.
</event>
<event>
 8    1  0.7489580E-009  0.9118800E+02  0.7816164E-02  0.1184000E+00
        -11   -1    0    0    0    0  0.00000000000E+00  0.00000000000E+00  0.45593999997E+02  0.45594000000E+02  0.51100000000E-03 0. -1.
         11   -1    0    0    0    0 -0.00000000000E+00 -0.00000000000E+00 -0.45593999997E+02  0.45594000000E+02  0.51100000000E-03 0.  1.
         23    2    1    2    0    0  0.00000000000E+00  0.00000000000E+00  0.00000000000E+00  0.91188000000E+02  0.91188000000E+02 0.  0.
    9900012    2    3    3    0    0  0.32972608405E+02 -0.70608444600E+01  0.29867458709E+02  0.46142317418E+02  0.99999968735E+01 0.  0.
        -12    1    3    3    0    0 -0.32972608405E+02  0.70608444600E+01 -0.29867458709E+02  0.45045682582E+02  0.00000000000E+00 0.  1.
         11    1    4    4    0    0  0.15112144970E+02 -0.67793251237E+00  0.10838686405E+02  0.18609504060E+02  0.51100000000E-03 0. -1.
        -11    1    4    4    0    0  0.97600310937E+01 -0.14918187601E+01  0.64548874791E+01  0.11796156272E+02  0.51100000000E-03 0.  1.
        -12    1    4    4    0    0  0.81004323413E+01 -0.48910931876E+01  0.12573884824E+02  0.15736657087E+02  0.00000000000E+00 0.  1.
</event>
<event>
 8    1  0.7489580E-009  0.9118800E+02  0.7816164E-02  0.1184000E+00
        -11   -1    0    0    0    0  0.00000000000E+00  0.00000000000E+00  0.45593999997E+02  0.45594000000E+02  0.51100000000E-03 0. -1.
         11   -1    0    0    0    0 -0.00000000000E+00 -0.00000000000E+00 -0.45593999997E+02  0.45594000000E+02  0.51100000000E-03 0.  1.
         23    2    1    2    0    0  0.35527136788E-14  0.00000000000E+00  0.00000000000E+00  0.91188000000E+02  0.91188000000E+02 0.  0.
    9900012    2    3    3    0    0  0.18650823761E+02 -0.95420387076E+01  0.39877437457E+02  0.46142314881E+02  0.99999737404E+01 0.  0.
        -12    1    3    3    0    0 -0.18650823761E+02  0.95420387076E+01 -0.39877437457E+02  0.45045685119E+02  0.00000000000E+00 0.  1.
         11    1    4    4    0    0  0.63196865406E+01 -0.43706273278E+01  0.10709570631E+02  0.13180884817E+02  0.51100000000E-03 0. -1.
        -11    1    4    4    0    0  0.82345702702E+01 -0.69851281932E+01  0.19084121960E+02  0.21927240470E+02  0.51100000000E-03 0.  1.
        -12    1    4    4    0    0  0.40965669501E+01  0.18137168134E+01  0.10083744867E+02  0.11034189594E+02  0.00000000000E+00 0.  1.
</event>
<event>
 8    1  0.7489580E-009  0.9118800E+02  0.7816164E-02  0.1184000E+00
        -11   -1    0    0    0    0  0.00000000000E+00  0.00000000000E+00  0.45593999997E+02  0.45594000000E+02  0.51100000000E-03 0. -1.
         11   -1    0    0    0    0 -0.00000000000E+00 -0.00000000000E+00 -0.45593999997E+02  0.45594000000E+02  0.51100000000E-03 0.  1.
         23    2    1    2    0    0 -0.35527136788E-14 -0.35527136788E-14  0.00000000000E+00  0.91188000000E+02  0.91188000000E+02 0.  0.
    9900012    2    3    3    0    0 -0.10087596105E+02 -0.18698635056E+02 -0.39720469792E+02  0.46142309100E+02  0.99999210234E+01 0.  0.
         12    1    3    3    0    0  0.10087596105E+02  0.18698635056E+02  0.39720469792E+02  0.45045690900E+02  0.00000000000E+00 0. -1.
         11    1    4    4    0    0 -0.39065950689E+00 -0.55580967831E-01  0.46402677846E+00  0.60911838468E+00  0.51100000000E-03 0. -1.
        -11    1    4    4    0    0 -0.38208102676E+01 -0.43846350757E+01 -0.85594632618E+01  0.10348334525E+02  0.51100000000E-03 0.  1.
        -12    1    4    4    0    0 -0.58761263306E+01 -0.14258419012E+02 -0.31625033309E+02  0.35184856191E+02  0.00000000000E+00 0.  1.
</event>
<event>
 8    1  0.7489580E-009  0.9118800E+02  0.7816164E-02  0.1184000E+00
        -11   -1    0    0    0    0  0.00000000000E+00  0.00000000000E+00  0.45593999997E+02  0.45594000000E+02  0.51100000000E-03 0. -1.
         11   -1    0    0    0    0 -0.00000000000E+00 -0.00000000000E+00 -0.45593999997E+02  0.45594000000E+02  0.51100000000E-03 0.  1.
         23    2    1    2    0    0  0.00000000000E+00  0.00000000000E+00  0.00000000000E+00  0.91188000000E+02  0.91188000000E+02 0.  0.
    9900012    2    3    3    0    0  0.63831462487E+01  0.72805250497E+01  0.43992759860E+02  0.46142317398E+02  0.99999966847E+01 0.  0.
        -12    1    3    3    0    0 -0.63831462487E+01 -0.72805250497E+01 -0.43992759860E+02  0.45045682602E+02  0.00000000000E+00 0.  1.
         11    1    4    4    0    0  0.65363820181E+01  0.55455017152E+01  0.35405645168E+02  0.36428513409E+02  0.51100000000E-03 0. -1.
        -11    1    4    4    0    0 -0.75098498591E+00  0.25915005211E+01  0.81438933197E+01  0.85792104569E+01  0.51100000000E-03 0.  1.
        -12    1    4    4    0    0  0.59774921656E+00 -0.85647718664E+00  0.44322137193E+00  0.11345935315E+01  0.00000000000E+00 0.  1.
</event>
<event>
 8    1  0.7489580E-009  0.9118800E+02  0.7816164E-02  0.1184000E+00
        -11   -1    0    0    0    0  0.00000000000E+00  0.00000000000E+00  0.45593999997E+02  0.45594000000E+02  0.51100000000E-03 0. -1.
         11   -1    0    0    0    0 -0.00000000000E+00 -0.00000000000E+00 -0.45593999997E+02  0.45594000000E+02  0.51100000000E-03 0.  1.
         23    2    1    2    0    0 -0.35527136788E-14  0.00000000000E+00  0.00000000000E+00  0.91188000000E+02  0.91188000000E+02 0.  0.
    9900012    2    3    3    0    0 -0.21148558896E+02  0.25744722771E+02 -0.30316019575E+02  0.46142319443E+02  0.10000015337E+02 0.  0.
         12    1    3    3    0    0  0.21148558896E+02 -0.25744722771E+02  0.30316019575E+02  0.45045680557E+02  0.00000000000E+00 0. -1.
         11    1    4    4    0    0 -0.14094897088E+02  0.21947573944E+02 -0.20007112877E+02  0.32873191082E+02  0.51100000000E-03 0. -1.
        -11    1    4    4    0    0 -0.11884806130E+01  0.17704057443E+01 -0.22814343127E+01  0.31227816848E+01  0.51100000000E-03 0.  1.
        -12    1    4    4    0    0 -0.58651811951E+01  0.20267430826E+01 -0.80274723857E+01  0.10146346676E+02  0.00000000000E+00 0.  1.
</event>
<event>
 8    1  0.7489580E-009  0.9118800E+02  0.7816164E-02  0.1184000E+00
        -11   -1    0    0    0    0  0.00000000000E+00  0.00000000000E+00  0.45593999997E+02  0.45594000000E+02  0.51100000000E-03 0. -1.
         11   -1    0    0    0    0 -0.00000000000E+00 -0.00000000000E+00 -0.45593999997E+02  0.45594000000E+02  0.51100000000E-03 0.  1.
         23    2    1    2    0    0  0.22204460493E-15 -0.35527136788E-14  0.14210854715E-13  0.91188000000E+02  0.91188000000E+02 0.  0.
    9900012    2    3    3    0    0 -0.16375892449E+01  0.24058853511E+02 -0.38047383219E+02  0.46142317625E+02  0.99999987604E+01 0.  0.
         12    1    3    3    0    0  0.16375892449E+01 -0.24058853511E+02  0.38047383219E+02  0.45045682375E+02  0.00000000000E+00 0. -1.
         11    1    4    4    0    0  0.64000706735E+00  0.29133323347E+01 -0.16392039269E+01  0.34035428767E+01  0.51100000000E-03 0. -1.
        -11    1    4    4    0    0  0.20643050282E+01  0.12229692718E+02 -0.21831395750E+02  0.25108496169E+02  0.51100000000E-03 0.  1.
         12    1    4    4    0    0 -0.43419013404E+01  0.89158284587E+01 -0.14576783542E+02  0.17630278580E+02  0.00000000000E+00 0. -1.
</event>
<event>
 8    1  0.7489580E-009  0.9118800E+02  0.7816164E-02  0.1184000E+00
        -11   -1    0    0    0    0  0.00000000000E+00  0.00000000000E+00  0.45593999997E+02  0.45594000000E+02  0.51100000000E-03 0. -1.
         11   -1    0    0    0    0 -0.00000000000E+00 -0.00000000000E+00 -0.45593999997E+02  0.45594000000E+02  0.51100000000E-03 0.  1.
         23    2    1    2    0    0 -0.17763568394E-14  0.00000000000E+00 -0.71054273576E-14  0.91188000000E+02  0.91188000000E+02 0.  0.
    9900012    2    3    3    0    0  0.14719672163E+02 -0.17547643644E+02  0.38788203008E+02  0.46142320533E+02  0.10000025281E+02 0.  0.
        -12    1    3    3    0    0 -0.14719672163E+02  0.17547643644E+02 -0.38788203008E+02  0.45045679467E+02  0.00000000000E+00 0.  1.
         11    1    4    4    0    0  0.10709566371E+02 -0.60253680205E+01  0.15604223913E+02  0.19861814515E+02  0.51100000000E-03 0. -1.
        -11    1    4    4    0    0  0.64932211686E+00 -0.22068175515E+01  0.28446600359E+01  0.36583813221E+01  0.51100000000E-03 0.  1.
        -12    1    4    4    0    0  0.33607836745E+01 -0.93154580717E+01  0.20339319059E+02  0.22622124696E+02  0.00000000000E+00 0.  1.
</event>
<event>
 8    1  0.7489580E-009  0.9118800E+02  0.7816164E-02  0.1184000E+00
        -11   -1    0    0    0    0  0.00000000000E+00  0.00000000000E+00  0.45593999997E+02  0.45594000000E+02  0.51100000000E-03 0.  1.
         11   -1    0    0    0    0 -0.00000000000E+00 -0.00000000000E+00 -0.45593999997E+02  0.45594000000E+02  0.51100000000E-03 0. -1.
         23    2    1    2    0    0 -0.44408920985E-15  0.00000000000E+00  0.00000000000E+00  0.91188000000E+02  0.91188000000E+02 0.  0.
    9900012    2    3    3    0    0  0.10056710898E+01  0.43183289970E+02 -0.12779105692E+02  0.46142318195E+02  0.10000003960E+02 0.  0.
         12    1    3    3    0    0 -0.10056710898E+01 -0.43183289970E+02  0.12779105692E+02  0.45045681805E+02  0.00000000000E+00 0. -1.
         11    1    4    4    0    0  0.46324959569E+01  0.25765966258E+02 -0.76235756793E+01  0.27266535210E+02  0.51100000000E-03 0. -1.
        -11    1    4    4    0    0 -0.15949437155E+01  0.11301897723E+02 -0.49150185201E+01  0.12427153532E+02  0.51100000000E-03 0.  1.
         12    1    4    4    0    0 -0.20318811515E+01  0.61154259892E+01 -0.24051149298E+00  0.64486294529E+01  0.00000000000E+00 0. -1.
</event>
<event>
 8    1  0.7489580E-009  0.9118800E+02  0.7816164E-02  0.1184000E+00
        -11   -1    0    0    0    0  0.00000000000E+00  0.00000000000E+00  0.45593999997E+02  0.45594000000E+02  0.51100000000E-03 0.  1.
         11   -1    0    0    0    0 -0.00000000000E+00 -0.00000000000E+00 -0.45593999997E+02  0.45594000000E+02  0.51100000000E-03 0. -1.
         23    2    1    2    0    0  0.00000000000E+00  0.00000000000E+00  0.00000000000E+00  0.91188000000E+02  0.91188000000E+02 0.  0.
    9900012    2    3    3    0    0 -0.30223942320E+02  0.29395124718E+02  0.15860435221E+02  0.46142318166E+02  0.10000003691E+02 0.  0.
        -12    1    3    3    0    0  0.30223942320E+02 -0.29395124718E+02 -0.15860435221E+02  0.45045681834E+02  0.00000000000E+00 0.  1.
         11    1    4    4    0    0 -0.20457080818E+02  0.23206040434E+02  0.95132289908E+01  0.32365320859E+02  0.51100000000E-03 0. -1.
        -11    1    4    4    0    0 -0.13274751570E+01  0.16244634242E+01 -0.27931939136E+00  0.21163863760E+01  0.51100000000E-03 0.  1.
        -12    1    4    4    0    0 -0.84393863447E+01  0.45646208592E+01  0.66265256213E+01  0.11660610931E+02  0.00000000000E+00 0.  1.
</event>
<event>
 8    1  0.7489580E-009  0.9118800E+02  0.7816164E-02  0.1184000E+00
        -11   -1    0    0    0    0  0.00000000000E+00  0.00000000000E+00  0.45593999997E+02  0.45594000000E+02  0.51100000000E-03 0. -1.
         11   -1    0    0    0    0 -0.00000000000E+00 -0.00000000000E+00 -0.45593999997E+02  0.45594000000E+02  0.51100000000E-03 0.  1.
         23    2    1    2    0    0  0.00000000000E+00  0.00000000000E+00  0.71054273576E-14  0.91188000000E+02  0.91188000000E+02 0.  0.
    9900012    2    3    3    0    0 -0.16337191530E+02  0.22646840859E+02 -0.35345865524E+02  0.46142318324E+02  0.10000005137E+02 0.  0.
         12    1    3    3    0    0  0.16337191530E+02 -0.22646840859E+02  0.35345865524E+02  0.45045681676E+02  0.00000000000E+00 0. -1.
         11    1    4    4    0    0 -0.81185258571E+01  0.10530859777E+02 -0.20914652347E+02  0.24783707406E+02  0.51100000000E-03 0. -1.
        -11    1    4    4    0    0 -0.69935254362E+01  0.52355202601E+01 -0.85630682949E+01  0.12232996743E+02  0.51100000000E-03 0.  1.
         12    1    4    4    0    0 -0.12251402368E+01  0.68804608227E+01 -0.58681448815E+01  0.91256141756E+01  0.00000000000E+00 0. -1.
</event>
<event>
 8    1  0.7489580E-009  0.9118800E+02  0.7816164E-02  0.1184000E+00
        -11   -1    0    0    0    0  0.00000000000E+00  0.00000000000E+00  0.45593999997E+02  0.45594000000E+02  0.51100000000E-03 0. -1.
         11   -1    0    0    0    0 -0.00000000000E+00 -0.00000000000E+00 -0.45593999997E+02  0.45594000000E+02  0.51100000000E-03 0.  1.
         23    2    1    2    0    0  0.00000000000E+00 -0.22204460493E-15  0.00000000000E+00  0.91188000000E+02  0.91188000000E+02 0.  0.
    9900012    2    3    3    0    0  0.35247962159E+02  0.10189570950E+01 -0.28029559580E+02  0.46142319628E+02  0.10000017025E+02 0.  0.
         12    1    3    3    0    0 -0.35247962159E+02 -0.10189570950E+01  0.28029559580E+02  0.45045680372E+02  0.00000000000E+00 0. -1.
         11    1    4    4    0    0  0.18108797127E+02  0.12498360381E+01 -0.16875652627E+02  0.24784637890E+02  0.51100000000E-03 0. -1.
        -11    1    4    4    0    0  0.16618608687E+02  0.70481897666E+00 -0.89059090345E+01  0.18867700985E+02  0.51100000000E-03 0.  1.
         12    1    4    4    0    0  0.52055634499E+00 -0.93569791971E+00 -0.22479979190E+01  0.24899807527E+01  0.00000000000E+00 0. -1.
</event>
<event>
 8    1  0.7489580E-009  0.9118800E+02  0.7816164E-02  0.1184000E+00
        -11   -1    0    0    0    0  0.00000000000E+00  0.00000000000E+00  0.45593999997E+02  0.45594000000E+02  0.51100000000E-03 0. -1.
         11   -1    0    0    0    0 -0.00000000000E+00 -0.00000000000E+00 -0.45593999997E+02  0.45594000000E+02  0.51100000000E-03 0.  1.
         23    2    1    2    0    0 -0.88817841970E-15 -0.35527136788E-14  0.71054273576E-14  0.91188000000E+02  0.91188000000E+02 0.  0.
    9900012    2    3    3    0    0  0.47749057684E+01  0.29138162126E+02 -0.34018839130E+02  0.46142316156E+02  0.99999853655E+01 0.  0.
         12    1    3    3    0    0 -0.47749057684E+01 -0.29138162126E+02  0.34018839130E+02  0.45045683844E+02  0.00000000000E+00 0. -1.
         11    1    4    4    0    0  0.67034716594E+00 -0.96393608883E-01 -0.72686635551E+00  0.99347471563E+00  0.51100000000E-03 0. -1.
        -11    1    4    4    0    0  0.64777964345E+00  0.82586072995E+00 -0.42427585333E+01  0.43706595206E+01  0.51100000000E-03 0.  1.
        -12    1    4    4    0    0  0.34567789590E+01  0.28408695005E+02 -0.29049214242E+02  0.40778181920E+02  0.00000000000E+00 0.  1.
</event>
<event>
 8    1  0.7489580E-009  0.9118800E+02  0.7816164E-02  0.1184000E+00
        -11   -1    0    0    0    0  0.00000000000E+00  0.00000000000E+00  0.45593999997E+02  0.45594000000E+02  0.51100000000E-03 0. -1.
         11   -1    0    0    0    0 -0.00000000000E+00 -0.00000000000E+00 -0.45593999997E+02  0.45594000000E+02  0.51100000000E-03 0.  1.
         23    2    1    2    0    0  0.00000000000E+00  0.00000000000E+00 -0.71054273576E-14  0.91188000000E+02  0.91188000000E+02 0.  0.
    9900012    2    3    3    0    0 -0.87638739835E+01  0.37830393424E+02 -0.22829132552E+02  0.46142318222E+02  0.10000004199E+02 0.  0.
         12    1    3    3    0    0  0.87638739835E+01 -0.37830393424E+02  0.22829132552E+02  0.45045681778E+02  0.00000000000E+00 0. -1.
         11    1    4    4    0    0 -0.18397768312E+01  0.78006490238E+01 -0.77552685076E+01  0.11152537553E+02  0.51100000000E-03 0. -1.
        -11    1    4    4    0    0 -0.76643243462E+01  0.22039377779E+02 -0.12959657795E+02  0.26691361355E+02  0.51100000000E-03 0.  1.
        -12    1    4    4    0    0  0.74022719386E+00  0.79903666215E+01 -0.21142062493E+01  0.82984193139E+01  0.00000000000E+00 0.  1.
</event>
<event>
 8    1  0.7489580E-009  0.9118800E+02  0.7816164E-02  0.1184000E+00
        -11   -1    0    0    0    0  0.00000000000E+00  0.00000000000E+00  0.45593999997E+02  0.45594000000E+02  0.51100000000E-03 0. -1.
         11   -1    0    0    0    0 -0.00000000000E+00 -0.00000000000E+00 -0.45593999997E+02  0.45594000000E+02  0.51100000000E-03 0.  1.
         23    2    1    2    0    0  0.44408920985E-15  0.35527136788E-14  0.71054273576E-14  0.91188000000E+02  0.91188000000E+02 0.  0.
    9900012    2    3    3    0    0  0.39985113440E+01  0.20961672392E+02  0.39670312058E+02  0.46142318062E+02  0.10000002746E+02 0.  0.
        -12    1    3    3    0    0 -0.39985113440E+01 -0.20961672392E+02 -0.39670312058E+02  0.45045681938E+02  0.00000000000E+00 0.  1.
         11    1    4    4    0    0 -0.13518801463E+01  0.11116348874E+02  0.23914307924E+02  0.26406342344E+02  0.51100000000E-03 0. -1.
        -11    1    4    4    0    0  0.13346338115E-01  0.90513987366E+00  0.68833545766E-01  0.90785165846E+00  0.51100000000E-03 0.  1.
        -12    1    4    4    0    0  0.53370451522E+01  0.89401836446E+01  0.15687170588E+02  0.18828124060E+02  0.00000000000E+00 0.  1.
</event>
<event>
 8    1  0.7489580E-009  0.9118800E+02  0.7816164E-02  0.1184000E+00
        -11   -1    0    0    0    0  0.00000000000E+00  0.00000000000E+00  0.45593999997E+02  0.45594000000E+02  0.51100000000E-03 0.  1.
         11   -1    0    0    0    0 -0.00000000000E+00 -0.00000000000E+00 -0.45593999997E+02  0.45594000000E+02  0.51100000000E-03 0. -1.
         23    2    1    2    0    0  0.00000000000E+00  0.00000000000E+00  0.88817841970E-15  0.91188000000E+02  0.91188000000E+02 0.  0.
    9900012    2    3    3    0    0  0.35225900730E+02  0.27327052260E+02 -0.64406270348E+01  0.46142317143E+02  0.99999943622E+01 0.  0.
         12    1    3    3    0    0 -0.35225900730E+02 -0.27327052260E+02  0.64406270348E+01  0.45045682857E+02  0.00000000000E+00 0. -1.
         11    1    4    4    0    0  0.19533030345E+02  0.11935236947E+02 -0.26934313155E+01  0.23048725083E+02  0.51100000000E-03 0. -1.
        -11    1    4    4    0    0  0.85789248903E+01  0.73905461453E+01 -0.48744301366E+01  0.12327943625E+02  0.51100000000E-03 0.  1.
         12    1    4    4    0    0  0.71139454949E+01  0.80012691672E+01  0.11272344174E+01  0.10765648435E+02  0.00000000000E+00 0. -1.
</event>
<event>
 8    1  0.7489580E-009  0.9118800E+02  0.7816164E-02  0.1184000E+00
        -11   -1    0    0    0    0  0.00000000000E+00  0.00000000000E+00  0.45593999997E+02  0.45594000000E+02  0.51100000000E-03 0. -1.
         11   -1    0    0    0    0 -0.00000000000E+00 -0.00000000000E+00 -0.45593999997E+02  0.45594000000E+02  0.51100000000E-03 0.  1.
         23    2    1    2    0    0 -0.35527136788E-14  0.00000000000E+00  0.35527136788E-14  0.91188000000E+02  0.91188000000E+02 0.  0.
    9900012    2    3    3    0    0  0.24559475657E+02 -0.27728352928E+02  0.25633651468E+02  0.46142317763E+02  0.10000000015E+02 0.  0.
        -12    1    3    3    0    0 -0.24559475657E+02  0.27728352928E+02 -0.25633651468E+02  0.45045682237E+02  0.00000000000E+00 0.  1.
         11    1    4    4    0    0  0.23775632733E+01 -0.16172481243E+01  0.50483773670E+01  0.58098548101E+01  0.51100000000E-03 0. -1.
        -11    1    4    4    0    0  0.69837527541E+01 -0.96653182053E+01  0.10005196304E+02  0.15565832194E+02  0.51100000000E-03 0.  1.
        -12    1    4    4    0    0  0.15198159629E+02 -0.16445786598E+02  0.10580077797E+02  0.24766630759E+02  0.00000000000E+00 0.  1.
</event>
<event>
 8    1  0.7489580E-009  0.9118800E+02  0.7816164E-02  0.1184000E+00
        -11   -1    0    0    0    0  0.00000000000E+00  0.00000000000E+00  0.45593999997E+02  0.45594000000E+02  0.51100000000E-03 0. -1.
         11   -1    0    0    0    0 -0.00000000000E+00 -0.00000000000E+00 -0.45593999997E+02  0.45594000000E+02  0.51100000000E-03 0.  1.
         23    2    1    2    0    0  0.00000000000E+00  0.22204460493E-15  0.00000000000E+00  0.91188000000E+02  0.91188000000E+02 0.  0.
    9900012    2    3    3    0    0  0.29020301584E+02 -0.18857394770E+01 -0.34400283922E+02  0.46142318172E+02  0.10000003750E+02 0.  0.
         12    1    3    3    0    0 -0.29020301584E+02  0.18857394770E+01  0.34400283922E+02  0.45045681828E+02  0.00000000000E+00 0. -1.
         11    1    4    4    0    0  0.90092737290E+01  0.31725495121E+01 -0.11164909664E+02  0.14693103538E+02  0.51100000000E-03 0. -1.
        -11    1    4    4    0    0  0.62775068941E+01 -0.28272884474E+01 -0.10688326614E+02  0.12713810555E+02  0.51100000000E-03 0.  1.
        -12    1    4    4    0    0  0.13733520960E+02 -0.22310005417E+01 -0.12547047645E+02  0.18735404079E+02  0.00000000000E+00 0.  1.
</event>
<event>
 8    1  0.7489580E-009  0.9118800E+02  0.7816164E-02  0.1184000E+00
        -11   -1    0    0    0    0  0.00000000000E+00  0.00000000000E+00  0.45593999997E+02  0.45594000000E+02  0.51100000000E-03 0. -1.
         11   -1    0    0    0    0 -0.00000000000E+00 -0.00000000000E+00 -0.45593999997E+02  0.45594000000E+02  0.51100000000E-03 0.  1.
         23    2    1    2    0    0 -0.22204460493E-15  0.00000000000E+00  0.35527136788E-14  0.91188000000E+02  0.91188000000E+02 0.  0.
    9900012    2    3    3    0    0 -0.14272432647E+01  0.37736641421E+02 -0.24556512718E+02  0.46142318232E+02  0.10000004294E+02 0.  0.
         12    1    3    3    0    0  0.14272432647E+01 -0.37736641421E+02  0.24556512718E+02  0.45045681768E+02  0.00000000000E+00 0. -1.
         11    1    4    4    0    0 -0.11497478927E+01  0.19221950911E+02 -0.10373009530E+02  0.21872463145E+02  0.51100000000E-03 0. -1.
        -11    1    4    4    0    0  0.41956807687E-01  0.19011461004E+02 -0.14108249716E+02  0.23674461349E+02  0.51100000000E-03 0.  1.
        -12    1    4    4    0    0 -0.31945217965E+00 -0.49677049357E+00 -0.75253471895E-01  0.59539373812E+00  0.00000000000E+00 0.  1.
</event>
<event>
 8    1  0.7489580E-009  0.9118800E+02  0.7816164E-02  0.1184000E+00
        -11   -1    0    0    0    0  0.00000000000E+00  0.00000000000E+00  0.45593999997E+02  0.45594000000E+02  0.51100000000E-03 0. -1.
         11   -1    0    0    0    0 -0.00000000000E+00 -0.00000000000E+00 -0.45593999997E+02  0.45594000000E+02  0.51100000000E-03 0.  1.
         23    2    1    2    0    0  0.00000000000E+00  0.17763568394E-14  0.00000000000E+00  0.91188000000E+02  0.91188000000E+02 0.  0.
    9900012    2    3    3    0    0  0.18883223793E+02  0.13745897401E+02  0.38517368322E+02  0.46142317648E+02  0.99999989641E+01 0.  0.
        -12    1    3    3    0    0 -0.18883223793E+02 -0.13745897401E+02 -0.38517368322E+02  0.45045682352E+02  0.00000000000E+00 0.  1.
         11    1    4    4    0    0  0.30905390543E+01  0.56353973681E+01  0.88354368361E+01  0.10925844566E+02  0.51100000000E-03 0. -1.
        -11    1    4    4    0    0  0.76701469598E+01  0.42222022913E+01  0.85135381304E+01  0.12212226592E+02  0.51100000000E-03 0.  1.
         12    1    4    4    0    0  0.81225377787E+01  0.38882977415E+01  0.21168393355E+02  0.23004246489E+02  0.00000000000E+00 0. -1.
</event>
<event>
 8    1  0.7489580E-009  0.9118800E+02  0.7816164E-02  0.1184000E+00
        -11   -1    0    0    0    0  0.00000000000E+00  0.00000000000E+00  0.45593999997E+02  0.45594000000E+02  0.51100000000E-03 0. -1.
         11   -1    0    0    0    0 -0.00000000000E+00 -0.00000000000E+00 -0.45593999997E+02  0.45594000000E+02  0.51100000000E-03 0.  1.
         23    2    1    2    0    0 -0.17763568394E-14  0.00000000000E+00  0.00000000000E+00  0.91188000000E+02  0.91188000000E+02 0.  0.
    9900012    2    3    3    0    0 -0.11957307786E+02  0.16901803353E+02  0.40005817391E+02  0.46142316620E+02  0.99999895947E+01 0.  0.
        -12    1    3    3    0    0  0.11957307786E+02 -0.16901803353E+02 -0.40005817391E+02  0.45045683380E+02  0.00000000000E+00 0.  1.
         11    1    4    4    0    0 -0.34804865593E+01  0.10289106155E+01  0.89465992454E+01  0.96547440185E+01  0.51100000000E-03 0.  1.
        -11    1    4    4    0    0 -0.35212324569E+01  0.12777984767E+02  0.22759155479E+02  0.26337333409E+02  0.51100000000E-03 0. -1.
         12    1    4    4    0    0 -0.49555887697E+01  0.30949079709E+01  0.83000626663E+01  0.10150239193E+02  0.00000000000E+00 0. -1.
</event>
<event>
 8    1  0.7489580E-009  0.9118800E+02  0.7816164E-02  0.1184000E+00
        -11   -1    0    0    0    0  0.00000000000E+00  0.00000000000E+00  0.45593999997E+02  0.45594000000E+02  0.51100000000E-03 0. -1.
         11   -1    0    0    0    0 -0.00000000000E+00 -0.00000000000E+00 -0.45593999997E+02  0.45594000000E+02  0.51100000000E-03 0.  1.
         23    2    1    2    0    0  0.00000000000E+00 -0.71054273576E-14  0.35527136788E-14  0.91188000000E+02  0.91188000000E+02 0.  0.
    9900012    2    3    3    0    0 -0.95177940677E+01 -0.32090644222E+02  0.30144909366E+02  0.46142318617E+02  0.10000007809E+02 0.  0.
        -12    1    3    3    0    0  0.95177940677E+01  0.32090644222E+02 -0.30144909366E+02  0.45045681383E+02  0.00000000000E+00 0.  1.
         11    1    4    4    0    0 -0.86025652985E+01 -0.24264372673E+02  0.19078414692E+02  0.32042937105E+02  0.51100000000E-03 0. -1.
        -11    1    4    4    0    0 -0.71113115761E+00 -0.70904791685E+01  0.11247253781E+02  0.13314703160E+02  0.51100000000E-03 0.  1.
         12    1    4    4    0    0 -0.20409761165E+00 -0.73579238041E+00 -0.18075910598E+00  0.78467835228E+00  0.00000000000E+00 0. -1.
</event>
<event>
 8    1  0.7489580E-009  0.9118800E+02  0.7816164E-02  0.1184000E+00
        -11   -1    0    0    0    0  0.00000000000E+00  0.00000000000E+00  0.45593999997E+02  0.45594000000E+02  0.51100000000E-03 0. -1.
         11   -1    0    0    0    0 -0.00000000000E+00 -0.00000000000E+00 -0.45593999997E+02  0.45594000000E+02  0.51100000000E-03 0.  1.
         23    2    1    2    0    0  0.17763568394E-14  0.00000000000E+00  0.35527136788E-14  0.91188000000E+02  0.91188000000E+02 0.  0.
    9900012    2    3    3    0    0  0.10749957148E+02  0.36706718894E+02  0.23794298541E+02  0.46142318368E+02  0.10000005534E+02 0.  0.
        -12    1    3    3    0    0 -0.10749957148E+02 -0.36706718894E+02 -0.23794298541E+02  0.45045681632E+02  0.00000000000E+00 0.  1.
         11    1    4    4    0    0  0.32563780319E+01  0.43278586867E+01  0.52259591442E+01  0.75262877926E+01  0.51100000000E-03 0. -1.
        -11    1    4    4    0    0 -0.33231056877E+00  0.12201259034E+02  0.62277231323E+01  0.13702762057E+02  0.51100000000E-03 0.  1.
         12    1    4    4    0    0  0.78258896848E+01  0.20177601173E+02  0.12340616265E+02  0.24913268518E+02  0.00000000000E+00 0. -1.
</event>
<event>
 8    1  0.7489580E-009  0.9118800E+02  0.7816164E-02  0.1184000E+00
        -11   -1    0    0    0    0  0.00000000000E+00  0.00000000000E+00  0.45593999997E+02  0.45594000000E+02  0.51100000000E-03 0. -1.
         11   -1    0    0    0    0 -0.00000000000E+00 -0.00000000000E+00 -0.45593999997E+02  0.45594000000E+02  0.51100000000E-03 0.  1.
         23    2    1    2    0    0  0.35527136788E-14  0.17763568394E-14  0.00000000000E+00  0.91188000000E+02  0.91188000000E+02 0.  0.
    9900012    2    3    3    0    0  0.28160092428E+02  0.12209128690E+02 -0.32970590488E+02  0.46142318009E+02  0.10000002260E+02 0.  0.
         12    1    3    3    0    0 -0.28160092428E+02 -0.12209128690E+02  0.32970590488E+02  0.45045681991E+02  0.00000000000E+00 0. -1.
         11    1    4    4    0    0  0.71188467436E+00 -0.47994531652E+00  0.98525066385E-01  0.86419601149E+00  0.51100000000E-03 0. -1.
        -11    1    4    4    0    0  0.78800823491E+00  0.20734464326E+01 -0.20345336550E+01  0.30098944403E+01  0.51100000000E-03 0.  1.
        -12    1    4    4    0    0  0.26660199518E+02  0.10615627574E+02 -0.31034581900E+02  0.42268227557E+02  0.00000000000E+00 0.  1.
</event>
<event>
 8    1  0.7489580E-009  0.9118800E+02  0.7816164E-02  0.1184000E+00
        -11   -1    0    0    0    0  0.00000000000E+00  0.00000000000E+00  0.45593999997E+02  0.45594000000E+02  0.51100000000E-03 0. -1.
         11   -1    0    0    0    0 -0.00000000000E+00 -0.00000000000E+00 -0.45593999997E+02  0.45594000000E+02  0.51100000000E-03 0.  1.
         23    2    1    2    0    0  0.00000000000E+00  0.00000000000E+00  0.35527136788E-14  0.91188000000E+02  0.91188000000E+02 0.  0.
    9900012    2    3    3    0    0  0.21400741110E+02 -0.33466974112E+02  0.21238722152E+02  0.46142318798E+02  0.10000009457E+02 0.  0.
        -12    1    3    3    0    0 -0.21400741110E+02  0.33466974112E+02 -0.21238722152E+02  0.45045681202E+02  0.00000000000E+00 0.  1.
         11    1    4    4    0    0  0.12656820844E+02 -0.18910575108E+02  0.16204247254E+02  0.27935328782E+02  0.51100000000E-03 0. -1.
        -11    1    4    4    0    0  0.73441767205E+00 -0.38055386137E+01  0.23557570664E+01  0.45355358090E+01  0.51100000000E-03 0.  1.
        -12    1    4    4    0    0  0.80095025937E+01 -0.10750860390E+02  0.26787178314E+01  0.13671454208E+02  0.00000000000E+00 0.  1.
</event>
<event>
 8    1  0.7489580E-009  0.9118800E+02  0.7816164E-02  0.1184000E+00
        -11   -1    0    0    0    0  0.00000000000E+00  0.00000000000E+00  0.45593999997E+02  0.45594000000E+02  0.51100000000E-03 0. -1.
         11   -1    0    0    0    0 -0.00000000000E+00 -0.00000000000E+00 -0.45593999997E+02  0.45594000000E+02  0.51100000000E-03 0.  1.
         23    2    1    2    0    0  0.00000000000E+00  0.00000000000E+00 -0.69388939039E-17  0.91188000000E+02  0.91188000000E+02 0.  0.
    9900012    2    3    3    0    0  0.22683447160E+02  0.38917516930E+02 -0.40402131630E-01  0.46142317284E+02  0.99999956479E+01 0.  0.
        -12    1    3    3    0    0 -0.22683447160E+02 -0.38917516930E+02  0.40402131630E-01  0.45045682716E+02  0.00000000000E+00 0.  1.
         11    1    4    4    0    0  0.13390164876E+02  0.13264841089E+02  0.30344103157E+00  0.18850586231E+02  0.51100000000E-03 0. -1.
        -11    1    4    4    0    0  0.66362562072E+01  0.18931869799E+02 -0.13503698019E+00  0.20061750317E+02  0.51100000000E-03 0.  1.
         12    1    4    4    0    0  0.26570260769E+01  0.67208060416E+01 -0.20880618301E+00  0.72299807361E+01  0.00000000000E+00 0. -1.
</event>
<event>
 8    1  0.7489580E-009  0.9118800E+02  0.7816164E-02  0.1184000E+00
        -11   -1    0    0    0    0  0.00000000000E+00  0.00000000000E+00  0.45593999997E+02  0.45594000000E+02  0.51100000000E-03 0. -1.
         11   -1    0    0    0    0 -0.00000000000E+00 -0.00000000000E+00 -0.45593999997E+02  0.45594000000E+02  0.51100000000E-03 0.  1.
         23    2    1    2    0    0  0.00000000000E+00  0.17763568394E-14  0.00000000000E+00  0.91188000000E+02  0.91188000000E+02 0.  0.
    9900012    2    3    3    0    0  0.47383183695E+01 -0.13846399775E+02  0.42602101744E+02  0.46142317402E+02  0.99999967298E+01 0.  0.
        -12    1    3    3    0    0 -0.47383183695E+01  0.13846399775E+02 -0.42602101744E+02  0.45045682598E+02  0.00000000000E+00 0.  1.
         11    1    4    4    0    0  0.37131913679E+01 -0.95391154180E+01  0.31693820137E+02  0.33305866574E+02  0.51100000000E-03 0. -1.
        -11    1    4    4    0    0  0.24949620115E+01 -0.44625766063E+01  0.95334703215E+01  0.10817877890E+02  0.51100000000E-03 0.  1.
        -12    1    4    4    0    0 -0.14698350099E+01  0.15529224963E+00  0.13748112849E+01  0.20185729386E+01  0.00000000000E+00 0.  1.
</event>
<event>
 8    1  0.7489580E-009  0.9118800E+02  0.7816164E-02  0.1184000E+00
        -11   -1    0    0    0    0  0.00000000000E+00  0.00000000000E+00  0.45593999997E+02  0.45594000000E+02  0.51100000000E-03 0. -1.
         11   -1    0    0    0    0 -0.00000000000E+00 -0.00000000000E+00 -0.45593999997E+02  0.45594000000E+02  0.51100000000E-03 0.  1.
         23    2    1    2    0    0  0.00000000000E+00  0.00000000000E+00  0.00000000000E+00  0.91188000000E+02  0.91188000000E+02 0.  0.
    9900012    2    3    3    0    0  0.34541886563E+02 -0.13146630867E+02  0.25751459613E+02  0.46142317602E+02  0.99999985521E+01 0.  0.
        -12    1    3    3    0    0 -0.34541886563E+02  0.13146630867E+02 -0.25751459613E+02  0.45045682398E+02  0.00000000000E+00 0.  1.
         11    1    4    4    0    0  0.55130200297E+01 -0.22392806530E+01  0.69850893350E+01  0.91760144382E+01  0.51100000000E-03 0. -1.
        -11    1    4    4    0    0  0.11504173044E+02 -0.77045921180E+00  0.56156544071E+01  0.12824787698E+02  0.51100000000E-03 0.  1.
         12    1    4    4    0    0  0.17524693490E+02 -0.10136891002E+02  0.13150715871E+02  0.24141515466E+02  0.00000000000E+00 0. -1.
</event>
<event>
 8    1  0.7489580E-009  0.9118800E+02  0.7816164E-02  0.1184000E+00
        -11   -1    0    0    0    0  0.00000000000E+00  0.00000000000E+00  0.45593999997E+02  0.45594000000E+02  0.51100000000E-03 0. -1.
         11   -1    0    0    0    0 -0.00000000000E+00 -0.00000000000E+00 -0.45593999997E+02  0.45594000000E+02  0.51100000000E-03 0.  1.
         23    2    1    2    0    0  0.00000000000E+00  0.00000000000E+00  0.00000000000E+00  0.91188000000E+02  0.91188000000E+02 0.  0.
    9900012    2    3    3    0    0  0.13925978575E+02  0.42235018285E+02 -0.71682478005E+01  0.46142318461E+02  0.10000006383E+02 0.  0.
         12    1    3    3    0    0 -0.13925978575E+02 -0.42235018285E+02  0.71682478005E+01  0.45045681539E+02  0.00000000000E+00 0. -1.
         11    1    4    4    0    0  0.16714352194E+01  0.13380258593E+02 -0.19321847488E+01  0.13621980542E+02  0.51100000000E-03 0. -1.
        -11    1    4    4    0    0  0.31130024882E+01  0.22841396431E+01 -0.16285630771E+01  0.41905007288E+01  0.51100000000E-03 0.  1.
        -12    1    4    4    0    0  0.91415408677E+01  0.26570620048E+02 -0.36074999746E+01  0.28329837191E+02  0.00000000000E+00 0.  1.
</event>
<event>
 8    1  0.7489580E-009  0.9118800E+02  0.7816164E-02  0.1184000E+00
        -11   -1    0    0    0    0  0.00000000000E+00  0.00000000000E+00  0.45593999997E+02  0.45594000000E+02  0.51100000000E-03 0. -1.
         11   -1    0    0    0    0 -0.00000000000E+00 -0.00000000000E+00 -0.45593999997E+02  0.45594000000E+02  0.51100000000E-03 0.  1.
         23    2    1    2    0    0  0.35527136788E-14 -0.35527136788E-14 -0.71054273576E-14  0.91188000000E+02  0.91188000000E+02 0.  0.
    9900012    2    3    3    0    0  0.21579917719E+02  0.17181439247E+02  0.35612059084E+02  0.46142318125E+02  0.10000003318E+02 0.  0.
        -12    1    3    3    0    0 -0.21579917719E+02 -0.17181439247E+02 -0.35612059084E+02  0.45045681875E+02  0.00000000000E+00 0.  1.
         11    1    4    4    0    0  0.16398592444E+02  0.10211332139E+02  0.19793109986E+02  0.27657771808E+02  0.51100000000E-03 0. -1.
        -11    1    4    4    0    0  0.46653133168E+01  0.29819665779E+01  0.94298284794E+01  0.10935215518E+02  0.51100000000E-03 0.  1.
        -12    1    4    4    0    0  0.51601195825E+00  0.39881405298E+01  0.63891206190E+01  0.75493307988E+01  0.00000000000E+00 0.  1.
</event>
<event>
 8    1  0.7489580E-009  0.9118800E+02  0.7816164E-02  0.1184000E+00
        -11   -1    0    0    0    0  0.00000000000E+00  0.00000000000E+00  0.45593999997E+02  0.45594000000E+02  0.51100000000E-03 0. -1.
         11   -1    0    0    0    0 -0.00000000000E+00 -0.00000000000E+00 -0.45593999997E+02  0.45594000000E+02  0.51100000000E-03 0.  1.
         23    2    1    2    0    0  0.00000000000E+00  0.00000000000E+00  0.00000000000E+00  0.91188000000E+02  0.91188000000E+02 0.  0.
    9900012    2    3    3    0    0 -0.16860020282E+02 -0.32012533421E+02  0.26833763785E+02  0.46142318090E+02  0.10000002997E+02 0.  0.
        -12    1    3    3    0    0  0.16860020282E+02  0.32012533421E+02 -0.26833763785E+02  0.45045681910E+02  0.00000000000E+00 0.  1.
         11    1    4    4    0    0  0.36127786933E+00 -0.23625999417E+01  0.21224806181E+01  0.31964549768E+01  0.51100000000E-03 0.  1.
        -11    1    4    4    0    0 -0.13009373089E+02 -0.27395871675E+02  0.20853157182E+02  0.36805322139E+02  0.51100000000E-03 0. -1.
         12    1    4    4    0    0 -0.42119250622E+01 -0.22540618034E+01  0.38581259842E+01  0.61405409740E+01  0.00000000000E+00 0. -1.
</event>
<event>
 8    1  0.7489580E-009  0.9118800E+02  0.7816164E-02  0.1184000E+00
        -11   -1    0    0    0    0  0.00000000000E+00  0.00000000000E+00  0.45593999997E+02  0.45594000000E+02  0.51100000000E-03 0. -1.
         11   -1    0    0    0    0 -0.00000000000E+00 -0.00000000000E+00 -0.45593999997E+02  0.45594000000E+02  0.51100000000E-03 0.  1.
         23    2    1    2    0    0 -0.71054273576E-14  0.00000000000E+00  0.00000000000E+00  0.91188000000E+02  0.91188000000E+02 0.  0.
    9900012    2    3    3    0    0 -0.39145559407E+02 -0.10797768046E+02  0.19497356086E+02  0.46142317517E+02  0.99999977710E+01 0.  0.
        -12    1    3    3    0    0  0.39145559407E+02  0.10797768046E+02 -0.19497356086E+02  0.45045682483E+02  0.00000000000E+00 0.  1.
         11    1    4    4    0    0 -0.15933105772E+02 -0.28542096402E+01  0.84688271412E+01  0.18268316989E+02  0.51100000000E-03 0. -1.
        -11    1    4    4    0    0 -0.12429272074E+01  0.44175955243E+00  0.25606255286E+01  0.28804206123E+01  0.51100000000E-03 0.  1.
        -12    1    4    4    0    0 -0.21969526427E+02 -0.83853179584E+01  0.84679034166E+01  0.24993579915E+02  0.00000000000E+00 0.  1.
</event>
<event>
 8    1  0.7489580E-009  0.9118800E+02  0.7816164E-02  0.1184000E+00
        -11   -1    0    0    0    0  0.00000000000E+00  0.00000000000E+00  0.45593999997E+02  0.45594000000E+02  0.51100000000E-03 0. -1.
         11   -1    0    0    0    0 -0.00000000000E+00 -0.00000000000E+00 -0.45593999997E+02  0.45594000000E+02  0.51100000000E-03 0.  1.
         23    2    1    2    0    0 -0.35527136788E-14 -0.22204460493E-15 -0.71054273576E-14  0.91188000000E+02  0.91188000000E+02 0.  0.
    9900012    2    3    3    0    0 -0.30262276774E+02 -0.13580504539E+01 -0.33338624613E+02  0.46142316659E+02  0.99999899485E+01 0.  0.
         12    1    3    3    0    0  0.30262276774E+02  0.13580504539E+01  0.33338624613E+02  0.45045683341E+02  0.00000000000E+00 0. -1.
         11    1    4    4    0    0 -0.58542520700E+01 -0.89415807558E+00 -0.18109999777E+01  0.61928593673E+01  0.51100000000E-03 0. -1.
        -11    1    4    4    0    0 -0.99950587168E+01  0.10090758777E+01 -0.12721060792E+02  0.16209405320E+02  0.51100000000E-03 0.  1.
         12    1    4    4    0    0 -0.14412965987E+02 -0.14729682560E+01 -0.18806563844E+02  0.23740051972E+02  0.00000000000E+00 0. -1.
</event>
<event>
 8    1  0.7489580E-009  0.9118800E+02  0.7816164E-02  0.1184000E+00
        -11   -1    0    0    0    0  0.00000000000E+00  0.00000000000E+00  0.45593999997E+02  0.45594000000E+02  0.51100000000E-03 0. -1.
         11   -1    0    0    0    0 -0.00000000000E+00 -0.00000000000E+00 -0.45593999997E+02  0.45594000000E+02  0.51100000000E-03 0.  1.
         23    2    1    2    0    0  0.00000000000E+00  0.35527136788E-14  0.00000000000E+00  0.91188000000E+02  0.91188000000E+02 0.  0.
    9900012    2    3    3    0    0  0.20299027827E+01  0.31703009328E+02  0.31936064262E+02  0.46142317562E+02  0.99999981880E+01 0.  0.
        -12    1    3    3    0    0 -0.20299027827E+01 -0.31703009328E+02 -0.31936064262E+02  0.45045682438E+02  0.00000000000E+00 0.  1.
         11    1    4    4    0    0  0.10952498553E+01  0.22603179805E+02  0.24338806369E+02  0.33233729933E+02  0.51100000000E-03 0. -1.
        -11    1    4    4    0    0 -0.43043173638E+00  0.34831258709E+01  0.59334008869E+01  0.68936698251E+01  0.51100000000E-03 0.  1.
        -12    1    4    4    0    0  0.13650846637E+01  0.56167036522E+01  0.16638570055E+01  0.60149178042E+01  0.00000000000E+00 0.  1.
</event>
<event>
 8    1  0.7489580E-009  0.9118800E+02  0.7816164E-02  0.1184000E+00
        -11   -1    0    0    0    0  0.00000000000E+00  0.00000000000E+00  0.45593999997E+02  0.45594000000E+02  0.51100000000E-03 0. -1.
         11   -1    0    0    0    0 -0.00000000000E+00 -0.00000000000E+00 -0.45593999997E+02  0.45594000000E+02  0.51100000000E-03 0.  1.
         23    2    1    2    0    0 -0.11102230246E-15  0.00000000000E+00 -0.35527136788E-14  0.91188000000E+02  0.91188000000E+02 0.  0.
    9900012    2    3    3    0    0  0.85843288866E+00 -0.36046230678E+02  0.27000849032E+02  0.46142317615E+02  0.99999986691E+01 0.  0.
        -12    1    3    3    0    0 -0.85843288866E+00  0.36046230678E+02 -0.27000849032E+02  0.45045682385E+02  0.00000000000E+00 0.  1.
         11    1    4    4    0    0 -0.28318411911E+01 -0.79998736221E+01  0.73641956726E+01  0.11236043817E+02  0.51100000000E-03 0. -1.
        -11    1    4    4    0    0  0.33170453768E+01 -0.13776067736E+02  0.68366969601E+01  0.15732871890E+02  0.51100000000E-03 0.  1.
        -12    1    4    4    0    0  0.37322870304E+00 -0.14270289319E+02  0.12799956399E+02  0.19173401908E+02  0.00000000000E+00 0.  1.
</event>
<event>
 8    1  0.7489580E-009  0.9118800E+02  0.7816164E-02  0.1184000E+00
        -11   -1    0    0    0    0  0.00000000000E+00  0.00000000000E+00  0.45593999997E+02  0.45594000000E+02  0.51100000000E-03 0. -1.
         11   -1    0    0    0    0 -0.00000000000E+00 -0.00000000000E+00 -0.45593999997E+02  0.45594000000E+02  0.51100000000E-03 0.  1.
         23    2    1    2    0    0 -0.88817841970E-15 -0.35527136788E-14  0.71054273576E-14  0.91188000000E+02  0.91188000000E+02 0.  0.
    9900012    2    3    3    0    0 -0.67731296257E+01 -0.17005567587E+02  0.41158841727E+02  0.46142302468E+02  0.99998605420E+01 0.  0.
        -12    1    3    3    0    0  0.67731296257E+01  0.17005567587E+02 -0.41158841727E+02  0.45045697532E+02  0.00000000000E+00 0.  1.
         11    1    4    4    0    0 -0.25899481753E+01 -0.99309416843E+01  0.15037136462E+02  0.18205683386E+02  0.51100000000E-03 0. -1.
        -11    1    4    4    0    0 -0.29664659567E+01 -0.15936593470E+01  0.46388650782E+01  0.57322543437E+01  0.51100000000E-03 0.  1.
         12    1    4    4    0    0 -0.12167154937E+01 -0.54809665561E+01  0.21482840186E+02  0.22204364738E+02  0.00000000000E+00 0. -1.
</event>
<event>
 8    1  0.7489580E-009  0.9118800E+02  0.7816164E-02  0.1184000E+00
        -11   -1    0    0    0    0  0.00000000000E+00  0.00000000000E+00  0.45593999997E+02  0.45594000000E+02  0.51100000000E-03 0. -1.
         11   -1    0    0    0    0 -0.00000000000E+00 -0.00000000000E+00 -0.45593999997E+02  0.45594000000E+02  0.51100000000E-03 0.  1.
         23    2    1    2    0    0 -0.55511151231E-15  0.00000000000E+00  0.00000000000E+00  0.91188000000E+02  0.91188000000E+02 0.  0.
    9900012    2    3    3    0    0 -0.79409142360E+00 -0.20536154273E+02 -0.40084276828E+02  0.46142318050E+02  0.10000002632E+02 0.  0.
         12    1    3    3    0    0  0.79409142360E+00  0.20536154273E+02  0.40084276828E+02  0.45045681950E+02  0.00000000000E+00 0. -1.
         11    1    4    4    0    0  0.22319954053E+00 -0.55699753631E-01 -0.38636224319E+00  0.44966269751E+00  0.51100000000E-03 0. -1.
        -11    1    4    4    0    0  0.15482107622E+01 -0.19801945451E+02 -0.33419219965E+02  0.38876191475E+02  0.51100000000E-03 0.  1.
        -12    1    4    4    0    0 -0.25655017263E+01 -0.67850906786E+00 -0.62786946200E+01  0.68164638775E+01  0.00000000000E+00 0.  1.
</event>
<event>
 8    1  0.7489580E-009  0.9118800E+02  0.7816164E-02  0.1184000E+00
        -11   -1    0    0    0    0  0.00000000000E+00  0.00000000000E+00  0.45593999997E+02  0.45594000000E+02  0.51100000000E-03 0. -1.
         11   -1    0    0    0    0 -0.00000000000E+00 -0.00000000000E+00 -0.45593999997E+02  0.45594000000E+02  0.51100000000E-03 0.  1.
         23    2    1    2    0    0 -0.35527136788E-14  0.00000000000E+00  0.71054273576E-14  0.91188000000E+02  0.91188000000E+02 0.  0.
    9900012    2    3    3    0    0 -0.24947254450E+02 -0.95578889496E+01  0.36268366716E+02  0.46142321295E+02  0.10000032222E+02 0.  0.
        -12    1    3    3    0    0  0.24947254450E+02  0.95578889496E+01 -0.36268366716E+02  0.45045678705E+02  0.00000000000E+00 0.  1.
         11    1    4    4    0    0 -0.11150599469E+02 -0.62089900027E+01  0.18568459222E+02  0.22531646711E+02  0.51100000000E-03 0. -1.
        -11    1    4    4    0    0 -0.20535555164E+01  0.14761757247E+01  0.12210585627E+01  0.28084104586E+01  0.51100000000E-03 0.  1.
        -12    1    4    4    0    0 -0.11743099465E+02 -0.48250746716E+01  0.16478848931E+02  0.20802264125E+02  0.00000000000E+00 0.  1.
</event>
<event>
 8    1  0.1120917E-008  0.9118800E+02  0.7816164E-02  0.1184000E+00
        -11   -1    0    0    0    0  0.00000000000E+00  0.00000000000E+00  0.45593999997E+02  0.45594000000E+02  0.51100000000E-03 0. -1.
         11   -1    0    0    0    0 -0.00000000000E+00 -0.00000000000E+00 -0.45593999997E+02  0.45594000000E+02  0.51100000000E-03 0.  1.
         23    2    1    2    0    0  0.35527136788E-14  0.00000000000E+00  0.00000000000E+00  0.91188000000E+02  0.91188000000E+02 0.  0.
    9900012    2    3    3    0    0 -0.31552040287E+02 -0.26866983786E+01 -0.32036917327E+02  0.46142315787E+02  0.99999819951E+01 0.  0.
         12    1    3    3    0    0  0.31552040287E+02  0.26866983786E+01  0.32036917327E+02  0.45045684213E+02  0.00000000000E+00 0. -1.
         11    1    4    4    0    0 -0.16233895824E+02 -0.43916713826E+01 -0.18261787085E+02  0.24825773280E+02  0.51100000000E-03 0. -1.
        -11    1    4    4    0    0 -0.10982716458E+02 -0.52033434615E+00 -0.11590958684E+02  0.15976267778E+02  0.51100000000E-03 0.  1.
         12    1    4    4    0    0 -0.43354280042E+01  0.22253073501E+01 -0.21841715583E+01  0.53402747287E+01  0.00000000000E+00 0. -1.
</event>
<event>
 8    1  0.7489580E-009  0.9118800E+02  0.7816164E-02  0.1184000E+00
        -11   -1    0    0    0    0  0.00000000000E+00  0.00000000000E+00  0.45593999997E+02  0.45594000000E+02  0.51100000000E-03 0. -1.
         11   -1    0    0    0    0 -0.00000000000E+00 -0.00000000000E+00 -0.45593999997E+02  0.45594000000E+02  0.51100000000E-03 0.  1.
         23    2    1    2    0    0  0.00000000000E+00 -0.44408920985E-15  0.00000000000E+00  0.91188000000E+02  0.91188000000E+02 0.  0.
    9900012    2    3    3    0    0 -0.67565411216E+01  0.39167293867E+01  0.44363519680E+02  0.46142317683E+02  0.99999992866E+01 0.  0.
        -12    1    3    3    0    0  0.67565411216E+01 -0.39167293867E+01 -0.44363519680E+02  0.45045682317E+02  0.00000000000E+00 0.  1.
         11    1    4    4    0    0 -0.26856852415E+01  0.29627011506E+01  0.10446632089E+02  0.11185822526E+02  0.51100000000E-03 0. -1.
        -11    1    4    4    0    0 -0.31933138833E+01  0.11120208985E+01  0.33896366651E+02  0.34064607974E+02  0.51100000000E-03 0.  1.
        -12    1    4    4    0    0 -0.87754199678E+00 -0.15799266241E+00  0.20520940172E-01  0.89188718260E+00  0.00000000000E+00 0.  1.
</event>
<event>
 8    1  0.7489580E-009  0.9118800E+02  0.7816164E-02  0.1184000E+00
        -11   -1    0    0    0    0  0.00000000000E+00  0.00000000000E+00  0.45593999997E+02  0.45594000000E+02  0.51100000000E-03 0.  1.
         11   -1    0    0    0    0 -0.00000000000E+00 -0.00000000000E+00 -0.45593999997E+02  0.45594000000E+02  0.51100000000E-03 0. -1.
         23    2    1    2    0    0  0.00000000000E+00  0.00000000000E+00 -0.35527136788E-14  0.91188000000E+02  0.91188000000E+02 0.  0.
    9900012    2    3    3    0    0  0.33637973323E+02  0.21687957072E+01  0.29881368984E+02  0.46142321667E+02  0.10000035620E+02 0.  0.
        -12    1    3    3    0    0 -0.33637973323E+02 -0.21687957072E+01 -0.29881368984E+02  0.45045678333E+02  0.00000000000E+00 0.  1.
         11    1    4    4    0    0  0.21010673874E+02 -0.77132528008E+00  0.16793694197E+02  0.26908577152E+02  0.51100000000E-03 0. -1.
        -11    1    4    4    0    0  0.15306564265E+01  0.16270257898E+01  0.30331194860E+00  0.22543558761E+01  0.51100000000E-03 0.  1.
        -12    1    4    4    0    0  0.11096643022E+02  0.13130951975E+01  0.12784362839E+02  0.16979388639E+02  0.00000000000E+00 0.  1.
</event>
<event>
 8    1  0.7489580E-009  0.9118800E+02  0.7816164E-02  0.1184000E+00
        -11   -1    0    0    0    0  0.00000000000E+00  0.00000000000E+00  0.45593999997E+02  0.45594000000E+02  0.51100000000E-03 0. -1.
         11   -1    0    0    0    0 -0.00000000000E+00 -0.00000000000E+00 -0.45593999997E+02  0.45594000000E+02  0.51100000000E-03 0.  1.
         23    2    1    2    0    0 -0.35527136788E-14  0.00000000000E+00 -0.35527136788E-14  0.91188000000E+02  0.91188000000E+02 0.  0.
    9900012    2    3    3    0    0 -0.23108034927E+02  0.31708630427E+02  0.22129053042E+02  0.46142317518E+02  0.99999977828E+01 0.  0.
        -12    1    3    3    0    0  0.23108034927E+02 -0.31708630427E+02 -0.22129053042E+02  0.45045682482E+02  0.00000000000E+00 0.  1.
         11    1    4    4    0    0 -0.58900028108E+01  0.70873274483E+01  0.36154908071E+01  0.98991978215E+01  0.51100000000E-03 0. -1.
        -11    1    4    4    0    0 -0.38986447750E+00  0.21385322203E+01  0.41848841271E+01  0.47157788101E+01  0.51100000000E-03 0.  1.
        -12    1    4    4    0    0 -0.16828167639E+02  0.22482770758E+02  0.14328678108E+02  0.31527340886E+02  0.00000000000E+00 0.  1.
</event>
<event>
 8    1  0.7489580E-009  0.9118800E+02  0.7816164E-02  0.1184000E+00
        -11   -1    0    0    0    0  0.00000000000E+00  0.00000000000E+00  0.45593999997E+02  0.45594000000E+02  0.51100000000E-03 0. -1.
         11   -1    0    0    0    0 -0.00000000000E+00 -0.00000000000E+00 -0.45593999997E+02  0.45594000000E+02  0.51100000000E-03 0.  1.
         23    2    1    2    0    0  0.00000000000E+00 -0.17763568394E-14  0.00000000000E+00  0.91188000000E+02  0.91188000000E+02 0.  0.
    9900012    2    3    3    0    0 -0.28789193889E+02 -0.93342120641E+01  0.33364178865E+02  0.46142316178E+02  0.99999855641E+01 0.  0.
        -12    1    3    3    0    0  0.28789193889E+02  0.93342120641E+01 -0.33364178865E+02  0.45045683822E+02  0.00000000000E+00 0.  1.
         11    1    4    4    0    0 -0.25469200083E+01 -0.33519850793E+01  0.24901808233E+01  0.48911763712E+01  0.51100000000E-03 0. -1.
        -11    1    4    4    0    0 -0.42801492896E+01 -0.67773974559E+00  0.25809725363E+01  0.50438505726E+01  0.51100000000E-03 0.  1.
         12    1    4    4    0    0 -0.21962124591E+02 -0.53044872391E+01  0.28293025506E+02  0.36207289234E+02  0.00000000000E+00 0. -1.
</event>
<event>
 8    1  0.7489580E-009  0.9118800E+02  0.7816164E-02  0.1184000E+00
        -11   -1    0    0    0    0  0.00000000000E+00  0.00000000000E+00  0.45593999997E+02  0.45594000000E+02  0.51100000000E-03 0. -1.
         11   -1    0    0    0    0 -0.00000000000E+00 -0.00000000000E+00 -0.45593999997E+02  0.45594000000E+02  0.51100000000E-03 0.  1.
         23    2    1    2    0    0  0.00000000000E+00  0.00000000000E+00  0.00000000000E+00  0.91188000000E+02  0.91188000000E+02 0.  0.
    9900012    2    3    3    0    0 -0.17141501823E+02  0.90055214959E+01  0.40671648861E+02  0.46142317374E+02  0.99999964711E+01 0.  0.
        -12    1    3    3    0    0  0.17141501823E+02 -0.90055214959E+01 -0.40671648861E+02  0.45045682626E+02  0.00000000000E+00 0.  1.
         11    1    4    4    0    0 -0.52326814164E+01  0.39236018469E+00  0.91505134418E+01  0.10548307818E+02  0.51100000000E-03 0. -1.
        -11    1    4    4    0    0 -0.44446655862E+01 -0.24311591343E-01  0.48288683125E+01  0.65630490374E+01  0.51100000000E-03 0.  1.
        -12    1    4    4    0    0 -0.74641548201E+01  0.86374729025E+01  0.26692267107E+02  0.29030960518E+02  0.00000000000E+00 0.  1.
</event>
<event>
 8    1  0.7489580E-009  0.9118800E+02  0.7816164E-02  0.1184000E+00
        -11   -1    0    0    0    0  0.00000000000E+00  0.00000000000E+00  0.45593999997E+02  0.45594000000E+02  0.51100000000E-03 0. -1.
         11   -1    0    0    0    0 -0.00000000000E+00 -0.00000000000E+00 -0.45593999997E+02  0.45594000000E+02  0.51100000000E-03 0.  1.
         23    2    1    2    0    0 -0.17763568394E-14  0.00000000000E+00  0.00000000000E+00  0.91188000000E+02  0.91188000000E+02 0.  0.
    9900012    2    3    3    0    0 -0.93111824306E+01 -0.40207595848E+02 -0.18048951230E+02  0.46142317381E+02  0.99999965307E+01 0.  0.
         12    1    3    3    0    0  0.93111824306E+01  0.40207595848E+02  0.18048951230E+02  0.45045682619E+02  0.00000000000E+00 0. -1.
         11    1    4    4    0    0 -0.22367120142E+01 -0.93771762322E+01 -0.12801903447E+01  0.97248754390E+01  0.51100000000E-03 0. -1.
        -11    1    4    4    0    0 -0.73726873964E+01 -0.18096391595E+02 -0.11125079044E+02  0.22485624123E+02  0.51100000000E-03 0.  1.
         12    1    4    4    0    0  0.29821697991E+00 -0.12734028021E+02 -0.56436818407E+01  0.13931817819E+02  0.00000000000E+00 0. -1.
</event>
<event>
 8    1  0.7489580E-009  0.9118800E+02  0.7816164E-02  0.1184000E+00
        -11   -1    0    0    0    0  0.00000000000E+00  0.00000000000E+00  0.45593999997E+02  0.45594000000E+02  0.51100000000E-03 0. -1.
         11   -1    0    0    0    0 -0.00000000000E+00 -0.00000000000E+00 -0.45593999997E+02  0.45594000000E+02  0.51100000000E-03 0.  1.
         23    2    1    2    0    0 -0.49960036108E-15  0.00000000000E+00  0.00000000000E+00  0.91188000000E+02  0.91188000000E+02 0.  0.
    9900012    2    3    3    0    0 -0.49795457290E+00 -0.55411199999E+01 -0.44700799817E+02  0.46142317922E+02  0.10000001467E+02 0.  0.
         12    1    3    3    0    0  0.49795457290E+00  0.55411199999E+01  0.44700799817E+02  0.45045682078E+02  0.00000000000E+00 0. -1.
         11    1    4    4    0    0  0.23354810701E+01 -0.11468238144E+00 -0.10759479958E+02  0.11010632729E+02  0.51100000000E-03 0. -1.
        -11    1    4    4    0    0 -0.45866574145E+01 -0.45287879121E+01 -0.19056141653E+02  0.20116756229E+02  0.51100000000E-03 0.  1.
        -12    1    4    4    0    0  0.17532217716E+01 -0.89764970632E+00 -0.14885178206E+02  0.15014928964E+02  0.00000000000E+00 0.  1.
</event>
<event>
 8    1  0.7489580E-009  0.9118800E+02  0.7816164E-02  0.1184000E+00
        -11   -1    0    0    0    0  0.00000000000E+00  0.00000000000E+00  0.45593999997E+02  0.45594000000E+02  0.51100000000E-03 0. -1.
         11   -1    0    0    0    0 -0.00000000000E+00 -0.00000000000E+00 -0.45593999997E+02  0.45594000000E+02  0.51100000000E-03 0.  1.
         23    2    1    2    0    0  0.00000000000E+00  0.00000000000E+00  0.35527136788E-14  0.91188000000E+02  0.91188000000E+02 0.  0.
    9900012    2    3    3    0    0  0.18727222417E+02 -0.31530322324E+02 -0.26158045555E+02  0.46142318380E+02  0.10000005647E+02 0.  0.
         12    1    3    3    0    0 -0.18727222417E+02  0.31530322324E+02  0.26158045555E+02  0.45045681620E+02  0.00000000000E+00 0. -1.
         11    1    4    4    0    0  0.11083498812E+01 -0.38689880348E+01 -0.17883859958E+01  0.44040700044E+01  0.51100000000E-03 0. -1.
        -11    1    4    4    0    0  0.97998528894E+01 -0.12491620064E+02 -0.68857888664E+01  0.17305830724E+02  0.51100000000E-03 0.  1.
        -12    1    4    4    0    0  0.78190196468E+01 -0.15169714225E+02 -0.17483870693E+02  0.24432417652E+02  0.00000000000E+00 0.  1.
</event>
<event>
 8    1  0.7489580E-009  0.9118800E+02  0.7816164E-02  0.1184000E+00
        -11   -1    0    0    0    0  0.00000000000E+00  0.00000000000E+00  0.45593999997E+02  0.45594000000E+02  0.51100000000E-03 0. -1.
         11   -1    0    0    0    0 -0.00000000000E+00 -0.00000000000E+00 -0.45593999997E+02  0.45594000000E+02  0.51100000000E-03 0.  1.
         23    2    1    2    0    0  0.00000000000E+00  0.35527136788E-14  0.00000000000E+00  0.91188000000E+02  0.91188000000E+02 0.  0.
    9900012    2    3    3    0    0 -0.34490337684E+02  0.28588348715E+02 -0.47154476570E+01  0.46142328483E+02  0.10000097774E+02 0.  0.
         12    1    3    3    0    0  0.34490337684E+02 -0.28588348715E+02  0.47154476570E+01  0.45045671517E+02  0.00000000000E+00 0. -1.
         11    1    4    4    0    0 -0.11369724366E+02  0.72464468205E+01  0.37762880540E+00  0.13487928954E+02  0.51100000000E-03 0. -1.
        -11    1    4    4    0    0 -0.81133968883E+01  0.80744934956E+01 -0.53191666044E+01  0.12622130878E+02  0.51100000000E-03 0.  1.
        -12    1    4    4    0    0 -0.15007216429E+02  0.13267408399E+02  0.22609014201E+00  0.20032268651E+02  0.00000000000E+00 0.  1.
</event>
<event>
 8    1  0.7489580E-009  0.9118800E+02  0.7816164E-02  0.1184000E+00
        -11   -1    0    0    0    0  0.00000000000E+00  0.00000000000E+00  0.45593999997E+02  0.45594000000E+02  0.51100000000E-03 0. -1.
         11   -1    0    0    0    0 -0.00000000000E+00 -0.00000000000E+00 -0.45593999997E+02  0.45594000000E+02  0.51100000000E-03 0.  1.
         23    2    1    2    0    0  0.00000000000E+00  0.00000000000E+00  0.71054273576E-14  0.91188000000E+02  0.91188000000E+02 0.  0.
    9900012    2    3    3    0    0  0.98296764913E+01  0.20620047173E+02 -0.38824020940E+02  0.46142317773E+02  0.10000000110E+02 0.  0.
         12    1    3    3    0    0 -0.98296764913E+01 -0.20620047173E+02  0.38824020940E+02  0.45045682227E+02  0.00000000000E+00 0. -1.
         11    1    4    4    0    0  0.57082859460E+00  0.44568694111E+01 -0.28329165372E+01  0.53117743362E+01  0.51100000000E-03 0. -1.
        -11    1    4    4    0    0  0.50705744183E+01  0.77459559552E+01 -0.12723296637E+02  0.15735082973E+02  0.51100000000E-03 0.  1.
        -12    1    4    4    0    0  0.41882734784E+01  0.84172218065E+01 -0.23267807766E+02  0.25095460464E+02  0.00000000000E+00 0.  1.
</event>
<event>
 8    1  0.7489580E-009  0.9118800E+02  0.7816164E-02  0.1184000E+00
        -11   -1    0    0    0    0  0.00000000000E+00  0.00000000000E+00  0.45593999997E+02  0.45594000000E+02  0.51100000000E-03 0.  1.
         11   -1    0    0    0    0 -0.00000000000E+00 -0.00000000000E+00 -0.45593999997E+02  0.45594000000E+02  0.51100000000E-03 0. -1.
         23    2    1    2    0    0  0.00000000000E+00  0.00000000000E+00  0.00000000000E+00  0.91188000000E+02  0.91188000000E+02 0.  0.
    9900012    2    3    3    0    0  0.43042437688E+02 -0.12082057275E+02 -0.55213998586E+01  0.46142318670E+02  0.10000008284E+02 0.  0.
         12    1    3    3    0    0 -0.43042437688E+02  0.12082057275E+02  0.55213998586E+01  0.45045681330E+02  0.00000000000E+00 0. -1.
         11    1    4    4    0    0  0.53367160758E+01 -0.75925266816E+00  0.93148379460E+00  0.54703441764E+01  0.51100000000E-03 0. -1.
        -11    1    4    4    0    0  0.15391684887E+02 -0.87151526789E+01 -0.30950644814E+01  0.17956538483E+02  0.51100000000E-03 0.  1.
        -12    1    4    4    0    0  0.22314036725E+02 -0.26076519283E+01 -0.33578191717E+01  0.22715436010E+02  0.00000000000E+00 0.  1.
</event>
<event>
 8    1  0.7489580E-009  0.9118800E+02  0.7816164E-02  0.1184000E+00
        -11   -1    0    0    0    0  0.00000000000E+00  0.00000000000E+00  0.45593999997E+02  0.45594000000E+02  0.51100000000E-03 0. -1.
         11   -1    0    0    0    0 -0.00000000000E+00 -0.00000000000E+00 -0.45593999997E+02  0.45594000000E+02  0.51100000000E-03 0.  1.
         23    2    1    2    0    0 -0.22204460493E-15  0.00000000000E+00  0.00000000000E+00  0.91188000000E+02  0.91188000000E+02 0.  0.
    9900012    2    3    3    0    0 -0.15423908909E+01  0.16963338595E+02  0.41701075233E+02  0.46142317615E+02  0.99999986699E+01 0.  0.
        -12    1    3    3    0    0  0.15423908909E+01 -0.16963338595E+02 -0.41701075233E+02  0.45045682385E+02  0.00000000000E+00 0.  1.
         11    1    4    4    0    0 -0.38520703338E+01  0.10727959901E+02  0.19003388582E+02  0.22159791230E+02  0.51100000000E-03 0. -1.
        -11    1    4    4    0    0 -0.23566146723E-01 -0.33072923510E+00  0.11784393331E+00  0.35188726030E+00  0.51100000000E-03 0.  1.
         12    1    4    4    0    0  0.23332455896E+01  0.65661079292E+01  0.22579842717E+02  0.23630639125E+02  0.00000000000E+00 0. -1.
</event>
<event>
 8    1  0.7489580E-009  0.9118800E+02  0.7816164E-02  0.1184000E+00
        -11   -1    0    0    0    0  0.00000000000E+00  0.00000000000E+00  0.45593999997E+02  0.45594000000E+02  0.51100000000E-03 0. -1.
         11   -1    0    0    0    0 -0.00000000000E+00 -0.00000000000E+00 -0.45593999997E+02  0.45594000000E+02  0.51100000000E-03 0.  1.
         23    2    1    2    0    0  0.00000000000E+00  0.00000000000E+00  0.00000000000E+00  0.91188000000E+02  0.91188000000E+02 0.  0.
    9900012    2    3    3    0    0  0.11497799762E+02  0.37169696636E+02  0.22700831624E+02  0.46142317590E+02  0.99999984397E+01 0.  0.
        -12    1    3    3    0    0 -0.11497799762E+02 -0.37169696636E+02 -0.22700831624E+02  0.45045682410E+02  0.00000000000E+00 0.  1.
         11    1    4    4    0    0  0.23527968916E+01  0.10338599520E+02  0.31968355513E+01  0.11074387164E+02  0.51100000000E-03 0. -1.
        -11    1    4    4    0    0  0.73503052893E+01  0.26096615746E+02  0.18851974016E+02  0.33022072403E+02  0.51100000000E-03 0.  1.
        -12    1    4    4    0    0  0.17946975809E+01  0.73448137040E+00  0.65202205669E+00  0.20458580236E+01  0.00000000000E+00 0.  1.
</event>
<event>
 8    1  0.7489580E-009  0.9118800E+02  0.7816164E-02  0.1184000E+00
        -11   -1    0    0    0    0  0.00000000000E+00  0.00000000000E+00  0.45593999997E+02  0.45594000000E+02  0.51100000000E-03 0. -1.
         11   -1    0    0    0    0 -0.00000000000E+00 -0.00000000000E+00 -0.45593999997E+02  0.45594000000E+02  0.51100000000E-03 0.  1.
         23    2    1    2    0    0 -0.33306690739E-15  0.00000000000E+00  0.17763568394E-14  0.91188000000E+02  0.91188000000E+02 0.  0.
    9900012    2    3    3    0    0  0.68731958307E+00 -0.42510705187E+02 -0.14882239747E+02  0.46142317370E+02  0.99999964316E+01 0.  0.
         12    1    3    3    0    0 -0.68731958307E+00  0.42510705187E+02  0.14882239747E+02  0.45045682630E+02  0.00000000000E+00 0. -1.
         11    1    4    4    0    0 -0.87286752671E+00 -0.45360379176E+01 -0.24529703800E+01  0.52301626796E+01  0.51100000000E-03 0. -1.
        -11    1    4    4    0    0  0.30011655742E+01 -0.17784490510E+02 -0.97250824712E+01  0.20490786389E+02  0.51100000000E-03 0.  1.
        -12    1    4    4    0    0 -0.14409784644E+01 -0.20190176760E+02 -0.27041868956E+01  0.20421368301E+02  0.00000000000E+00 0.  1.
</event>
<event>
 8    1  0.7489580E-009  0.9118800E+02  0.7816164E-02  0.1184000E+00
        -11   -1    0    0    0    0  0.00000000000E+00  0.00000000000E+00  0.45593999997E+02  0.45594000000E+02  0.51100000000E-03 0. -1.
         11   -1    0    0    0    0 -0.00000000000E+00 -0.00000000000E+00 -0.45593999997E+02  0.45594000000E+02  0.51100000000E-03 0.  1.
         23    2    1    2    0    0  0.00000000000E+00 -0.71054273576E-14  0.17763568394E-14  0.91188000000E+02  0.91188000000E+02 0.  0.
    9900012    2    3    3    0    0  0.20125085339E+02 -0.37955794018E+02  0.13544455216E+02  0.46142316227E+02  0.99999860149E+01 0.  0.
         12    1    3    3    0    0 -0.20125085339E+02  0.37955794018E+02 -0.13544455216E+02  0.45045683773E+02  0.00000000000E+00 0. -1.
         11    1    4    4    0    0  0.50723747509E+01 -0.98822518635E+01  0.21805161120E+01  0.11320006108E+02  0.51100000000E-03 0. -1.
        -11    1    4    4    0    0 -0.61363916717E+00 -0.30063917930E+01 -0.21377054031E+00  0.30758157854E+01  0.51100000000E-03 0.  1.
         12    1    4    4    0    0  0.15666349756E+02 -0.25067150361E+02  0.11577709645E+02  0.31746494334E+02  0.00000000000E+00 0. -1.
</event>
<event>
 8    1  0.7489580E-009  0.9118800E+02  0.7816164E-02  0.1184000E+00
        -11   -1    0    0    0    0  0.00000000000E+00  0.00000000000E+00  0.45593999997E+02  0.45594000000E+02  0.51100000000E-03 0. -1.
         11   -1    0    0    0    0 -0.00000000000E+00 -0.00000000000E+00 -0.45593999997E+02  0.45594000000E+02  0.51100000000E-03 0.  1.
         23    2    1    2    0    0  0.00000000000E+00  0.00000000000E+00  0.00000000000E+00  0.91188000000E+02  0.91188000000E+02 0.  0.
    9900012    2    3    3    0    0 -0.27528845617E+02 -0.15103128059E+02  0.32298163320E+02  0.46142321272E+02  0.10000032018E+02 0.  0.
        -12    1    3    3    0    0  0.27528845617E+02  0.15103128059E+02 -0.32298163320E+02  0.45045678728E+02  0.00000000000E+00 0.  1.
         11    1    4    4    0    0 -0.17160718168E+02 -0.12435370974E+02  0.20323778874E+02  0.29362981580E+02  0.51100000000E-03 0. -1.
        -11    1    4    4    0    0 -0.10272738604E+02 -0.32049101606E+01  0.12126738798E+02  0.16212908490E+02  0.51100000000E-03 0.  1.
        -12    1    4    4    0    0 -0.95388845497E-01  0.53715307569E+00 -0.15235435183E+00  0.56643120244E+00  0.00000000000E+00 0.  1.
</event>
<event>
 8    1  0.7489580E-009  0.9118800E+02  0.7816164E-02  0.1184000E+00
        -11   -1    0    0    0    0  0.00000000000E+00  0.00000000000E+00  0.45593999997E+02  0.45594000000E+02  0.51100000000E-03 0. -1.
         11   -1    0    0    0    0 -0.00000000000E+00 -0.00000000000E+00 -0.45593999997E+02  0.45594000000E+02  0.51100000000E-03 0.  1.
         23    2    1    2    0    0 -0.17763568394E-14 -0.17763568394E-14  0.00000000000E+00  0.91188000000E+02  0.91188000000E+02 0.  0.
    9900012    2    3    3    0    0 -0.11681888773E+02 -0.14421429731E+02  0.41044722982E+02  0.46142318237E+02  0.10000004343E+02 0.  0.
        -12    1    3    3    0    0  0.11681888773E+02  0.14421429731E+02 -0.41044722982E+02  0.45045681763E+02  0.00000000000E+00 0.  1.
         11    1    4    4    0    0 -0.24429651721E+01 -0.42342305699E+01  0.57900155405E+01  0.75776690065E+01  0.51100000000E-03 0. -1.
        -11    1    4    4    0    0 -0.59007024591E+01 -0.32578239874E+01  0.92431610037E+01  0.11439743539E+02  0.51100000000E-03 0.  1.
         12    1    4    4    0    0 -0.33382211418E+01 -0.69293751739E+01  0.26011546438E+02  0.27124905692E+02  0.00000000000E+00 0. -1.
</event>
<event>
 8    1  0.7489580E-009  0.9118800E+02  0.7816164E-02  0.1184000E+00
        -11   -1    0    0    0    0  0.00000000000E+00  0.00000000000E+00  0.45593999997E+02  0.45594000000E+02  0.51100000000E-03 0. -1.
         11   -1    0    0    0    0 -0.00000000000E+00 -0.00000000000E+00 -0.45593999997E+02  0.45594000000E+02  0.51100000000E-03 0.  1.
         23    2    1    2    0    0  0.00000000000E+00  0.00000000000E+00  0.00000000000E+00  0.91188000000E+02  0.91188000000E+02 0.  0.
    9900012    2    3    3    0    0  0.61028267971E+01  0.34747619205E+02  0.28008425426E+02  0.46142318407E+02  0.10000005891E+02 0.  0.
        -12    1    3    3    0    0 -0.61028267971E+01 -0.34747619205E+02 -0.28008425426E+02  0.45045681593E+02  0.00000000000E+00 0.  1.
         11    1    4    4    0    0  0.31268319644E+01  0.23475456750E+02  0.21281107626E+02  0.31839593116E+02  0.51100000000E-03 0. -1.
        -11    1    4    4    0    0  0.39600924887E+01  0.82690870578E+01  0.62753486408E+01  0.11110361565E+02  0.51100000000E-03 0.  1.
        -12    1    4    4    0    0 -0.98409765600E+00  0.30030753964E+01  0.45196915963E+00  0.31923637252E+01  0.00000000000E+00 0.  1.
</event>
<event>
 8    1  0.7489580E-009  0.9118800E+02  0.7816164E-02  0.1184000E+00
        -11   -1    0    0    0    0  0.00000000000E+00  0.00000000000E+00  0.45593999997E+02  0.45594000000E+02  0.51100000000E-03 0. -1.
         11   -1    0    0    0    0 -0.00000000000E+00 -0.00000000000E+00 -0.45593999997E+02  0.45594000000E+02  0.51100000000E-03 0.  1.
         23    2    1    2    0    0  0.35527136788E-14 -0.88817841970E-15  0.14210854715E-13  0.91188000000E+02  0.91188000000E+02 0.  0.
    9900012    2    3    3    0    0  0.12181357379E+02 -0.54336718405E+01  0.43025611409E+02  0.46142317695E+02  0.99999993934E+01 0.  0.
        -12    1    3    3    0    0 -0.12181357379E+02  0.54336718405E+01 -0.43025611409E+02  0.45045682305E+02  0.00000000000E+00 0.  1.
         11    1    4    4    0    0 -0.12675249546E+01 -0.66995926207E+00  0.94201512741E+01  0.95286260926E+01  0.51100000000E-03 0. -1.
        -11    1    4    4    0    0  0.19026297568E+01 -0.36706193333E+00  0.26430262730E+01  0.32772431395E+01  0.51100000000E-03 0.  1.
        -12    1    4    4    0    0  0.11546252576E+02 -0.43966506451E+01  0.30962433862E+02  0.33336448463E+02  0.00000000000E+00 0.  1.
</event>
<event>
 8    1  0.7489580E-009  0.9118800E+02  0.7816164E-02  0.1184000E+00
        -11   -1    0    0    0    0  0.00000000000E+00  0.00000000000E+00  0.45593999997E+02  0.45594000000E+02  0.51100000000E-03 0. -1.
         11   -1    0    0    0    0 -0.00000000000E+00 -0.00000000000E+00 -0.45593999997E+02  0.45594000000E+02  0.51100000000E-03 0.  1.
         23    2    1    2    0    0  0.00000000000E+00  0.00000000000E+00 -0.71054273576E-14  0.91188000000E+02  0.91188000000E+02 0.  0.
    9900012    2    3    3    0    0  0.15551367147E+02 -0.21869299873E+02  0.36180134473E+02  0.46142318436E+02  0.10000006154E+02 0.  0.
        -12    1    3    3    0    0 -0.15551367147E+02  0.21869299873E+02 -0.36180134473E+02  0.45045681564E+02  0.00000000000E+00 0.  1.
         11    1    4    4    0    0  0.43831541381E+01 -0.49119430454E+01  0.11159260786E+02  0.12956400975E+02  0.51100000000E-03 0. -1.
        -11    1    4    4    0    0  0.11651313405E+02 -0.17531511007E+02  0.24166950937E+02  0.32049157557E+02  0.51100000000E-03 0.  1.
        -12    1    4    4    0    0 -0.48310039689E+00  0.57415417942E+00  0.85392275005E+00  0.11367599035E+01  0.00000000000E+00 0.  1.
</event>
<event>
 8    1  0.7489580E-009  0.9118800E+02  0.7816164E-02  0.1184000E+00
        -11   -1    0    0    0    0  0.00000000000E+00  0.00000000000E+00  0.45593999997E+02  0.45594000000E+02  0.51100000000E-03 0. -1.
         11   -1    0    0    0    0 -0.00000000000E+00 -0.00000000000E+00 -0.45593999997E+02  0.45594000000E+02  0.51100000000E-03 0.  1.
         23    2    1    2    0    0  0.00000000000E+00  0.00000000000E+00  0.00000000000E+00  0.91188000000E+02  0.91188000000E+02 0.  0.
    9900012    2    3    3    0    0  0.13014488417E+02 -0.33604526048E+02  0.27027253552E+02  0.46142317474E+02  0.99999973826E+01 0.  0.
        -12    1    3    3    0    0 -0.13014488417E+02  0.33604526048E+02 -0.27027253552E+02  0.45045682526E+02  0.00000000000E+00 0.  1.
         11    1    4    4    0    0  0.15952220069E+01 -0.27513686432E+01  0.23144451568E+01  0.39333725106E+01  0.51100000000E-03 0. -1.
        -11    1    4    4    0    0  0.76950608295E+01 -0.17019181392E+02  0.19397428453E+02  0.26928177199E+02  0.51100000000E-03 0.  1.
        -12    1    4    4    0    0  0.37242055801E+01 -0.13833976013E+02  0.53153799416E+01  0.15280767764E+02  0.00000000000E+00 0.  1.
</event>
<event>
 8    1  0.7489580E-009  0.9118800E+02  0.7816164E-02  0.1184000E+00
        -11   -1    0    0    0    0  0.00000000000E+00  0.00000000000E+00  0.45593999997E+02  0.45594000000E+02  0.51100000000E-03 0. -1.
         11   -1    0    0    0    0 -0.00000000000E+00 -0.00000000000E+00 -0.45593999997E+02  0.45594000000E+02  0.51100000000E-03 0.  1.
         23    2    1    2    0    0  0.71054273576E-14  0.88817841970E-15 -0.35527136788E-14  0.91188000000E+02  0.91188000000E+02 0.  0.
    9900012    2    3    3    0    0 -0.32336123657E+02 -0.62363743687E+01  0.30734285476E+02  0.46142316942E+02  0.99999925322E+01 0.  0.
        -12    1    3    3    0    0  0.32336123657E+02  0.62363743687E+01 -0.30734285476E+02  0.45045683058E+02  0.00000000000E+00 0.  1.
         11    1    4    4    0    0 -0.18244257577E+02 -0.18774623816E+01  0.16136044689E+02  0.24428461638E+02  0.51100000000E-03 0. -1.
        -11    1    4    4    0    0 -0.27837787788E+00  0.10810015053E+01  0.17733040735E+01  0.20953916330E+01  0.51100000000E-03 0.  1.
         12    1    4    4    0    0 -0.13813488202E+02 -0.54399134924E+01  0.12824936713E+02  0.19618463671E+02  0.00000000000E+00 0. -1.
</event>
<event>
 8    1  0.7489580E-009  0.9118800E+02  0.7816164E-02  0.1184000E+00
        -11   -1    0    0    0    0  0.00000000000E+00  0.00000000000E+00  0.45593999997E+02  0.45594000000E+02  0.51100000000E-03 0.  1.
         11   -1    0    0    0    0 -0.00000000000E+00 -0.00000000000E+00 -0.45593999997E+02  0.45594000000E+02  0.51100000000E-03 0. -1.
         23    2    1    2    0    0  0.00000000000E+00  0.00000000000E+00  0.00000000000E+00  0.91188000000E+02  0.91188000000E+02 0.  0.
    9900012    2    3    3    0    0 -0.15782996169E+02  0.40447629332E+02 -0.11999996499E+02  0.46142316492E+02  0.99999884317E+01 0.  0.
         12    1    3    3    0    0  0.15782996169E+02 -0.40447629332E+02  0.11999996499E+02  0.45045683508E+02  0.00000000000E+00 0. -1.
         11    1    4    4    0    0 -0.12323500679E+00  0.72395239805E+01 -0.16739442524E+01  0.74315532665E+01  0.51100000000E-03 0. -1.
        -11    1    4    4    0    0 -0.11758161920E+02  0.18329077432E+02 -0.43378152887E+01  0.22204190888E+02  0.51100000000E-03 0.  1.
        -12    1    4    4    0    0 -0.39015992419E+01  0.14879027920E+02 -0.59882369576E+01  0.16506572338E+02  0.00000000000E+00 0.  1.
</event>
<event>
 8    1  0.7489580E-009  0.9118800E+02  0.7816164E-02  0.1184000E+00
        -11   -1    0    0    0    0  0.00000000000E+00  0.00000000000E+00  0.45593999997E+02  0.45594000000E+02  0.51100000000E-03 0. -1.
         11   -1    0    0    0    0 -0.00000000000E+00 -0.00000000000E+00 -0.45593999997E+02  0.45594000000E+02  0.51100000000E-03 0.  1.
         23    2    1    2    0    0  0.00000000000E+00  0.00000000000E+00  0.00000000000E+00  0.91188000000E+02  0.91188000000E+02 0.  0.
    9900012    2    3    3    0    0  0.37380395107E+02 -0.11028134431E+02 -0.22587603068E+02  0.46142317634E+02  0.99999988450E+01 0.  0.
         12    1    3    3    0    0 -0.37380395107E+02  0.11028134431E+02  0.22587603068E+02  0.45045682366E+02  0.00000000000E+00 0. -1.
         11    1    4    4    0    0  0.33687623930E+01 -0.17347810737E+01 -0.32955722657E+01  0.50218345506E+01  0.51100000000E-03 0. -1.
        -11    1    4    4    0    0  0.20561089332E+02 -0.97940158234E+01 -0.10799447142E+02  0.25205340690E+02  0.51100000000E-03 0.  1.
        -12    1    4    4    0    0  0.13450543382E+02  0.50066246603E+00 -0.84925836603E+01  0.15915142394E+02  0.00000000000E+00 0.  1.
</event>
<event>
 8    1  0.7489580E-009  0.9118800E+02  0.7816164E-02  0.1184000E+00
        -11   -1    0    0    0    0  0.00000000000E+00  0.00000000000E+00  0.45593999997E+02  0.45594000000E+02  0.51100000000E-03 0. -1.
         11   -1    0    0    0    0 -0.00000000000E+00 -0.00000000000E+00 -0.45593999997E+02  0.45594000000E+02  0.51100000000E-03 0.  1.
         23    2    1    2    0    0  0.00000000000E+00 -0.35527136788E-14  0.00000000000E+00  0.91188000000E+02  0.91188000000E+02 0.  0.
    9900012    2    3    3    0    0 -0.31625184791E+02 -0.21605836944E+02 -0.23709680723E+02  0.46142318042E+02  0.10000002559E+02 0.  0.
         12    1    3    3    0    0  0.31625184791E+02  0.21605836944E+02  0.23709680723E+02  0.45045681958E+02  0.00000000000E+00 0. -1.
         11    1    4    4    0    0 -0.47233881625E+01 -0.20880251384E+00 -0.12011513938E+01  0.48781922015E+01  0.51100000000E-03 0. -1.
        -11    1    4    4    0    0 -0.14962014385E+02 -0.10098285039E+02 -0.10248966828E+02  0.20757614422E+02  0.51100000000E-03 0.  1.
        -12    1    4    4    0    0 -0.11939782243E+02 -0.11298749391E+02 -0.12259562502E+02  0.20506511419E+02  0.00000000000E+00 0.  1.
</event>
<event>
 8    1  0.7489580E-009  0.9118800E+02  0.7816164E-02  0.1184000E+00
        -11   -1    0    0    0    0  0.00000000000E+00  0.00000000000E+00  0.45593999997E+02  0.45594000000E+02  0.51100000000E-03 0.  1.
         11   -1    0    0    0    0 -0.00000000000E+00 -0.00000000000E+00 -0.45593999997E+02  0.45594000000E+02  0.51100000000E-03 0. -1.
         23    2    1    2    0    0  0.17763568394E-14 -0.71054273576E-14 -0.88817841970E-15  0.91188000000E+02  0.91188000000E+02 0.  0.
    9900012    2    3    3    0    0 -0.14042392666E+02  0.42503950745E+02  0.50337717496E+01  0.46142317868E+02  0.10000000978E+02 0.  0.
        -12    1    3    3    0    0  0.14042392666E+02 -0.42503950745E+02 -0.50337717496E+01  0.45045682132E+02  0.00000000000E+00 0.  1.
         11    1    4    4    0    0 -0.10829806760E+02  0.29884111623E+02  0.32190015481E+01  0.31948502519E+02  0.51100000000E-03 0. -1.
        -11    1    4    4    0    0 -0.39364362067E+01  0.66809118546E+01  0.25570101194E+01  0.81650728245E+01  0.51100000000E-03 0.  1.
         12    1    4    4    0    0  0.72385030067E+00  0.59389272665E+01 -0.74223991795E+00  0.60287425248E+01  0.00000000000E+00 0. -1.
</event>
<event>
 8    1  0.7489580E-009  0.9118800E+02  0.7816164E-02  0.1184000E+00
        -11   -1    0    0    0    0  0.00000000000E+00  0.00000000000E+00  0.45593999997E+02  0.45594000000E+02  0.51100000000E-03 0. -1.
         11   -1    0    0    0    0 -0.00000000000E+00 -0.00000000000E+00 -0.45593999997E+02  0.45594000000E+02  0.51100000000E-03 0.  1.
         23    2    1    2    0    0  0.35527136788E-14  0.00000000000E+00  0.00000000000E+00  0.91188000000E+02  0.91188000000E+02 0.  0.
    9900012    2    3    3    0    0 -0.24823049508E+02  0.37332657578E+02 -0.43820346818E+01  0.46142319445E+02  0.10000015354E+02 0.  0.
        -12    1    3    3    0    0  0.24823049508E+02 -0.37332657578E+02  0.43820346818E+01  0.45045680555E+02  0.00000000000E+00 0.  1.
         11    1    4    4    0    0 -0.22736385299E+02  0.30145751919E+02 -0.39520139252E+01  0.37964825688E+02  0.51100000000E-03 0. -1.
        -11    1    4    4    0    0 -0.18200881184E+01  0.71361991324E+01 -0.11077172717E+01  0.74474892837E+01  0.51100000000E-03 0.  1.
         12    1    4    4    0    0 -0.26657609048E+00  0.50706526956E-01  0.67769651504E+00  0.73000447286E+00  0.00000000000E+00 0. -1.
</event>
<event>
 8    1  0.7489580E-009  0.9118800E+02  0.7816164E-02  0.1184000E+00
        -11   -1    0    0    0    0  0.00000000000E+00  0.00000000000E+00  0.45593999997E+02  0.45594000000E+02  0.51100000000E-03 0. -1.
         11   -1    0    0    0    0 -0.00000000000E+00 -0.00000000000E+00 -0.45593999997E+02  0.45594000000E+02  0.51100000000E-03 0.  1.
         23    2    1    2    0    0  0.71054273576E-14 -0.66613381478E-15  0.00000000000E+00  0.91188000000E+02  0.91188000000E+02 0.  0.
    9900012    2    3    3    0    0 -0.42292817543E+02 -0.54353514372E+00  0.15496317503E+02  0.46142315386E+02  0.99999783397E+01 0.  0.
        -12    1    3    3    0    0  0.42292817543E+02  0.54353514372E+00 -0.15496317503E+02  0.45045684614E+02  0.00000000000E+00 0.  1.
         11    1    4    4    0    0 -0.25956591287E+02 -0.25839521804E+01  0.62281064770E+01  0.26818104904E+02  0.51100000000E-03 0. -1.
        -11    1    4    4    0    0 -0.37548428376E+01 -0.53070271533E+00  0.62084570091E+00  0.38426474926E+01  0.51100000000E-03 0.  1.
         12    1    4    4    0    0 -0.12581383419E+02  0.25711197520E+01  0.86473653253E+01  0.15481562989E+02  0.00000000000E+00 0. -1.
</event>
<event>
 8    1  0.7489580E-009  0.9118800E+02  0.7816164E-02  0.1184000E+00
        -11   -1    0    0    0    0  0.00000000000E+00  0.00000000000E+00  0.45593999997E+02  0.45594000000E+02  0.51100000000E-03 0. -1.
         11   -1    0    0    0    0 -0.00000000000E+00 -0.00000000000E+00 -0.45593999997E+02  0.45594000000E+02  0.51100000000E-03 0.  1.
         23    2    1    2    0    0  0.00000000000E+00  0.35527136788E-14  0.00000000000E+00  0.91188000000E+02  0.91188000000E+02 0.  0.
    9900012    2    3    3    0    0  0.35137997964E+02 -0.28014502217E+02 -0.31019763058E+01  0.46142317716E+02  0.99999995909E+01 0.  0.
         12    1    3    3    0    0 -0.35137997964E+02  0.28014502217E+02  0.31019763058E+01  0.45045682284E+02  0.00000000000E+00 0. -1.
         11    1    4    4    0    0  0.22744537414E+02 -0.16881823786E+02 -0.33032203305E+00  0.28327002479E+02  0.51100000000E-03 0. -1.
        -11    1    4    4    0    0  0.10731003229E+02 -0.63949559351E+01 -0.27651746553E+01  0.12794377001E+02  0.51100000000E-03 0.  1.
        -12    1    4    4    0    0  0.16624573221E+01 -0.47377224956E+01 -0.64796173688E-02  0.50209382369E+01  0.00000000000E+00 0.  1.
</event>
<event>
 8    1  0.7489580E-009  0.9118800E+02  0.7816164E-02  0.1184000E+00
        -11   -1    0    0    0    0  0.00000000000E+00  0.00000000000E+00  0.45593999997E+02  0.45594000000E+02  0.51100000000E-03 0. -1.
         11   -1    0    0    0    0 -0.00000000000E+00 -0.00000000000E+00 -0.45593999997E+02  0.45594000000E+02  0.51100000000E-03 0.  1.
         23    2    1    2    0    0  0.00000000000E+00  0.00000000000E+00 -0.71054273576E-14  0.91188000000E+02  0.91188000000E+02 0.  0.
    9900012    2    3    3    0    0 -0.12385856564E+02 -0.36542994681E+02  0.23244646128E+02  0.46142317890E+02  0.10000001176E+02 0.  0.
        -12    1    3    3    0    0  0.12385856564E+02  0.36542994681E+02 -0.23244646128E+02  0.45045682110E+02  0.00000000000E+00 0.  1.
         11    1    4    4    0    0 -0.63808622837E+01 -0.28104482096E+02  0.17980873371E+02  0.33968943534E+02  0.51100000000E-03 0. -1.
        -11    1    4    4    0    0 -0.39544774818E+01 -0.70298956357E+01  0.53590115089E+01  0.96838179153E+01  0.51100000000E-03 0.  1.
        -12    1    4    4    0    0 -0.20505167988E+01 -0.14086169498E+01 -0.95238751360E-01  0.24895564411E+01  0.00000000000E+00 0.  1.
</event>
<event>
 8    1  0.7489580E-009  0.9118800E+02  0.7816164E-02  0.1184000E+00
        -11   -1    0    0    0    0  0.00000000000E+00  0.00000000000E+00  0.45593999997E+02  0.45594000000E+02  0.51100000000E-03 0. -1.
         11   -1    0    0    0    0 -0.00000000000E+00 -0.00000000000E+00 -0.45593999997E+02  0.45594000000E+02  0.51100000000E-03 0.  1.
         23    2    1    2    0    0  0.88817841970E-15  0.35527136788E-14 -0.71054273576E-14  0.91188000000E+02  0.91188000000E+02 0.  0.
    9900012    2    3    3    0    0 -0.38607701126E+01 -0.19041342491E+02  0.40640315491E+02  0.46142317489E+02  0.99999975160E+01 0.  0.
        -12    1    3    3    0    0  0.38607701126E+01  0.19041342491E+02 -0.40640315491E+02  0.45045682511E+02  0.00000000000E+00 0.  1.
         11    1    4    4    0    0 -0.30219001711E+01 -0.43257649314E+01  0.55930559484E+01  0.76893691542E+01  0.51100000000E-03 0. -1.
        -11    1    4    4    0    0 -0.19973184964E+01 -0.32278058703E+01  0.51038715833E+01  0.63606223998E+01  0.51100000000E-03 0.  1.
        -12    1    4    4    0    0  0.11584485548E+01 -0.11487771689E+02  0.29943387959E+02  0.32092325935E+02  0.00000000000E+00 0.  1.
</event>
<event>
 8    1  0.7489580E-009  0.9118800E+02  0.7816164E-02  0.1184000E+00
        -11   -1    0    0    0    0  0.00000000000E+00  0.00000000000E+00  0.45593999997E+02  0.45594000000E+02  0.51100000000E-03 0. -1.
         11   -1    0    0    0    0 -0.00000000000E+00 -0.00000000000E+00 -0.45593999997E+02  0.45594000000E+02  0.51100000000E-03 0.  1.
         23    2    1    2    0    0 -0.17763568394E-14 -0.71054273576E-14  0.35527136788E-14  0.91188000000E+02  0.91188000000E+02 0.  0.
    9900012    2    3    3    0    0  0.11837731773E+02  0.39456634903E+02 -0.18225138814E+02  0.46142316342E+02  0.99999870597E+01 0.  0.
         12    1    3    3    0    0 -0.11837731773E+02 -0.39456634903E+02  0.18225138814E+02  0.45045683658E+02  0.00000000000E+00 0. -1.
         11    1    4    4    0    0  0.38105147851E+01  0.20302956520E+02 -0.95218549539E+01  0.22746335714E+02  0.51100000000E-03 0. -1.
        -11    1    4    4    0    0  0.28491091064E+01  0.14427257138E+02 -0.58471294168E+01  0.15825678308E+02  0.51100000000E-03 0.  1.
         12    1    4    4    0    0  0.51781078812E+01  0.47264212456E+01 -0.28561544435E+01  0.75703023206E+01  0.00000000000E+00 0. -1.
</event>
<event>
 8    1  0.7489580E-009  0.9118800E+02  0.7816164E-02  0.1184000E+00
        -11   -1    0    0    0    0  0.00000000000E+00  0.00000000000E+00  0.45593999997E+02  0.45594000000E+02  0.51100000000E-03 0. -1.
         11   -1    0    0    0    0 -0.00000000000E+00 -0.00000000000E+00 -0.45593999997E+02  0.45594000000E+02  0.51100000000E-03 0.  1.
         23    2    1    2    0    0 -0.17763568394E-14  0.00000000000E+00  0.00000000000E+00  0.91188000000E+02  0.91188000000E+02 0.  0.
    9900012    2    3    3    0    0  0.11591331777E+02 -0.28693302729E+02 -0.32732992450E+02  0.46142318868E+02  0.10000010097E+02 0.  0.
         12    1    3    3    0    0 -0.11591331777E+02  0.28693302729E+02  0.32732992450E+02  0.45045681132E+02  0.00000000000E+00 0. -1.
         11    1    4    4    0    0 -0.90637635092E+00 -0.37217107798E+01 -0.43219900315E+01  0.57751404582E+01  0.51100000000E-03 0. -1.
        -11    1    4    4    0    0  0.94941624711E+01 -0.13818253615E+02 -0.19891248101E+02  0.26014323079E+02  0.51100000000E-03 0.  1.
        -12    1    4    4    0    0  0.30035456572E+01 -0.11153338335E+02 -0.85197543171E+01  0.14352855331E+02  0.00000000000E+00 0.  1.
</event>
<event>
 8    1  0.7489580E-009  0.9118800E+02  0.7816164E-02  0.1184000E+00
        -11   -1    0    0    0    0  0.00000000000E+00  0.00000000000E+00  0.45593999997E+02  0.45594000000E+02  0.51100000000E-03 0. -1.
         11   -1    0    0    0    0 -0.00000000000E+00 -0.00000000000E+00 -0.45593999997E+02  0.45594000000E+02  0.51100000000E-03 0.  1.
         23    2    1    2    0    0  0.00000000000E+00  0.00000000000E+00  0.00000000000E+00  0.91188000000E+02  0.91188000000E+02 0.  0.
    9900012    2    3    3    0    0 -0.33134454374E+02  0.54828844342E+01  0.30019317500E+02  0.46142317504E+02  0.99999976543E+01 0.  0.
        -12    1    3    3    0    0  0.33134454374E+02 -0.54828844342E+01 -0.30019317500E+02  0.45045682496E+02  0.00000000000E+00 0.  1.
         11    1    4    4    0    0 -0.23114469310E+02  0.62486225271E+01  0.24497605678E+02  0.34255753665E+02  0.51100000000E-03 0. -1.
        -11    1    4    4    0    0 -0.76769946421E+01 -0.37939716871E-02  0.54625447067E+01  0.94220834247E+01  0.51100000000E-03 0.  1.
         12    1    4    4    0    0 -0.23429904223E+01 -0.76194412124E+00  0.59167115004E-01  0.24644804138E+01  0.00000000000E+00 0. -1.
</event>
<event>
 8    1  0.7489580E-009  0.9118800E+02  0.7816164E-02  0.1184000E+00
        -11   -1    0    0    0    0  0.00000000000E+00  0.00000000000E+00  0.45593999997E+02  0.45594000000E+02  0.51100000000E-03 0. -1.
         11   -1    0    0    0    0 -0.00000000000E+00 -0.00000000000E+00 -0.45593999997E+02  0.45594000000E+02  0.51100000000E-03 0.  1.
         23    2    1    2    0    0  0.55511151231E-15  0.35527136788E-14  0.00000000000E+00  0.91188000000E+02  0.91188000000E+02 0.  0.
    9900012    2    3    3    0    0 -0.54237398043E+00  0.28417103472E+02  0.34946925278E+02  0.46142317347E+02  0.99999962256E+01 0.  0.
        -12    1    3    3    0    0  0.54237398043E+00 -0.28417103472E+02 -0.34946925278E+02  0.45045682653E+02  0.00000000000E+00 0.  1.
         11    1    4    4    0    0  0.35481601038E+01  0.20730716351E+02  0.25221648358E+02  0.32840273852E+02  0.51100000000E-03 0. -1.
        -11    1    4    4    0    0 -0.28236146583E+00  0.80142881239E-01 -0.96337417393E-01  0.30892076316E+00  0.51100000000E-03 0.  1.
         12    1    4    4    0    0 -0.38081726184E+01  0.76062442398E+01  0.98216143373E+01  0.12993122732E+02  0.00000000000E+00 0. -1.
</event>
<event>
 8    1  0.9070249E-009  0.9118800E+02  0.7816164E-02  0.1184000E+00
        -11   -1    0    0    0    0  0.00000000000E+00  0.00000000000E+00  0.45593999997E+02  0.45594000000E+02  0.51100000000E-03 0. -1.
         11   -1    0    0    0    0 -0.00000000000E+00 -0.00000000000E+00 -0.45593999997E+02  0.45594000000E+02  0.51100000000E-03 0.  1.
         23    2    1    2    0    0  0.00000000000E+00 -0.17763568394E-14 -0.35527136788E-14  0.91188000000E+02  0.91188000000E+02 0.  0.
    9900012    2    3    3    0    0  0.33947492506E+02 -0.10987505768E+02 -0.27494652994E+02  0.46142317924E+02  0.10000001487E+02 0.  0.
         12    1    3    3    0    0 -0.33947492506E+02  0.10987505768E+02  0.27494652994E+02  0.45045682076E+02  0.00000000000E+00 0. -1.
         11    1    4    4    0    0  0.13085102705E+02 -0.61222989547E+01 -0.12654798855E+02  0.19205374029E+02  0.51100000000E-03 0. -1.
        -11    1    4    4    0    0  0.11337341673E+02 -0.57741892720E+01 -0.10178925042E+02  0.16293774678E+02  0.51100000000E-03 0.  1.
         12    1    4    4    0    0  0.95250481276E+01  0.90898245912E+00 -0.46609290967E+01  0.10643169217E+02  0.00000000000E+00 0. -1.
</event>
<event>
 8    1  0.7489580E-009  0.9118800E+02  0.7816164E-02  0.1184000E+00
        -11   -1    0    0    0    0  0.00000000000E+00  0.00000000000E+00  0.45593999997E+02  0.45594000000E+02  0.51100000000E-03 0. -1.
         11   -1    0    0    0    0 -0.00000000000E+00 -0.00000000000E+00 -0.45593999997E+02  0.45594000000E+02  0.51100000000E-03 0.  1.
         23    2    1    2    0    0  0.00000000000E+00  0.00000000000E+00  0.00000000000E+00  0.91188000000E+02  0.91188000000E+02 0.  0.
    9900012    2    3    3    0    0 -0.16692168089E+02 -0.24643719462E+02 -0.33810828216E+02  0.46142317753E+02  0.99999999238E+01 0.  0.
         12    1    3    3    0    0  0.16692168089E+02  0.24643719462E+02  0.33810828216E+02  0.45045682247E+02  0.00000000000E+00 0. -1.
         11    1    4    4    0    0 -0.15440695224E+01 -0.28468072210E+01 -0.22884796860E+01  0.39655518629E+01  0.51100000000E-03 0. -1.
        -11    1    4    4    0    0 -0.34331891358E+01 -0.11551753362E+02 -0.17371166508E+02  0.21142072261E+02  0.51100000000E-03 0.  1.
        -12    1    4    4    0    0 -0.11714909430E+02 -0.10245158880E+02 -0.14151182022E+02  0.21034693629E+02  0.00000000000E+00 0.  1.
</event>
<event>
 8    1  0.7489580E-009  0.9118800E+02  0.7816164E-02  0.1184000E+00
        -11   -1    0    0    0    0  0.00000000000E+00  0.00000000000E+00  0.45593999997E+02  0.45594000000E+02  0.51100000000E-03 0. -1.
         11   -1    0    0    0    0 -0.00000000000E+00 -0.00000000000E+00 -0.45593999997E+02  0.45594000000E+02  0.51100000000E-03 0.  1.
         23    2    1    2    0    0 -0.35527136788E-14  0.83266726847E-16  0.00000000000E+00  0.91188000000E+02  0.91188000000E+02 0.  0.
    9900012    2    3    3    0    0  0.17306941448E+02 -0.19650295603E+00 -0.41587794203E+02  0.46142318050E+02  0.10000002630E+02 0.  0.
         12    1    3    3    0    0 -0.17306941448E+02  0.19650295603E+00  0.41587794203E+02  0.45045681950E+02  0.00000000000E+00 0. -1.
         11    1    4    4    0    0  0.36868317958E+01  0.29102196225E+01 -0.14076344194E+02  0.14839325223E+02  0.51100000000E-03 0. -1.
        -11    1    4    4    0    0  0.13061948411E+02 -0.14043901145E+01 -0.23957737188E+02  0.27323249794E+02  0.51100000000E-03 0.  1.
         12    1    4    4    0    0  0.55816124161E+00 -0.17023324640E+01 -0.35537128210E+01  0.39797430324E+01  0.00000000000E+00 0. -1.
</event>
<event>
 8    1  0.7489580E-009  0.9118800E+02  0.7816164E-02  0.1184000E+00
        -11   -1    0    0    0    0  0.00000000000E+00  0.00000000000E+00  0.45593999997E+02  0.45594000000E+02  0.51100000000E-03 0. -1.
         11   -1    0    0    0    0 -0.00000000000E+00 -0.00000000000E+00 -0.45593999997E+02  0.45594000000E+02  0.51100000000E-03 0.  1.
         23    2    1    2    0    0  0.00000000000E+00  0.35527136788E-14  0.71054273576E-14  0.91188000000E+02  0.91188000000E+02 0.  0.
    9900012    2    3    3    0    0 -0.96712449235E+01 -0.27885883597E+02 -0.34028797252E+02  0.46142306257E+02  0.99998950997E+01 0.  0.
         12    1    3    3    0    0  0.96712449235E+01  0.27885883597E+02  0.34028797252E+02  0.45045693743E+02  0.00000000000E+00 0. -1.
         11    1    4    4    0    0 -0.47177551886E+01 -0.12351058606E+02 -0.12390181759E+02  0.18119670720E+02  0.51100000000E-03 0. -1.
        -11    1    4    4    0    0 -0.67046199656E+01 -0.13601838811E+02 -0.17831781377E+02  0.23407998104E+02  0.51100000000E-03 0.  1.
         12    1    4    4    0    0  0.17511302307E+01 -0.19329861806E+01 -0.38068341151E+01  0.46146374331E+01  0.00000000000E+00 0. -1.
</event>
<event>
 8    1  0.7489580E-009  0.9118800E+02  0.7816164E-02  0.1184000E+00
        -11   -1    0    0    0    0  0.00000000000E+00  0.00000000000E+00  0.45593999997E+02  0.45594000000E+02  0.51100000000E-03 0. -1.
         11   -1    0    0    0    0 -0.00000000000E+00 -0.00000000000E+00 -0.45593999997E+02  0.45594000000E+02  0.51100000000E-03 0.  1.
         23    2    1    2    0    0 -0.71054273576E-14  0.00000000000E+00  0.00000000000E+00  0.91188000000E+02  0.91188000000E+02 0.  0.
    9900012    2    3    3    0    0  0.33501662113E+02  0.27985773953E+02 -0.11115248604E+02  0.46142315860E+02  0.99999826676E+01 0.  0.
         12    1    3    3    0    0 -0.33501662113E+02 -0.27985773953E+02  0.11115248604E+02  0.45045684140E+02  0.00000000000E+00 0. -1.
         11    1    4    4    0    0  0.36716643095E+01  0.65567769069E+01 -0.30023067148E+01  0.80923598585E+01  0.51100000000E-03 0. -1.
        -11    1    4    4    0    0  0.13615549757E+02  0.13185579032E+02 -0.33548757584E+01  0.19248321517E+02  0.51100000000E-03 0.  1.
        -12    1    4    4    0    0  0.16214448047E+02  0.82434180139E+01 -0.47580661304E+01  0.18801634485E+02  0.00000000000E+00 0.  1.
</event>
<event>
 8    1  0.7489580E-009  0.9118800E+02  0.7816164E-02  0.1184000E+00
        -11   -1    0    0    0    0  0.00000000000E+00  0.00000000000E+00  0.45593999997E+02  0.45594000000E+02  0.51100000000E-03 0. -1.
         11   -1    0    0    0    0 -0.00000000000E+00 -0.00000000000E+00 -0.45593999997E+02  0.45594000000E+02  0.51100000000E-03 0.  1.
         23    2    1    2    0    0  0.00000000000E+00  0.00000000000E+00  0.00000000000E+00  0.91188000000E+02  0.91188000000E+02 0.  0.
    9900012    2    3    3    0    0  0.21898802100E+02  0.13398278521E+02 -0.37014077863E+02  0.46142319177E+02  0.10000012912E+02 0.  0.
         12    1    3    3    0    0 -0.21898802100E+02 -0.13398278521E+02  0.37014077863E+02  0.45045680823E+02  0.00000000000E+00 0. -1.
         11    1    4    4    0    0  0.35966997200E+01  0.90376415365E+00 -0.12280607098E+02  0.12828341649E+02  0.51100000000E-03 0. -1.
        -11    1    4    4    0    0  0.78210141920E+01  0.60574088816E+01 -0.12791771720E+02  0.16170649008E+02  0.51100000000E-03 0.  1.
         12    1    4    4    0    0  0.10481088188E+02  0.64371054859E+01 -0.11941699045E+02  0.17143328519E+02  0.00000000000E+00 0. -1.
</event>
<event>
 8    1  0.7489580E-009  0.9118800E+02  0.7816164E-02  0.1184000E+00
        -11   -1    0    0    0    0  0.00000000000E+00  0.00000000000E+00  0.45593999997E+02  0.45594000000E+02  0.51100000000E-03 0. -1.
         11   -1    0    0    0    0 -0.00000000000E+00 -0.00000000000E+00 -0.45593999997E+02  0.45594000000E+02  0.51100000000E-03 0.  1.
         23    2    1    2    0    0  0.22204460493E-15 -0.44408920985E-15  0.00000000000E+00  0.91188000000E+02  0.91188000000E+02 0.  0.
    9900012    2    3    3    0    0  0.17122642965E+01  0.35034061760E+01 -0.44876578795E+02  0.46142322869E+02  0.10000046578E+02 0.  0.
         12    1    3    3    0    0 -0.17122642965E+01 -0.35034061760E+01  0.44876578795E+02  0.45045677131E+02  0.00000000000E+00 0. -1.
         11    1    4    4    0    0  0.20209294029E+01  0.54593508811E+01 -0.17689081346E+02  0.18622359325E+02  0.51100000000E-03 0. -1.
        -11    1    4    4    0    0  0.90455135570E+00 -0.24140410717E+01 -0.11820726506E+02  0.12098569454E+02  0.51100000000E-03 0.  1.
        -12    1    4    4    0    0 -0.12132164621E+01  0.45809636654E+00 -0.15366770943E+02  0.15421394090E+02  0.00000000000E+00 0.  1.
</event>
<event>
 8    1  0.7489580E-009  0.9118800E+02  0.7816164E-02  0.1184000E+00
        -11   -1    0    0    0    0  0.00000000000E+00  0.00000000000E+00  0.45593999997E+02  0.45594000000E+02  0.51100000000E-03 0. -1.
         11   -1    0    0    0    0 -0.00000000000E+00 -0.00000000000E+00 -0.45593999997E+02  0.45594000000E+02  0.51100000000E-03 0.  1.
         23    2    1    2    0    0  0.35527136788E-14  0.00000000000E+00  0.00000000000E+00  0.91188000000E+02  0.91188000000E+02 0.  0.
    9900012    2    3    3    0    0  0.31943540378E+02 -0.29876305781E+02  0.10776366649E+02  0.46142317663E+02  0.99999991065E+01 0.  0.
        -12    1    3    3    0    0 -0.31943540378E+02  0.29876305781E+02 -0.10776366649E+02  0.45045682337E+02  0.00000000000E+00 0.  1.
         11    1    4    4    0    0  0.48880498423E+01 -0.75788594670E+01  0.37591334308E+01  0.97705284654E+01  0.51100000000E-03 0. -1.
        -11    1    4    4    0    0  0.90490127459E+01 -0.10928576789E+02  0.47195748620E+01  0.14953020078E+02  0.51100000000E-03 0.  1.
        -12    1    4    4    0    0  0.18006477790E+02 -0.11368869525E+02  0.22976583565E+01  0.21418769120E+02  0.00000000000E+00 0.  1.
</event>
<event>
 8    1  0.7489580E-009  0.9118800E+02  0.7816164E-02  0.1184000E+00
        -11   -1    0    0    0    0  0.00000000000E+00  0.00000000000E+00  0.45593999997E+02  0.45594000000E+02  0.51100000000E-03 0.  1.
         11   -1    0    0    0    0 -0.00000000000E+00 -0.00000000000E+00 -0.45593999997E+02  0.45594000000E+02  0.51100000000E-03 0. -1.
         23    2    1    2    0    0  0.00000000000E+00  0.00000000000E+00 -0.44408920985E-15  0.91188000000E+02  0.91188000000E+02 0.  0.
    9900012    2    3    3    0    0 -0.11673761005E+02  0.43380082144E+02 -0.33174211407E+01  0.46142317567E+02  0.99999982319E+01 0.  0.
         12    1    3    3    0    0  0.11673761005E+02 -0.43380082144E+02  0.33174211407E+01  0.45045682433E+02  0.00000000000E+00 0. -1.
         11    1    4    4    0    0 -0.58841772443E+00  0.13528986366E+01  0.89248917442E+00  0.17242700853E+01  0.51100000000E-03 0. -1.
        -11    1    4    4    0    0 -0.70664761770E+00  0.14422424782E+02  0.98235886595E+00  0.14473103214E+02  0.51100000000E-03 0.  1.
        -12    1    4    4    0    0 -0.10378695663E+02  0.27604758725E+02 -0.51922691811E+01  0.29944944268E+02  0.00000000000E+00 0.  1.
</event>
<event>
 8    1  0.7489580E-009  0.9118800E+02  0.7816164E-02  0.1184000E+00
        -11   -1    0    0    0    0  0.00000000000E+00  0.00000000000E+00  0.45593999997E+02  0.45594000000E+02  0.51100000000E-03 0. -1.
         11   -1    0    0    0    0 -0.00000000000E+00 -0.00000000000E+00 -0.45593999997E+02  0.45594000000E+02  0.51100000000E-03 0.  1.
         23    2    1    2    0    0  0.88817841970E-15  0.00000000000E+00 -0.71054273576E-14  0.91188000000E+02  0.91188000000E+02 0.  0.
    9900012    2    3    3    0    0 -0.45817721368E+01 -0.94594514069E+01  0.43802278120E+02  0.46142318460E+02  0.10000006377E+02 0.  0.
        -12    1    3    3    0    0  0.45817721368E+01  0.94594514069E+01 -0.43802278120E+02  0.45045681540E+02  0.00000000000E+00 0.  1.
         11    1    4    4    0    0  0.60957162658E+00 -0.53507612128E+01  0.20144977341E+02  0.20852393998E+02  0.51100000000E-03 0. -1.
        -11    1    4    4    0    0  0.86182037665E+00 -0.20617398880E+01  0.94692347257E+01  0.97293325710E+01  0.51100000000E-03 0.  1.
        -12    1    4    4    0    0 -0.60531641400E+01 -0.20469503061E+01  0.14188066054E+02  0.15560591892E+02  0.00000000000E+00 0.  1.
</event>
<event>
 8    1  0.7489580E-009  0.9118800E+02  0.7816164E-02  0.1184000E+00
        -11   -1    0    0    0    0  0.00000000000E+00  0.00000000000E+00  0.45593999997E+02  0.45594000000E+02  0.51100000000E-03 0. -1.
         11   -1    0    0    0    0 -0.00000000000E+00 -0.00000000000E+00 -0.45593999997E+02  0.45594000000E+02  0.51100000000E-03 0.  1.
         23    2    1    2    0    0  0.00000000000E+00 -0.35527136788E-14  0.00000000000E+00  0.91188000000E+02  0.91188000000E+02 0.  0.
    9900012    2    3    3    0    0 -0.11256218931E+02  0.18970060712E+02  0.39275284156E+02  0.46142316372E+02  0.99999873290E+01 0.  0.
        -12    1    3    3    0    0  0.11256218931E+02 -0.18970060712E+02 -0.39275284156E+02  0.45045683628E+02  0.00000000000E+00 0.  1.
         11    1    4    4    0    0 -0.54122940906E+01  0.13236351506E+02  0.21724683267E+02  0.26008763751E+02  0.51100000000E-03 0. -1.
        -11    1    4    4    0    0  0.69036605845E+00 -0.24086864763E+00  0.31095055679E+01  0.31943149717E+01  0.51100000000E-03 0.  1.
        -12    1    4    4    0    0 -0.65342908988E+01  0.59745778535E+01  0.14441095320E+02  0.16939237649E+02  0.00000000000E+00 0.  1.
</event>
<event>
 8    1  0.7538762E-009  0.9118800E+02  0.7816164E-02  0.1184000E+00
        -11   -1    0    0    0    0  0.00000000000E+00  0.00000000000E+00  0.45593999997E+02  0.45594000000E+02  0.51100000000E-03 0. -1.
         11   -1    0    0    0    0 -0.00000000000E+00 -0.00000000000E+00 -0.45593999997E+02  0.45594000000E+02  0.51100000000E-03 0.  1.
         23    2    1    2    0    0  0.00000000000E+00  0.00000000000E+00  0.00000000000E+00  0.91188000000E+02  0.91188000000E+02 0.  0.
    9900012    2    3    3    0    0  0.20942580775E+02 -0.21976116874E+02 -0.33280206089E+02  0.46142317414E+02  0.99999968341E+01 0.  0.
         12    1    3    3    0    0 -0.20942580775E+02  0.21976116874E+02  0.33280206089E+02  0.45045682586E+02  0.00000000000E+00 0. -1.
         11    1    4    4    0    0  0.52132125613E+01 -0.65407793188E+01 -0.81159054083E+01  0.11654496993E+02  0.51100000000E-03 0.  1.
        -11    1    4    4    0    0  0.76804805231E+01 -0.12801473562E+02 -0.13925019135E+02  0.20415035258E+02  0.51100000000E-03 0. -1.
         12    1    4    4    0    0  0.80488876902E+01 -0.26338639934E+01 -0.11239281545E+02  0.14072785163E+02  0.00000000000E+00 0. -1.
</event>
<event>
 8    1  0.7489580E-009  0.9118800E+02  0.7816164E-02  0.1184000E+00
        -11   -1    0    0    0    0  0.00000000000E+00  0.00000000000E+00  0.45593999997E+02  0.45594000000E+02  0.51100000000E-03 0. -1.
         11   -1    0    0    0    0 -0.00000000000E+00 -0.00000000000E+00 -0.45593999997E+02  0.45594000000E+02  0.51100000000E-03 0.  1.
         23    2    1    2    0    0  0.00000000000E+00  0.00000000000E+00  0.00000000000E+00  0.91188000000E+02  0.91188000000E+02 0.  0.
    9900012    2    3    3    0    0 -0.20032553293E+02  0.34657573475E+02  0.20655816969E+02  0.46142319128E+02  0.10000012462E+02 0.  0.
        -12    1    3    3    0    0  0.20032553293E+02 -0.34657573475E+02 -0.20655816969E+02  0.45045680872E+02  0.00000000000E+00 0.  1.
         11    1    4    4    0    0 -0.12097382138E+02  0.12819447554E+02  0.80844226205E+01  0.19391822492E+02  0.51100000000E-03 0. -1.
        -11    1    4    4    0    0 -0.28864656077E+01  0.11267275591E+02  0.42590280103E+01  0.12386383766E+02  0.51100000000E-03 0.  1.
        -12    1    4    4    0    0 -0.50487055469E+01  0.10570850330E+02  0.83123663378E+01  0.14364112870E+02  0.00000000000E+00 0.  1.
</event>
<event>
 8    1  0.7489580E-009  0.9118800E+02  0.7816164E-02  0.1184000E+00
        -11   -1    0    0    0    0  0.00000000000E+00  0.00000000000E+00  0.45593999997E+02  0.45594000000E+02  0.51100000000E-03 0. -1.
         11   -1    0    0    0    0 -0.00000000000E+00 -0.00000000000E+00 -0.45593999997E+02  0.45594000000E+02  0.51100000000E-03 0.  1.
         23    2    1    2    0    0  0.17763568394E-14 -0.35527136788E-14  0.00000000000E+00  0.91188000000E+02  0.91188000000E+02 0.  0.
    9900012    2    3    3    0    0 -0.14805368669E+02  0.17573068676E+02  0.38744055947E+02  0.46142317018E+02  0.99999932262E+01 0.  0.
        -12    1    3    3    0    0  0.14805368669E+02 -0.17573068676E+02 -0.38744055947E+02  0.45045682982E+02  0.00000000000E+00 0.  1.
         11    1    4    4    0    0 -0.15640413526E+01  0.36978140354E+01  0.92766335012E+01  0.10108213659E+02  0.51100000000E-03 0. -1.
        -11    1    4    4    0    0 -0.85854733646E-01 -0.22635282302E+00 -0.40823718649E+00  0.47462037181E+00  0.51100000000E-03 0.  1.
         12    1    4    4    0    0 -0.13155472582E+02  0.14101607463E+02  0.29875659632E+02  0.35559482988E+02  0.00000000000E+00 0. -1.
</event>
<event>
 8    1  0.7489580E-009  0.9118800E+02  0.7816164E-02  0.1184000E+00
        -11   -1    0    0    0    0  0.00000000000E+00  0.00000000000E+00  0.45593999997E+02  0.45594000000E+02  0.51100000000E-03 0. -1.
         11   -1    0    0    0    0 -0.00000000000E+00 -0.00000000000E+00 -0.45593999997E+02  0.45594000000E+02  0.51100000000E-03 0.  1.
         23    2    1    2    0    0  0.00000000000E+00  0.00000000000E+00 -0.35527136788E-14  0.91188000000E+02  0.91188000000E+02 0.  0.
    9900012    2    3    3    0    0 -0.35701169684E+02  0.68323773251E+01 -0.26605610065E+02  0.46142318923E+02  0.10000010594E+02 0.  0.
         12    1    3    3    0    0  0.35701169684E+02 -0.68323773251E+01  0.26605610065E+02  0.45045681077E+02  0.00000000000E+00 0. -1.
         11    1    4    4    0    0 -0.15215997036E+01  0.11575920397E+01 -0.24558103624E+00  0.19275879474E+01  0.51100000000E-03 0. -1.
        -11    1    4    4    0    0 -0.34123627008E+02  0.64311687581E+01 -0.25972359509E+02  0.43362948591E+02  0.51100000000E-03 0.  1.
         12    1    4    4    0    0 -0.55942972942E-01 -0.75638347272E+00 -0.38766952010E+00  0.85178238468E+00  0.00000000000E+00 0. -1.
</event>
<event>
 8    1  0.7489580E-009  0.9118800E+02  0.7816164E-02  0.1184000E+00
        -11   -1    0    0    0    0  0.00000000000E+00  0.00000000000E+00  0.45593999997E+02  0.45594000000E+02  0.51100000000E-03 0. -1.
         11   -1    0    0    0    0 -0.00000000000E+00 -0.00000000000E+00 -0.45593999997E+02  0.45594000000E+02  0.51100000000E-03 0.  1.
         23    2    1    2    0    0  0.00000000000E+00  0.35527136788E-14  0.00000000000E+00  0.91188000000E+02  0.91188000000E+02 0.  0.
    9900012    2    3    3    0    0  0.17415696431E+01  0.29906131033E+02  0.33640806457E+02  0.46142316553E+02  0.99999889792E+01 0.  0.
        -12    1    3    3    0    0 -0.17415696431E+01 -0.29906131033E+02 -0.33640806457E+02  0.45045683447E+02  0.00000000000E+00 0.  1.
         11    1    4    4    0    0  0.32393818036E+01  0.83386642878E+01  0.74062736298E+01  0.11613776557E+02  0.51100000000E-03 0. -1.
        -11    1    4    4    0    0  0.53510392720E+00  0.12106990954E+02  0.10390484154E+02  0.15963324447E+02  0.51100000000E-03 0.  1.
        -12    1    4    4    0    0 -0.20329160878E+01  0.94604757905E+01  0.15844048674E+02  0.18565215549E+02  0.00000000000E+00 0.  1.
</event>
<event>
 8    1  0.7489580E-009  0.9118800E+02  0.7816164E-02  0.1184000E+00
        -11   -1    0    0    0    0  0.00000000000E+00  0.00000000000E+00  0.45593999997E+02  0.45594000000E+02  0.51100000000E-03 0. -1.
         11   -1    0    0    0    0 -0.00000000000E+00 -0.00000000000E+00 -0.45593999997E+02  0.45594000000E+02  0.51100000000E-03 0.  1.
         23    2    1    2    0    0  0.00000000000E+00  0.00000000000E+00  0.00000000000E+00  0.91188000000E+02  0.91188000000E+02 0.  0.
    9900012    2    3    3    0    0  0.15145107709E+02  0.32259048291E+02  0.27551642163E+02  0.46142317965E+02  0.10000001858E+02 0.  0.
        -12    1    3    3    0    0 -0.15145107709E+02 -0.32259048291E+02 -0.27551642163E+02  0.45045682035E+02  0.00000000000E+00 0.  1.
         11    1    4    4    0    0  0.20632300982E+01  0.62210476244E+01  0.69057684109E+01  0.95209237782E+01  0.51100000000E-03 0.  1.
        -11    1    4    4    0    0  0.10613553155E+02  0.13715784082E+02  0.14626820440E+02  0.22687311873E+02  0.51100000000E-03 0. -1.
        -12    1    4    4    0    0  0.24683244559E+01  0.12322216584E+02  0.60190533117E+01  0.13934082314E+02  0.00000000000E+00 0.  1.
</event>
<event>
 8    1  0.7489580E-009  0.9118800E+02  0.7816164E-02  0.1184000E+00
        -11   -1    0    0    0    0  0.00000000000E+00  0.00000000000E+00  0.45593999997E+02  0.45594000000E+02  0.51100000000E-03 0. -1.
         11   -1    0    0    0    0 -0.00000000000E+00 -0.00000000000E+00 -0.45593999997E+02  0.45594000000E+02  0.51100000000E-03 0.  1.
         23    2    1    2    0    0  0.00000000000E+00  0.35527136788E-14  0.35527136788E-14  0.91188000000E+02  0.91188000000E+02 0.  0.
    9900012    2    3    3    0    0 -0.24205889770E+02  0.29955089903E+02  0.23364095210E+02  0.46142318125E+02  0.10000003317E+02 0.  0.
        -12    1    3    3    0    0  0.24205889770E+02 -0.29955089903E+02 -0.23364095210E+02  0.45045681875E+02  0.00000000000E+00 0.  1.
         11    1    4    4    0    0 -0.12097186624E+02  0.17118539926E+02  0.16126758646E+02  0.26447281109E+02  0.51100000000E-03 0. -1.
        -11    1    4    4    0    0 -0.73270830939E+01  0.67797773304E+01  0.65676105405E+01  0.11949269257E+02  0.51100000000E-03 0.  1.
        -12    1    4    4    0    0 -0.47816200523E+01  0.60567726464E+01  0.66972602354E+00  0.77457677581E+01  0.00000000000E+00 0.  1.
</event>
<event>
 8    1  0.7489580E-009  0.9118800E+02  0.7816164E-02  0.1184000E+00
        -11   -1    0    0    0    0  0.00000000000E+00  0.00000000000E+00  0.45593999997E+02  0.45594000000E+02  0.51100000000E-03 0. -1.
         11   -1    0    0    0    0 -0.00000000000E+00 -0.00000000000E+00 -0.45593999997E+02  0.45594000000E+02  0.51100000000E-03 0.  1.
         23    2    1    2    0    0  0.00000000000E+00  0.22204460493E-15  0.00000000000E+00  0.91188000000E+02  0.91188000000E+02 0.  0.
    9900012    2    3    3    0    0  0.55078969158E+01  0.17129427955E+01 -0.44674851748E+02  0.46142317852E+02  0.10000000830E+02 0.  0.
         12    1    3    3    0    0 -0.55078969158E+01 -0.17129427955E+01  0.44674851748E+02  0.45045682148E+02  0.00000000000E+00 0. -1.
         11    1    4    4    0    0 -0.89560764323E+00 -0.85706416643E+00 -0.56568577522E+01  0.57910890104E+01  0.51100000000E-03 0. -1.
        -11    1    4    4    0    0  0.28462907750E+01  0.46368974957E+01 -0.29257756472E+02  0.29759343131E+02  0.51100000000E-03 0.  1.
        -12    1    4    4    0    0  0.35572137840E+01 -0.20668905338E+01 -0.97602375238E+01  0.10591885710E+02  0.00000000000E+00 0.  1.
</event>
<event>
 8    1  0.7489580E-009  0.9118800E+02  0.7816164E-02  0.1184000E+00
        -11   -1    0    0    0    0  0.00000000000E+00  0.00000000000E+00  0.45593999997E+02  0.45594000000E+02  0.51100000000E-03 0. -1.
         11   -1    0    0    0    0 -0.00000000000E+00 -0.00000000000E+00 -0.45593999997E+02  0.45594000000E+02  0.51100000000E-03 0.  1.
         23    2    1    2    0    0 -0.66613381478E-15 -0.22204460493E-15  0.71054273576E-14  0.91188000000E+02  0.91188000000E+02 0.  0.
    9900012    2    3    3    0    0 -0.18475925733E+01 -0.18056023207E+01  0.44971542256E+02  0.46142318621E+02  0.10000007837E+02 0.  0.
        -12    1    3    3    0    0  0.18475925733E+01  0.18056023207E+01 -0.44971542256E+02  0.45045681379E+02  0.00000000000E+00 0.  1.
         11    1    4    4    0    0  0.26521633224E+01 -0.36065375498E-01  0.14256751518E+02  0.14501387351E+02  0.51100000000E-03 0.  1.
        -11    1    4    4    0    0 -0.36542594271E+01  0.13514069965E+01  0.22069067471E+02  0.22410346988E+02  0.51100000000E-03 0. -1.
        -12    1    4    4    0    0 -0.84549646864E+00 -0.31209439416E+01  0.86457232667E+01  0.92305842811E+01  0.00000000000E+00 0.  1.
</event>
<event>
 8    1  0.7489580E-009  0.9118800E+02  0.7816164E-02  0.1184000E+00
        -11   -1    0    0    0    0  0.00000000000E+00  0.00000000000E+00  0.45593999997E+02  0.45594000000E+02  0.51100000000E-03 0. -1.
         11   -1    0    0    0    0 -0.00000000000E+00 -0.00000000000E+00 -0.45593999997E+02  0.45594000000E+02  0.51100000000E-03 0.  1.
         23    2    1    2    0    0  0.00000000000E+00  0.00000000000E+00  0.00000000000E+00  0.91188000000E+02  0.91188000000E+02 0.  0.
    9900012    2    3    3    0    0 -0.74384875630E+01 -0.12826904128E+02  0.42535313329E+02  0.46142318223E+02  0.10000004212E+02 0.  0.
        -12    1    3    3    0    0  0.74384875630E+01  0.12826904128E+02 -0.42535313329E+02  0.45045681777E+02  0.00000000000E+00 0.  1.
         11    1    4    4    0    0 -0.71301530304E+01 -0.97007346416E+01  0.23634196128E+02  0.26523924327E+02  0.51100000000E-03 0. -1.
        -11    1    4    4    0    0 -0.32311727766E+00 -0.17460123996E+01  0.20552032034E+01  0.27160310276E+01  0.51100000000E-03 0.  1.
         12    1    4    4    0    0  0.14782745048E-01 -0.13801570866E+01  0.16845913998E+02  0.16902362868E+02  0.00000000000E+00 0. -1.
</event>
<event>
 8    1  0.7489580E-009  0.9118800E+02  0.7816164E-02  0.1184000E+00
        -11   -1    0    0    0    0  0.00000000000E+00  0.00000000000E+00  0.45593999997E+02  0.45594000000E+02  0.51100000000E-03 0. -1.
         11   -1    0    0    0    0 -0.00000000000E+00 -0.00000000000E+00 -0.45593999997E+02  0.45594000000E+02  0.51100000000E-03 0.  1.
         23    2    1    2    0    0  0.17763568394E-14  0.00000000000E+00  0.71054273576E-14  0.91188000000E+02  0.91188000000E+02 0.  0.
    9900012    2    3    3    0    0 -0.13665157995E+02  0.10800432475E+02 -0.41541877167E+02  0.46142318262E+02  0.10000004570E+02 0.  0.
         12    1    3    3    0    0  0.13665157995E+02 -0.10800432475E+02  0.41541877167E+02  0.45045681738E+02  0.00000000000E+00 0. -1.
         11    1    4    4    0    0 -0.36388151848E+01  0.63354168461E+00 -0.10941535260E+02  0.11548140332E+02  0.51100000000E-03 0. -1.
        -11    1    4    4    0    0  0.76219079155E+00  0.62121570812E+00 -0.60518126734E+01  0.61311728612E+01  0.51100000000E-03 0.  1.
        -12    1    4    4    0    0 -0.10788533602E+02  0.95456750819E+01 -0.24548529233E+02  0.28463005069E+02  0.00000000000E+00 0.  1.
</event>
<event>
 8    1  0.7489580E-009  0.9118800E+02  0.7816164E-02  0.1184000E+00
        -11   -1    0    0    0    0  0.00000000000E+00  0.00000000000E+00  0.45593999997E+02  0.45594000000E+02  0.51100000000E-03 0. -1.
         11   -1    0    0    0    0 -0.00000000000E+00 -0.00000000000E+00 -0.45593999997E+02  0.45594000000E+02  0.51100000000E-03 0.  1.
         23    2    1    2    0    0 -0.35527136788E-14 -0.22204460493E-15  0.00000000000E+00  0.91188000000E+02  0.91188000000E+02 0.  0.
    9900012    2    3    3    0    0 -0.23719852506E+02 -0.15767448218E+01 -0.38262199991E+02  0.46142317907E+02  0.10000001327E+02 0.  0.
         12    1    3    3    0    0  0.23719852506E+02  0.15767448218E+01  0.38262199991E+02  0.45045682093E+02  0.00000000000E+00 0. -1.
         11    1    4    4    0    0 -0.30752419084E+01  0.16969979239E+01 -0.47286763231E+01  0.58904409664E+01  0.51100000000E-03 0. -1.
        -11    1    4    4    0    0 -0.29290405700E-01  0.69943099118E+00 -0.13993945297E-01  0.70018406931E+00  0.51100000000E-03 0.  1.
        -12    1    4    4    0    0 -0.20615320192E+02 -0.39731737368E+01 -0.33519529722E+02  0.39551692871E+02  0.00000000000E+00 0.  1.
</event>
<event>
 8    1  0.7489580E-009  0.9118800E+02  0.7816164E-02  0.1184000E+00
        -11   -1    0    0    0    0  0.00000000000E+00  0.00000000000E+00  0.45593999997E+02  0.45594000000E+02  0.51100000000E-03 0. -1.
         11   -1    0    0    0    0 -0.00000000000E+00 -0.00000000000E+00 -0.45593999997E+02  0.45594000000E+02  0.51100000000E-03 0.  1.
         23    2    1    2    0    0  0.17763568394E-14 -0.17763568394E-14 -0.71054273576E-14  0.91188000000E+02  0.91188000000E+02 0.  0.
    9900012    2    3    3    0    0  0.12215354978E+02 -0.10736783892E+02 -0.42007381824E+02  0.46142317041E+02  0.99999934307E+01 0.  0.
         12    1    3    3    0    0 -0.12215354978E+02  0.10736783892E+02  0.42007381824E+02  0.45045682959E+02  0.00000000000E+00 0. -1.
         11    1    4    4    0    0  0.10241120752E+02 -0.97323454176E+01 -0.37429239178E+02  0.40006837507E+02  0.51100000000E-03 0. -1.
        -11    1    4    4    0    0  0.19466829134E+01 -0.16245822140E+01 -0.48382972547E+01  0.54624135985E+01  0.51100000000E-03 0.  1.
         12    1    4    4    0    0  0.27551312716E-01  0.62014373959E+00  0.26015460914E+00  0.67306593529E+00  0.00000000000E+00 0. -1.
</event>
<event>
 8    1  0.7489580E-009  0.9118800E+02  0.7816164E-02  0.1184000E+00
        -11   -1    0    0    0    0  0.00000000000E+00  0.00000000000E+00  0.45593999997E+02  0.45594000000E+02  0.51100000000E-03 0. -1.
         11   -1    0    0    0    0 -0.00000000000E+00 -0.00000000000E+00 -0.45593999997E+02  0.45594000000E+02  0.51100000000E-03 0.  1.
         23    2    1    2    0    0 -0.14210854715E-13 -0.88817841970E-15  0.00000000000E+00  0.91188000000E+02  0.91188000000E+02 0.  0.
    9900012    2    3    3    0    0  0.41146173550E+02  0.50590658583E+01  0.17621340224E+02  0.46142319003E+02  0.10000011326E+02 0.  0.
        -12    1    3    3    0    0 -0.41146173550E+02 -0.50590658583E+01 -0.17621340224E+02  0.45045680997E+02  0.00000000000E+00 0.  1.
         11    1    4    4    0    0  0.11295292087E+02  0.47146584786E+01  0.48094676218E+01  0.13150764501E+02  0.51100000000E-03 0. -1.
        -11    1    4    4    0    0  0.40416358156E+00  0.63549409956E+00 -0.22595469617E+00  0.78629303512E+00  0.51100000000E-03 0.  1.
        -12    1    4    4    0    0  0.29446717882E+02 -0.29108671986E+00  0.13037827298E+02  0.32205261467E+02  0.00000000000E+00 0.  1.
</event>
<event>
 8    1  0.7489580E-009  0.9118800E+02  0.7816164E-02  0.1184000E+00
        -11   -1    0    0    0    0  0.00000000000E+00  0.00000000000E+00  0.45593999997E+02  0.45594000000E+02  0.51100000000E-03 0. -1.
         11   -1    0    0    0    0 -0.00000000000E+00 -0.00000000000E+00 -0.45593999997E+02  0.45594000000E+02  0.51100000000E-03 0.  1.
         23    2    1    2    0    0  0.35527136788E-14  0.35527136788E-14  0.35527136788E-14  0.91188000000E+02  0.91188000000E+02 0.  0.
    9900012    2    3    3    0    0 -0.20884484265E+02 -0.23862987625E+02 -0.31992337623E+02  0.46142317321E+02  0.99999959900E+01 0.  0.
         12    1    3    3    0    0  0.20884484265E+02  0.23862987625E+02  0.31992337623E+02  0.45045682679E+02  0.00000000000E+00 0. -1.
         11    1    4    4    0    0 -0.14226903059E+01  0.86753753594E+00 -0.23325274411E+01  0.28665926825E+01  0.51100000000E-03 0. -1.
        -11    1    4    4    0    0 -0.79683378621E+01 -0.10400590297E+02 -0.11261734016E+02  0.17276959805E+02  0.51100000000E-03 0.  1.
        -12    1    4    4    0    0 -0.11493456097E+02 -0.14329934863E+02 -0.18398076167E+02  0.25998764834E+02  0.00000000000E+00 0.  1.
</event>
<event>
 8    1  0.7489580E-009  0.9118800E+02  0.7816164E-02  0.1184000E+00
        -11   -1    0    0    0    0  0.00000000000E+00  0.00000000000E+00  0.45593999997E+02  0.45594000000E+02  0.51100000000E-03 0.  1.
         11   -1    0    0    0    0 -0.00000000000E+00 -0.00000000000E+00 -0.45593999997E+02  0.45594000000E+02  0.51100000000E-03 0. -1.
         23    2    1    2    0    0 -0.44408920985E-15 -0.71054273576E-14 -0.44408920985E-15  0.91188000000E+02  0.91188000000E+02 0.  0.
    9900012    2    3    3    0    0  0.26501977292E+01  0.44892098456E+02  0.26056146894E+01  0.46142320077E+02  0.10000021120E+02 0.  0.
        -12    1    3    3    0    0 -0.26501977292E+01 -0.44892098456E+02 -0.26056146894E+01  0.45045679923E+02  0.00000000000E+00 0.  1.
         11    1    4    4    0    0  0.69254322759E+00  0.34606188993E+01  0.19225649698E+01  0.40189246836E+01  0.51100000000E-03 0. -1.
        -11    1    4    4    0    0 -0.81060289898E+00  0.25465815092E+01 -0.15261327813E+01  0.30775373223E+01  0.51100000000E-03 0.  1.
         12    1    4    4    0    0  0.27682574006E+01  0.38884898048E+02  0.22091825009E+01  0.39045858071E+02  0.00000000000E+00 0. -1.
</event>
<event>
 8    1  0.7489580E-009  0.9118800E+02  0.7816164E-02  0.1184000E+00
        -11   -1    0    0    0    0  0.00000000000E+00  0.00000000000E+00  0.45593999997E+02  0.45594000000E+02  0.51100000000E-03 0. -1.
         11   -1    0    0    0    0 -0.00000000000E+00 -0.00000000000E+00 -0.45593999997E+02  0.45594000000E+02  0.51100000000E-03 0.  1.
         23    2    1    2    0    0 -0.17763568394E-14  0.17763568394E-14 -0.71054273576E-14  0.91188000000E+02  0.91188000000E+02 0.  0.
    9900012    2    3    3    0    0 -0.14812783641E+02  0.11564130505E+02 -0.40938564154E+02  0.46142315317E+02  0.99999777159E+01 0.  0.
         12    1    3    3    0    0  0.14812783641E+02 -0.11564130505E+02  0.40938564154E+02  0.45045684683E+02  0.00000000000E+00 0. -1.
         11    1    4    4    0    0 -0.66500465001E+01  0.44179876470E+01 -0.14485460485E+02  0.16539960672E+02  0.51100000000E-03 0. -1.
        -11    1    4    4    0    0 -0.60031546054E+01  0.71190101001E+00 -0.86818030663E+01  0.10579148028E+02  0.51100000000E-03 0.  1.
         12    1    4    4    0    0 -0.21595825360E+01  0.64342418478E+01 -0.17771300603E+02  0.19023206617E+02  0.00000000000E+00 0. -1.
</event>
<event>
 8    1  0.7489580E-009  0.9118800E+02  0.7816164E-02  0.1184000E+00
        -11   -1    0    0    0    0  0.00000000000E+00  0.00000000000E+00  0.45593999997E+02  0.45594000000E+02  0.51100000000E-03 0. -1.
         11   -1    0    0    0    0 -0.00000000000E+00 -0.00000000000E+00 -0.45593999997E+02  0.45594000000E+02  0.51100000000E-03 0.  1.
         23    2    1    2    0    0  0.00000000000E+00  0.00000000000E+00 -0.71054273576E-14  0.91188000000E+02  0.91188000000E+02 0.  0.
    9900012    2    3    3    0    0 -0.16388053711E+02 -0.34591741179E+02  0.23747751408E+02  0.46142328075E+02  0.10000094053E+02 0.  0.
        -12    1    3    3    0    0  0.16388053711E+02  0.34591741179E+02 -0.23747751408E+02  0.45045671925E+02  0.00000000000E+00 0.  1.
         11    1    4    4    0    0 -0.56339924544E+01 -0.77262593698E+01  0.62212081507E+01  0.11407908921E+02  0.51100000000E-03 0. -1.
        -11    1    4    4    0    0  0.46525125428E-01 -0.96197697236E+01  0.50407869493E+01  0.10860555577E+02  0.51100000000E-03 0.  1.
        -12    1    4    4    0    0 -0.10800586382E+02 -0.17245712085E+02  0.12485756308E+02  0.23873863577E+02  0.00000000000E+00 0.  1.
</event>
<event>
 8    1  0.7489580E-009  0.9118800E+02  0.7816164E-02  0.1184000E+00
        -11   -1    0    0    0    0  0.00000000000E+00  0.00000000000E+00  0.45593999997E+02  0.45594000000E+02  0.51100000000E-03 0. -1.
         11   -1    0    0    0    0 -0.00000000000E+00 -0.00000000000E+00 -0.45593999997E+02  0.45594000000E+02  0.51100000000E-03 0.  1.
         23    2    1    2    0    0 -0.35527136788E-14  0.00000000000E+00  0.00000000000E+00  0.91188000000E+02  0.91188000000E+02 0.  0.
    9900012    2    3    3    0    0 -0.26072638661E+02  0.85964589534E+01 -0.35713190430E+02  0.46142316921E+02  0.99999923437E+01 0.  0.
         12    1    3    3    0    0  0.26072638661E+02 -0.85964589534E+01  0.35713190430E+02  0.45045683079E+02  0.00000000000E+00 0. -1.
         11    1    4    4    0    0 -0.43027856393E+01  0.36141181252E+01 -0.10272142173E+02  0.11708660007E+02  0.51100000000E-03 0. -1.
        -11    1    4    4    0    0 -0.17427162717E+02  0.37595009416E+01 -0.15936068729E+02  0.23912300904E+02  0.51100000000E-03 0.  1.
         12    1    4    4    0    0 -0.43426903045E+01  0.12228398866E+01 -0.95049795289E+01  0.10521356011E+02  0.00000000000E+00 0. -1.
</event>
<event>
 8    1  0.7489580E-009  0.9118800E+02  0.7816164E-02  0.1184000E+00
        -11   -1    0    0    0    0  0.00000000000E+00  0.00000000000E+00  0.45593999997E+02  0.45594000000E+02  0.51100000000E-03 0. -1.
         11   -1    0    0    0    0 -0.00000000000E+00 -0.00000000000E+00 -0.45593999997E+02  0.45594000000E+02  0.51100000000E-03 0.  1.
         23    2    1    2    0    0  0.00000000000E+00 -0.17763568394E-14  0.71054273576E-14  0.91188000000E+02  0.91188000000E+02 0.  0.
    9900012    2    3    3    0    0 -0.16602643548E+02 -0.10801910020E+02  0.40457192457E+02  0.46142318138E+02  0.10000003441E+02 0.  0.
        -12    1    3    3    0    0  0.16602643548E+02  0.10801910020E+02 -0.40457192457E+02  0.45045681862E+02  0.00000000000E+00 0.  1.
         11    1    4    4    0    0 -0.23315132994E+01 -0.32946787705E+01  0.59852283250E+01  0.72189902915E+01  0.51100000000E-03 0. -1.
        -11    1    4    4    0    0 -0.36944707984E+01 -0.10274476797E+01  0.17421038317E+02  0.17838086767E+02  0.51100000000E-03 0.  1.
         12    1    4    4    0    0 -0.10576659450E+02 -0.64797835699E+01  0.17050925815E+02  0.21085241080E+02  0.00000000000E+00 0. -1.
</event>
<event>
 8    1  0.7489580E-009  0.9118800E+02  0.7816164E-02  0.1184000E+00
        -11   -1    0    0    0    0  0.00000000000E+00  0.00000000000E+00  0.45593999997E+02  0.45594000000E+02  0.51100000000E-03 0. -1.
         11   -1    0    0    0    0 -0.00000000000E+00 -0.00000000000E+00 -0.45593999997E+02  0.45594000000E+02  0.51100000000E-03 0.  1.
         23    2    1    2    0    0 -0.35527136788E-14  0.00000000000E+00  0.00000000000E+00  0.91188000000E+02  0.91188000000E+02 0.  0.
    9900012    2    3    3    0    0  0.25465797262E+02 -0.26442762976E+02  0.26103391877E+02  0.46142316395E+02  0.99999875401E+01 0.  0.
        -12    1    3    3    0    0 -0.25465797262E+02  0.26442762976E+02 -0.26103391877E+02  0.45045683605E+02  0.00000000000E+00 0.  1.
         11    1    4    4    0    0  0.11465498423E+02 -0.97003093060E+01  0.95489697305E+01  0.17797091838E+02  0.51100000000E-03 0. -1.
        -11    1    4    4    0    0  0.94624921405E+01 -0.11372802606E+02  0.15151029899E+02  0.21176239135E+02  0.51100000000E-03 0.  1.
        -12    1    4    4    0    0  0.45378066992E+01 -0.53696510633E+01  0.14033922473E+01  0.71689854220E+01  0.00000000000E+00 0.  1.
</event>
<event>
 8    1  0.7489580E-009  0.9118800E+02  0.7816164E-02  0.1184000E+00
        -11   -1    0    0    0    0  0.00000000000E+00  0.00000000000E+00  0.45593999997E+02  0.45594000000E+02  0.51100000000E-03 0. -1.
         11   -1    0    0    0    0 -0.00000000000E+00 -0.00000000000E+00 -0.45593999997E+02  0.45594000000E+02  0.51100000000E-03 0.  1.
         23    2    1    2    0    0  0.35527136788E-14  0.00000000000E+00  0.00000000000E+00  0.91188000000E+02  0.91188000000E+02 0.  0.
    9900012    2    3    3    0    0  0.18916373832E+02 -0.19230394029E+02 -0.36075979174E+02  0.46142317335E+02  0.99999961123E+01 0.  0.
         12    1    3    3    0    0 -0.18916373832E+02  0.19230394029E+02  0.36075979174E+02  0.45045682665E+02  0.00000000000E+00 0. -1.
         11    1    4    4    0    0 -0.32904210859E+00 -0.23894303427E+01 -0.20004911037E+01  0.31336258534E+01  0.51100000000E-03 0. -1.
        -11    1    4    4    0    0  0.13482151086E+02 -0.15016702816E+02 -0.26829666565E+02  0.33572321481E+02  0.51100000000E-03 0.  1.
        -12    1    4    4    0    0  0.57632648544E+01 -0.18242608698E+01 -0.72458215055E+01  0.94363700009E+01  0.00000000000E+00 0.  1.
</event>
<event>
 8    1  0.7489580E-009  0.9118800E+02  0.7816164E-02  0.1184000E+00
        -11   -1    0    0    0    0  0.00000000000E+00  0.00000000000E+00  0.45593999997E+02  0.45594000000E+02  0.51100000000E-03 0. -1.
         11   -1    0    0    0    0 -0.00000000000E+00 -0.00000000000E+00 -0.45593999997E+02  0.45594000000E+02  0.51100000000E-03 0.  1.
         23    2    1    2    0    0  0.00000000000E+00  0.00000000000E+00 -0.35527136788E-14  0.91188000000E+02  0.91188000000E+02 0.  0.
    9900012    2    3    3    0    0 -0.32118425859E+01 -0.36471465996E+02  0.26241755031E+02  0.46142317945E+02  0.10000001676E+02 0.  0.
        -12    1    3    3    0    0  0.32118425859E+01  0.36471465996E+02 -0.26241755031E+02  0.45045682055E+02  0.00000000000E+00 0.  1.
         11    1    4    4    0    0 -0.94614193733E+00 -0.18630678148E+01  0.30255031862E+01  0.36769384056E+01  0.51100000000E-03 0. -1.
        -11    1    4    4    0    0 -0.45360787190E+01 -0.20707441865E+02  0.11336684190E+02  0.24039437752E+02  0.51100000000E-03 0.  1.
         12    1    4    4    0    0  0.22703780705E+01 -0.13900956316E+02  0.11879567655E+02  0.18425941787E+02  0.00000000000E+00 0. -1.
</event>
<event>
 8    1  0.7489580E-009  0.9118800E+02  0.7816164E-02  0.1184000E+00
        -11   -1    0    0    0    0  0.00000000000E+00  0.00000000000E+00  0.45593999997E+02  0.45594000000E+02  0.51100000000E-03 0.  1.
         11   -1    0    0    0    0 -0.00000000000E+00 -0.00000000000E+00 -0.45593999997E+02  0.45594000000E+02  0.51100000000E-03 0. -1.
         23    2    1    2    0    0  0.17763568394E-14  0.71054273576E-14  0.00000000000E+00  0.91188000000E+02  0.91188000000E+02 0.  0.
    9900012    2    3    3    0    0  0.74278570366E+01 -0.42988428933E+02  0.11222077805E+02  0.46142321933E+02  0.10000038041E+02 0.  0.
        -12    1    3    3    0    0 -0.74278570366E+01  0.42988428933E+02 -0.11222077805E+02  0.45045678067E+02  0.00000000000E+00 0.  1.
         11    1    4    4    0    0  0.93474857682E+01 -0.33338213387E+02  0.89378272152E+01  0.35758869076E+02  0.51100000000E-03 0. -1.
        -11    1    4    4    0    0 -0.48803169384E+00 -0.63993597545E+01  0.58128849777E+00  0.64442126579E+01  0.51100000000E-03 0.  1.
        -12    1    4    4    0    0 -0.14315970378E+01 -0.32508557913E+01  0.17029620925E+01  0.39392401987E+01  0.00000000000E+00 0.  1.
</event>
<event>
 8    1  0.7489580E-009  0.9118800E+02  0.7816164E-02  0.1184000E+00
        -11   -1    0    0    0    0  0.00000000000E+00  0.00000000000E+00  0.45593999997E+02  0.45594000000E+02  0.51100000000E-03 0. -1.
         11   -1    0    0    0    0 -0.00000000000E+00 -0.00000000000E+00 -0.45593999997E+02  0.45594000000E+02  0.51100000000E-03 0.  1.
         23    2    1    2    0    0  0.00000000000E+00 -0.35527136788E-14  0.00000000000E+00  0.91188000000E+02  0.91188000000E+02 0.  0.
    9900012    2    3    3    0    0 -0.19621579094E+02  0.26980032124E+02 -0.30268547940E+02  0.46142317700E+02  0.99999994391E+01 0.  0.
         12    1    3    3    0    0  0.19621579094E+02 -0.26980032124E+02  0.30268547940E+02  0.45045682300E+02  0.00000000000E+00 0. -1.
         11    1    4    4    0    0 -0.23372570373E+01  0.24371530336E+00 -0.51937114679E+00  0.24066396192E+01  0.51100000000E-03 0. -1.
        -11    1    4    4    0    0 -0.44116813917E+01  0.90470473140E+01 -0.76818759190E+01  0.12661880417E+02  0.51100000000E-03 0.  1.
         12    1    4    4    0    0 -0.12872640665E+02  0.17689269507E+02 -0.22067300874E+02  0.31073797663E+02  0.00000000000E+00 0. -1.
</event>
<event>
 8    1  0.7489580E-009  0.9118800E+02  0.7816164E-02  0.1184000E+00
        -11   -1    0    0    0    0  0.00000000000E+00  0.00000000000E+00  0.45593999997E+02  0.45594000000E+02  0.51100000000E-03 0. -1.
         11   -1    0    0    0    0 -0.00000000000E+00 -0.00000000000E+00 -0.45593999997E+02  0.45594000000E+02  0.51100000000E-03 0.  1.
         23    2    1    2    0    0 -0.71054273576E-14 -0.17763568394E-14  0.00000000000E+00  0.91188000000E+02  0.91188000000E+02 0.  0.
    9900012    2    3    3    0    0  0.40762247341E+02  0.12742883958E+02 -0.14323810087E+02  0.46142318351E+02  0.10000005375E+02 0.  0.
         12    1    3    3    0    0 -0.40762247341E+02 -0.12742883958E+02  0.14323810087E+02  0.45045681649E+02  0.00000000000E+00 0. -1.
         11    1    4    4    0    0  0.27613071113E+02  0.72365639026E+01 -0.12698340775E+02  0.31242557707E+02  0.51100000000E-03 0.  1.
        -11    1    4    4    0    0  0.13137021990E+02  0.46241285989E+01 -0.14789012977E+01  0.14005394010E+02  0.51100000000E-03 0. -1.
        -12    1    4    4    0    0  0.12154237708E-01  0.88219145646E+00 -0.14656801468E+00  0.89436663303E+00  0.00000000000E+00 0.  1.
</event>
<event>
 8    1  0.7489580E-009  0.9118800E+02  0.7816164E-02  0.1184000E+00
        -11   -1    0    0    0    0  0.00000000000E+00  0.00000000000E+00  0.45593999997E+02  0.45594000000E+02  0.51100000000E-03 0.  1.
         11   -1    0    0    0    0 -0.00000000000E+00 -0.00000000000E+00 -0.45593999997E+02  0.45594000000E+02  0.51100000000E-03 0. -1.
         23    2    1    2    0    0 -0.17763568394E-14 -0.35527136788E-14  0.35527136788E-14  0.91188000000E+02  0.91188000000E+02 0.  0.
    9900012    2    3    3    0    0 -0.96926970270E+01 -0.30650731330E+02  0.31554676235E+02  0.46142319863E+02  0.10000019168E+02 0.  0.
        -12    1    3    3    0    0  0.96926970270E+01  0.30650731330E+02 -0.31554676235E+02  0.45045680137E+02  0.00000000000E+00 0.  1.
         11    1    4    4    0    0 -0.62772875929E+01 -0.75608924785E+01  0.10658659102E+02  0.14497532504E+02  0.51100000000E-03 0. -1.
        -11    1    4    4    0    0  0.36684890869E+00 -0.35362489822E+01  0.51407854919E+01  0.62503848458E+01  0.51100000000E-03 0.  1.
        -12    1    4    4    0    0 -0.37822583428E+01 -0.19553589869E+02  0.15755231641E+02  0.25394402513E+02  0.00000000000E+00 0.  1.
</event>
<event>
 8    1  0.7489580E-009  0.9118800E+02  0.7816164E-02  0.1184000E+00
        -11   -1    0    0    0    0  0.00000000000E+00  0.00000000000E+00  0.45593999997E+02  0.45594000000E+02  0.51100000000E-03 0. -1.
         11   -1    0    0    0    0 -0.00000000000E+00 -0.00000000000E+00 -0.45593999997E+02  0.45594000000E+02  0.51100000000E-03 0.  1.
         23    2    1    2    0    0  0.88817841970E-15 -0.71054273576E-14  0.35527136788E-14  0.91188000000E+02  0.91188000000E+02 0.  0.
    9900012    2    3    3    0    0  0.51108320469E+01 -0.32478200043E+02 -0.30792202002E+02  0.46142314453E+02  0.99999698369E+01 0.  0.
         12    1    3    3    0    0 -0.51108320469E+01  0.32478200043E+02  0.30792202002E+02  0.45045685547E+02  0.00000000000E+00 0. -1.
         11    1    4    4    0    0 -0.89685228342E+00 -0.63030079660E+01 -0.10134580853E+02  0.11968374274E+02  0.51100000000E-03 0. -1.
        -11    1    4    4    0    0  0.10903025434E+01 -0.25501748499E+01 -0.70382175972E+00  0.28613837093E+01  0.51100000000E-03 0.  1.
         12    1    4    4    0    0  0.49173817869E+01 -0.23625017227E+02 -0.19953799389E+02  0.31312556470E+02  0.00000000000E+00 0. -1.
</event>
<event>
 8    1  0.7489580E-009  0.9118800E+02  0.7816164E-02  0.1184000E+00
        -11   -1    0    0    0    0  0.00000000000E+00  0.00000000000E+00  0.45593999997E+02  0.45594000000E+02  0.51100000000E-03 0.  1.
         11   -1    0    0    0    0 -0.00000000000E+00 -0.00000000000E+00 -0.45593999997E+02  0.45594000000E+02  0.51100000000E-03 0. -1.
         23    2    1    2    0    0  0.88817841970E-15 -0.71054273576E-14 -0.35527136788E-14  0.91188000000E+02  0.91188000000E+02 0.  0.
    9900012    2    3    3    0    0 -0.76282845024E+01  0.35820458449E+02  0.26226274704E+02  0.46142318156E+02  0.10000003601E+02 0.  0.
        -12    1    3    3    0    0  0.76282845024E+01 -0.35820458449E+02 -0.26226274704E+02  0.45045681844E+02  0.00000000000E+00 0.  1.
         11    1    4    4    0    0 -0.44447187695E+00  0.78872693902E-02  0.94566940586E+00  0.10449441826E+01  0.51100000000E-03 0. -1.
        -11    1    4    4    0    0 -0.19605796001E+01  0.25922321150E+02  0.19569746825E+02  0.32538985806E+02  0.51100000000E-03 0.  1.
         12    1    4    4    0    0 -0.52232330254E+01  0.98902500296E+01  0.57108584723E+01  0.12558388168E+02  0.00000000000E+00 0. -1.
</event>
<event>
 8    1  0.7489580E-009  0.9118800E+02  0.7816164E-02  0.1184000E+00
        -11   -1    0    0    0    0  0.00000000000E+00  0.00000000000E+00  0.45593999997E+02  0.45594000000E+02  0.51100000000E-03 0.  1.
         11   -1    0    0    0    0 -0.00000000000E+00 -0.00000000000E+00 -0.45593999997E+02  0.45594000000E+02  0.51100000000E-03 0. -1.
         23    2    1    2    0    0  0.71054273576E-14  0.00000000000E+00  0.00000000000E+00  0.91188000000E+02  0.91188000000E+02 0.  0.
    9900012    2    3    3    0    0 -0.36870404802E+02 -0.23998632021E+02 -0.96825869531E+01  0.46142316753E+02  0.99999908050E+01 0.  0.
        -12    1    3    3    0    0  0.36870404802E+02  0.23998632021E+02  0.96825869531E+01  0.45045683247E+02  0.00000000000E+00 0.  1.
         11    1    4    4    0    0 -0.75912802655E+01 -0.71374885747E+01 -0.31090995388E+01  0.10873719668E+02  0.51100000000E-03 0. -1.
        -11    1    4    4    0    0 -0.75417842354E+01 -0.84702891700E+01 -0.25237568351E+01  0.11618677072E+02  0.51100000000E-03 0.  1.
         12    1    4    4    0    0 -0.21737340301E+02 -0.83908542760E+01 -0.40497305793E+01  0.23649920012E+02  0.00000000000E+00 0. -1.
</event>
<event>
 8    1  0.7489580E-009  0.9118800E+02  0.7816164E-02  0.1184000E+00
        -11   -1    0    0    0    0  0.00000000000E+00  0.00000000000E+00  0.45593999997E+02  0.45594000000E+02  0.51100000000E-03 0. -1.
         11   -1    0    0    0    0 -0.00000000000E+00 -0.00000000000E+00 -0.45593999997E+02  0.45594000000E+02  0.51100000000E-03 0.  1.
         23    2    1    2    0    0  0.00000000000E+00  0.35527136788E-14  0.00000000000E+00  0.91188000000E+02  0.91188000000E+02 0.  0.
    9900012    2    3    3    0    0  0.88190574898E+01  0.21209326838E+02  0.38749232477E+02  0.46142308336E+02  0.99999140536E+01 0.  0.
        -12    1    3    3    0    0 -0.88190574898E+01 -0.21209326838E+02 -0.38749232477E+02  0.45045691664E+02  0.00000000000E+00 0.  1.
         11    1    4    4    0    0  0.77658451288E+01  0.19503507640E+02  0.29180751235E+02  0.35947342095E+02  0.51100000000E-03 0. -1.
        -11    1    4    4    0    0 -0.63866803609E+00  0.16151228143E+01  0.37102458218E+01  0.40966379978E+01  0.51100000000E-03 0.  1.
         12    1    4    4    0    0  0.16918803970E+01  0.90696383100E-01  0.58582354208E+01  0.60983282429E+01  0.00000000000E+00 0. -1.
</event>
<event>
 8    1  0.7489580E-009  0.9118800E+02  0.7816164E-02  0.1184000E+00
        -11   -1    0    0    0    0  0.00000000000E+00  0.00000000000E+00  0.45593999997E+02  0.45594000000E+02  0.51100000000E-03 0.  1.
         11   -1    0    0    0    0 -0.00000000000E+00 -0.00000000000E+00 -0.45593999997E+02  0.45594000000E+02  0.51100000000E-03 0. -1.
         23    2    1    2    0    0  0.00000000000E+00  0.00000000000E+00  0.00000000000E+00  0.91188000000E+02  0.91188000000E+02 0.  0.
    9900012    2    3    3    0    0  0.10768712721E+02  0.35930461723E+02  0.24942940096E+02  0.46142317477E+02  0.99999974132E+01 0.  0.
        -12    1    3    3    0    0 -0.10768712721E+02 -0.35930461723E+02 -0.24942940096E+02  0.45045682523E+02  0.00000000000E+00 0.  1.
         11    1    4    4    0    0  0.53970279607E+01  0.14992055727E+02  0.86126555815E+01  0.18112633220E+02  0.51100000000E-03 0.  1.
        -11    1    4    4    0    0  0.65911041579E+01  0.16502685242E+02  0.10638660830E+02  0.20711406972E+02  0.51100000000E-03 0. -1.
        -12    1    4    4    0    0 -0.12194193975E+01  0.44357207539E+01  0.56916236840E+01  0.73182772859E+01  0.00000000000E+00 0.  1.
</event>
<event>
 8    1  0.7489580E-009  0.9118800E+02  0.7816164E-02  0.1184000E+00
        -11   -1    0    0    0    0  0.00000000000E+00  0.00000000000E+00  0.45593999997E+02  0.45594000000E+02  0.51100000000E-03 0. -1.
         11   -1    0    0    0    0 -0.00000000000E+00 -0.00000000000E+00 -0.45593999997E+02  0.45594000000E+02  0.51100000000E-03 0.  1.
         23    2    1    2    0    0 -0.35527136788E-14  0.00000000000E+00 -0.71054273576E-14  0.91188000000E+02  0.91188000000E+02 0.  0.
    9900012    2    3    3    0    0  0.21314587298E+02  0.10702896371E+02  0.38213215148E+02  0.46142318361E+02  0.10000005470E+02 0.  0.
        -12    1    3    3    0    0 -0.21314587298E+02 -0.10702896371E+02 -0.38213215148E+02  0.45045681639E+02  0.00000000000E+00 0.  1.
         11    1    4    4    0    0  0.17132497957E+02  0.58265390185E+01  0.27309344628E+02  0.32760820311E+02  0.51100000000E-03 0. -1.
        -11    1    4    4    0    0  0.38627949482E+01  0.22128994392E+01  0.40383623326E+01  0.60105307029E+01  0.51100000000E-03 0.  1.
        -12    1    4    4    0    0  0.31929439281E+00  0.26634579133E+01  0.68655081875E+01  0.73709673475E+01  0.00000000000E+00 0.  1.
</event>
<event>
 8    1  0.7489580E-009  0.9118800E+02  0.7816164E-02  0.1184000E+00
        -11   -1    0    0    0    0  0.00000000000E+00  0.00000000000E+00  0.45593999997E+02  0.45594000000E+02  0.51100000000E-03 0.  1.
         11   -1    0    0    0    0 -0.00000000000E+00 -0.00000000000E+00 -0.45593999997E+02  0.45594000000E+02  0.51100000000E-03 0. -1.
         23    2    1    2    0    0 -0.35527136788E-14 -0.71054273576E-14 -0.17763568394E-14  0.91188000000E+02  0.91188000000E+02 0.  0.
    9900012    2    3    3    0    0  0.17910637747E+02  0.38262091315E+02  0.15631218321E+02  0.46142316938E+02  0.99999924930E+01 0.  0.
        -12    1    3    3    0    0 -0.17910637747E+02 -0.38262091315E+02 -0.15631218321E+02  0.45045683062E+02  0.00000000000E+00 0.  1.
         11    1    4    4    0    0  0.67161070810E+01  0.73439417088E+01  0.19863209466E+01  0.10148154774E+02  0.51100000000E-03 0. -1.
        -11    1    4    4    0    0  0.10520580115E+02  0.29847035965E+02  0.11838805853E+02  0.33788836709E+02  0.51100000000E-03 0.  1.
         12    1    4    4    0    0  0.67395055054E+00  0.10711136415E+01  0.18060915220E+01  0.22053254552E+01  0.00000000000E+00 0. -1.
</event>
<event>
 8    1  0.7489580E-009  0.9118800E+02  0.7816164E-02  0.1184000E+00
        -11   -1    0    0    0    0  0.00000000000E+00  0.00000000000E+00  0.45593999997E+02  0.45594000000E+02  0.51100000000E-03 0. -1.
         11   -1    0    0    0    0 -0.00000000000E+00 -0.00000000000E+00 -0.45593999997E+02  0.45594000000E+02  0.51100000000E-03 0.  1.
         23    2    1    2    0    0  0.35527136788E-14  0.00000000000E+00  0.17763568394E-14  0.91188000000E+02  0.91188000000E+02 0.  0.
    9900012    2    3    3    0    0 -0.28016673422E+02  0.31604029887E+02  0.15664124520E+02  0.46142317724E+02  0.99999996621E+01 0.  0.
        -12    1    3    3    0    0  0.28016673422E+02 -0.31604029887E+02 -0.15664124520E+02  0.45045682276E+02  0.00000000000E+00 0.  1.
         11    1    4    4    0    0 -0.66516654388E+01  0.11600214976E+02  0.62996011298E+01  0.14781563356E+02  0.51100000000E-03 0. -1.
        -11    1    4    4    0    0 -0.16237977155E+02  0.11988102418E+02  0.81550418288E+01  0.21769042449E+02  0.51100000000E-03 0.  1.
        -12    1    4    4    0    0 -0.51270308286E+01  0.80157124924E+01  0.12094815616E+01  0.95917119184E+01  0.00000000000E+00 0.  1.
</event>
<event>
 8    1  0.7489580E-009  0.9118800E+02  0.7816164E-02  0.1184000E+00
        -11   -1    0    0    0    0  0.00000000000E+00  0.00000000000E+00  0.45593999997E+02  0.45594000000E+02  0.51100000000E-03 0. -1.
         11   -1    0    0    0    0 -0.00000000000E+00 -0.00000000000E+00 -0.45593999997E+02  0.45594000000E+02  0.51100000000E-03 0.  1.
         23    2    1    2    0    0  0.00000000000E+00  0.35527136788E-14  0.00000000000E+00  0.91188000000E+02  0.91188000000E+02 0.  0.
    9900012    2    3    3    0    0 -0.22668916581E+02  0.19906604297E+02 -0.33450872978E+02  0.46142316782E+02  0.99999910697E+01 0.  0.
         12    1    3    3    0    0  0.22668916581E+02 -0.19906604297E+02  0.33450872978E+02  0.45045683218E+02  0.00000000000E+00 0. -1.
         11    1    4    4    0    0 -0.10742794258E+01  0.18479764855E+01 -0.13854380289E+01  0.25472597372E+01  0.51100000000E-03 0. -1.
        -11    1    4    4    0    0 -0.42628745537E+01 -0.28537684622E+00 -0.53093612862E+01  0.68148996275E+01  0.51100000000E-03 0.  1.
        -12    1    4    4    0    0 -0.17331762602E+02  0.18344004658E+02 -0.26756073663E+02  0.36780157417E+02  0.00000000000E+00 0.  1.
</event>
<event>
 8    1  0.7489580E-009  0.9118800E+02  0.7816164E-02  0.1184000E+00
        -11   -1    0    0    0    0  0.00000000000E+00  0.00000000000E+00  0.45593999997E+02  0.45594000000E+02  0.51100000000E-03 0. -1.
         11   -1    0    0    0    0 -0.00000000000E+00 -0.00000000000E+00 -0.45593999997E+02  0.45594000000E+02  0.51100000000E-03 0.  1.
         23    2    1    2    0    0 -0.35527136788E-14 -0.35527136788E-14  0.35527136788E-14  0.91188000000E+02  0.91188000000E+02 0.  0.
    9900012    2    3    3    0    0 -0.16691689716E+02 -0.29567795466E+02 -0.29601459547E+02  0.46142318280E+02  0.10000004729E+02 0.  0.
         12    1    3    3    0    0  0.16691689716E+02  0.29567795466E+02  0.29601459547E+02  0.45045681720E+02  0.00000000000E+00 0. -1.
         11    1    4    4    0    0 -0.39578772876E+01 -0.14808537478E+02 -0.16076467568E+02  0.22212842785E+02  0.51100000000E-03 0. -1.
        -11    1    4    4    0    0 -0.50881027239E+01 -0.80900588735E+01 -0.58205054306E+01  0.11190001145E+02  0.51100000000E-03 0.  1.
        -12    1    4    4    0    0 -0.76457097046E+01 -0.66691991148E+01 -0.77044865484E+01  0.12739474349E+02  0.00000000000E+00 0.  1.
</event>
<event>
 8    1  0.7489580E-009  0.9118800E+02  0.7816164E-02  0.1184000E+00
        -11   -1    0    0    0    0  0.00000000000E+00  0.00000000000E+00  0.45593999997E+02  0.45594000000E+02  0.51100000000E-03 0. -1.
         11   -1    0    0    0    0 -0.00000000000E+00 -0.00000000000E+00 -0.45593999997E+02  0.45594000000E+02  0.51100000000E-03 0.  1.
         23    2    1    2    0    0  0.71054273576E-14  0.00000000000E+00  0.00000000000E+00  0.91188000000E+02  0.91188000000E+02 0.  0.
    9900012    2    3    3    0    0  0.35569155805E+02 -0.81874234019E+01  0.26399143113E+02  0.46142317590E+02  0.99999984388E+01 0.  0.
        -12    1    3    3    0    0 -0.35569155805E+02  0.81874234019E+01 -0.26399143113E+02  0.45045682410E+02  0.00000000000E+00 0.  1.
         11    1    4    4    0    0  0.19935968734E+02 -0.43910796569E+01  0.10142725669E+02  0.22794721191E+02  0.51100000000E-03 0. -1.
        -11    1    4    4    0    0  0.10826206113E+02 -0.18399715265E+01  0.79650676265E+01  0.13565932941E+02  0.51100000000E-03 0.  1.
        -12    1    4    4    0    0  0.48069809591E+01 -0.19563722185E+01  0.82913498184E+01  0.97816634582E+01  0.00000000000E+00 0.  1.
</event>
<event>
 8    1  0.7489580E-009  0.9118800E+02  0.7816164E-02  0.1184000E+00
        -11   -1    0    0    0    0  0.00000000000E+00  0.00000000000E+00  0.45593999997E+02  0.45594000000E+02  0.51100000000E-03 0. -1.
         11   -1    0    0    0    0 -0.00000000000E+00 -0.00000000000E+00 -0.45593999997E+02  0.45594000000E+02  0.51100000000E-03 0.  1.
         23    2    1    2    0    0 -0.35527136788E-14  0.22204460493E-15 -0.71054273576E-14  0.91188000000E+02  0.91188000000E+02 0.  0.
    9900012    2    3    3    0    0  0.17735938431E+02 -0.45343000445E+00  0.41404639462E+02  0.46142320076E+02  0.10000021113E+02 0.  0.
        -12    1    3    3    0    0 -0.17735938431E+02  0.45343000445E+00 -0.41404639462E+02  0.45045679924E+02  0.00000000000E+00 0.  1.
         11    1    4    4    0    0  0.13208718712E+02 -0.20707728031E+01  0.23385009447E+02  0.26937279319E+02  0.51100000000E-03 0. -1.
        -11    1    4    4    0    0  0.13073282819E+01 -0.14557273542E+01  0.80935068797E+01  0.83266501811E+01  0.51100000000E-03 0.  1.
        -12    1    4    4    0    0  0.32198914372E+01  0.30730701528E+01  0.99261231356E+01  0.10878390577E+02  0.00000000000E+00 0.  1.
</event>
<event>
 8    1  0.7489580E-009  0.9118800E+02  0.7816164E-02  0.1184000E+00
        -11   -1    0    0    0    0  0.00000000000E+00  0.00000000000E+00  0.45593999997E+02  0.45594000000E+02  0.51100000000E-03 0. -1.
         11   -1    0    0    0    0 -0.00000000000E+00 -0.00000000000E+00 -0.45593999997E+02  0.45594000000E+02  0.51100000000E-03 0.  1.
         23    2    1    2    0    0  0.00000000000E+00 -0.35527136788E-14  0.00000000000E+00  0.91188000000E+02  0.91188000000E+02 0.  0.
    9900012    2    3    3    0    0 -0.48864171974E+00 -0.29312746789E+02  0.34199965006E+02  0.46142317616E+02  0.99999986791E+01 0.  0.
        -12    1    3    3    0    0  0.48864171974E+00  0.29312746789E+02 -0.34199965006E+02  0.45045682384E+02  0.00000000000E+00 0.  1.
         11    1    4    4    0    0  0.10010826577E+01 -0.89158418014E+01  0.86272525228E+01  0.12446842486E+02  0.51100000000E-03 0. -1.
        -11    1    4    4    0    0  0.41339456608E-01 -0.14643087743E+02  0.22871253714E+02  0.27157245337E+02  0.51100000000E-03 0.  1.
         12    1    4    4    0    0 -0.15310638340E+01 -0.57538172445E+01  0.27014587686E+01  0.65382297930E+01  0.00000000000E+00 0. -1.
</event>
<event>
 8    1  0.7489580E-009  0.9118800E+02  0.7816164E-02  0.1184000E+00
        -11   -1    0    0    0    0  0.00000000000E+00  0.00000000000E+00  0.45593999997E+02  0.45594000000E+02  0.51100000000E-03 0. -1.
         11   -1    0    0    0    0 -0.00000000000E+00 -0.00000000000E+00 -0.45593999997E+02  0.45594000000E+02  0.51100000000E-03 0.  1.
         23    2    1    2    0    0  0.00000000000E+00  0.00000000000E+00  0.00000000000E+00  0.91188000000E+02  0.91188000000E+02 0.  0.
    9900012    2    3    3    0    0  0.44466124321E+02 -0.53598656863E+01 -0.48113565873E+01  0.46142317360E+02  0.99999963414E+01 0.  0.
         12    1    3    3    0    0 -0.44466124321E+02  0.53598656863E+01  0.48113565873E+01  0.45045682640E+02  0.00000000000E+00 0. -1.
         11    1    4    4    0    0  0.16559291721E+02 -0.37855057273E+01 -0.15158989765E+01  0.17053977421E+02  0.51100000000E-03 0. -1.
        -11    1    4    4    0    0  0.57795461375E+01  0.13007654836E+01 -0.32872576952E+01  0.67750430120E+01  0.51100000000E-03 0.  1.
        -12    1    4    4    0    0  0.22127286463E+02 -0.28751254426E+01 -0.81999155910E-02  0.22313296927E+02  0.00000000000E+00 0.  1.
</event>
<event>
 8    1  0.7489580E-009  0.9118800E+02  0.7816164E-02  0.1184000E+00
        -11   -1    0    0    0    0  0.00000000000E+00  0.00000000000E+00  0.45593999997E+02  0.45594000000E+02  0.51100000000E-03 0. -1.
         11   -1    0    0    0    0 -0.00000000000E+00 -0.00000000000E+00 -0.45593999997E+02  0.45594000000E+02  0.51100000000E-03 0.  1.
         23    2    1    2    0    0  0.00000000000E+00  0.44408920985E-15  0.71054273576E-14  0.91188000000E+02  0.91188000000E+02 0.  0.
    9900012    2    3    3    0    0 -0.55136221110E+01 -0.26918063975E+01 -0.44625862843E+02  0.46142317799E+02  0.10000000348E+02 0.  0.
         12    1    3    3    0    0  0.55136221110E+01  0.26918063975E+01  0.44625862843E+02  0.45045682201E+02  0.00000000000E+00 0. -1.
         11    1    4    4    0    0 -0.24689505402E+01 -0.21246182699E+01 -0.53092691053E+01  0.62288087350E+01  0.51100000000E-03 0. -1.
        -11    1    4    4    0    0 -0.28624506187E+01  0.23940216559E+01 -0.17297008474E+02  0.17694955938E+02  0.51100000000E-03 0.  1.
        -12    1    4    4    0    0 -0.18222095211E+00 -0.29612097835E+01 -0.22019585263E+02  0.22218553126E+02  0.00000000000E+00 0.  1.
</event>
<event>
 8    1  0.7489580E-009  0.9118800E+02  0.7816164E-02  0.1184000E+00
        -11   -1    0    0    0    0  0.00000000000E+00  0.00000000000E+00  0.45593999997E+02  0.45594000000E+02  0.51100000000E-03 0. -1.
         11   -1    0    0    0    0 -0.00000000000E+00 -0.00000000000E+00 -0.45593999997E+02  0.45594000000E+02  0.51100000000E-03 0.  1.
         23    2    1    2    0    0  0.00000000000E+00  0.00000000000E+00  0.00000000000E+00  0.91188000000E+02  0.91188000000E+02 0.  0.
    9900012    2    3    3    0    0 -0.30539384049E+02 -0.21565391938E+02  0.25127541023E+02  0.46142318460E+02  0.10000006371E+02 0.  0.
        -12    1    3    3    0    0  0.30539384049E+02  0.21565391938E+02 -0.25127541023E+02  0.45045681540E+02  0.00000000000E+00 0.  1.
         11    1    4    4    0    0 -0.96261463457E+01 -0.45353582215E+01  0.10423075382E+02  0.14895390842E+02  0.51100000000E-03 0. -1.
        -11    1    4    4    0    0 -0.14090635751E+02 -0.10509581188E+02  0.12459659611E+02  0.21546239359E+02  0.51100000000E-03 0.  1.
        -12    1    4    4    0    0 -0.68226019529E+01 -0.65204525288E+01  0.22448060297E+01  0.97006882590E+01  0.00000000000E+00 0.  1.
</event>
<event>
 8    1  0.7489580E-009  0.9118800E+02  0.7816164E-02  0.1184000E+00
        -11   -1    0    0    0    0  0.00000000000E+00  0.00000000000E+00  0.45593999997E+02  0.45594000000E+02  0.51100000000E-03 0. -1.
         11   -1    0    0    0    0 -0.00000000000E+00 -0.00000000000E+00 -0.45593999997E+02  0.45594000000E+02  0.51100000000E-03 0.  1.
         23    2    1    2    0    0  0.00000000000E+00 -0.17763568394E-14  0.00000000000E+00  0.91188000000E+02  0.91188000000E+02 0.  0.
    9900012    2    3    3    0    0  0.13843888134E+02  0.10593081515E+02  0.41536089991E+02  0.46142318893E+02  0.10000010324E+02 0.  0.
        -12    1    3    3    0    0 -0.13843888134E+02 -0.10593081515E+02 -0.41536089991E+02  0.45045681107E+02  0.00000000000E+00 0.  1.
         11    1    4    4    0    0  0.12107009275E+02  0.11776069614E+02  0.39209712951E+02  0.42692588105E+02  0.51100000000E-03 0. -1.
        -11    1    4    4    0    0 -0.16909263250E+00  0.14432781075E+00  0.24697555796E+00  0.33229508373E+00  0.51100000000E-03 0.  1.
         12    1    4    4    0    0  0.19059714921E+01 -0.13273159092E+01  0.20794014818E+01  0.31174357049E+01  0.00000000000E+00 0. -1.
</event>
<event>
 8    1  0.7489580E-009  0.9118800E+02  0.7816164E-02  0.1184000E+00
        -11   -1    0    0    0    0  0.00000000000E+00  0.00000000000E+00  0.45593999997E+02  0.45594000000E+02  0.51100000000E-03 0.  1.
         11   -1    0    0    0    0 -0.00000000000E+00 -0.00000000000E+00 -0.45593999997E+02  0.45594000000E+02  0.51100000000E-03 0. -1.
         23    2    1    2    0    0 -0.71054273576E-14  0.00000000000E+00  0.88817841970E-15  0.91188000000E+02  0.91188000000E+02 0.  0.
    9900012    2    3    3    0    0 -0.44528293602E+02  0.39063842386E+01  0.55753972388E+01  0.46142314044E+02  0.99999661015E+01 0.  0.
        -12    1    3    3    0    0  0.44528293602E+02 -0.39063842386E+01 -0.55753972388E+01  0.45045685956E+02  0.00000000000E+00 0.  1.
         11    1    4    4    0    0 -0.54393528648E+01  0.15898692277E+01  0.13425250252E+00  0.56685331211E+01  0.51100000000E-03 0. -1.
        -11    1    4    4    0    0 -0.14763327340E+02 -0.23618446532E+01 -0.64750586269E+00  0.14965072951E+02  0.51100000000E-03 0.  1.
        -12    1    4    4    0    0 -0.24325613397E+02  0.46783596641E+01  0.60886505989E+01  0.25508707972E+02  0.00000000000E+00 0.  1.
</event>
<event>
 8    1  0.7489580E-009  0.9118800E+02  0.7816164E-02  0.1184000E+00
        -11   -1    0    0    0    0  0.00000000000E+00  0.00000000000E+00  0.45593999997E+02  0.45594000000E+02  0.51100000000E-03 0. -1.
         11   -1    0    0    0    0 -0.00000000000E+00 -0.00000000000E+00 -0.45593999997E+02  0.45594000000E+02  0.51100000000E-03 0.  1.
         23    2    1    2    0    0  0.00000000000E+00  0.35527136788E-14  0.00000000000E+00  0.91188000000E+02  0.91188000000E+02 0.  0.
    9900012    2    3    3    0    0  0.34208123593E+02 -0.27657557312E+02  0.96941882662E+01  0.46142317828E+02  0.10000000608E+02 0.  0.
        -12    1    3    3    0    0 -0.34208123593E+02  0.27657557312E+02 -0.96941882662E+01  0.45045682172E+02  0.00000000000E+00 0.  1.
         11    1    4    4    0    0  0.15123197125E+02 -0.10603597853E+02  0.60790842898E+01  0.19444861655E+02  0.51100000000E-03 0. -1.
        -11    1    4    4    0    0  0.14403998677E+02 -0.15886099753E+02  0.17152898180E+01  0.21512451340E+02  0.51100000000E-03 0.  1.
         12    1    4    4    0    0  0.46809277907E+01 -0.11678597058E+01  0.18998141584E+01  0.51850048322E+01  0.00000000000E+00 0. -1.
</event>
<event>
 8    1  0.7489580E-009  0.9118800E+02  0.7816164E-02  0.1184000E+00
        -11   -1    0    0    0    0  0.00000000000E+00  0.00000000000E+00  0.45593999997E+02  0.45594000000E+02  0.51100000000E-03 0. -1.
         11   -1    0    0    0    0 -0.00000000000E+00 -0.00000000000E+00 -0.45593999997E+02  0.45594000000E+02  0.51100000000E-03 0.  1.
         23    2    1    2    0    0  0.00000000000E+00  0.00000000000E+00  0.00000000000E+00  0.91188000000E+02  0.91188000000E+02 0.  0.
    9900012    2    3    3    0    0 -0.12597088339E+01  0.27959668258E+02  0.35295659079E+02  0.46142318018E+02  0.10000002343E+02 0.  0.
        -12    1    3    3    0    0  0.12597088339E+01 -0.27959668258E+02 -0.35295659079E+02  0.45045681982E+02  0.00000000000E+00 0.  1.
         11    1    4    4    0    0  0.19961634595E+01  0.38197636598E+01  0.35060113991E+01  0.55558418953E+01  0.51100000000E-03 0. -1.
        -11    1    4    4    0    0  0.11679916864E+01  0.19060137056E+01  0.51010953994E+01  0.55694045786E+01  0.51100000000E-03 0.  1.
         12    1    4    4    0    0 -0.44238639798E+01  0.22233890892E+02  0.26688552280E+02  0.35017071544E+02  0.00000000000E+00 0. -1.
</event>
<event>
 8    1  0.7489580E-009  0.9118800E+02  0.7816164E-02  0.1184000E+00
        -11   -1    0    0    0    0  0.00000000000E+00  0.00000000000E+00  0.45593999997E+02  0.45594000000E+02  0.51100000000E-03 0. -1.
         11   -1    0    0    0    0 -0.00000000000E+00 -0.00000000000E+00 -0.45593999997E+02  0.45594000000E+02  0.51100000000E-03 0.  1.
         23    2    1    2    0    0  0.00000000000E+00  0.00000000000E+00  0.00000000000E+00  0.91188000000E+02  0.91188000000E+02 0.  0.
    9900012    2    3    3    0    0  0.27896505674E+02  0.77937416011E+01 -0.34498638228E+02  0.46142317892E+02  0.10000001192E+02 0.  0.
         12    1    3    3    0    0 -0.27896505674E+02 -0.77937416011E+01  0.34498638228E+02  0.45045682108E+02  0.00000000000E+00 0. -1.
         11    1    4    4    0    0  0.59183645043E+01  0.33690642170E+01 -0.57774498716E+01  0.89306527972E+01  0.51100000000E-03 0. -1.
        -11    1    4    4    0    0  0.18473021792E+02  0.62126018248E+01 -0.21734038879E+02  0.29192762833E+02  0.51100000000E-03 0.  1.
        -12    1    4    4    0    0  0.35051193780E+01 -0.17879244407E+01 -0.69871494773E+01  0.80189022613E+01  0.00000000000E+00 0.  1.
</event>
<event>
 8    1  0.7489580E-009  0.9118800E+02  0.7816164E-02  0.1184000E+00
        -11   -1    0    0    0    0  0.00000000000E+00  0.00000000000E+00  0.45593999997E+02  0.45594000000E+02  0.51100000000E-03 0. -1.
         11   -1    0    0    0    0 -0.00000000000E+00 -0.00000000000E+00 -0.45593999997E+02  0.45594000000E+02  0.51100000000E-03 0.  1.
         23    2    1    2    0    0  0.00000000000E+00  0.71054273576E-14 -0.35527136788E-14  0.91188000000E+02  0.91188000000E+02 0.  0.
    9900012    2    3    3    0    0  0.33632369281E+01 -0.36351345270E+02 -0.26389046730E+02  0.46142318155E+02  0.10000003592E+02 0.  0.
         12    1    3    3    0    0 -0.33632369281E+01  0.36351345270E+02  0.26389046730E+02  0.45045681845E+02  0.00000000000E+00 0. -1.
         11    1    4    4    0    0  0.47707216575E+01 -0.16286094736E+02 -0.15044501019E+02  0.22678925858E+02  0.51100000000E-03 0. -1.
        -11    1    4    4    0    0  0.60382039563E+00 -0.12767090001E+01 -0.18173154733E+01  0.23015691890E+01  0.51100000000E-03 0.  1.
         12    1    4    4    0    0 -0.20113051250E+01 -0.18788541534E+02 -0.95272302372E+01  0.21161823108E+02  0.00000000000E+00 0. -1.
</event>
<event>
 8    1  0.7489580E-009  0.9118800E+02  0.7816164E-02  0.1184000E+00
        -11   -1    0    0    0    0  0.00000000000E+00  0.00000000000E+00  0.45593999997E+02  0.45594000000E+02  0.51100000000E-03 0. -1.
         11   -1    0    0    0    0 -0.00000000000E+00 -0.00000000000E+00 -0.45593999997E+02  0.45594000000E+02  0.51100000000E-03 0.  1.
         23    2    1    2    0    0 -0.35527136788E-14  0.00000000000E+00  0.00000000000E+00  0.91188000000E+02  0.91188000000E+02 0.  0.
    9900012    2    3    3    0    0 -0.23794362719E+02  0.13957021450E+02 -0.35611003224E+02  0.46142315461E+02  0.99999790237E+01 0.  0.
         12    1    3    3    0    0  0.23794362719E+02 -0.13957021450E+02  0.35611003224E+02  0.45045684539E+02  0.00000000000E+00 0. -1.
         11    1    4    4    0    0 -0.18920575541E+02  0.68965766982E+01 -0.26151598823E+02  0.33006924580E+02  0.51100000000E-03 0. -1.
        -11    1    4    4    0    0 -0.19104302868E+01  0.28546303090E+01 -0.60695528926E+01  0.69741042908E+01  0.51100000000E-03 0.  1.
         12    1    4    4    0    0 -0.29633568912E+01  0.42058144433E+01 -0.33898515087E+01  0.61612865902E+01  0.00000000000E+00 0. -1.
</event>
<event>
 8    1  0.7489580E-009  0.9118800E+02  0.7816164E-02  0.1184000E+00
        -11   -1    0    0    0    0  0.00000000000E+00  0.00000000000E+00  0.45593999997E+02  0.45594000000E+02  0.51100000000E-03 0. -1.
         11   -1    0    0    0    0 -0.00000000000E+00 -0.00000000000E+00 -0.45593999997E+02  0.45594000000E+02  0.51100000000E-03 0.  1.
         23    2    1    2    0    0  0.00000000000E+00 -0.71054273576E-14 -0.35527136788E-14  0.91188000000E+02  0.91188000000E+02 0.  0.
    9900012    2    3    3    0    0  0.14566964202E+01 -0.38144309477E+02 -0.23916586978E+02  0.46142318269E+02  0.10000004628E+02 0.  0.
         12    1    3    3    0    0 -0.14566964202E+01  0.38144309477E+02  0.23916586978E+02  0.45045681731E+02  0.00000000000E+00 0. -1.
         11    1    4    4    0    0  0.26574991941E+01 -0.43927595103E+01 -0.34289637316E+01  0.61738505502E+01  0.51100000000E-03 0.  1.
        -11    1    4    4    0    0  0.19634482783E+01 -0.21578377237E+02 -0.11695672848E+02  0.24622555857E+02  0.51100000000E-03 0. -1.
         12    1    4    4    0    0 -0.31642510522E+01 -0.12173172730E+02 -0.87919503991E+01  0.15345911862E+02  0.00000000000E+00 0. -1.
</event>
<event>
 8    1  0.7489580E-009  0.9118800E+02  0.7816164E-02  0.1184000E+00
        -11   -1    0    0    0    0  0.00000000000E+00  0.00000000000E+00  0.45593999997E+02  0.45594000000E+02  0.51100000000E-03 0. -1.
         11   -1    0    0    0    0 -0.00000000000E+00 -0.00000000000E+00 -0.45593999997E+02  0.45594000000E+02  0.51100000000E-03 0.  1.
         23    2    1    2    0    0  0.00000000000E+00  0.35527136788E-14  0.00000000000E+00  0.91188000000E+02  0.91188000000E+02 0.  0.
    9900012    2    3    3    0    0  0.37838571183E+02 -0.19023218463E+02 -0.15345138347E+02  0.46142316736E+02  0.99999906493E+01 0.  0.
         12    1    3    3    0    0 -0.37838571183E+02  0.19023218463E+02  0.15345138347E+02  0.45045683264E+02  0.00000000000E+00 0. -1.
         11    1    4    4    0    0  0.77362832482E+00  0.68871657936E+00 -0.32947226934E+00  0.10869146926E+01  0.51100000000E-03 0. -1.
        -11    1    4    4    0    0  0.31793913315E+02 -0.18514528619E+02 -0.14765854166E+02  0.39644307831E+02  0.51100000000E-03 0.  1.
        -12    1    4    4    0    0  0.52710295425E+01 -0.11974064241E+01 -0.24981191203E+00  0.54110942122E+01  0.00000000000E+00 0.  1.
</event>
<event>
 8    1  0.7489580E-009  0.9118800E+02  0.7816164E-02  0.1184000E+00
        -11   -1    0    0    0    0  0.00000000000E+00  0.00000000000E+00  0.45593999997E+02  0.45594000000E+02  0.51100000000E-03 0. -1.
         11   -1    0    0    0    0 -0.00000000000E+00 -0.00000000000E+00 -0.45593999997E+02  0.45594000000E+02  0.51100000000E-03 0.  1.
         23    2    1    2    0    0  0.11102230246E-15  0.00000000000E+00  0.71054273576E-14  0.91188000000E+02  0.91188000000E+02 0.  0.
    9900012    2    3    3    0    0 -0.66368118247E+00  0.99578529957E+01  0.43926230568E+02  0.46142322728E+02  0.10000045291E+02 0.  0.
        -12    1    3    3    0    0  0.66368118247E+00 -0.99578529957E+01 -0.43926230568E+02  0.45045677272E+02  0.00000000000E+00 0.  1.
         11    1    4    4    0    0 -0.20145019552E+01  0.71190269035E+01  0.37462098615E+02  0.38185698830E+02  0.51100000000E-03 0.  1.
        -11    1    4    4    0    0 -0.74287854209E+00  0.19682608023E+01  0.44563788880E+01  0.49280048872E+01  0.51100000000E-03 0. -1.
        -12    1    4    4    0    0  0.20936993148E+01  0.87056528989E+00  0.20077530645E+01  0.30286190109E+01  0.00000000000E+00 0.  1.
</event>
<event>
 8    1  0.7489580E-009  0.9118800E+02  0.7816164E-02  0.1184000E+00
        -11   -1    0    0    0    0  0.00000000000E+00  0.00000000000E+00  0.45593999997E+02  0.45594000000E+02  0.51100000000E-03 0. -1.
         11   -1    0    0    0    0 -0.00000000000E+00 -0.00000000000E+00 -0.45593999997E+02  0.45594000000E+02  0.51100000000E-03 0.  1.
         23    2    1    2    0    0 -0.71054273576E-14  0.00000000000E+00 -0.66613381478E-15  0.91188000000E+02  0.91188000000E+02 0.  0.
    9900012    2    3    3    0    0 -0.41972840583E+02  0.16284755245E+02 -0.14835229153E+01  0.46142318295E+02  0.10000004869E+02 0.  0.
         12    1    3    3    0    0  0.41972840583E+02 -0.16284755245E+02  0.14835229153E+01  0.45045681705E+02  0.00000000000E+00 0. -1.
         11    1    4    4    0    0 -0.38344126026E+01  0.36008102864E+01  0.20588289318E-01  0.52601310691E+01  0.51100000000E-03 0.  1.
        -11    1    4    4    0    0 -0.15209816622E+02  0.23219738284E+01  0.18557299293E+01  0.15497542320E+02  0.51100000000E-03 0. -1.
        -12    1    4    4    0    0 -0.22928611359E+02  0.10361971131E+02 -0.33598411339E+01  0.25384644906E+02  0.00000000000E+00 0.  1.
</event>
<event>
 8    1  0.7489580E-009  0.9118800E+02  0.7816164E-02  0.1184000E+00
        -11   -1    0    0    0    0  0.00000000000E+00  0.00000000000E+00  0.45593999997E+02  0.45594000000E+02  0.51100000000E-03 0. -1.
         11   -1    0    0    0    0 -0.00000000000E+00 -0.00000000000E+00 -0.45593999997E+02  0.45594000000E+02  0.51100000000E-03 0.  1.
         23    2    1    2    0    0 -0.44408920985E-15 -0.35527136788E-14 -0.71054273576E-14  0.91188000000E+02  0.91188000000E+02 0.  0.
    9900012    2    3    3    0    0 -0.32451051671E+01 -0.30700278227E+02 -0.32803593067E+02  0.46142317533E+02  0.99999979210E+01 0.  0.
         12    1    3    3    0    0  0.32451051671E+01  0.30700278227E+02  0.32803593067E+02  0.45045682467E+02  0.00000000000E+00 0. -1.
         11    1    4    4    0    0 -0.47644526037E-01 -0.20204706723E+02 -0.19186764174E+02  0.27863315731E+02  0.51100000000E-03 0.  1.
        -11    1    4    4    0    0 -0.34430360825E+01 -0.53412929684E+01 -0.44445725545E+01  0.77548780450E+01  0.51100000000E-03 0. -1.
        -12    1    4    4    0    0  0.24557544142E+00 -0.51542785357E+01 -0.91722563383E+01  0.10524123757E+02  0.00000000000E+00 0.  1.
</event>
<event>
 8    1  0.7489580E-009  0.9118800E+02  0.7816164E-02  0.1184000E+00
        -11   -1    0    0    0    0  0.00000000000E+00  0.00000000000E+00  0.45593999997E+02  0.45594000000E+02  0.51100000000E-03 0.  1.
         11   -1    0    0    0    0 -0.00000000000E+00 -0.00000000000E+00 -0.45593999997E+02  0.45594000000E+02  0.51100000000E-03 0. -1.
         23    2    1    2    0    0  0.71054273576E-14  0.17763568394E-14  0.00000000000E+00  0.91188000000E+02  0.91188000000E+02 0.  0.
    9900012    2    3    3    0    0  0.42234539076E+02 -0.10808649725E+02 -0.11337116741E+02  0.46142318566E+02  0.10000007339E+02 0.  0.
         12    1    3    3    0    0 -0.42234539076E+02  0.10808649725E+02  0.11337116741E+02  0.45045681434E+02  0.00000000000E+00 0. -1.
         11    1    4    4    0    0  0.16480309842E+01 -0.91000014785E-01  0.10292709430E+01  0.19451699317E+01  0.51100000000E-03 0. -1.
        -11    1    4    4    0    0  0.19865653819E+01  0.15364936778E+00  0.54946894783E+00  0.20668736126E+01  0.51100000000E-03 0.  1.
        -12    1    4    4    0    0  0.38599942710E+02 -0.10871299078E+02 -0.12915856632E+02  0.42130275022E+02  0.00000000000E+00 0.  1.
</event>
<event>
 8    1  0.7489580E-009  0.9118800E+02  0.7816164E-02  0.1184000E+00
        -11   -1    0    0    0    0  0.00000000000E+00  0.00000000000E+00  0.45593999997E+02  0.45594000000E+02  0.51100000000E-03 0. -1.
         11   -1    0    0    0    0 -0.00000000000E+00 -0.00000000000E+00 -0.45593999997E+02  0.45594000000E+02  0.51100000000E-03 0.  1.
         23    2    1    2    0    0 -0.17763568394E-14 -0.22204460493E-15  0.00000000000E+00  0.91188000000E+02  0.91188000000E+02 0.  0.
    9900012    2    3    3    0    0 -0.15438995165E+02 -0.10415939581E+01  0.42304440789E+02  0.46142320960E+02  0.10000029169E+02 0.  0.
        -12    1    3    3    0    0  0.15438995165E+02  0.10415939581E+01 -0.42304440789E+02  0.45045679040E+02  0.00000000000E+00 0.  1.
         11    1    4    4    0    0 -0.29920668010E+01 -0.25566855826E+01  0.12517046432E+02  0.13121187314E+02  0.51100000000E-03 0. -1.
        -11    1    4    4    0    0 -0.24452074954E+01 -0.62385040410E+00  0.14865768785E+01  0.29288462062E+01  0.51100000000E-03 0.  1.
         12    1    4    4    0    0 -0.10001720868E+02  0.21389420286E+01  0.28300817479E+02  0.30092287439E+02  0.00000000000E+00 0. -1.
</event>
<event>
 8    1  0.7489580E-009  0.9118800E+02  0.7816164E-02  0.1184000E+00
        -11   -1    0    0    0    0  0.00000000000E+00  0.00000000000E+00  0.45593999997E+02  0.45594000000E+02  0.51100000000E-03 0. -1.
         11   -1    0    0    0    0 -0.00000000000E+00 -0.00000000000E+00 -0.45593999997E+02  0.45594000000E+02  0.51100000000E-03 0.  1.
         23    2    1    2    0    0 -0.71054273576E-14  0.35527136788E-14  0.00000000000E+00  0.91188000000E+02  0.91188000000E+02 0.  0.
    9900012    2    3    3    0    0 -0.33114764984E+02  0.29918488835E+02 -0.61163383126E+01  0.46142320646E+02  0.10000026305E+02 0.  0.
         12    1    3    3    0    0  0.33114764984E+02 -0.29918488835E+02  0.61163383126E+01  0.45045679354E+02  0.00000000000E+00 0. -1.
         11    1    4    4    0    0 -0.47071572346E+00  0.18945621315E+01  0.67763026554E+00  0.20664273518E+01  0.51100000000E-03 0. -1.
        -11    1    4    4    0    0 -0.28015084064E+01  0.45462841412E+01  0.65891434521E+00  0.53806428258E+01  0.51100000000E-03 0.  1.
        -12    1    4    4    0    0 -0.29842540854E+02  0.23477642563E+02 -0.74528829234E+01  0.38695250468E+02  0.00000000000E+00 0.  1.
</event>
<event>
 8    1  0.7489580E-009  0.9118800E+02  0.7816164E-02  0.1184000E+00
        -11   -1    0    0    0    0  0.00000000000E+00  0.00000000000E+00  0.45593999997E+02  0.45594000000E+02  0.51100000000E-03 0. -1.
         11   -1    0    0    0    0 -0.00000000000E+00 -0.00000000000E+00 -0.45593999997E+02  0.45594000000E+02  0.51100000000E-03 0.  1.
         23    2    1    2    0    0 -0.35527136788E-14  0.35527136788E-14  0.17763568394E-14  0.91188000000E+02  0.91188000000E+02 0.  0.
    9900012    2    3    3    0    0 -0.30773538331E+02  0.29140373004E+02  0.15262421207E+02  0.46142317618E+02  0.99999986926E+01 0.  0.
        -12    1    3    3    0    0  0.30773538331E+02 -0.29140373004E+02 -0.15262421207E+02  0.45045682382E+02  0.00000000000E+00 0.  1.
         11    1    4    4    0    0 -0.15921070407E+02  0.16476354281E+02  0.76845916490E+01  0.24166168136E+02  0.51100000000E-03 0. -1.
        -11    1    4    4    0    0 -0.12560158112E+01 -0.78445613070E+00  0.28018241877E+00  0.15071329032E+01  0.51100000000E-03 0.  1.
        -12    1    4    4    0    0 -0.13596452113E+02  0.13448474853E+02  0.72976471393E+01  0.20469016579E+02  0.00000000000E+00 0.  1.
</event>
<event>
 8    1  0.7489580E-009  0.9118800E+02  0.7816164E-02  0.1184000E+00
        -11   -1    0    0    0    0  0.00000000000E+00  0.00000000000E+00  0.45593999997E+02  0.45594000000E+02  0.51100000000E-03 0.  1.
         11   -1    0    0    0    0 -0.00000000000E+00 -0.00000000000E+00 -0.45593999997E+02  0.45594000000E+02  0.51100000000E-03 0. -1.
         23    2    1    2    0    0 -0.17763568394E-14  0.00000000000E+00  0.00000000000E+00  0.91188000000E+02  0.91188000000E+02 0.  0.
    9900012    2    3    3    0    0  0.15514737054E+02  0.17337272896E+02  0.38572339734E+02  0.46142317745E+02  0.99999998493E+01 0.  0.
        -12    1    3    3    0    0 -0.15514737054E+02 -0.17337272896E+02 -0.38572339734E+02  0.45045682255E+02  0.00000000000E+00 0.  1.
         11    1    4    4    0    0  0.45479345387E+01  0.68335179760E+01  0.99357772150E+01  0.12887992304E+02  0.51100000000E-03 0. -1.
        -11    1    4    4    0    0  0.68346045438E+01  0.41269495033E+01  0.81727269418E+01  0.11425278876E+02  0.51100000000E-03 0.  1.
        -12    1    4    4    0    0  0.41321979717E+01  0.63768054162E+01  0.20463835577E+02  0.21829046564E+02  0.00000000000E+00 0.  1.
</event>
<event>
 8    1  0.7489580E-009  0.9118800E+02  0.7816164E-02  0.1184000E+00
        -11   -1    0    0    0    0  0.00000000000E+00  0.00000000000E+00  0.45593999997E+02  0.45594000000E+02  0.51100000000E-03 0. -1.
         11   -1    0    0    0    0 -0.00000000000E+00 -0.00000000000E+00 -0.45593999997E+02  0.45594000000E+02  0.51100000000E-03 0.  1.
         23    2    1    2    0    0 -0.35527136788E-14  0.00000000000E+00  0.00000000000E+00  0.91188000000E+02  0.91188000000E+02 0.  0.
    9900012    2    3    3    0    0 -0.28207190941E+02 -0.22948810161E+02  0.26586088843E+02  0.46142316205E+02  0.99999858125E+01 0.  0.
        -12    1    3    3    0    0  0.28207190941E+02  0.22948810161E+02 -0.26586088843E+02  0.45045683795E+02  0.00000000000E+00 0.  1.
         11    1    4    4    0    0 -0.20958044848E+02 -0.19128066571E+02  0.17119263877E+02  0.33138976607E+02  0.51100000000E-03 0.  1.
        -11    1    4    4    0    0 -0.36051080100E+01 -0.38098770138E+01  0.60611534054E+01  0.80155815440E+01  0.51100000000E-03 0. -1.
        -12    1    4    4    0    0 -0.36440380831E+01 -0.10866576173E-01  0.34056715603E+01  0.49877580545E+01  0.00000000000E+00 0.  1.
</event>
<event>
 8    1  0.7489580E-009  0.9118800E+02  0.7816164E-02  0.1184000E+00
        -11   -1    0    0    0    0  0.00000000000E+00  0.00000000000E+00  0.45593999997E+02  0.45594000000E+02  0.51100000000E-03 0. -1.
         11   -1    0    0    0    0 -0.00000000000E+00 -0.00000000000E+00 -0.45593999997E+02  0.45594000000E+02  0.51100000000E-03 0.  1.
         23    2    1    2    0    0  0.00000000000E+00  0.00000000000E+00  0.00000000000E+00  0.91188000000E+02  0.91188000000E+02 0.  0.
    9900012    2    3    3    0    0 -0.40230125084E+02 -0.35291437107E+01  0.19954840844E+02  0.46142317713E+02  0.99999995628E+01 0.  0.
        -12    1    3    3    0    0  0.40230125084E+02  0.35291437107E+01 -0.19954840844E+02  0.45045682287E+02  0.00000000000E+00 0.  1.
         11    1    4    4    0    0 -0.29439818875E+02 -0.15288118686E+01  0.12440413213E+02  0.31996938639E+02  0.51100000000E-03 0. -1.
        -11    1    4    4    0    0 -0.15777256570E+01  0.14189818282E+01  0.17669997530E+01  0.27613431634E+01  0.51100000000E-03 0.  1.
         12    1    4    4    0    0 -0.92125805519E+01 -0.34193136703E+01  0.57474278779E+01  0.11384035911E+02  0.00000000000E+00 0. -1.
</event>
<event>
 8    1  0.7489580E-009  0.9118800E+02  0.7816164E-02  0.1184000E+00
        -11   -1    0    0    0    0  0.00000000000E+00  0.00000000000E+00  0.45593999997E+02  0.45594000000E+02  0.51100000000E-03 0. -1.
         11   -1    0    0    0    0 -0.00000000000E+00 -0.00000000000E+00 -0.45593999997E+02  0.45594000000E+02  0.51100000000E-03 0.  1.
         23    2    1    2    0    0  0.00000000000E+00 -0.35527136788E-14  0.00000000000E+00  0.91188000000E+02  0.91188000000E+02 0.  0.
    9900012    2    3    3    0    0  0.16653921042E+02  0.20633445891E+02  0.36414575026E+02  0.46142318190E+02  0.10000003908E+02 0.  0.
        -12    1    3    3    0    0 -0.16653921042E+02 -0.20633445891E+02 -0.36414575026E+02  0.45045681810E+02  0.00000000000E+00 0.  1.
         11    1    4    4    0    0  0.17537671277E+01  0.21376839965E+01  0.10243758983E+02  0.10610371830E+02  0.51100000000E-03 0. -1.
        -11    1    4    4    0    0  0.13479076060E+02  0.15158166650E+02  0.23395125678E+02  0.30964292554E+02  0.51100000000E-03 0.  1.
         12    1    4    4    0    0  0.14210778542E+01  0.33375952442E+01  0.27756903649E+01  0.45676538052E+01  0.00000000000E+00 0. -1.
</event>
<event>
 8    1  0.7489580E-009  0.9118800E+02  0.7816164E-02  0.1184000E+00
        -11   -1    0    0    0    0  0.00000000000E+00  0.00000000000E+00  0.45593999997E+02  0.45594000000E+02  0.51100000000E-03 0. -1.
         11   -1    0    0    0    0 -0.00000000000E+00 -0.00000000000E+00 -0.45593999997E+02  0.45594000000E+02  0.51100000000E-03 0.  1.
         23    2    1    2    0    0  0.00000000000E+00  0.00000000000E+00  0.00000000000E+00  0.91188000000E+02  0.91188000000E+02 0.  0.
    9900012    2    3    3    0    0  0.39618165071E+02  0.31460445105E+01 -0.21204172580E+02  0.46142317249E+02  0.99999953342E+01 0.  0.
         12    1    3    3    0    0 -0.39618165071E+02 -0.31460445105E+01  0.21204172580E+02  0.45045682751E+02  0.00000000000E+00 0. -1.
         11    1    4    4    0    0  0.94299123169E+01  0.39953312999E+01 -0.26329204086E+01  0.10574411976E+02  0.51100000000E-03 0. -1.
        -11    1    4    4    0    0  0.23229575049E+02  0.48922357269E+00 -0.14676935975E+02  0.27482084101E+02  0.51100000000E-03 0.  1.
        -12    1    4    4    0    0  0.69586777050E+01 -0.13385103621E+01 -0.38943161962E+01  0.80858211721E+01  0.00000000000E+00 0.  1.
</event>
<event>
 8    1  0.7489580E-009  0.9118800E+02  0.7816164E-02  0.1184000E+00
        -11   -1    0    0    0    0  0.00000000000E+00  0.00000000000E+00  0.45593999997E+02  0.45594000000E+02  0.51100000000E-03 0. -1.
         11   -1    0    0    0    0 -0.00000000000E+00 -0.00000000000E+00 -0.45593999997E+02  0.45594000000E+02  0.51100000000E-03 0.  1.
         23    2    1    2    0    0 -0.22204460493E-15  0.00000000000E+00  0.71054273576E-14  0.91188000000E+02  0.91188000000E+02 0.  0.
    9900012    2    3    3    0    0 -0.15709128178E+01  0.27491840892E+01  0.44934265725E+02  0.46142311899E+02  0.99999465468E+01 0.  0.
        -12    1    3    3    0    0  0.15709128178E+01 -0.27491840892E+01 -0.44934265725E+02  0.45045688101E+02  0.00000000000E+00 0.  1.
         11    1    4    4    0    0 -0.45010878030E+01  0.13350149485E+01  0.26116884245E+02  0.26535517693E+02  0.51100000000E-03 0. -1.
        -11    1    4    4    0    0  0.97658581284E+00 -0.12572950595E+01  0.11044675083E+02  0.11158824251E+02  0.51100000000E-03 0.  1.
         12    1    4    4    0    0  0.19535891724E+01  0.26714642002E+01  0.77727063973E+01  0.84479699553E+01  0.00000000000E+00 0. -1.
</event>
<event>
 8    1  0.7732862E-009  0.9118800E+02  0.7816164E-02  0.1184000E+00
        -11   -1    0    0    0    0  0.00000000000E+00  0.00000000000E+00  0.45593999997E+02  0.45594000000E+02  0.51100000000E-03 0. -1.
         11   -1    0    0    0    0 -0.00000000000E+00 -0.00000000000E+00 -0.45593999997E+02  0.45594000000E+02  0.51100000000E-03 0.  1.
         23    2    1    2    0    0 -0.88817841970E-15 -0.71054273576E-14  0.00000000000E+00  0.91188000000E+02  0.91188000000E+02 0.  0.
    9900012    2    3    3    0    0 -0.72857765490E+01 -0.38885074581E+02 -0.21540238519E+02  0.46142318292E+02  0.10000004840E+02 0.  0.
         12    1    3    3    0    0  0.72857765490E+01  0.38885074581E+02  0.21540238519E+02  0.45045681708E+02  0.00000000000E+00 0. -1.
         11    1    4    4    0    0 -0.22178592888E+01 -0.10482876540E+02 -0.38011090371E+01  0.11369170178E+02  0.51100000000E-03 0.  1.
        -11    1    4    4    0    0 -0.57505011335E+01 -0.17169583246E+02 -0.76405889659E+01  0.19653026539E+02  0.51100000000E-03 0. -1.
         12    1    4    4    0    0  0.68258387331E+00 -0.11232614795E+02 -0.10098540516E+02  0.15120121574E+02  0.00000000000E+00 0. -1.
</event>
<event>
 8    1  0.7489580E-009  0.9118800E+02  0.7816164E-02  0.1184000E+00
        -11   -1    0    0    0    0  0.00000000000E+00  0.00000000000E+00  0.45593999997E+02  0.45594000000E+02  0.51100000000E-03 0. -1.
         11   -1    0    0    0    0 -0.00000000000E+00 -0.00000000000E+00 -0.45593999997E+02  0.45594000000E+02  0.51100000000E-03 0.  1.
         23    2    1    2    0    0 -0.17763568394E-14  0.00000000000E+00  0.00000000000E+00  0.91188000000E+02  0.91188000000E+02 0.  0.
    9900012    2    3    3    0    0  0.10605682947E+02  0.20061186439E+02  0.38912489551E+02  0.46142317020E+02  0.99999932404E+01 0.  0.
        -12    1    3    3    0    0 -0.10605682947E+02 -0.20061186439E+02 -0.38912489551E+02  0.45045682980E+02  0.00000000000E+00 0.  1.
         11    1    4    4    0    0 -0.77044429155E+00  0.32220066996E+01  0.64422039494E+01  0.72440943924E+01  0.51100000000E-03 0. -1.
        -11    1    4    4    0    0  0.83089238015E+00  0.59707158896E+01  0.12069267148E+02  0.13490998485E+02  0.51100000000E-03 0.  1.
         12    1    4    4    0    0  0.10545234858E+02  0.10868463850E+02  0.20401018454E+02  0.25407224142E+02  0.00000000000E+00 0. -1.
</event>
<event>
 8    1  0.7489580E-009  0.9118800E+02  0.7816164E-02  0.1184000E+00
        -11   -1    0    0    0    0  0.00000000000E+00  0.00000000000E+00  0.45593999997E+02  0.45594000000E+02  0.51100000000E-03 0. -1.
         11   -1    0    0    0    0 -0.00000000000E+00 -0.00000000000E+00 -0.45593999997E+02  0.45594000000E+02  0.51100000000E-03 0.  1.
         23    2    1    2    0    0  0.17763568394E-14  0.71054273576E-14  0.35527136788E-14  0.91188000000E+02  0.91188000000E+02 0.  0.
    9900012    2    3    3    0    0 -0.15886238543E+02  0.35280585960E+02  0.23065584357E+02  0.46142317604E+02  0.99999985677E+01 0.  0.
        -12    1    3    3    0    0  0.15886238543E+02 -0.35280585960E+02 -0.23065584357E+02  0.45045682396E+02  0.00000000000E+00 0.  1.
         11    1    4    4    0    0 -0.69143471256E+01  0.19504682668E+02  0.15390587384E+02  0.25789746459E+02  0.51100000000E-03 0. -1.
        -11    1    4    4    0    0 -0.41732708311E+01  0.12101370678E+02  0.49873959203E+01  0.13738030428E+02  0.51100000000E-03 0.  1.
        -12    1    4    4    0    0 -0.47986205867E+01  0.36745326145E+01  0.26876010529E+01  0.66145407164E+01  0.00000000000E+00 0.  1.
</event>
<event>
 8    1  0.7489580E-009  0.9118800E+02  0.7816164E-02  0.1184000E+00
        -11   -1    0    0    0    0  0.00000000000E+00  0.00000000000E+00  0.45593999997E+02  0.45594000000E+02  0.51100000000E-03 0. -1.
         11   -1    0    0    0    0 -0.00000000000E+00 -0.00000000000E+00 -0.45593999997E+02  0.45594000000E+02  0.51100000000E-03 0.  1.
         23    2    1    2    0    0  0.00000000000E+00  0.71054273576E-14 -0.35527136788E-14  0.91188000000E+02  0.91188000000E+02 0.  0.
    9900012    2    3    3    0    0  0.70125853099E+01 -0.39218856871E+02  0.21019477610E+02  0.46142317344E+02  0.99999961944E+01 0.  0.
        -12    1    3    3    0    0 -0.70125853099E+01  0.39218856871E+02 -0.21019477610E+02  0.45045682656E+02  0.00000000000E+00 0.  1.
         11    1    4    4    0    0  0.17225115220E+01 -0.54104724466E+01  0.37654087572E+01  0.68131168644E+01  0.51100000000E-03 0. -1.
        -11    1    4    4    0    0 -0.17315808319E+01 -0.16256892890E+01  0.15611281017E+01  0.28422454245E+01  0.51100000000E-03 0.  1.
         12    1    4    4    0    0  0.70216546198E+01 -0.32182695135E+02  0.15692940751E+02  0.36486955055E+02  0.00000000000E+00 0. -1.
</event>
<event>
 8    1  0.7489580E-009  0.9118800E+02  0.7816164E-02  0.1184000E+00
        -11   -1    0    0    0    0  0.00000000000E+00  0.00000000000E+00  0.45593999997E+02  0.45594000000E+02  0.51100000000E-03 0. -1.
         11   -1    0    0    0    0 -0.00000000000E+00 -0.00000000000E+00 -0.45593999997E+02  0.45594000000E+02  0.51100000000E-03 0.  1.
         23    2    1    2    0    0  0.00000000000E+00 -0.35527136788E-14  0.00000000000E+00  0.91188000000E+02  0.91188000000E+02 0.  0.
    9900012    2    3    3    0    0  0.40323951105E+02  0.19934325894E+02 -0.23906292508E+01  0.46142317745E+02  0.99999998562E+01 0.  0.
         12    1    3    3    0    0 -0.40323951105E+02 -0.19934325894E+02  0.23906292508E+01  0.45045682255E+02  0.00000000000E+00 0. -1.
         11    1    4    4    0    0  0.62300520759E+01  0.73822805997E+01 -0.43765069143E+00  0.96697028967E+01  0.51100000000E-03 0. -1.
        -11    1    4    4    0    0  0.28392370572E+02  0.10754515453E+02 -0.25327591901E+01  0.30466394252E+02  0.51100000000E-03 0.  1.
         12    1    4    4    0    0  0.57015284572E+01  0.17975298408E+01  0.57978063068E+00  0.60062205967E+01  0.00000000000E+00 0. -1.
</event>
<event>
 8    1  0.7489580E-009  0.9118800E+02  0.7816164E-02  0.1184000E+00
        -11   -1    0    0    0    0  0.00000000000E+00  0.00000000000E+00  0.45593999997E+02  0.45594000000E+02  0.51100000000E-03 0. -1.
         11   -1    0    0    0    0 -0.00000000000E+00 -0.00000000000E+00 -0.45593999997E+02  0.45594000000E+02  0.51100000000E-03 0.  1.
         23    2    1    2    0    0  0.00000000000E+00  0.00000000000E+00  0.00000000000E+00  0.91188000000E+02  0.91188000000E+02 0.  0.
    9900012    2    3    3    0    0 -0.21405801844E+02  0.23550245352E+02 -0.31879320132E+02  0.46142318067E+02  0.10000002786E+02 0.  0.
         12    1    3    3    0    0  0.21405801844E+02 -0.23550245352E+02  0.31879320132E+02  0.45045681933E+02  0.00000000000E+00 0. -1.
         11    1    4    4    0    0 -0.22125950153E+01  0.43506075671E+01 -0.26793017474E+01  0.55679458528E+01  0.51100000000E-03 0. -1.
        -11    1    4    4    0    0 -0.19116173202E+01  0.10707080437E+00 -0.45047590143E+01  0.48947521872E+01  0.51100000000E-03 0.  1.
         12    1    4    4    0    0 -0.17281589509E+02  0.19092566981E+02 -0.24695259371E+02  0.35679620027E+02  0.00000000000E+00 0. -1.
</event>
<event>
 8    1  0.7489580E-009  0.9118800E+02  0.7816164E-02  0.1184000E+00
        -11   -1    0    0    0    0  0.00000000000E+00  0.00000000000E+00  0.45593999997E+02  0.45594000000E+02  0.51100000000E-03 0.  1.
         11   -1    0    0    0    0 -0.00000000000E+00 -0.00000000000E+00 -0.45593999997E+02  0.45594000000E+02  0.51100000000E-03 0. -1.
         23    2    1    2    0    0  0.00000000000E+00  0.35527136788E-14  0.00000000000E+00  0.91188000000E+02  0.91188000000E+02 0.  0.
    9900012    2    3    3    0    0  0.24654502746E+02  0.30878260518E+02  0.21628731504E+02  0.46142317580E+02  0.99999983455E+01 0.  0.
        -12    1    3    3    0    0 -0.24654502746E+02 -0.30878260518E+02 -0.21628731504E+02  0.45045682420E+02  0.00000000000E+00 0.  1.
         11    1    4    4    0    0  0.86636106216E+01  0.12849388244E+02  0.88798965809E+01  0.17861060741E+02  0.51100000000E-03 0. -1.
        -11    1    4    4    0    0  0.15020947137E+02  0.16519605473E+02  0.13754773710E+02  0.26224416446E+02  0.51100000000E-03 0.  1.
        -12    1    4    4    0    0  0.96994498736E+00  0.15092668009E+01 -0.10059387875E+01  0.20568403922E+01  0.00000000000E+00 0.  1.
</event>
<event>
 8    1  0.7489580E-009  0.9118800E+02  0.7816164E-02  0.1184000E+00
        -11   -1    0    0    0    0  0.00000000000E+00  0.00000000000E+00  0.45593999997E+02  0.45594000000E+02  0.51100000000E-03 0. -1.
         11   -1    0    0    0    0 -0.00000000000E+00 -0.00000000000E+00 -0.45593999997E+02  0.45594000000E+02  0.51100000000E-03 0.  1.
         23    2    1    2    0    0  0.88817841970E-15  0.00000000000E+00  0.71054273576E-14  0.91188000000E+02  0.91188000000E+02 0.  0.
    9900012    2    3    3    0    0 -0.72934137394E+01 -0.26395758669E+02 -0.35765675307E+02  0.46142317745E+02  0.99999998510E+01 0.  0.
         12    1    3    3    0    0  0.72934137394E+01  0.26395758669E+02  0.35765675307E+02  0.45045682255E+02  0.00000000000E+00 0. -1.
         11    1    4    4    0    0  0.30869520914E+00 -0.90063583240E+00 -0.18796190767E+00  0.97044710037E+00  0.51100000000E-03 0. -1.
        -11    1    4    4    0    0 -0.19904727691E+01 -0.57293622615E+01 -0.32880558563E+01  0.68991945431E+01  0.51100000000E-03 0.  1.
        -12    1    4    4    0    0 -0.56116361794E+01 -0.19765760575E+02 -0.32289657543E+02  0.38272676101E+02  0.00000000000E+00 0.  1.
</event>
<event>
 8    1  0.7489580E-009  0.9118800E+02  0.7816164E-02  0.1184000E+00
        -11   -1    0    0    0    0  0.00000000000E+00  0.00000000000E+00  0.45593999997E+02  0.45594000000E+02  0.51100000000E-03 0. -1.
         11   -1    0    0    0    0 -0.00000000000E+00 -0.00000000000E+00 -0.45593999997E+02  0.45594000000E+02  0.51100000000E-03 0.  1.
         23    2    1    2    0    0  0.00000000000E+00 -0.17763568394E-14  0.00000000000E+00  0.91188000000E+02  0.91188000000E+02 0.  0.
    9900012    2    3    3    0    0 -0.18338829977E+02  0.14484121423E+02  0.38509882644E+02  0.46142317415E+02  0.99999968402E+01 0.  0.
        -12    1    3    3    0    0  0.18338829977E+02 -0.14484121423E+02 -0.38509882644E+02  0.45045682585E+02  0.00000000000E+00 0.  1.
         11    1    4    4    0    0 -0.13862651734E+01  0.36771639935E+01  0.96580852218E+01  0.10426978305E+02  0.51100000000E-03 0. -1.
        -11    1    4    4    0    0 -0.79271362815E+01  0.86345633949E+01  0.14913763339E+02  0.18968803648E+02  0.51100000000E-03 0.  1.
         12    1    4    4    0    0 -0.90254285218E+01  0.21723940349E+01  0.13938034084E+02  0.16746535462E+02  0.00000000000E+00 0. -1.
</event>
<event>
 8    1  0.7489580E-009  0.9118800E+02  0.7816164E-02  0.1184000E+00
        -11   -1    0    0    0    0  0.00000000000E+00  0.00000000000E+00  0.45593999997E+02  0.45594000000E+02  0.51100000000E-03 0. -1.
         11   -1    0    0    0    0 -0.00000000000E+00 -0.00000000000E+00 -0.45593999997E+02  0.45594000000E+02  0.51100000000E-03 0.  1.
         23    2    1    2    0    0 -0.71054273576E-14  0.17763568394E-14 -0.35527136788E-14  0.91188000000E+02  0.91188000000E+02 0.  0.
    9900012    2    3    3    0    0  0.40083824644E+02 -0.87144046484E+01  0.18613427092E+02  0.46142317470E+02  0.99999973489E+01 0.  0.
        -12    1    3    3    0    0 -0.40083824644E+02  0.87144046484E+01 -0.18613427092E+02  0.45045682530E+02  0.00000000000E+00 0.  1.
         11    1    4    4    0    0  0.26040865402E+02 -0.23777526033E+01  0.11829337119E+02  0.28700411064E+02  0.51100000000E-03 0. -1.
        -11    1    4    4    0    0  0.35684729356E+01  0.12562459623E-01  0.28815557849E+01  0.45866677349E+01  0.51100000000E-03 0.  1.
        -12    1    4    4    0    0  0.10474486306E+02 -0.63492145046E+01  0.39025341890E+01  0.12855238671E+02  0.00000000000E+00 0.  1.
</event>
<event>
 8    1  0.7489580E-009  0.9118800E+02  0.7816164E-02  0.1184000E+00
        -11   -1    0    0    0    0  0.00000000000E+00  0.00000000000E+00  0.45593999997E+02  0.45594000000E+02  0.51100000000E-03 0. -1.
         11   -1    0    0    0    0 -0.00000000000E+00 -0.00000000000E+00 -0.45593999997E+02  0.45594000000E+02  0.51100000000E-03 0.  1.
         23    2    1    2    0    0  0.35527136788E-14  0.17763568394E-14 -0.71054273576E-14  0.91188000000E+02  0.91188000000E+02 0.  0.
    9900012    2    3    3    0    0  0.16612011034E+02  0.59373773140E+01 -0.41447583942E+02  0.46142316804E+02  0.99999912752E+01 0.  0.
         12    1    3    3    0    0 -0.16612011034E+02 -0.59373773140E+01  0.41447583942E+02  0.45045683196E+02  0.00000000000E+00 0. -1.
         11    1    4    4    0    0  0.78038450111E+01  0.10614564364E+01 -0.96336349805E+01  0.12443215417E+02  0.51100000000E-03 0. -1.
        -11    1    4    4    0    0  0.65934267063E+01  0.30442866505E+01 -0.15289698294E+02  0.16926778522E+02  0.51100000000E-03 0.  1.
        -12    1    4    4    0    0  0.22147393165E+01  0.18316342271E+01 -0.16524250667E+02  0.16772322865E+02  0.00000000000E+00 0.  1.
</event>
<event>
 8    1  0.7489580E-009  0.9118800E+02  0.7816164E-02  0.1184000E+00
        -11   -1    0    0    0    0  0.00000000000E+00  0.00000000000E+00  0.45593999997E+02  0.45594000000E+02  0.51100000000E-03 0. -1.
         11   -1    0    0    0    0 -0.00000000000E+00 -0.00000000000E+00 -0.45593999997E+02  0.45594000000E+02  0.51100000000E-03 0.  1.
         23    2    1    2    0    0 -0.17763568394E-14  0.00000000000E+00  0.00000000000E+00  0.91188000000E+02  0.91188000000E+02 0.  0.
    9900012    2    3    3    0    0 -0.15771482684E+02 -0.25651645428E+02  0.33501746681E+02  0.46142316413E+02  0.99999877052E+01 0.  0.
        -12    1    3    3    0    0  0.15771482684E+02  0.25651645428E+02 -0.33501746681E+02  0.45045683587E+02  0.00000000000E+00 0.  1.
         11    1    4    4    0    0 -0.62560636392E+01 -0.15339469898E+02  0.16383926205E+02  0.23299585987E+02  0.51100000000E-03 0. -1.
        -11    1    4    4    0    0 -0.38219237106E+01 -0.63714923954E+00  0.38373980277E+01  0.54533186123E+01  0.51100000000E-03 0.  1.
        -12    1    4    4    0    0 -0.56934953337E+01 -0.96750262906E+01  0.13280422448E+02  0.17389411814E+02  0.00000000000E+00 0.  1.
</event>
<event>
 8    1  0.7489580E-009  0.9118800E+02  0.7816164E-02  0.1184000E+00
        -11   -1    0    0    0    0  0.00000000000E+00  0.00000000000E+00  0.45593999997E+02  0.45594000000E+02  0.51100000000E-03 0.  1.
         11   -1    0    0    0    0 -0.00000000000E+00 -0.00000000000E+00 -0.45593999997E+02  0.45594000000E+02  0.51100000000E-03 0. -1.
         23    2    1    2    0    0  0.00000000000E+00  0.00000000000E+00  0.00000000000E+00  0.91188000000E+02  0.91188000000E+02 0.  0.
    9900012    2    3    3    0    0 -0.33381419776E+02 -0.27439252263E+02 -0.12723273718E+02  0.46142318242E+02  0.10000004381E+02 0.  0.
         12    1    3    3    0    0  0.33381419776E+02  0.27439252263E+02  0.12723273718E+02  0.45045681758E+02  0.00000000000E+00 0. -1.
         11    1    4    4    0    0 -0.31472179527E+00 -0.62497777859E-01  0.24748621479E+00  0.40522273910E+00  0.51100000000E-03 0. -1.
        -11    1    4    4    0    0 -0.32141791149E+02 -0.24294425283E+02 -0.13465933734E+02  0.42481115919E+02  0.51100000000E-03 0.  1.
        -12    1    4    4    0    0 -0.92490683114E+00 -0.30823292017E+01  0.49517380162E+00  0.32559795834E+01  0.00000000000E+00 0.  1.
</event>
<event>
 8    1  0.7489580E-009  0.9118800E+02  0.7816164E-02  0.1184000E+00
        -11   -1    0    0    0    0  0.00000000000E+00  0.00000000000E+00  0.45593999997E+02  0.45594000000E+02  0.51100000000E-03 0. -1.
         11   -1    0    0    0    0 -0.00000000000E+00 -0.00000000000E+00 -0.45593999997E+02  0.45594000000E+02  0.51100000000E-03 0.  1.
         23    2    1    2    0    0 -0.88817841970E-15  0.00000000000E+00  0.00000000000E+00  0.91188000000E+02  0.91188000000E+02 0.  0.
    9900012    2    3    3    0    0 -0.78380432454E+01  0.28392530600E+02  0.34081414173E+02  0.46142317545E+02  0.99999980268E+01 0.  0.
        -12    1    3    3    0    0  0.78380432454E+01 -0.28392530600E+02 -0.34081414173E+02  0.45045682455E+02  0.00000000000E+00 0.  1.
         11    1    4    4    0    0 -0.30009273615E+01  0.96197930514E+01  0.73541934301E+01  0.12475181147E+02  0.51100000000E-03 0. -1.
        -11    1    4    4    0    0 -0.13980476525E+01  0.71652062544E-01  0.12520469419E+01  0.18781089059E+01  0.51100000000E-03 0.  1.
         12    1    4    4    0    0 -0.34390682315E+01  0.18701085486E+02  0.25475173801E+02  0.31789027492E+02  0.00000000000E+00 0. -1.
</event>
<event>
 8    1  0.7489580E-009  0.9118800E+02  0.7816164E-02  0.1184000E+00
        -11   -1    0    0    0    0  0.00000000000E+00  0.00000000000E+00  0.45593999997E+02  0.45594000000E+02  0.51100000000E-03 0. -1.
         11   -1    0    0    0    0 -0.00000000000E+00 -0.00000000000E+00 -0.45593999997E+02  0.45594000000E+02  0.51100000000E-03 0.  1.
         23    2    1    2    0    0  0.00000000000E+00  0.35527136788E-14 -0.35527136788E-14  0.91188000000E+02  0.91188000000E+02 0.  0.
    9900012    2    3    3    0    0  0.21504191457E+02  0.31728762514E+02 -0.23663661812E+02  0.46142317507E+02  0.99999976807E+01 0.  0.
         12    1    3    3    0    0 -0.21504191457E+02 -0.31728762514E+02  0.23663661812E+02  0.45045682493E+02  0.00000000000E+00 0. -1.
         11    1    4    4    0    0 -0.34389579685E+00  0.23924060442E+01  0.25699464246E+00  0.24306208068E+01  0.51100000000E-03 0. -1.
        -11    1    4    4    0    0  0.61847363155E+01  0.77529639672E+01 -0.65203982994E+01  0.11869077800E+02  0.51100000000E-03 0.  1.
         12    1    4    4    0    0  0.15663350939E+02  0.21583392503E+02 -0.17400258155E+02  0.31842618900E+02  0.00000000000E+00 0. -1.
</event>
<event>
 8    1  0.7489580E-009  0.9118800E+02  0.7816164E-02  0.1184000E+00
        -11   -1    0    0    0    0  0.00000000000E+00  0.00000000000E+00  0.45593999997E+02  0.45594000000E+02  0.51100000000E-03 0. -1.
         11   -1    0    0    0    0 -0.00000000000E+00 -0.00000000000E+00 -0.45593999997E+02  0.45594000000E+02  0.51100000000E-03 0.  1.
         23    2    1    2    0    0  0.00000000000E+00  0.00000000000E+00  0.00000000000E+00  0.91188000000E+02  0.91188000000E+02 0.  0.
    9900012    2    3    3    0    0  0.10011114683E+02 -0.14533490718E+02  0.41444767683E+02  0.46142317211E+02  0.99999949842E+01 0.  0.
        -12    1    3    3    0    0 -0.10011114683E+02  0.14533490718E+02 -0.41444767683E+02  0.45045682789E+02  0.00000000000E+00 0.  1.
         11    1    4    4    0    0  0.52001024554E+01 -0.22398009786E+01  0.17712563762E+02  0.18595501855E+02  0.51100000000E-03 0. -1.
        -11    1    4    4    0    0  0.32630929419E+01 -0.40670133833E+01  0.60754720669E+01  0.80062309799E+01  0.51100000000E-03 0.  1.
         12    1    4    4    0    0  0.15479192852E+01 -0.82266763561E+01  0.17656731854E+02  0.19540584376E+02  0.00000000000E+00 0. -1.
</event>
<event>
 8    1  0.7489580E-009  0.9118800E+02  0.7816164E-02  0.1184000E+00
        -11   -1    0    0    0    0  0.00000000000E+00  0.00000000000E+00  0.45593999997E+02  0.45594000000E+02  0.51100000000E-03 0. -1.
         11   -1    0    0    0    0 -0.00000000000E+00 -0.00000000000E+00 -0.45593999997E+02  0.45594000000E+02  0.51100000000E-03 0.  1.
         23    2    1    2    0    0  0.88817841970E-15 -0.88817841970E-15  0.00000000000E+00  0.91188000000E+02  0.91188000000E+02 0.  0.
    9900012    2    3    3    0    0 -0.54158937509E+01 -0.40406405008E+01  0.44535994842E+02  0.46142317440E+02  0.99999970682E+01 0.  0.
        -12    1    3    3    0    0  0.54158937509E+01  0.40406405008E+01 -0.44535994842E+02  0.45045682560E+02  0.00000000000E+00 0.  1.
         11    1    4    4    0    0 -0.17933157968E+01 -0.29359881732E+01  0.13943081674E+02  0.14361251162E+02  0.51100000000E-03 0. -1.
        -11    1    4    4    0    0  0.76433771910E+00 -0.27277684107E+01  0.48505685810E+01  0.56172011244E+01  0.51100000000E-03 0.  1.
        -12    1    4    4    0    0 -0.43869156733E+01  0.16231160831E+01  0.25742344587E+02  0.26163865153E+02  0.00000000000E+00 0.  1.
</event>
<event>
 8    1  0.7489580E-009  0.9118800E+02  0.7816164E-02  0.1184000E+00
        -11   -1    0    0    0    0  0.00000000000E+00  0.00000000000E+00  0.45593999997E+02  0.45594000000E+02  0.51100000000E-03 0. -1.
         11   -1    0    0    0    0 -0.00000000000E+00 -0.00000000000E+00 -0.45593999997E+02  0.45594000000E+02  0.51100000000E-03 0.  1.
         23    2    1    2    0    0  0.00000000000E+00  0.00000000000E+00  0.00000000000E+00  0.91188000000E+02  0.91188000000E+02 0.  0.
    9900012    2    3    3    0    0 -0.27714476488E+02  0.24245742764E+02 -0.25945428120E+02  0.46142317749E+02  0.99999998853E+01 0.  0.
         12    1    3    3    0    0  0.27714476488E+02 -0.24245742764E+02  0.25945428120E+02  0.45045682251E+02  0.00000000000E+00 0. -1.
         11    1    4    4    0    0 -0.15117717283E+02  0.99829302853E+01 -0.10883196563E+02  0.21134054051E+02  0.51100000000E-03 0. -1.
        -11    1    4    4    0    0 -0.10186610137E+02  0.12859009850E+02 -0.99552685827E+01  0.19189281728E+02  0.51100000000E-03 0.  1.
        -12    1    4    4    0    0 -0.24101490676E+01  0.14038026287E+01 -0.51069629738E+01  0.58189819697E+01  0.00000000000E+00 0.  1.
</event>
<event>
 8    1  0.7489580E-009  0.9118800E+02  0.7816164E-02  0.1184000E+00
        -11   -1    0    0    0    0  0.00000000000E+00  0.00000000000E+00  0.45593999997E+02  0.45594000000E+02  0.51100000000E-03 0. -1.
         11   -1    0    0    0    0 -0.00000000000E+00 -0.00000000000E+00 -0.45593999997E+02  0.45594000000E+02  0.51100000000E-03 0.  1.
         23    2    1    2    0    0  0.00000000000E+00  0.00000000000E+00 -0.35527136788E-14  0.91188000000E+02  0.91188000000E+02 0.  0.
    9900012    2    3    3    0    0 -0.35789253436E+02 -0.15742396915E+02  0.22370064279E+02  0.46142317655E+02  0.99999990281E+01 0.  0.
        -12    1    3    3    0    0  0.35789253436E+02  0.15742396915E+02 -0.22370064279E+02  0.45045682345E+02  0.00000000000E+00 0.  1.
         11    1    4    4    0    0 -0.31075400911E+01  0.59393709611E+00  0.15743871475E+01  0.35338734900E+01  0.51100000000E-03 0. -1.
        -11    1    4    4    0    0 -0.77632761581E+01 -0.36378437168E+01  0.84487893279E+01  0.12036793800E+02  0.51100000000E-03 0.  1.
         12    1    4    4    0    0 -0.24918437187E+02 -0.12698490294E+02  0.12346887803E+02  0.30571650365E+02  0.00000000000E+00 0. -1.
</event>
<event>
 8    1  0.7489580E-009  0.9118800E+02  0.7816164E-02  0.1184000E+00
        -11   -1    0    0    0    0  0.00000000000E+00  0.00000000000E+00  0.45593999997E+02  0.45594000000E+02  0.51100000000E-03 0.  1.
         11   -1    0    0    0    0 -0.00000000000E+00 -0.00000000000E+00 -0.45593999997E+02  0.45594000000E+02  0.51100000000E-03 0. -1.
         23    2    1    2    0    0  0.00000000000E+00  0.00000000000E+00 -0.17763568394E-14  0.91188000000E+02  0.91188000000E+02 0.  0.
    9900012    2    3    3    0    0 -0.16660148746E+02  0.39807556549E+02 -0.12919413492E+02  0.46142319190E+02  0.10000013032E+02 0.  0.
         12    1    3    3    0    0  0.16660148746E+02 -0.39807556549E+02  0.12919413492E+02  0.45045680810E+02  0.00000000000E+00 0. -1.
         11    1    4    4    0    0 -0.35461642833E+01  0.44530334675E+01 -0.36679973008E+00  0.57043255947E+01  0.51100000000E-03 0. -1.
        -11    1    4    4    0    0 -0.11794072039E+02  0.26827951903E+02 -0.12365234021E+02  0.31807831602E+02  0.51100000000E-03 0.  1.
        -12    1    4    4    0    0 -0.13199124240E+01  0.85265711783E+01 -0.18737974081E+00  0.86301619935E+01  0.00000000000E+00 0.  1.
</event>
<event>
 8    1  0.7964335E-009  0.9118800E+02  0.7816164E-02  0.1184000E+00
        -11   -1    0    0    0    0  0.00000000000E+00  0.00000000000E+00  0.45593999997E+02  0.45594000000E+02  0.51100000000E-03 0. -1.
         11   -1    0    0    0    0 -0.00000000000E+00 -0.00000000000E+00 -0.45593999997E+02  0.45594000000E+02  0.51100000000E-03 0.  1.
         23    2    1    2    0    0 -0.33306690739E-15  0.71054273576E-14  0.71054273576E-14  0.91188000000E+02  0.91188000000E+02 0.  0.
    9900012    2    3    3    0    0  0.72845427083E+00 -0.28106940052E+02 -0.35193501985E+02  0.46142319778E+02  0.10000018388E+02 0.  0.
         12    1    3    3    0    0 -0.72845427083E+00  0.28106940052E+02  0.35193501985E+02  0.45045680222E+02  0.00000000000E+00 0. -1.
         11    1    4    4    0    0 -0.25272891399E+01 -0.54783464485E+01 -0.61114027564E+01  0.85877071514E+01  0.51100000000E-03 0. -1.
        -11    1    4    4    0    0 -0.14073158795E+01 -0.12772292709E+02 -0.15258064271E+02  0.19947945372E+02  0.51100000000E-03 0.  1.
         12    1    4    4    0    0  0.46630592902E+01 -0.98563008949E+01 -0.13824034958E+02  0.17606667254E+02  0.00000000000E+00 0. -1.
</event>
<event>
 8    1  0.7489580E-009  0.9118800E+02  0.7816164E-02  0.1184000E+00
        -11   -1    0    0    0    0  0.00000000000E+00  0.00000000000E+00  0.45593999997E+02  0.45594000000E+02  0.51100000000E-03 0. -1.
         11   -1    0    0    0    0 -0.00000000000E+00 -0.00000000000E+00 -0.45593999997E+02  0.45594000000E+02  0.51100000000E-03 0.  1.
         23    2    1    2    0    0 -0.71054273576E-14 -0.17763568394E-14  0.00000000000E+00  0.91188000000E+02  0.91188000000E+02 0.  0.
    9900012    2    3    3    0    0  0.39381172871E+02  0.11267593986E+02  0.18742412399E+02  0.46142317927E+02  0.10000001509E+02 0.  0.
        -12    1    3    3    0    0 -0.39381172871E+02 -0.11267593986E+02 -0.18742412399E+02  0.45045682073E+02  0.00000000000E+00 0.  1.
         11    1    4    4    0    0  0.23641932277E+02  0.47414209925E+01  0.10159348880E+02  0.26165519386E+02  0.51100000000E-03 0. -1.
        -11    1    4    4    0    0  0.11633490446E+02  0.18010449014E+01  0.58701763039E+01  0.13154498576E+02  0.51100000000E-03 0.  1.
        -12    1    4    4    0    0  0.41057501488E+01  0.47251280918E+01  0.27128872150E+01  0.68222999648E+01  0.00000000000E+00 0.  1.
</event>
<event>
 8    1  0.7489580E-009  0.9118800E+02  0.7816164E-02  0.1184000E+00
        -11   -1    0    0    0    0  0.00000000000E+00  0.00000000000E+00  0.45593999997E+02  0.45594000000E+02  0.51100000000E-03 0. -1.
         11   -1    0    0    0    0 -0.00000000000E+00 -0.00000000000E+00 -0.45593999997E+02  0.45594000000E+02  0.51100000000E-03 0.  1.
         23    2    1    2    0    0  0.00000000000E+00 -0.22204460493E-15  0.00000000000E+00  0.91188000000E+02  0.91188000000E+02 0.  0.
    9900012    2    3    3    0    0  0.22512121506E+02 -0.16287665244E+01  0.38982880832E+02  0.46142317709E+02  0.99999995215E+01 0.  0.
        -12    1    3    3    0    0 -0.22512121506E+02  0.16287665244E+01 -0.38982880832E+02  0.45045682291E+02  0.00000000000E+00 0.  1.
         11    1    4    4    0    0  0.51045959417E+01  0.11079698761E+00  0.11104736494E+02  0.12222289007E+02  0.51100000000E-03 0. -1.
        -11    1    4    4    0    0  0.67597390508E+01 -0.38107748008E+01  0.16308738326E+02  0.18060759194E+02  0.51100000000E-03 0.  1.
         12    1    4    4    0    0  0.10647786514E+02  0.20712112888E+01  0.11569406012E+02  0.15859269507E+02  0.00000000000E+00 0. -1.
</event>
<event>
 8    1  0.7489580E-009  0.9118800E+02  0.7816164E-02  0.1184000E+00
        -11   -1    0    0    0    0  0.00000000000E+00  0.00000000000E+00  0.45593999997E+02  0.45594000000E+02  0.51100000000E-03 0. -1.
         11   -1    0    0    0    0 -0.00000000000E+00 -0.00000000000E+00 -0.45593999997E+02  0.45594000000E+02  0.51100000000E-03 0.  1.
         23    2    1    2    0    0 -0.35527136788E-14  0.00000000000E+00  0.35527136788E-14  0.91188000000E+02  0.91188000000E+02 0.  0.
    9900012    2    3    3    0    0  0.23181033279E+02 -0.30480563211E+02 -0.23721055040E+02  0.46142317746E+02  0.99999998591E+01 0.  0.
         12    1    3    3    0    0 -0.23181033279E+02  0.30480563211E+02  0.23721055040E+02  0.45045682254E+02  0.00000000000E+00 0. -1.
         11    1    4    4    0    0  0.12776513924E+02 -0.15936794953E+02 -0.15224779283E+02  0.25475765855E+02  0.51100000000E-03 0. -1.
        -11    1    4    4    0    0  0.11127212388E+02 -0.12960717897E+02 -0.79598669092E+01  0.18845544445E+02  0.51100000000E-03 0.  1.
         12    1    4    4    0    0 -0.72269303347E+00 -0.15830503610E+01 -0.53640884795E+00  0.18210074459E+01  0.00000000000E+00 0. -1.
</event>
<event>
 8    1  0.7489580E-009  0.9118800E+02  0.7816164E-02  0.1184000E+00
        -11   -1    0    0    0    0  0.00000000000E+00  0.00000000000E+00  0.45593999997E+02  0.45594000000E+02  0.51100000000E-03 0. -1.
         11   -1    0    0    0    0 -0.00000000000E+00 -0.00000000000E+00 -0.45593999997E+02  0.45594000000E+02  0.51100000000E-03 0.  1.
         23    2    1    2    0    0 -0.35527136788E-14  0.22204460493E-15 -0.71054273576E-14  0.91188000000E+02  0.91188000000E+02 0.  0.
    9900012    2    3    3    0    0  0.23881498201E+02  0.15116823655E+01  0.38164149087E+02  0.46142318571E+02  0.10000007381E+02 0.  0.
        -12    1    3    3    0    0 -0.23881498201E+02 -0.15116823655E+01 -0.38164149087E+02  0.45045681429E+02  0.00000000000E+00 0.  1.
         11    1    4    4    0    0  0.73766619347E+01  0.17469873664E+01  0.17901684189E+02  0.19440612213E+02  0.51100000000E-03 0. -1.
        -11    1    4    4    0    0  0.40918775809E+01 -0.42575149096E+00  0.91822239600E+01  0.10061707787E+02  0.51100000000E-03 0.  1.
        -12    1    4    4    0    0  0.12412958685E+02  0.19044649007E+00  0.11080240938E+02  0.16639998571E+02  0.00000000000E+00 0.  1.
</event>
<event>
 8    1  0.7489580E-009  0.9118800E+02  0.7816164E-02  0.1184000E+00
        -11   -1    0    0    0    0  0.00000000000E+00  0.00000000000E+00  0.45593999997E+02  0.45594000000E+02  0.51100000000E-03 0. -1.
         11   -1    0    0    0    0 -0.00000000000E+00 -0.00000000000E+00 -0.45593999997E+02  0.45594000000E+02  0.51100000000E-03 0.  1.
         23    2    1    2    0    0  0.00000000000E+00  0.00000000000E+00  0.00000000000E+00  0.91188000000E+02  0.91188000000E+02 0.  0.
    9900012    2    3    3    0    0 -0.18052294272E+02  0.32944475488E+02 -0.24857387646E+02  0.46142317474E+02  0.99999973797E+01 0.  0.
         12    1    3    3    0    0  0.18052294272E+02 -0.32944475488E+02  0.24857387646E+02  0.45045682526E+02  0.00000000000E+00 0. -1.
         11    1    4    4    0    0 -0.13253188807E+02  0.15893749531E+02 -0.10640632360E+02  0.23269751718E+02  0.51100000000E-03 0. -1.
        -11    1    4    4    0    0 -0.29602221625E+01  0.79263250150E+01 -0.53069262143E+01  0.99876428451E+01  0.51100000000E-03 0.  1.
         12    1    4    4    0    0 -0.18388833034E+01  0.91244009412E+01 -0.89098290715E+01  0.12884922911E+02  0.00000000000E+00 0. -1.
</event>
<event>
 8    1  0.7489580E-009  0.9118800E+02  0.7816164E-02  0.1184000E+00
        -11   -1    0    0    0    0  0.00000000000E+00  0.00000000000E+00  0.45593999997E+02  0.45594000000E+02  0.51100000000E-03 0.  1.
         11   -1    0    0    0    0 -0.00000000000E+00 -0.00000000000E+00 -0.45593999997E+02  0.45594000000E+02  0.51100000000E-03 0. -1.
         23    2    1    2    0    0  0.00000000000E+00 -0.35527136788E-14 -0.11102230246E-15  0.91188000000E+02  0.91188000000E+02 0.  0.
    9900012    2    3    3    0    0 -0.36610351129E+02  0.26229291472E+02  0.90551790596E+00  0.46142317592E+02  0.99999984610E+01 0.  0.
        -12    1    3    3    0    0  0.36610351129E+02 -0.26229291472E+02 -0.90551790596E+00  0.45045682408E+02  0.00000000000E+00 0.  1.
         11    1    4    4    0    0 -0.46702148424E+01  0.40180757812E+01  0.11966256937E+01  0.62759662977E+01  0.51100000000E-03 0. -1.
        -11    1    4    4    0    0 -0.88828650370E+01  0.23644258525E+01  0.18200660798E+01  0.93706158642E+01  0.51100000000E-03 0.  1.
         12    1    4    4    0    0 -0.23057271250E+02  0.19846789838E+02 -0.21111738676E+01  0.30495735431E+02  0.00000000000E+00 0. -1.
</event>
<event>
 8    1  0.8736750E-009  0.9118800E+02  0.7816164E-02  0.1184000E+00
        -11   -1    0    0    0    0  0.00000000000E+00  0.00000000000E+00  0.45593999997E+02  0.45594000000E+02  0.51100000000E-03 0. -1.
         11   -1    0    0    0    0 -0.00000000000E+00 -0.00000000000E+00 -0.45593999997E+02  0.45594000000E+02  0.51100000000E-03 0.  1.
         23    2    1    2    0    0 -0.44408920985E-15  0.00000000000E+00 -0.71054273576E-14  0.91188000000E+02  0.91188000000E+02 0.  0.
    9900012    2    3    3    0    0 -0.30284699363E+01 -0.23935991485E+02 -0.38039586531E+02  0.46142318054E+02  0.10000002674E+02 0.  0.
         12    1    3    3    0    0  0.30284699363E+01  0.23935991485E+02  0.38039586531E+02  0.45045681946E+02  0.00000000000E+00 0. -1.
         11    1    4    4    0    0  0.26160313224E+01 -0.10470827842E+02 -0.13166432970E+02  0.17024594356E+02  0.51100000000E-03 0. -1.
        -11    1    4    4    0    0 -0.27445416392E+01 -0.10423733633E+02 -0.19666630080E+02  0.22426838178E+02  0.51100000000E-03 0.  1.
         12    1    4    4    0    0 -0.28999596195E+01 -0.30414300102E+01 -0.52065234797E+01  0.66908855204E+01  0.00000000000E+00 0. -1.
</event>
<event>
 8    1  0.7489580E-009  0.9118800E+02  0.7816164E-02  0.1184000E+00
        -11   -1    0    0    0    0  0.00000000000E+00  0.00000000000E+00  0.45593999997E+02  0.45594000000E+02  0.51100000000E-03 0. -1.
         11   -1    0    0    0    0 -0.00000000000E+00 -0.00000000000E+00 -0.45593999997E+02  0.45594000000E+02  0.51100000000E-03 0.  1.
         23    2    1    2    0    0  0.00000000000E+00  0.00000000000E+00  0.00000000000E+00  0.91188000000E+02  0.91188000000E+02 0.  0.
    9900012    2    3    3    0    0 -0.23150212851E+02 -0.15449116156E+02  0.35419005761E+02  0.46142317475E+02  0.99999973879E+01 0.  0.
        -12    1    3    3    0    0  0.23150212851E+02  0.15449116156E+02 -0.35419005761E+02  0.45045682525E+02  0.00000000000E+00 0.  1.
         11    1    4    4    0    0 -0.16750918800E+02 -0.10087840812E+02  0.21916577126E+02  0.29371655827E+02  0.51100000000E-03 0. -1.
        -11    1    4    4    0    0 -0.71319209114E+01 -0.35604279806E+01  0.11358749465E+02  0.13876675861E+02  0.51100000000E-03 0.  1.
         12    1    4    4    0    0  0.73262685999E+00 -0.18008473631E+01  0.21436791710E+01  0.28939857860E+01  0.00000000000E+00 0. -1.
</event>
<event>
 8    1  0.7489580E-009  0.9118800E+02  0.7816164E-02  0.1184000E+00
        -11   -1    0    0    0    0  0.00000000000E+00  0.00000000000E+00  0.45593999997E+02  0.45594000000E+02  0.51100000000E-03 0. -1.
         11   -1    0    0    0    0 -0.00000000000E+00 -0.00000000000E+00 -0.45593999997E+02  0.45594000000E+02  0.51100000000E-03 0.  1.
         23    2    1    2    0    0  0.35527136788E-14  0.00000000000E+00  0.00000000000E+00  0.91188000000E+02  0.91188000000E+02 0.  0.
    9900012    2    3    3    0    0 -0.25333963430E+02 -0.35283452782E+02 -0.11932383640E+02  0.46142317381E+02  0.99999965294E+01 0.  0.
         12    1    3    3    0    0  0.25333963430E+02  0.35283452782E+02  0.11932383640E+02  0.45045682619E+02  0.00000000000E+00 0. -1.
         11    1    4    4    0    0 -0.47228691956E+01 -0.84195626018E+01 -0.35510481847E+01  0.10286130046E+02  0.51100000000E-03 0. -1.
        -11    1    4    4    0    0 -0.18473391316E+01 -0.78189527701E+01 -0.84353980988E+00  0.80783812710E+01  0.51100000000E-03 0.  1.
        -12    1    4    4    0    0 -0.18763755103E+02 -0.19044937411E+02 -0.75377956455E+01  0.27777806064E+02  0.00000000000E+00 0.  1.
</event>
<event>
 8    1  0.7489580E-009  0.9118800E+02  0.7816164E-02  0.1184000E+00
        -11   -1    0    0    0    0  0.00000000000E+00  0.00000000000E+00  0.45593999997E+02  0.45594000000E+02  0.51100000000E-03 0. -1.
         11   -1    0    0    0    0 -0.00000000000E+00 -0.00000000000E+00 -0.45593999997E+02  0.45594000000E+02  0.51100000000E-03 0.  1.
         23    2    1    2    0    0 -0.71054273576E-14  0.44408920985E-15 -0.35527136788E-14  0.91188000000E+02  0.91188000000E+02 0.  0.
    9900012    2    3    3    0    0  0.38425029966E+02 -0.16509084439E+01  0.23450057005E+02  0.46142316521E+02  0.99999886883E+01 0.  0.
        -12    1    3    3    0    0 -0.38425029966E+02  0.16509084439E+01 -0.23450057005E+02  0.45045683479E+02  0.00000000000E+00 0.  1.
         11    1    4    4    0    0  0.11530569973E+02  0.38104453686E+00  0.62891581583E+01  0.13139739321E+02  0.51100000000E-03 0. -1.
        -11    1    4    4    0    0  0.70627823971E+01  0.24689590627E+01  0.23414356461E+01  0.78397050447E+01  0.51100000000E-03 0.  1.
         12    1    4    4    0    0  0.19831677596E+02 -0.45009120435E+01  0.14819463201E+02  0.25162872155E+02  0.00000000000E+00 0. -1.
</event>
<event>
 8    1  0.7489580E-009  0.9118800E+02  0.7816164E-02  0.1184000E+00
        -11   -1    0    0    0    0  0.00000000000E+00  0.00000000000E+00  0.45593999997E+02  0.45594000000E+02  0.51100000000E-03 0. -1.
         11   -1    0    0    0    0 -0.00000000000E+00 -0.00000000000E+00 -0.45593999997E+02  0.45594000000E+02  0.51100000000E-03 0.  1.
         23    2    1    2    0    0 -0.17763568394E-14  0.00000000000E+00  0.00000000000E+00  0.91188000000E+02  0.91188000000E+02 0.  0.
    9900012    2    3    3    0    0  0.60477494899E+01  0.28515294253E+02  0.34342646507E+02  0.46142304874E+02  0.99998824852E+01 0.  0.
        -12    1    3    3    0    0 -0.60477494899E+01 -0.28515294253E+02 -0.34342646507E+02  0.45045695126E+02  0.00000000000E+00 0.  1.
         11    1    4    4    0    0  0.30434358640E+01  0.49358071685E+01  0.77264443861E+01  0.96603642465E+01  0.51100000000E-03 0. -1.
        -11    1    4    4    0    0 -0.17671092607E+01  0.15216799168E+02  0.16616169455E+02  0.22600237603E+02  0.51100000000E-03 0.  1.
        -12    1    4    4    0    0  0.47714228866E+01  0.83626879165E+01  0.10000032666E+02  0.13881703025E+02  0.00000000000E+00 0.  1.
</event>
<event>
 8    1  0.7489580E-009  0.9118800E+02  0.7816164E-02  0.1184000E+00
        -11   -1    0    0    0    0  0.00000000000E+00  0.00000000000E+00  0.45593999997E+02  0.45594000000E+02  0.51100000000E-03 0. -1.
         11   -1    0    0    0    0 -0.00000000000E+00 -0.00000000000E+00 -0.45593999997E+02  0.45594000000E+02  0.51100000000E-03 0.  1.
         23    2    1    2    0    0  0.17763568394E-14  0.00000000000E+00  0.00000000000E+00  0.91188000000E+02  0.91188000000E+02 0.  0.
    9900012    2    3    3    0    0  0.13658850057E+02  0.28841265215E+02  0.31791991031E+02  0.46142318100E+02  0.10000003092E+02 0.  0.
        -12    1    3    3    0    0 -0.13658850057E+02 -0.28841265215E+02 -0.31791991031E+02  0.45045681900E+02  0.00000000000E+00 0.  1.
         11    1    4    4    0    0  0.10233888398E+02  0.26834248898E+02  0.27814567332E+02  0.39980739636E+02  0.51100000000E-03 0. -1.
        -11    1    4    4    0    0 -0.34878100780E+00  0.33852709367E+00  0.93385573048E-01  0.49494435134E+00  0.51100000000E-03 0.  1.
        -12    1    4    4    0    0  0.37737426676E+01  0.16684892230E+01  0.38840381258E+01  0.56666341131E+01  0.00000000000E+00 0.  1.
</event>
<event>
 8    1  0.7489580E-009  0.9118800E+02  0.7816164E-02  0.1184000E+00
        -11   -1    0    0    0    0  0.00000000000E+00  0.00000000000E+00  0.45593999997E+02  0.45594000000E+02  0.51100000000E-03 0. -1.
         11   -1    0    0    0    0 -0.00000000000E+00 -0.00000000000E+00 -0.45593999997E+02  0.45594000000E+02  0.51100000000E-03 0.  1.
         23    2    1    2    0    0 -0.17763568394E-14  0.00000000000E+00  0.35527136788E-14  0.91188000000E+02  0.91188000000E+02 0.  0.
    9900012    2    3    3    0    0  0.13632965265E+02 -0.34977904574E+02  0.24895822621E+02  0.46142317251E+02  0.99999953521E+01 0.  0.
        -12    1    3    3    0    0 -0.13632965265E+02  0.34977904574E+02 -0.24895822621E+02  0.45045682749E+02  0.00000000000E+00 0.  1.
         11    1    4    4    0    0  0.39869917640E+01 -0.10647537129E+02  0.98736412518E+01  0.15058384444E+02  0.51100000000E-03 0. -1.
        -11    1    4    4    0    0  0.25823515947E+01 -0.15166927377E+02  0.64409025590E+01  0.16679012317E+02  0.51100000000E-03 0.  1.
        -12    1    4    4    0    0  0.70636219068E+01 -0.91634400671E+01  0.85812788106E+01  0.14404920490E+02  0.00000000000E+00 0.  1.
</event>
<event>
 8    1  0.7489580E-009  0.9118800E+02  0.7816164E-02  0.1184000E+00
        -11   -1    0    0    0    0  0.00000000000E+00  0.00000000000E+00  0.45593999997E+02  0.45594000000E+02  0.51100000000E-03 0. -1.
         11   -1    0    0    0    0 -0.00000000000E+00 -0.00000000000E+00 -0.45593999997E+02  0.45594000000E+02  0.51100000000E-03 0.  1.
         23    2    1    2    0    0 -0.71054273576E-14  0.00000000000E+00  0.00000000000E+00  0.91188000000E+02  0.91188000000E+02 0.  0.
    9900012    2    3    3    0    0 -0.34091116763E+02  0.12796795404E+02  0.26517000779E+02  0.46142317132E+02  0.99999942609E+01 0.  0.
        -12    1    3    3    0    0  0.34091116763E+02 -0.12796795404E+02 -0.26517000779E+02  0.45045682868E+02  0.00000000000E+00 0.  1.
         11    1    4    4    0    0 -0.22025168426E+02  0.10245986178E+02  0.17597403712E+02  0.29995947970E+02  0.51100000000E-03 0. -1.
        -11    1    4    4    0    0 -0.65963381411E+01  0.37634791388E+01  0.66752882982E+01  0.10111128830E+02  0.51100000000E-03 0.  1.
        -12    1    4    4    0    0 -0.54696101956E+01 -0.12126699120E+01  0.22443087684E+01  0.60352403312E+01  0.00000000000E+00 0.  1.
</event>
<event>
 8    1  0.7489580E-009  0.9118800E+02  0.7816164E-02  0.1184000E+00
        -11   -1    0    0    0    0  0.00000000000E+00  0.00000000000E+00  0.45593999997E+02  0.45594000000E+02  0.51100000000E-03 0. -1.
         11   -1    0    0    0    0 -0.00000000000E+00 -0.00000000000E+00 -0.45593999997E+02  0.45594000000E+02  0.51100000000E-03 0.  1.
         23    2    1    2    0    0 -0.44408920985E-15  0.00000000000E+00  0.00000000000E+00  0.91188000000E+02  0.91188000000E+02 0.  0.
    9900012    2    3    3    0    0 -0.34395474651E+01 -0.22087356325E+02 -0.39107950513E+02  0.46142316638E+02  0.99999897607E+01 0.  0.
         12    1    3    3    0    0  0.34395474651E+01  0.22087356325E+02  0.39107950513E+02  0.45045683362E+02  0.00000000000E+00 0. -1.
         11    1    4    4    0    0  0.46310304926E+00  0.40305955572E+00 -0.22236634302E+00  0.65296898190E+00  0.51100000000E-03 0. -1.
        -11    1    4    4    0    0 -0.10828792490E+01 -0.88885339821E+01 -0.99104323638E+01  0.13356471604E+02  0.51100000000E-03 0.  1.
        -12    1    4    4    0    0 -0.28197712653E+01 -0.13601881898E+02 -0.28975151806E+02  0.32132876052E+02  0.00000000000E+00 0.  1.
</event>
<event>
 8    1  0.7489580E-009  0.9118800E+02  0.7816164E-02  0.1184000E+00
        -11   -1    0    0    0    0  0.00000000000E+00  0.00000000000E+00  0.45593999997E+02  0.45594000000E+02  0.51100000000E-03 0. -1.
         11   -1    0    0    0    0 -0.00000000000E+00 -0.00000000000E+00 -0.45593999997E+02  0.45594000000E+02  0.51100000000E-03 0.  1.
         23    2    1    2    0    0 -0.22204460493E-15  0.00000000000E+00  0.00000000000E+00  0.91188000000E+02  0.91188000000E+02 0.  0.
    9900012    2    3    3    0    0  0.17458064483E+01 -0.34188750342E+02  0.29277893158E+02  0.46142317434E+02  0.99999970132E+01 0.  0.
        -12    1    3    3    0    0 -0.17458064483E+01  0.34188750342E+02 -0.29277893158E+02  0.45045682566E+02  0.00000000000E+00 0.  1.
         11    1    4    4    0    0  0.15275860108E+01 -0.10765972700E+02  0.85037865779E+01  0.13804132484E+02  0.51100000000E-03 0. -1.
        -11    1    4    4    0    0  0.20541584493E+01 -0.13570704681E+01  0.33775178810E+01  0.41795734816E+01  0.51100000000E-03 0.  1.
         12    1    4    4    0    0 -0.18359380119E+01 -0.22065707174E+02  0.17396588699E+02  0.28158611468E+02  0.00000000000E+00 0. -1.
</event>
<event>
 8    1  0.7489580E-009  0.9118800E+02  0.7816164E-02  0.1184000E+00
        -11   -1    0    0    0    0  0.00000000000E+00  0.00000000000E+00  0.45593999997E+02  0.45594000000E+02  0.51100000000E-03 0. -1.
         11   -1    0    0    0    0 -0.00000000000E+00 -0.00000000000E+00 -0.45593999997E+02  0.45594000000E+02  0.51100000000E-03 0.  1.
         23    2    1    2    0    0  0.00000000000E+00  0.00000000000E+00  0.00000000000E+00  0.91188000000E+02  0.91188000000E+02 0.  0.
    9900012    2    3    3    0    0 -0.14210720297E+02  0.15461460101E+02  0.39851124592E+02  0.46142318175E+02  0.10000003777E+02 0.  0.
        -12    1    3    3    0    0  0.14210720297E+02 -0.15461460101E+02 -0.39851124592E+02  0.45045681825E+02  0.00000000000E+00 0.  1.
         11    1    4    4    0    0 -0.37090705484E+01  0.40230101564E+01  0.19069551917E+02  0.19839093367E+02  0.51100000000E-03 0. -1.
        -11    1    4    4    0    0 -0.61857469647E+00  0.23146181117E+01  0.16205459517E+01  0.28924489799E+01  0.51100000000E-03 0.  1.
        -12    1    4    4    0    0 -0.98830750520E+01  0.91238318333E+01  0.19161026723E+02  0.23410775829E+02  0.00000000000E+00 0.  1.
</event>
<event>
 8    1  0.7489580E-009  0.9118800E+02  0.7816164E-02  0.1184000E+00
        -11   -1    0    0    0    0  0.00000000000E+00  0.00000000000E+00  0.45593999997E+02  0.45594000000E+02  0.51100000000E-03 0. -1.
         11   -1    0    0    0    0 -0.00000000000E+00 -0.00000000000E+00 -0.45593999997E+02  0.45594000000E+02  0.51100000000E-03 0.  1.
         23    2    1    2    0    0  0.00000000000E+00  0.00000000000E+00  0.17763568394E-14  0.91188000000E+02  0.91188000000E+02 0.  0.
    9900012    2    3    3    0    0 -0.17877427673E+02 -0.38652865806E+02 -0.14678795420E+02  0.46142317741E+02  0.99999998194E+01 0.  0.
         12    1    3    3    0    0  0.17877427673E+02  0.38652865806E+02  0.14678795420E+02  0.45045682259E+02  0.00000000000E+00 0. -1.
         11    1    4    4    0    0 -0.15105062482E+01 -0.44195860305E+00 -0.16456738390E+00  0.15824156273E+01  0.51100000000E-03 0. -1.
        -11    1    4    4    0    0 -0.87000300203E+01 -0.18410668534E+02 -0.35729549555E+01  0.20673878340E+02  0.51100000000E-03 0.  1.
         12    1    4    4    0    0 -0.76668914042E+01 -0.19800238668E+02 -0.10941273080E+02  0.23886023774E+02  0.00000000000E+00 0. -1.
</event>
<event>
 8    1  0.7489580E-009  0.9118800E+02  0.7816164E-02  0.1184000E+00
        -11   -1    0    0    0    0  0.00000000000E+00  0.00000000000E+00  0.45593999997E+02  0.45594000000E+02  0.51100000000E-03 0. -1.
         11   -1    0    0    0    0 -0.00000000000E+00 -0.00000000000E+00 -0.45593999997E+02  0.45594000000E+02  0.51100000000E-03 0.  1.
         23    2    1    2    0    0  0.00000000000E+00  0.00000000000E+00  0.00000000000E+00  0.91188000000E+02  0.91188000000E+02 0.  0.
    9900012    2    3    3    0    0  0.17858830784E+00  0.37811028146E+02 -0.24482804203E+02  0.46142318244E+02  0.10000004400E+02 0.  0.
         12    1    3    3    0    0 -0.17858830784E+00 -0.37811028146E+02  0.24482804203E+02  0.45045681756E+02  0.00000000000E+00 0. -1.
         11    1    4    4    0    0  0.42791572073E+01  0.19505030245E+02 -0.13417333721E+02  0.24057893418E+02  0.51100000000E-03 0. -1.
        -11    1    4    4    0    0 -0.25733755368E+00  0.76696533514E+01 -0.57441901460E+01  0.95856938111E+01  0.51100000000E-03 0.  1.
         12    1    4    4    0    0 -0.38432313458E+01  0.10636344550E+02 -0.53212803353E+01  0.12498731015E+02  0.00000000000E+00 0. -1.
</event>
<event>
 8    1  0.7489580E-009  0.9118800E+02  0.7816164E-02  0.1184000E+00
        -11   -1    0    0    0    0  0.00000000000E+00  0.00000000000E+00  0.45593999997E+02  0.45594000000E+02  0.51100000000E-03 0. -1.
         11   -1    0    0    0    0 -0.00000000000E+00 -0.00000000000E+00 -0.45593999997E+02  0.45594000000E+02  0.51100000000E-03 0.  1.
         23    2    1    2    0    0  0.88817841970E-15  0.00000000000E+00  0.00000000000E+00  0.91188000000E+02  0.91188000000E+02 0.  0.
    9900012    2    3    3    0    0  0.68279690956E+01 -0.17435409013E+02  0.40969486600E+02  0.46142317835E+02  0.10000000677E+02 0.  0.
        -12    1    3    3    0    0 -0.68279690956E+01  0.17435409013E+02 -0.40969486600E+02  0.45045682165E+02  0.00000000000E+00 0.  1.
         11    1    4    4    0    0  0.20646201365E+01 -0.98375617241E+01  0.16703006549E+02  0.19494376241E+02  0.51100000000E-03 0. -1.
        -11    1    4    4    0    0  0.63323185990E+01 -0.65815379636E+01  0.20531915274E+02  0.22471636476E+02  0.51100000000E-03 0.  1.
        -12    1    4    4    0    0 -0.15689696398E+01 -0.10163093257E+01  0.37345647763E+01  0.41763051187E+01  0.00000000000E+00 0.  1.
</event>
<event>
 8    1  0.7489580E-009  0.9118800E+02  0.7816164E-02  0.1184000E+00
        -11   -1    0    0    0    0  0.00000000000E+00  0.00000000000E+00  0.45593999997E+02  0.45594000000E+02  0.51100000000E-03 0. -1.
         11   -1    0    0    0    0 -0.00000000000E+00 -0.00000000000E+00 -0.45593999997E+02  0.45594000000E+02  0.51100000000E-03 0.  1.
         23    2    1    2    0    0  0.00000000000E+00 -0.35527136788E-14 -0.35527136788E-14  0.91188000000E+02  0.91188000000E+02 0.  0.
    9900012    2    3    3    0    0 -0.18565643449E+02 -0.28052147078E+02  0.29958427237E+02  0.46142318355E+02  0.10000005416E+02 0.  0.
        -12    1    3    3    0    0  0.18565643449E+02  0.28052147078E+02 -0.29958427237E+02  0.45045681645E+02  0.00000000000E+00 0.  1.
         11    1    4    4    0    0 -0.53537867912E+01 -0.59904914603E+01  0.93043156626E+01  0.12293059471E+02  0.51100000000E-03 0. -1.
        -11    1    4    4    0    0 -0.48412375257E+01 -0.95417198285E+01  0.40707672858E+01  0.11447844540E+02  0.51100000000E-03 0.  1.
        -12    1    4    4    0    0 -0.83706191326E+01 -0.12519935789E+02  0.16583344288E+02  0.22401414344E+02  0.00000000000E+00 0.  1.
</event>
<event>
 8    1  0.7489580E-009  0.9118800E+02  0.7816164E-02  0.1184000E+00
        -11   -1    0    0    0    0  0.00000000000E+00  0.00000000000E+00  0.45593999997E+02  0.45594000000E+02  0.51100000000E-03 0.  1.
         11   -1    0    0    0    0 -0.00000000000E+00 -0.00000000000E+00 -0.45593999997E+02  0.45594000000E+02  0.51100000000E-03 0. -1.
         23    2    1    2    0    0 -0.35527136788E-14 -0.17763568394E-14  0.00000000000E+00  0.91188000000E+02  0.91188000000E+02 0.  0.
    9900012    2    3    3    0    0  0.31009281016E+02  0.14853728184E+02 -0.29101627477E+02  0.46142317944E+02  0.10000001667E+02 0.  0.
         12    1    3    3    0    0 -0.31009281016E+02 -0.14853728184E+02  0.29101627477E+02  0.45045682056E+02  0.00000000000E+00 0. -1.
         11    1    4    4    0    0  0.11089379378E+02  0.40674028725E+01 -0.90037849465E+01  0.14852146132E+02  0.51100000000E-03 0. -1.
        -11    1    4    4    0    0  0.12933042142E+02  0.10973925109E+02 -0.13492898088E+02  0.21673691665E+02  0.51100000000E-03 0.  1.
         12    1    4    4    0    0  0.69868594967E+01 -0.18759979791E+00 -0.66049444429E+01  0.96164801463E+01  0.00000000000E+00 0. -1.
</event>
<event>
 8    1  0.7580297E-009  0.9118800E+02  0.7816164E-02  0.1184000E+00
        -11   -1    0    0    0    0  0.00000000000E+00  0.00000000000E+00  0.45593999997E+02  0.45594000000E+02  0.51100000000E-03 0. -1.
         11   -1    0    0    0    0 -0.00000000000E+00 -0.00000000000E+00 -0.45593999997E+02  0.45594000000E+02  0.51100000000E-03 0.  1.
         23    2    1    2    0    0 -0.44408920985E-15  0.83266726847E-16  0.71054273576E-14  0.91188000000E+02  0.91188000000E+02 0.  0.
    9900012    2    3    3    0    0 -0.20382963683E+01 -0.22471067704E+00 -0.44998985226E+02  0.46142314098E+02  0.99999665979E+01 0.  0.
         12    1    3    3    0    0  0.20382963683E+01  0.22471067704E+00  0.44998985226E+02  0.45045685902E+02  0.00000000000E+00 0. -1.
         11    1    4    4    0    0  0.28274423580E+01  0.58137311582E+00 -0.60169805054E+01  0.66735657374E+01  0.51100000000E-03 0. -1.
        -11    1    4    4    0    0 -0.31157640853E+01  0.13214719274E+01 -0.19227774702E+02  0.19523360216E+02  0.51100000000E-03 0.  1.
         12    1    4    4    0    0 -0.17499746410E+01 -0.21275557202E+01 -0.19754230019E+02  0.19945388144E+02  0.00000000000E+00 0. -1.
</event>
<event>
 8    1  0.7489580E-009  0.9118800E+02  0.7816164E-02  0.1184000E+00
        -11   -1    0    0    0    0  0.00000000000E+00  0.00000000000E+00  0.45593999997E+02  0.45594000000E+02  0.51100000000E-03 0. -1.
         11   -1    0    0    0    0 -0.00000000000E+00 -0.00000000000E+00 -0.45593999997E+02  0.45594000000E+02  0.51100000000E-03 0.  1.
         23    2    1    2    0    0  0.71054273576E-14 -0.17763568394E-14  0.71054273576E-14  0.91188000000E+02  0.91188000000E+02 0.  0.
    9900012    2    3    3    0    0  0.29668330463E+02 -0.13591777858E+02  0.31051045536E+02  0.46142315560E+02  0.99999799304E+01 0.  0.
        -12    1    3    3    0    0 -0.29668330463E+02  0.13591777858E+02 -0.31051045536E+02  0.45045684440E+02  0.00000000000E+00 0.  1.
         11    1    4    4    0    0  0.13930990899E+02 -0.31279437668E+01  0.10060253521E+02  0.17466116936E+02  0.51100000000E-03 0.  1.
        -11    1    4    4    0    0 -0.30259586277E+00 -0.31378614729E+00  0.10926520393E+01  0.11763990575E+01  0.51100000000E-03 0. -1.
         12    1    4    4    0    0  0.16039935426E+02 -0.10150047944E+02  0.19898139976E+02  0.27499799567E+02  0.00000000000E+00 0. -1.
</event>
<event>
 8    1  0.7489580E-009  0.9118800E+02  0.7816164E-02  0.1184000E+00
        -11   -1    0    0    0    0  0.00000000000E+00  0.00000000000E+00  0.45593999997E+02  0.45594000000E+02  0.51100000000E-03 0. -1.
         11   -1    0    0    0    0 -0.00000000000E+00 -0.00000000000E+00 -0.45593999997E+02  0.45594000000E+02  0.51100000000E-03 0.  1.
         23    2    1    2    0    0  0.17763568394E-14  0.44408920985E-15  0.00000000000E+00  0.91188000000E+02  0.91188000000E+02 0.  0.
    9900012    2    3    3    0    0  0.12666376426E+02  0.24119219488E+01 -0.43160853637E+02  0.46142314903E+02  0.99999739331E+01 0.  0.
         12    1    3    3    0    0 -0.12666376426E+02 -0.24119219488E+01  0.43160853637E+02  0.45045685097E+02  0.00000000000E+00 0. -1.
         11    1    4    4    0    0  0.18949796506E+01  0.17968528174E+01 -0.11583780564E+02  0.11874493688E+02  0.51100000000E-03 0. -1.
        -11    1    4    4    0    0  0.87910466007E+01 -0.13223564209E+01 -0.14809253636E+02  0.17272669752E+02  0.51100000000E-03 0.  1.
        -12    1    4    4    0    0  0.19803501745E+01  0.19374255523E+01 -0.16767819437E+02  0.16995151463E+02  0.00000000000E+00 0.  1.
</event>
<event>
 8    1  0.7489580E-009  0.9118800E+02  0.7816164E-02  0.1184000E+00
        -11   -1    0    0    0    0  0.00000000000E+00  0.00000000000E+00  0.45593999997E+02  0.45594000000E+02  0.51100000000E-03 0. -1.
         11   -1    0    0    0    0 -0.00000000000E+00 -0.00000000000E+00 -0.45593999997E+02  0.45594000000E+02  0.51100000000E-03 0.  1.
         23    2    1    2    0    0  0.00000000000E+00  0.35527136788E-14  0.00000000000E+00  0.91188000000E+02  0.91188000000E+02 0.  0.
    9900012    2    3    3    0    0  0.24518674914E+01 -0.30116639971E+02  0.33407931970E+02  0.46142316790E+02  0.99999911470E+01 0.  0.
        -12    1    3    3    0    0 -0.24518674914E+01  0.30116639971E+02 -0.33407931970E+02  0.45045683210E+02  0.00000000000E+00 0.  1.
         11    1    4    4    0    0  0.40372263343E+01 -0.10484070839E+02  0.15157458845E+02  0.18866994905E+02  0.51100000000E-03 0. -1.
        -11    1    4    4    0    0 -0.77178227810E+00 -0.14100002420E+02  0.15738759484E+02  0.21145076648E+02  0.51100000000E-03 0.  1.
         12    1    4    4    0    0 -0.81357656480E+00 -0.55325667126E+01  0.25117136409E+01  0.61302452373E+01  0.00000000000E+00 0. -1.
</event>
<event>
 8    1  0.7489580E-009  0.9118800E+02  0.7816164E-02  0.1184000E+00
        -11   -1    0    0    0    0  0.00000000000E+00  0.00000000000E+00  0.45593999997E+02  0.45594000000E+02  0.51100000000E-03 0. -1.
         11   -1    0    0    0    0 -0.00000000000E+00 -0.00000000000E+00 -0.45593999997E+02  0.45594000000E+02  0.51100000000E-03 0.  1.
         23    2    1    2    0    0 -0.17763568394E-14  0.00000000000E+00 -0.44408920985E-15  0.91188000000E+02  0.91188000000E+02 0.  0.
    9900012    2    3    3    0    0  0.14943962181E+02 -0.42458795526E+02  0.17441744037E+01  0.46142317992E+02  0.10000002105E+02 0.  0.
        -12    1    3    3    0    0 -0.14943962181E+02  0.42458795526E+02 -0.17441744037E+01  0.45045682008E+02  0.00000000000E+00 0.  1.
         11    1    4    4    0    0  0.77959360856E+01 -0.12946063220E+02  0.30759680720E+01  0.15422021664E+02  0.51100000000E-03 0. -1.
        -11    1    4    4    0    0  0.69466459158E+00 -0.75674579537E+00 -0.69859190537E+00  0.12422777487E+01  0.51100000000E-03 0.  1.
        -12    1    4    4    0    0  0.64533615039E+01 -0.28755986511E+02 -0.63320176289E+00  0.29478018579E+02  0.00000000000E+00 0.  1.
</event>
<event>
 8    1  0.7489580E-009  0.9118800E+02  0.7816164E-02  0.1184000E+00
        -11   -1    0    0    0    0  0.00000000000E+00  0.00000000000E+00  0.45593999997E+02  0.45594000000E+02  0.51100000000E-03 0. -1.
         11   -1    0    0    0    0 -0.00000000000E+00 -0.00000000000E+00 -0.45593999997E+02  0.45594000000E+02  0.51100000000E-03 0.  1.
         23    2    1    2    0    0  0.00000000000E+00  0.00000000000E+00  0.00000000000E+00  0.91188000000E+02  0.91188000000E+02 0.  0.
    9900012    2    3    3    0    0 -0.70394742952E+01  0.19979030536E+02 -0.39754215168E+02  0.46142317819E+02  0.10000000530E+02 0.  0.
         12    1    3    3    0    0  0.70394742952E+01 -0.19979030536E+02  0.39754215168E+02  0.45045682181E+02  0.00000000000E+00 0. -1.
         11    1    4    4    0    0 -0.81981744229E+00  0.14890113404E+01 -0.78965165915E+01  0.80773900457E+01  0.51100000000E-03 0. -1.
        -11    1    4    4    0    0 -0.11872317242E+01  0.13951271024E+02 -0.22731715010E+02  0.26697909092E+02  0.51100000000E-03 0.  1.
         12    1    4    4    0    0 -0.50324251287E+01  0.45387481718E+01 -0.91259835665E+01  0.11367018681E+02  0.00000000000E+00 0. -1.
</event>
<event>
 8    1  0.7489580E-009  0.9118800E+02  0.7816164E-02  0.1184000E+00
        -11   -1    0    0    0    0  0.00000000000E+00  0.00000000000E+00  0.45593999997E+02  0.45594000000E+02  0.51100000000E-03 0. -1.
         11   -1    0    0    0    0 -0.00000000000E+00 -0.00000000000E+00 -0.45593999997E+02  0.45594000000E+02  0.51100000000E-03 0.  1.
         23    2    1    2    0    0  0.00000000000E+00  0.88817841970E-15  0.71054273576E-14  0.91188000000E+02  0.91188000000E+02 0.  0.
    9900012    2    3    3    0    0  0.42921257971E+01  0.62629335818E+01  0.44401202583E+02  0.46142317946E+02  0.10000001686E+02 0.  0.
        -12    1    3    3    0    0 -0.42921257971E+01 -0.62629335818E+01 -0.44401202583E+02  0.45045682054E+02  0.00000000000E+00 0.  1.
         11    1    4    4    0    0 -0.34764763670E+00  0.10027252416E+01  0.16106194885E+02  0.16141122350E+02  0.51100000000E-03 0.  1.
        -11    1    4    4    0    0  0.85943107639E-01  0.42471933955E+01  0.68949102257E+01  0.80985075933E+01  0.51100000000E-03 0. -1.
         12    1    4    4    0    0  0.45538303262E+01  0.10130149446E+01  0.21400097472E+02  0.21902688003E+02  0.00000000000E+00 0. -1.
</event>
<event>
 8    1  0.7489580E-009  0.9118800E+02  0.7816164E-02  0.1184000E+00
        -11   -1    0    0    0    0  0.00000000000E+00  0.00000000000E+00  0.45593999997E+02  0.45594000000E+02  0.51100000000E-03 0. -1.
         11   -1    0    0    0    0 -0.00000000000E+00 -0.00000000000E+00 -0.45593999997E+02  0.45594000000E+02  0.51100000000E-03 0.  1.
         23    2    1    2    0    0  0.35527136788E-14  0.00000000000E+00  0.00000000000E+00  0.91188000000E+02  0.91188000000E+02 0.  0.
    9900012    2    3    3    0    0 -0.19894697512E+02 -0.20652566956E+02 -0.34738824553E+02  0.46142318273E+02  0.10000004666E+02 0.  0.
         12    1    3    3    0    0  0.19894697512E+02  0.20652566956E+02  0.34738824553E+02  0.45045681727E+02  0.00000000000E+00 0. -1.
         11    1    4    4    0    0 -0.34694927475E+01 -0.70646490655E+01 -0.15421299009E+02  0.17313668292E+02  0.51100000000E-03 0. -1.
        -11    1    4    4    0    0 -0.78592537730E-01 -0.20009877073E+00 -0.24618787470E-01  0.21638542199E+00  0.51100000000E-03 0.  1.
        -12    1    4    4    0    0 -0.16346612227E+02 -0.13387819120E+02 -0.19292906757E+02  0.28612264559E+02  0.00000000000E+00 0.  1.
</event>
<event>
 8    1  0.7498605E-009  0.9118800E+02  0.7816164E-02  0.1184000E+00
        -11   -1    0    0    0    0  0.00000000000E+00  0.00000000000E+00  0.45593999997E+02  0.45594000000E+02  0.51100000000E-03 0. -1.
         11   -1    0    0    0    0 -0.00000000000E+00 -0.00000000000E+00 -0.45593999997E+02  0.45594000000E+02  0.51100000000E-03 0.  1.
         23    2    1    2    0    0  0.88817841970E-15  0.00000000000E+00 -0.71054273576E-14  0.91188000000E+02  0.91188000000E+02 0.  0.
    9900012    2    3    3    0    0  0.78067675438E+01 -0.46701445223E+01 -0.44117543178E+02  0.46142317794E+02  0.10000000302E+02 0.  0.
         12    1    3    3    0    0 -0.78067675438E+01  0.46701445223E+01  0.44117543178E+02  0.45045682206E+02  0.00000000000E+00 0. -1.
         11    1    4    4    0    0  0.24150375235E+01 -0.34567271575E+01 -0.95533664363E+01  0.10442613629E+02  0.51100000000E-03 0. -1.
        -11    1    4    4    0    0  0.84800791816E-01 -0.31036929196E+01 -0.16044070037E+02  0.16341734441E+02  0.51100000000E-03 0.  1.
         12    1    4    4    0    0  0.53069292285E+01  0.18902755549E+01 -0.18520106704E+02  0.19357969724E+02  0.00000000000E+00 0. -1.
</event>
<event>
 8    1  0.7489580E-009  0.9118800E+02  0.7816164E-02  0.1184000E+00
        -11   -1    0    0    0    0  0.00000000000E+00  0.00000000000E+00  0.45593999997E+02  0.45594000000E+02  0.51100000000E-03 0. -1.
         11   -1    0    0    0    0 -0.00000000000E+00 -0.00000000000E+00 -0.45593999997E+02  0.45594000000E+02  0.51100000000E-03 0.  1.
         23    2    1    2    0    0  0.35527136788E-14  0.00000000000E+00  0.35527136788E-14  0.91188000000E+02  0.91188000000E+02 0.  0.
    9900012    2    3    3    0    0 -0.29539929283E+02 -0.15003384260E+02 -0.30518920141E+02  0.46142318211E+02  0.10000004099E+02 0.  0.
         12    1    3    3    0    0  0.29539929283E+02  0.15003384260E+02  0.30518920141E+02  0.45045681789E+02  0.00000000000E+00 0. -1.
         11    1    4    4    0    0 -0.82377797127E+01 -0.43918092783E+01 -0.63807629722E+01  0.11307658453E+02  0.51100000000E-03 0. -1.
        -11    1    4    4    0    0 -0.18715176304E+02 -0.10711103475E+02 -0.23967520766E+02  0.32240155298E+02  0.51100000000E-03 0.  1.
        -12    1    4    4    0    0 -0.25869732669E+01  0.99528493900E-01 -0.17063640289E+00  0.25945044588E+01  0.00000000000E+00 0.  1.
</event>
<event>
 8    1  0.7489580E-009  0.9118800E+02  0.7816164E-02  0.1184000E+00
        -11   -1    0    0    0    0  0.00000000000E+00  0.00000000000E+00  0.45593999997E+02  0.45594000000E+02  0.51100000000E-03 0.  1.
         11   -1    0    0    0    0 -0.00000000000E+00 -0.00000000000E+00 -0.45593999997E+02  0.45594000000E+02  0.51100000000E-03 0. -1.
         23    2    1    2    0    0 -0.71054273576E-14 -0.35527136788E-14 -0.35527136788E-14  0.91188000000E+02  0.91188000000E+02 0.  0.
    9900012    2    3    3    0    0  0.29970343555E+02  0.26464045613E+02  0.20749609298E+02  0.46142317754E+02  0.99999999346E+01 0.  0.
        -12    1    3    3    0    0 -0.29970343555E+02 -0.26464045613E+02 -0.20749609298E+02  0.45045682246E+02  0.00000000000E+00 0.  1.
         11    1    4    4    0    0  0.11551963253E+02  0.90804634807E+01  0.11719045374E+02  0.18794645428E+02  0.51100000000E-03 0. -1.
        -11    1    4    4    0    0  0.10572733515E+02  0.73708120065E+01  0.62632903102E+01  0.14329702348E+02  0.51100000000E-03 0.  1.
        -12    1    4    4    0    0  0.78456467869E+01  0.10012770126E+02  0.27672736139E+01  0.13017969978E+02  0.00000000000E+00 0.  1.
</event>
<event>
 8    1  0.7489580E-009  0.9118800E+02  0.7816164E-02  0.1184000E+00
        -11   -1    0    0    0    0  0.00000000000E+00  0.00000000000E+00  0.45593999997E+02  0.45594000000E+02  0.51100000000E-03 0. -1.
         11   -1    0    0    0    0 -0.00000000000E+00 -0.00000000000E+00 -0.45593999997E+02  0.45594000000E+02  0.51100000000E-03 0.  1.
         23    2    1    2    0    0  0.00000000000E+00  0.00000000000E+00  0.00000000000E+00  0.91188000000E+02  0.91188000000E+02 0.  0.
    9900012    2    3    3    0    0  0.16533868831E+01 -0.41946280660E+02 -0.16336754177E+02  0.46142315562E+02  0.99999799507E+01 0.  0.
         12    1    3    3    0    0 -0.16533868831E+01  0.41946280660E+02  0.16336754177E+02  0.45045684438E+02  0.00000000000E+00 0. -1.
         11    1    4    4    0    0  0.13822420322E+01 -0.20046983718E+02 -0.11510634273E+02  0.23157868011E+02  0.51100000000E-03 0. -1.
        -11    1    4    4    0    0 -0.50466878108E+00 -0.20683581053E+02 -0.34204714723E+01  0.20970570834E+02  0.51100000000E-03 0.  1.
         12    1    4    4    0    0  0.77581363203E+00 -0.12157158892E+01 -0.14056484323E+01  0.20138767167E+01  0.00000000000E+00 0. -1.
</event>
<event>
 8    1  0.7489580E-009  0.9118800E+02  0.7816164E-02  0.1184000E+00
        -11   -1    0    0    0    0  0.00000000000E+00  0.00000000000E+00  0.45593999997E+02  0.45594000000E+02  0.51100000000E-03 0. -1.
         11   -1    0    0    0    0 -0.00000000000E+00 -0.00000000000E+00 -0.45593999997E+02  0.45594000000E+02  0.51100000000E-03 0.  1.
         23    2    1    2    0    0  0.00000000000E+00 -0.69388939039E-17  0.00000000000E+00  0.91188000000E+02  0.91188000000E+02 0.  0.
    9900012    2    3    3    0    0 -0.22714982242E+02  0.16950761483E-01 -0.38899135327E+02  0.46142318356E+02  0.10000005423E+02 0.  0.
         12    1    3    3    0    0  0.22714982242E+02 -0.16950761483E-01  0.38899135327E+02  0.45045681644E+02  0.00000000000E+00 0. -1.
         11    1    4    4    0    0 -0.55447567882E+01 -0.37569987493E+00 -0.17668632379E+02  0.18522042237E+02  0.51100000000E-03 0.  1.
        -11    1    4    4    0    0 -0.15159151430E+02 -0.24541414271E+00 -0.20242092086E+02  0.25290361652E+02  0.51100000000E-03 0. -1.
         12    1    4    4    0    0 -0.20110740237E+01  0.63806477913E+00 -0.98841086214E+00  0.23299144670E+01  0.00000000000E+00 0. -1.
</event>
<event>
 8    1  0.7489580E-009  0.9118800E+02  0.7816164E-02  0.1184000E+00
        -11   -1    0    0    0    0  0.00000000000E+00  0.00000000000E+00  0.45593999997E+02  0.45594000000E+02  0.51100000000E-03 0.  1.
         11   -1    0    0    0    0 -0.00000000000E+00 -0.00000000000E+00 -0.45593999997E+02  0.45594000000E+02  0.51100000000E-03 0. -1.
         23    2    1    2    0    0  0.35527136788E-14  0.71054273576E-14  0.35527136788E-14  0.91188000000E+02  0.91188000000E+02 0.  0.
    9900012    2    3    3    0    0 -0.27707591119E+02 -0.33313445238E+02 -0.12313293792E+02  0.46142318262E+02  0.10000004565E+02 0.  0.
        -12    1    3    3    0    0  0.27707591119E+02  0.33313445238E+02  0.12313293792E+02  0.45045681738E+02  0.00000000000E+00 0.  1.
         11    1    4    4    0    0 -0.14339008242E+02 -0.14543544439E+02 -0.98988001750E+01  0.22695992760E+02  0.51100000000E-03 0. -1.
        -11    1    4    4    0    0 -0.28310235423E+01 -0.22977834779E+01 -0.12608861326E+01  0.38580224609E+01  0.51100000000E-03 0.  1.
        -12    1    4    4    0    0 -0.10537559335E+02 -0.16472117321E+02 -0.11536074849E+01  0.19588303041E+02  0.00000000000E+00 0.  1.
</event>
<event>
 8    1  0.7489580E-009  0.9118800E+02  0.7816164E-02  0.1184000E+00
        -11   -1    0    0    0    0  0.00000000000E+00  0.00000000000E+00  0.45593999997E+02  0.45594000000E+02  0.51100000000E-03 0. -1.
         11   -1    0    0    0    0 -0.00000000000E+00 -0.00000000000E+00 -0.45593999997E+02  0.45594000000E+02  0.51100000000E-03 0.  1.
         23    2    1    2    0    0  0.35527136788E-14  0.71054273576E-14  0.00000000000E+00  0.91188000000E+02  0.91188000000E+02 0.  0.
    9900012    2    3    3    0    0  0.24482660114E+02  0.31784336934E+02 -0.20480936035E+02  0.46142318059E+02  0.10000002721E+02 0.  0.
         12    1    3    3    0    0 -0.24482660114E+02 -0.31784336934E+02  0.20480936035E+02  0.45045681941E+02  0.00000000000E+00 0. -1.
         11    1    4    4    0    0  0.14173638723E+02  0.21705180647E+02 -0.96696767976E+01  0.27667843269E+02  0.51100000000E-03 0.  1.
        -11    1    4    4    0    0  0.62455598285E+01  0.86249198559E+01 -0.80767792924E+01  0.13365276806E+02  0.51100000000E-03 0. -1.
        -12    1    4    4    0    0  0.40634615633E+01  0.14542364314E+01 -0.27344799453E+01  0.51091979846E+01  0.00000000000E+00 0.  1.
</event>
<event>
 8    1  0.7489580E-009  0.9118800E+02  0.7816164E-02  0.1184000E+00
        -11   -1    0    0    0    0  0.00000000000E+00  0.00000000000E+00  0.45593999997E+02  0.45594000000E+02  0.51100000000E-03 0. -1.
         11   -1    0    0    0    0 -0.00000000000E+00 -0.00000000000E+00 -0.45593999997E+02  0.45594000000E+02  0.51100000000E-03 0.  1.
         23    2    1    2    0    0  0.00000000000E+00 -0.35527136788E-14  0.00000000000E+00  0.91188000000E+02  0.91188000000E+02 0.  0.
    9900012    2    3    3    0    0  0.35345687748E+02  0.16860913689E+02 -0.22259949787E+02  0.46142318550E+02  0.10000007190E+02 0.  0.
         12    1    3    3    0    0 -0.35345687748E+02 -0.16860913689E+02  0.22259949787E+02  0.45045681450E+02  0.00000000000E+00 0. -1.
         11    1    4    4    0    0  0.23936191636E+01 -0.26570211515E+00 -0.61825588958E+00  0.24864132642E+01  0.51100000000E-03 0. -1.
        -11    1    4    4    0    0  0.23570422646E+02  0.14573546663E+02 -0.18935567573E+02  0.33563504072E+02  0.51100000000E-03 0.  1.
        -12    1    4    4    0    0  0.93816459388E+01  0.25530691413E+01 -0.27061263243E+01  0.10092401213E+02  0.00000000000E+00 0.  1.
</event>
<event>
 8    1  0.8851856E-009  0.9118800E+02  0.7816164E-02  0.1184000E+00
        -11   -1    0    0    0    0  0.00000000000E+00  0.00000000000E+00  0.45593999997E+02  0.45594000000E+02  0.51100000000E-03 0. -1.
         11   -1    0    0    0    0 -0.00000000000E+00 -0.00000000000E+00 -0.45593999997E+02  0.45594000000E+02  0.51100000000E-03 0.  1.
         23    2    1    2    0    0  0.00000000000E+00  0.00000000000E+00  0.00000000000E+00  0.91188000000E+02  0.91188000000E+02 0.  0.
    9900012    2    3    3    0    0 -0.84503441621E+01 -0.57817829042E+01 -0.43866571958E+02  0.46142318016E+02  0.10000002325E+02 0.  0.
         12    1    3    3    0    0  0.84503441621E+01  0.57817829042E+01  0.43866571958E+02  0.45045681984E+02  0.00000000000E+00 0. -1.
         11    1    4    4    0    0 -0.40324651426E+00  0.71384700931E-01  0.22539160234E+00  0.46744535758E+00  0.51100000000E-03 0. -1.
        -11    1    4    4    0    0 -0.23217984745E+01  0.74293737540E+00 -0.43698587220E+01  0.50038354900E+01  0.51100000000E-03 0.  1.
        -12    1    4    4    0    0 -0.57252991733E+01 -0.65961049805E+01 -0.39722104839E+02  0.40671037168E+02  0.00000000000E+00 0.  1.
</event>
<event>
 8    1  0.7489580E-009  0.9118800E+02  0.7816164E-02  0.1184000E+00
        -11   -1    0    0    0    0  0.00000000000E+00  0.00000000000E+00  0.45593999997E+02  0.45594000000E+02  0.51100000000E-03 0. -1.
         11   -1    0    0    0    0 -0.00000000000E+00 -0.00000000000E+00 -0.45593999997E+02  0.45594000000E+02  0.51100000000E-03 0.  1.
         23    2    1    2    0    0 -0.71054273576E-14  0.00000000000E+00 -0.17763568394E-14  0.91188000000E+02  0.91188000000E+02 0.  0.
    9900012    2    3    3    0    0  0.41894287775E+02 -0.68194643374E+01  0.15082343106E+02  0.46142317459E+02  0.99999972460E+01 0.  0.
        -12    1    3    3    0    0 -0.41894287775E+02  0.68194643374E+01 -0.15082343106E+02  0.45045682541E+02  0.00000000000E+00 0.  1.
         11    1    4    4    0    0  0.89239602775E+01 -0.54209430084E+00  0.31286914337E+01  0.94720453765E+01  0.51100000000E-03 0. -1.
        -11    1    4    4    0    0  0.23535627984E+02 -0.78102423209E+01  0.10782106199E+02  0.27040330694E+02  0.51100000000E-03 0.  1.
         12    1    4    4    0    0  0.94346995135E+01  0.15328722843E+01  0.11715454736E+01  0.96299413886E+01  0.00000000000E+00 0. -1.
</event>
<event>
 8    1  0.7489580E-009  0.9118800E+02  0.7816164E-02  0.1184000E+00
        -11   -1    0    0    0    0  0.00000000000E+00  0.00000000000E+00  0.45593999997E+02  0.45594000000E+02  0.51100000000E-03 0. -1.
         11   -1    0    0    0    0 -0.00000000000E+00 -0.00000000000E+00 -0.45593999997E+02  0.45594000000E+02  0.51100000000E-03 0.  1.
         23    2    1    2    0    0 -0.17763568394E-14  0.35527136788E-14 -0.35527136788E-14  0.91188000000E+02  0.91188000000E+02 0.  0.
    9900012    2    3    3    0    0  0.14668472747E+02  0.29387771395E+02  0.30827069833E+02  0.46142318356E+02  0.10000005422E+02 0.  0.
        -12    1    3    3    0    0 -0.14668472747E+02 -0.29387771395E+02 -0.30827069833E+02  0.45045681644E+02  0.00000000000E+00 0.  1.
         11    1    4    4    0    0  0.10744990327E+02  0.13350250155E+02  0.11165712918E+02  0.20453780618E+02  0.51100000000E-03 0. -1.
        -11    1    4    4    0    0  0.63504133579E+00  0.36665557422E+01  0.40432674687E+01  0.54949904999E+01  0.51100000000E-03 0.  1.
         12    1    4    4    0    0  0.32884410846E+01  0.12370965498E+02  0.15618089446E+02  0.20193547238E+02  0.00000000000E+00 0. -1.
</event>
<event>
 8    1  0.7489580E-009  0.9118800E+02  0.7816164E-02  0.1184000E+00
        -11   -1    0    0    0    0  0.00000000000E+00  0.00000000000E+00  0.45593999997E+02  0.45594000000E+02  0.51100000000E-03 0. -1.
         11   -1    0    0    0    0 -0.00000000000E+00 -0.00000000000E+00 -0.45593999997E+02  0.45594000000E+02  0.51100000000E-03 0.  1.
         23    2    1    2    0    0  0.00000000000E+00  0.35527136788E-14  0.71054273576E-14  0.91188000000E+02  0.91188000000E+02 0.  0.
    9900012    2    3    3    0    0  0.22967997655E+01  0.25224928353E+02  0.37249715229E+02  0.46142316697E+02  0.99999902969E+01 0.  0.
        -12    1    3    3    0    0 -0.22967997655E+01 -0.25224928353E+02 -0.37249715229E+02  0.45045683303E+02  0.00000000000E+00 0.  1.
         11    1    4    4    0    0 -0.19445069081E+01  0.56945204077E+01  0.10802656591E+02  0.12365518973E+02  0.51100000000E-03 0. -1.
        -11    1    4    4    0    0  0.34920819399E+01  0.40130034428E+01  0.86303727156E+01  0.10138153993E+02  0.51100000000E-03 0.  1.
        -12    1    4    4    0    0  0.74922473371E+00  0.15517404502E+02  0.17816685923E+02  0.23638643731E+02  0.00000000000E+00 0.  1.
</event>
<event>
 8    1  0.7489580E-009  0.9118800E+02  0.7816164E-02  0.1184000E+00
        -11   -1    0    0    0    0  0.00000000000E+00  0.00000000000E+00  0.45593999997E+02  0.45594000000E+02  0.51100000000E-03 0. -1.
         11   -1    0    0    0    0 -0.00000000000E+00 -0.00000000000E+00 -0.45593999997E+02  0.45594000000E+02  0.51100000000E-03 0.  1.
         23    2    1    2    0    0  0.00000000000E+00  0.00000000000E+00 -0.35527136788E-14  0.91188000000E+02  0.91188000000E+02 0.  0.
    9900012    2    3    3    0    0 -0.46516485343E+01  0.38524104734E+02  0.22877258912E+02  0.46142318132E+02  0.10000003380E+02 0.  0.
        -12    1    3    3    0    0  0.46516485343E+01 -0.38524104734E+02 -0.22877258912E+02  0.45045681868E+02  0.00000000000E+00 0.  1.
         11    1    4    4    0    0  0.61742336327E+00  0.13481540345E+02  0.12134343400E+02  0.18148703306E+02  0.51100000000E-03 0. -1.
        -11    1    4    4    0    0 -0.16716726997E+01  0.41366395174E+01  0.67463524388E+00  0.45123618078E+01  0.51100000000E-03 0.  1.
        -12    1    4    4    0    0 -0.35973991979E+01  0.20905924871E+02  0.10068280269E+02  0.23481253018E+02  0.00000000000E+00 0.  1.
</event>
<event>
 8    1  0.7489580E-009  0.9118800E+02  0.7816164E-02  0.1184000E+00
        -11   -1    0    0    0    0  0.00000000000E+00  0.00000000000E+00  0.45593999997E+02  0.45594000000E+02  0.51100000000E-03 0. -1.
         11   -1    0    0    0    0 -0.00000000000E+00 -0.00000000000E+00 -0.45593999997E+02  0.45594000000E+02  0.51100000000E-03 0.  1.
         23    2    1    2    0    0  0.00000000000E+00  0.17763568394E-14  0.00000000000E+00  0.91188000000E+02  0.91188000000E+02 0.  0.
    9900012    2    3    3    0    0 -0.10606974114E+02 -0.11304963583E+02  0.42294247950E+02  0.46142317509E+02  0.99999977005E+01 0.  0.
        -12    1    3    3    0    0  0.10606974114E+02  0.11304963583E+02 -0.42294247950E+02  0.45045682491E+02  0.00000000000E+00 0.  1.
         11    1    4    4    0    0 -0.16066133966E+01  0.11080539134E+01  0.95297431430E+01  0.97275379574E+01  0.51100000000E-03 0.  1.
        -11    1    4    4    0    0 -0.52408362920E+01 -0.41206445329E+01  0.16089067231E+02  0.17415629791E+02  0.51100000000E-03 0. -1.
        -12    1    4    4    0    0 -0.37595244251E+01 -0.82923729635E+01  0.16675437576E+02  0.18999149761E+02  0.00000000000E+00 0.  1.
</event>
<event>
 8    1  0.7489580E-009  0.9118800E+02  0.7816164E-02  0.1184000E+00
        -11   -1    0    0    0    0  0.00000000000E+00  0.00000000000E+00  0.45593999997E+02  0.45594000000E+02  0.51100000000E-03 0. -1.
         11   -1    0    0    0    0 -0.00000000000E+00 -0.00000000000E+00 -0.45593999997E+02  0.45594000000E+02  0.51100000000E-03 0.  1.
         23    2    1    2    0    0 -0.88817841970E-15 -0.88817841970E-15  0.00000000000E+00  0.91188000000E+02  0.91188000000E+02 0.  0.
    9900012    2    3    3    0    0 -0.44876433926E+01 -0.69804175488E+01 -0.44274691479E+02  0.46142317877E+02  0.10000001058E+02 0.  0.
         12    1    3    3    0    0  0.44876433926E+01  0.69804175488E+01  0.44274691479E+02  0.45045682123E+02  0.00000000000E+00 0. -1.
         11    1    4    4    0    0  0.31970306270E+01 -0.23991719497E+01 -0.12336816718E+02  0.12968194858E+02  0.51100000000E-03 0. -1.
        -11    1    4    4    0    0 -0.52877597806E+01 -0.35049450718E+01 -0.22423109690E+02  0.23303237799E+02  0.51100000000E-03 0.  1.
         12    1    4    4    0    0 -0.23969142390E+01 -0.10763005273E+01 -0.95147650702E+01  0.98708852205E+01  0.00000000000E+00 0. -1.
</event>
<event>
 8    1  0.7489580E-009  0.9118800E+02  0.7816164E-02  0.1184000E+00
        -11   -1    0    0    0    0  0.00000000000E+00  0.00000000000E+00  0.45593999997E+02  0.45594000000E+02  0.51100000000E-03 0. -1.
         11   -1    0    0    0    0 -0.00000000000E+00 -0.00000000000E+00 -0.45593999997E+02  0.45594000000E+02  0.51100000000E-03 0.  1.
         23    2    1    2    0    0 -0.35527136788E-14 -0.35527136788E-14  0.71054273576E-14  0.91188000000E+02  0.91188000000E+02 0.  0.
    9900012    2    3    3    0    0 -0.23322238083E+02 -0.16211050532E+02  0.34962673347E+02  0.46142317897E+02  0.10000001238E+02 0.  0.
        -12    1    3    3    0    0  0.23322238083E+02  0.16211050532E+02 -0.34962673347E+02  0.45045682103E+02  0.00000000000E+00 0.  1.
         11    1    4    4    0    0 -0.76508654869E+01 -0.83769942853E+01  0.18523998778E+02  0.21722069582E+02  0.51100000000E-03 0. -1.
        -11    1    4    4    0    0 -0.42807284779E+01 -0.10340890636E+01  0.20766432850E+01  0.48689243255E+01  0.51100000000E-03 0.  1.
         12    1    4    4    0    0 -0.11390644118E+02 -0.67999671836E+01  0.14362031284E+02  0.19551323989E+02  0.00000000000E+00 0. -1.
</event>
<event>
 8    1  0.7489580E-009  0.9118800E+02  0.7816164E-02  0.1184000E+00
        -11   -1    0    0    0    0  0.00000000000E+00  0.00000000000E+00  0.45593999997E+02  0.45594000000E+02  0.51100000000E-03 0. -1.
         11   -1    0    0    0    0 -0.00000000000E+00 -0.00000000000E+00 -0.45593999997E+02  0.45594000000E+02  0.51100000000E-03 0.  1.
         23    2    1    2    0    0  0.00000000000E+00  0.00000000000E+00  0.00000000000E+00  0.91188000000E+02  0.91188000000E+02 0.  0.
    9900012    2    3    3    0    0  0.13528760501E+02 -0.34108343445E+02  0.26128663107E+02  0.46142317754E+02  0.99999999355E+01 0.  0.
        -12    1    3    3    0    0 -0.13528760501E+02  0.34108343445E+02 -0.26128663107E+02  0.45045682246E+02  0.00000000000E+00 0.  1.
         11    1    4    4    0    0  0.86903883520E+01 -0.19412182790E+02  0.14176781234E+02  0.25560454159E+02  0.51100000000E-03 0. -1.
        -11    1    4    4    0    0  0.37002633940E+01 -0.82093103325E+01  0.30472234358E+01  0.95063292732E+01  0.51100000000E-03 0.  1.
         12    1    4    4    0    0  0.11381087550E+01 -0.64868503221E+01  0.89046584364E+01  0.11075534322E+02  0.00000000000E+00 0. -1.
</event>
<event>
 8    1  0.7489580E-009  0.9118800E+02  0.7816164E-02  0.1184000E+00
        -11   -1    0    0    0    0  0.00000000000E+00  0.00000000000E+00  0.45593999997E+02  0.45594000000E+02  0.51100000000E-03 0. -1.
         11   -1    0    0    0    0 -0.00000000000E+00 -0.00000000000E+00 -0.45593999997E+02  0.45594000000E+02  0.51100000000E-03 0.  1.
         23    2    1    2    0    0 -0.35527136788E-14 -0.35527136788E-14 -0.35527136788E-14  0.91188000000E+02  0.91188000000E+02 0.  0.
    9900012    2    3    3    0    0 -0.30459877732E+02 -0.15789089544E+02 -0.29189281673E+02  0.46142315804E+02  0.99999821528E+01 0.  0.
         12    1    3    3    0    0  0.30459877732E+02  0.15789089544E+02  0.29189281673E+02  0.45045684196E+02  0.00000000000E+00 0. -1.
         11    1    4    4    0    0 -0.74235286446E+01 -0.13601005199E+01 -0.79188311133E+01  0.10939220147E+02  0.51100000000E-03 0. -1.
        -11    1    4    4    0    0 -0.19741485182E+02 -0.10873314309E+02 -0.14226737432E+02  0.26652490680E+02  0.51100000000E-03 0.  1.
         12    1    4    4    0    0 -0.32948639059E+01 -0.35556747147E+01 -0.70437131282E+01  0.85506049767E+01  0.00000000000E+00 0. -1.
</event>
<event>
 8    1  0.7489580E-009  0.9118800E+02  0.7816164E-02  0.1184000E+00
        -11   -1    0    0    0    0  0.00000000000E+00  0.00000000000E+00  0.45593999997E+02  0.45594000000E+02  0.51100000000E-03 0. -1.
         11   -1    0    0    0    0 -0.00000000000E+00 -0.00000000000E+00 -0.45593999997E+02  0.45594000000E+02  0.51100000000E-03 0.  1.
         23    2    1    2    0    0  0.00000000000E+00 -0.35527136788E-14  0.35527136788E-14  0.91188000000E+02  0.91188000000E+02 0.  0.
    9900012    2    3    3    0    0 -0.25250429376E+02  0.25552468400E+02 -0.27177208152E+02  0.46142317988E+02  0.10000002067E+02 0.  0.
         12    1    3    3    0    0  0.25250429376E+02 -0.25552468400E+02  0.27177208152E+02  0.45045682012E+02  0.00000000000E+00 0. -1.
         11    1    4    4    0    0 -0.59636878278E+01  0.66992451940E+01 -0.51607812980E+01  0.10347904258E+02  0.51100000000E-03 0. -1.
        -11    1    4    4    0    0 -0.46739595634E+01  0.92170573474E+01 -0.11096483180E+02  0.15163508280E+02  0.51100000000E-03 0.  1.
        -12    1    4    4    0    0 -0.14612781985E+02  0.96361658590E+01 -0.10919943674E+02  0.20630905449E+02  0.00000000000E+00 0.  1.
</event>
<event>
 8    1  0.7489580E-009  0.9118800E+02  0.7816164E-02  0.1184000E+00
        -11   -1    0    0    0    0  0.00000000000E+00  0.00000000000E+00  0.45593999997E+02  0.45594000000E+02  0.51100000000E-03 0. -1.
         11   -1    0    0    0    0 -0.00000000000E+00 -0.00000000000E+00 -0.45593999997E+02  0.45594000000E+02  0.51100000000E-03 0.  1.
         23    2    1    2    0    0  0.00000000000E+00  0.17763568394E-14  0.00000000000E+00  0.91188000000E+02  0.91188000000E+02 0.  0.
    9900012    2    3    3    0    0 -0.46855753467E+01 -0.10495385595E+02 -0.43554629964E+02  0.46142317339E+02  0.99999961499E+01 0.  0.
         12    1    3    3    0    0  0.46855753467E+01  0.10495385595E+02  0.43554629964E+02  0.45045682661E+02  0.00000000000E+00 0. -1.
         11    1    4    4    0    0  0.49119227422E+00  0.22974800231E-01 -0.42456484807E+01  0.42740295945E+01  0.51100000000E-03 0. -1.
        -11    1    4    4    0    0 -0.33378859991E+01 -0.11520602622E+02 -0.36063009243E+02  0.38005347040E+02  0.51100000000E-03 0.  1.
         12    1    4    4    0    0 -0.18388816219E+01  0.10022422269E+01 -0.32459722399E+01  0.38629407040E+01  0.00000000000E+00 0. -1.
</event>
<event>
 8    1  0.7489580E-009  0.9118800E+02  0.7816164E-02  0.1184000E+00
        -11   -1    0    0    0    0  0.00000000000E+00  0.00000000000E+00  0.45593999997E+02  0.45594000000E+02  0.51100000000E-03 0. -1.
         11   -1    0    0    0    0 -0.00000000000E+00 -0.00000000000E+00 -0.45593999997E+02  0.45594000000E+02  0.51100000000E-03 0.  1.
         23    2    1    2    0    0  0.00000000000E+00 -0.17763568394E-14  0.00000000000E+00  0.91188000000E+02  0.91188000000E+02 0.  0.
    9900012    2    3    3    0    0  0.83383757855E+01 -0.13110114572E+02  0.42281317158E+02  0.46142318793E+02  0.10000009409E+02 0.  0.
        -12    1    3    3    0    0 -0.83383757855E+01  0.13110114572E+02 -0.42281317158E+02  0.45045681207E+02  0.00000000000E+00 0.  1.
         11    1    4    4    0    0  0.58967134497E+01 -0.31133206361E+01  0.21426421707E+02  0.22440043278E+02  0.51100000000E-03 0. -1.
        -11    1    4    4    0    0  0.30737997660E+01 -0.75274798586E+01  0.12055926642E+02  0.14541546186E+02  0.51100000000E-03 0.  1.
         12    1    4    4    0    0 -0.63213743027E+00 -0.24693140769E+01  0.87989688080E+01  0.91607293283E+01  0.00000000000E+00 0. -1.
</event>
<event>
 8    1  0.7489580E-009  0.9118800E+02  0.7816164E-02  0.1184000E+00
        -11   -1    0    0    0    0  0.00000000000E+00  0.00000000000E+00  0.45593999997E+02  0.45594000000E+02  0.51100000000E-03 0. -1.
         11   -1    0    0    0    0 -0.00000000000E+00 -0.00000000000E+00 -0.45593999997E+02  0.45594000000E+02  0.51100000000E-03 0.  1.
         23    2    1    2    0    0  0.00000000000E+00  0.35527136788E-14  0.00000000000E+00  0.91188000000E+02  0.91188000000E+02 0.  0.
    9900012    2    3    3    0    0  0.22728619810E+02 -0.21234819529E+02  0.32582292820E+02  0.46142317362E+02  0.99999963632E+01 0.  0.
        -12    1    3    3    0    0 -0.22728619810E+02  0.21234819529E+02 -0.32582292820E+02  0.45045682638E+02  0.00000000000E+00 0.  1.
         11    1    4    4    0    0  0.40627818485E+01 -0.54669421335E+01  0.32536749614E+01  0.75485133407E+01  0.51100000000E-03 0. -1.
        -11    1    4    4    0    0  0.13589161894E+02 -0.11206291633E+02  0.16876267756E+02  0.24393743189E+02  0.51100000000E-03 0.  1.
         12    1    4    4    0    0  0.50766760673E+01 -0.45615857620E+01  0.12452350103E+02  0.14200060832E+02  0.00000000000E+00 0. -1.
</event>
<event>
 8    1  0.7489580E-009  0.9118800E+02  0.7816164E-02  0.1184000E+00
        -11   -1    0    0    0    0  0.00000000000E+00  0.00000000000E+00  0.45593999997E+02  0.45594000000E+02  0.51100000000E-03 0. -1.
         11   -1    0    0    0    0 -0.00000000000E+00 -0.00000000000E+00 -0.45593999997E+02  0.45594000000E+02  0.51100000000E-03 0.  1.
         23    2    1    2    0    0  0.17763568394E-14  0.00000000000E+00  0.00000000000E+00  0.91188000000E+02  0.91188000000E+02 0.  0.
    9900012    2    3    3    0    0 -0.13476529122E+02  0.13766157282E+01  0.42960466159E+02  0.46142316959E+02  0.99999926867E+01 0.  0.
        -12    1    3    3    0    0  0.13476529122E+02 -0.13766157282E+01 -0.42960466159E+02  0.45045683041E+02  0.00000000000E+00 0.  1.
         11    1    4    4    0    0 -0.69729346230E+01 -0.79918912539E+00  0.13931634311E+02  0.15599710104E+02  0.51100000000E-03 0. -1.
        -11    1    4    4    0    0 -0.17251285004E+01 -0.17866926782E+00  0.19882933584E+02  0.19958432785E+02  0.51100000000E-03 0.  1.
        -12    1    4    4    0    0 -0.47784659986E+01  0.23544741214E+01  0.91458982640E+01  0.10584174070E+02  0.00000000000E+00 0.  1.
</event>
<event>
 8    1  0.7489580E-009  0.9118800E+02  0.7816164E-02  0.1184000E+00
        -11   -1    0    0    0    0  0.00000000000E+00  0.00000000000E+00  0.45593999997E+02  0.45594000000E+02  0.51100000000E-03 0. -1.
         11   -1    0    0    0    0 -0.00000000000E+00 -0.00000000000E+00 -0.45593999997E+02  0.45594000000E+02  0.51100000000E-03 0.  1.
         23    2    1    2    0    0  0.00000000000E+00 -0.35527136788E-14  0.00000000000E+00  0.91188000000E+02  0.91188000000E+02 0.  0.
    9900012    2    3    3    0    0 -0.12449121965E+02 -0.23865401315E+02 -0.36118907605E+02  0.46142317585E+02  0.99999983967E+01 0.  0.
         12    1    3    3    0    0  0.12449121965E+02  0.23865401315E+02  0.36118907605E+02  0.45045682415E+02  0.00000000000E+00 0. -1.
         11    1    4    4    0    0 -0.38687172801E+01 -0.30147546328E+01 -0.32610204294E+01  0.58898194702E+01  0.51100000000E-03 0. -1.
        -11    1    4    4    0    0 -0.27768957773E+01 -0.60304118407E+01 -0.14552548256E+02  0.15995426788E+02  0.51100000000E-03 0.  1.
        -12    1    4    4    0    0 -0.58035089078E+01 -0.14820234842E+02 -0.18305338919E+02  0.24257071327E+02  0.00000000000E+00 0.  1.
</event>
<event>
 8    1  0.7489580E-009  0.9118800E+02  0.7816164E-02  0.1184000E+00
        -11   -1    0    0    0    0  0.00000000000E+00  0.00000000000E+00  0.45593999997E+02  0.45594000000E+02  0.51100000000E-03 0. -1.
         11   -1    0    0    0    0 -0.00000000000E+00 -0.00000000000E+00 -0.45593999997E+02  0.45594000000E+02  0.51100000000E-03 0.  1.
         23    2    1    2    0    0  0.17763568394E-14 -0.71054273576E-14  0.00000000000E+00  0.91188000000E+02  0.91188000000E+02 0.  0.
    9900012    2    3    3    0    0 -0.93556906952E+01  0.41333147825E+02  0.15269427564E+02  0.46142317903E+02  0.10000001291E+02 0.  0.
        -12    1    3    3    0    0  0.93556906952E+01 -0.41333147825E+02 -0.15269427564E+02  0.45045682097E+02  0.00000000000E+00 0.  1.
         11    1    4    4    0    0 -0.36622378323E+01  0.21082118779E+02  0.62986816814E+01  0.22305629544E+02  0.51100000000E-03 0. -1.
        -11    1    4    4    0    0 -0.31745737753E+01  0.18619941827E+02  0.65868260251E+01  0.20004160308E+02  0.51100000000E-03 0.  1.
        -12    1    4    4    0    0 -0.25188790876E+01  0.16310872190E+01  0.23839198577E+01  0.38325280511E+01  0.00000000000E+00 0.  1.
</event>
<event>
 8    1  0.7489580E-009  0.9118800E+02  0.7816164E-02  0.1184000E+00
        -11   -1    0    0    0    0  0.00000000000E+00  0.00000000000E+00  0.45593999997E+02  0.45594000000E+02  0.51100000000E-03 0. -1.
         11   -1    0    0    0    0 -0.00000000000E+00 -0.00000000000E+00 -0.45593999997E+02  0.45594000000E+02  0.51100000000E-03 0.  1.
         23    2    1    2    0    0  0.88817841970E-15  0.00000000000E+00  0.00000000000E+00  0.91188000000E+02  0.91188000000E+02 0.  0.
    9900012    2    3    3    0    0  0.48290368684E+01  0.10916212860E+02  0.43435355156E+02  0.46142318989E+02  0.10000011193E+02 0.  0.
        -12    1    3    3    0    0 -0.48290368684E+01 -0.10916212860E+02 -0.43435355156E+02  0.45045681011E+02  0.00000000000E+00 0.  1.
         11    1    4    4    0    0 -0.10898045941E+01  0.13452861929E+01  0.19387432539E+01  0.25992681008E+01  0.51100000000E-03 0. -1.
        -11    1    4    4    0    0  0.63818858041E+01  0.63114471042E+01  0.21837011802E+02  0.23609699610E+02  0.51100000000E-03 0.  1.
         12    1    4    4    0    0 -0.46304434166E+00  0.32594795625E+01  0.19659600100E+02  0.19933351278E+02  0.00000000000E+00 0. -1.
</event>
<event>
 8    1  0.7489580E-009  0.9118800E+02  0.7816164E-02  0.1184000E+00
        -11   -1    0    0    0    0  0.00000000000E+00  0.00000000000E+00  0.45593999997E+02  0.45594000000E+02  0.51100000000E-03 0. -1.
         11   -1    0    0    0    0 -0.00000000000E+00 -0.00000000000E+00 -0.45593999997E+02  0.45594000000E+02  0.51100000000E-03 0.  1.
         23    2    1    2    0    0  0.00000000000E+00  0.00000000000E+00  0.71054273576E-14  0.91188000000E+02  0.91188000000E+02 0.  0.
    9900012    2    3    3    0    0  0.18907183047E+02  0.23060711167E+02 -0.33761451221E+02  0.46142316979E+02  0.99999928692E+01 0.  0.
         12    1    3    3    0    0 -0.18907183047E+02 -0.23060711167E+02  0.33761451221E+02  0.45045683021E+02  0.00000000000E+00 0. -1.
         11    1    4    4    0    0  0.76367656994E+01  0.67205067938E+01 -0.10371914227E+02  0.14527973256E+02  0.51100000000E-03 0. -1.
        -11    1    4    4    0    0  0.49402117222E+01  0.63036495537E+01 -0.41766154283E+01  0.90324861612E+01  0.51100000000E-03 0.  1.
        -12    1    4    4    0    0  0.63302056252E+01  0.10036554819E+02 -0.19212921565E+02  0.22581857562E+02  0.00000000000E+00 0.  1.
</event>
<event>
 8    1  0.7489580E-009  0.9118800E+02  0.7816164E-02  0.1184000E+00
        -11   -1    0    0    0    0  0.00000000000E+00  0.00000000000E+00  0.45593999997E+02  0.45594000000E+02  0.51100000000E-03 0. -1.
         11   -1    0    0    0    0 -0.00000000000E+00 -0.00000000000E+00 -0.45593999997E+02  0.45594000000E+02  0.51100000000E-03 0.  1.
         23    2    1    2    0    0  0.00000000000E+00 -0.35527136788E-14  0.71054273576E-14  0.91188000000E+02  0.91188000000E+02 0.  0.
    9900012    2    3    3    0    0  0.10141364419E+02 -0.22119555663E+02  0.37907670259E+02  0.46142317860E+02  0.10000000902E+02 0.  0.
        -12    1    3    3    0    0 -0.10141364419E+02  0.22119555663E+02 -0.37907670259E+02  0.45045682140E+02  0.00000000000E+00 0.  1.
         11    1    4    4    0    0  0.94147498181E+01 -0.15559684025E+02  0.26796094517E+02  0.32384748921E+02  0.51100000000E-03 0. -1.
        -11    1    4    4    0    0 -0.74005873617E+00 -0.17404211505E+01  0.41811932346E+00  0.19368987439E+01  0.51100000000E-03 0.  1.
        -12    1    4    4    0    0  0.14666733375E+01 -0.48194504874E+01  0.10693456419E+02  0.11820670195E+02  0.00000000000E+00 0.  1.
</event>
<event>
 8    1  0.7489580E-009  0.9118800E+02  0.7816164E-02  0.1184000E+00
        -11   -1    0    0    0    0  0.00000000000E+00  0.00000000000E+00  0.45593999997E+02  0.45594000000E+02  0.51100000000E-03 0. -1.
         11   -1    0    0    0    0 -0.00000000000E+00 -0.00000000000E+00 -0.45593999997E+02  0.45594000000E+02  0.51100000000E-03 0.  1.
         23    2    1    2    0    0 -0.35527136788E-14  0.00000000000E+00  0.00000000000E+00  0.91188000000E+02  0.91188000000E+02 0.  0.
    9900012    2    3    3    0    0 -0.25001716144E+02  0.14739430126E+02 -0.34449628586E+02  0.46142317406E+02  0.99999967657E+01 0.  0.
         12    1    3    3    0    0  0.25001716144E+02 -0.14739430126E+02  0.34449628586E+02  0.45045682594E+02  0.00000000000E+00 0. -1.
         11    1    4    4    0    0 -0.42473989922E+01  0.76001017466E+01 -0.97529294865E+01  0.13073697969E+02  0.51100000000E-03 0. -1.
        -11    1    4    4    0    0 -0.40497096084E+01  0.18269587174E+01 -0.55638159905E+01  0.71199701337E+01  0.51100000000E-03 0.  1.
         12    1    4    4    0    0 -0.16704607544E+02  0.53123696618E+01 -0.19132883109E+02  0.25948649304E+02  0.00000000000E+00 0. -1.
</event>
<event>
 8    1  0.7489580E-009  0.9118800E+02  0.7816164E-02  0.1184000E+00
        -11   -1    0    0    0    0  0.00000000000E+00  0.00000000000E+00  0.45593999997E+02  0.45594000000E+02  0.51100000000E-03 0. -1.
         11   -1    0    0    0    0 -0.00000000000E+00 -0.00000000000E+00 -0.45593999997E+02  0.45594000000E+02  0.51100000000E-03 0.  1.
         23    2    1    2    0    0  0.00000000000E+00  0.00000000000E+00  0.00000000000E+00  0.91188000000E+02  0.91188000000E+02 0.  0.
    9900012    2    3    3    0    0  0.17922308525E+02  0.32050961246E+02  0.26089082609E+02  0.46142317732E+02  0.99999997362E+01 0.  0.
        -12    1    3    3    0    0 -0.17922308525E+02 -0.32050961246E+02 -0.26089082609E+02  0.45045682268E+02  0.00000000000E+00 0.  1.
         11    1    4    4    0    0  0.96101563051E+01  0.12344028826E+02  0.78475020674E+01  0.17501812501E+02  0.51100000000E-03 0. -1.
        -11    1    4    4    0    0  0.27897691304E+01  0.21883462127E+01  0.43424059522E+01  0.56060824702E+01  0.51100000000E-03 0.  1.
        -12    1    4    4    0    0  0.55223830890E+01  0.17518586207E+02  0.13899174589E+02  0.23034422761E+02  0.00000000000E+00 0.  1.
</event>
<event>
 8    1  0.7489580E-009  0.9118800E+02  0.7816164E-02  0.1184000E+00
        -11   -1    0    0    0    0  0.00000000000E+00  0.00000000000E+00  0.45593999997E+02  0.45594000000E+02  0.51100000000E-03 0. -1.
         11   -1    0    0    0    0 -0.00000000000E+00 -0.00000000000E+00 -0.45593999997E+02  0.45594000000E+02  0.51100000000E-03 0.  1.
         23    2    1    2    0    0  0.00000000000E+00  0.00000000000E+00  0.00000000000E+00  0.91188000000E+02  0.91188000000E+02 0.  0.
    9900012    2    3    3    0    0  0.85694727609E+01 -0.24265009727E+02 -0.36971439511E+02  0.46142313193E+02  0.99999583436E+01 0.  0.
         12    1    3    3    0    0 -0.85694727609E+01  0.24265009727E+02  0.36971439511E+02  0.45045686807E+02  0.00000000000E+00 0. -1.
         11    1    4    4    0    0  0.12820081100E+01 -0.25176240127E+01 -0.74980282271E+01  0.80126402027E+01  0.51100000000E-03 0. -1.
        -11    1    4    4    0    0  0.87929823252E+00 -0.14121263334E+02 -0.18814931720E+02  0.23541132076E+02  0.51100000000E-03 0.  1.
         12    1    4    4    0    0  0.64081664183E+01 -0.76261223797E+01 -0.10658479564E+02  0.14588540914E+02  0.00000000000E+00 0. -1.
</event>
<event>
 8    1  0.7489580E-009  0.9118800E+02  0.7816164E-02  0.1184000E+00
        -11   -1    0    0    0    0  0.00000000000E+00  0.00000000000E+00  0.45593999997E+02  0.45594000000E+02  0.51100000000E-03 0. -1.
         11   -1    0    0    0    0 -0.00000000000E+00 -0.00000000000E+00 -0.45593999997E+02  0.45594000000E+02  0.51100000000E-03 0.  1.
         23    2    1    2    0    0  0.35527136788E-14  0.44408920985E-15  0.00000000000E+00  0.91188000000E+02  0.91188000000E+02 0.  0.
    9900012    2    3    3    0    0 -0.28156618730E+02 -0.30649691952E+01 -0.35027480439E+02  0.46142316518E+02  0.99999886637E+01 0.  0.
         12    1    3    3    0    0  0.28156618730E+02  0.30649691952E+01  0.35027480439E+02  0.45045683482E+02  0.00000000000E+00 0. -1.
         11    1    4    4    0    0 -0.67452885192E+01 -0.30895287151E+01 -0.13646730340E+02  0.15533105102E+02  0.51100000000E-03 0. -1.
        -11    1    4    4    0    0 -0.82667070981E+01  0.20988345492E+01 -0.71913918156E+01  0.11156149390E+02  0.51100000000E-03 0.  1.
        -12    1    4    4    0    0 -0.13144623112E+02 -0.20742750293E+01 -0.14189358284E+02  0.19453062026E+02  0.00000000000E+00 0.  1.
</event>
<event>
 8    1  0.7489580E-009  0.9118800E+02  0.7816164E-02  0.1184000E+00
        -11   -1    0    0    0    0  0.00000000000E+00  0.00000000000E+00  0.45593999997E+02  0.45594000000E+02  0.51100000000E-03 0. -1.
         11   -1    0    0    0    0 -0.00000000000E+00 -0.00000000000E+00 -0.45593999997E+02  0.45594000000E+02  0.51100000000E-03 0.  1.
         23    2    1    2    0    0 -0.17763568394E-14 -0.35527136788E-14 -0.71054273576E-14  0.91188000000E+02  0.91188000000E+02 0.  0.
    9900012    2    3    3    0    0 -0.15090451358E+02 -0.18445159283E+02 -0.38225229122E+02  0.46142314695E+02  0.99999720426E+01 0.  0.
         12    1    3    3    0    0  0.15090451358E+02  0.18445159283E+02  0.38225229122E+02  0.45045685305E+02  0.00000000000E+00 0. -1.
         11    1    4    4    0    0 -0.73655722259E+01 -0.39277137954E+01 -0.93524037344E+01  0.12535790591E+02  0.51100000000E-03 0. -1.
        -11    1    4    4    0    0  0.39827558220E-01 -0.26577304761E+00  0.18309661780E+00  0.32518637702E+00  0.51100000000E-03 0.  1.
        -12    1    4    4    0    0 -0.77647066899E+01 -0.14251672440E+02 -0.29055922005E+02  0.33281337727E+02  0.00000000000E+00 0.  1.
</event>
<event>
 8    1  0.7489580E-009  0.9118800E+02  0.7816164E-02  0.1184000E+00
        -11   -1    0    0    0    0  0.00000000000E+00  0.00000000000E+00  0.45593999997E+02  0.45594000000E+02  0.51100000000E-03 0.  1.
         11   -1    0    0    0    0 -0.00000000000E+00 -0.00000000000E+00 -0.45593999997E+02  0.45594000000E+02  0.51100000000E-03 0. -1.
         23    2    1    2    0    0  0.00000000000E+00  0.00000000000E+00  0.88817841970E-15  0.91188000000E+02  0.91188000000E+02 0.  0.
    9900012    2    3    3    0    0  0.33717851517E+02  0.29526240421E+02  0.45189670646E+01  0.46142318213E+02  0.10000004122E+02 0.  0.
        -12    1    3    3    0    0 -0.33717851517E+02 -0.29526240421E+02 -0.45189670646E+01  0.45045681787E+02  0.00000000000E+00 0.  1.
         11    1    4    4    0    0  0.22311794396E+02  0.16712014581E+02  0.53749429718E+01  0.28390097089E+02  0.51100000000E-03 0. -1.
        -11    1    4    4    0    0  0.17321306402E+01  0.44924860635E+01  0.81236981694E+00  0.48828938721E+01  0.51100000000E-03 0.  1.
        -12    1    4    4    0    0  0.96739264810E+01  0.83217397764E+01 -0.16683457242E+01  0.12869327252E+02  0.00000000000E+00 0.  1.
</event>
<event>
 8    1  0.7489580E-009  0.9118800E+02  0.7816164E-02  0.1184000E+00
        -11   -1    0    0    0    0  0.00000000000E+00  0.00000000000E+00  0.45593999997E+02  0.45594000000E+02  0.51100000000E-03 0. -1.
         11   -1    0    0    0    0 -0.00000000000E+00 -0.00000000000E+00 -0.45593999997E+02  0.45594000000E+02  0.51100000000E-03 0.  1.
         23    2    1    2    0    0  0.00000000000E+00 -0.17763568394E-14  0.00000000000E+00  0.91188000000E+02  0.91188000000E+02 0.  0.
    9900012    2    3    3    0    0 -0.12205410682E+02 -0.14010535547E+02 -0.41034696356E+02  0.46142318062E+02  0.10000002746E+02 0.  0.
         12    1    3    3    0    0  0.12205410682E+02  0.14010535547E+02  0.41034696356E+02  0.45045681938E+02  0.00000000000E+00 0. -1.
         11    1    4    4    0    0  0.77250250416E+00 -0.37796628307E+01 -0.51116655567E+01  0.64040406196E+01  0.51100000000E-03 0. -1.
        -11    1    4    4    0    0 -0.60679596673E+01 -0.41404116195E+01 -0.20471920339E+02  0.21750003805E+02  0.51100000000E-03 0.  1.
        -12    1    4    4    0    0 -0.69099535185E+01 -0.60904610972E+01 -0.15451110460E+02  0.17988273638E+02  0.00000000000E+00 0.  1.
</event>
<event>
 8    1  0.7489580E-009  0.9118800E+02  0.7816164E-02  0.1184000E+00
        -11   -1    0    0    0    0  0.00000000000E+00  0.00000000000E+00  0.45593999997E+02  0.45594000000E+02  0.51100000000E-03 0.  1.
         11   -1    0    0    0    0 -0.00000000000E+00 -0.00000000000E+00 -0.45593999997E+02  0.45594000000E+02  0.51100000000E-03 0. -1.
         23    2    1    2    0    0  0.00000000000E+00  0.00000000000E+00  0.27755575616E-16  0.91188000000E+02  0.91188000000E+02 0.  0.
    9900012    2    3    3    0    0  0.74586772425E+01  0.44423414756E+02 -0.20456124072E+00  0.46142317742E+02  0.99999998219E+01 0.  0.
         12    1    3    3    0    0 -0.74586772425E+01 -0.44423414756E+02  0.20456124072E+00  0.45045682258E+02  0.00000000000E+00 0. -1.
         11    1    4    4    0    0  0.69269830147E+01  0.22214993577E+02  0.51959632183E+00  0.23275717259E+02  0.51100000000E-03 0. -1.
        -11    1    4    4    0    0  0.26283774977E+01  0.14266251996E+02  0.72957890837E+00  0.14524689323E+02  0.51100000000E-03 0.  1.
        -12    1    4    4    0    0 -0.20966832699E+01  0.79421691833E+01 -0.14537364709E+01  0.83419111597E+01  0.00000000000E+00 0.  1.
</event>
<event>
 8    1  0.7489580E-009  0.9118800E+02  0.7816164E-02  0.1184000E+00
        -11   -1    0    0    0    0  0.00000000000E+00  0.00000000000E+00  0.45593999997E+02  0.45594000000E+02  0.51100000000E-03 0.  1.
         11   -1    0    0    0    0 -0.00000000000E+00 -0.00000000000E+00 -0.45593999997E+02  0.45594000000E+02  0.51100000000E-03 0. -1.
         23    2    1    2    0    0 -0.17763568394E-14  0.00000000000E+00  0.00000000000E+00  0.91188000000E+02  0.91188000000E+02 0.  0.
    9900012    2    3    3    0    0 -0.14746159910E+02  0.38943418315E+02  0.17177731974E+02  0.46142317211E+02  0.99999949870E+01 0.  0.
        -12    1    3    3    0    0  0.14746159910E+02 -0.38943418315E+02 -0.17177731974E+02  0.45045682789E+02  0.00000000000E+00 0.  1.
         11    1    4    4    0    0 -0.10339042382E+02  0.27143698059E+02  0.10118019968E+02  0.30757933448E+02  0.51100000000E-03 0. -1.
        -11    1    4    4    0    0 -0.51969651035E+01  0.10491180281E+02  0.47939661355E+01  0.12651301180E+02  0.51100000000E-03 0.  1.
        -12    1    4    4    0    0  0.78984757553E+00  0.13085399752E+01  0.22657458698E+01  0.27330825830E+01  0.00000000000E+00 0.  1.
</event>
<event>
 8    1  0.7489580E-009  0.9118800E+02  0.7816164E-02  0.1184000E+00
        -11   -1    0    0    0    0  0.00000000000E+00  0.00000000000E+00  0.45593999997E+02  0.45594000000E+02  0.51100000000E-03 0. -1.
         11   -1    0    0    0    0 -0.00000000000E+00 -0.00000000000E+00 -0.45593999997E+02  0.45594000000E+02  0.51100000000E-03 0.  1.
         23    2    1    2    0    0  0.00000000000E+00 -0.44408920985E-15 -0.71054273576E-14  0.91188000000E+02  0.91188000000E+02 0.  0.
    9900012    2    3    3    0    0 -0.33243650953E+02 -0.25531575123E+01  0.30289512657E+02  0.46142317421E+02  0.99999969026E+01 0.  0.
        -12    1    3    3    0    0  0.33243650953E+02  0.25531575123E+01 -0.30289512657E+02  0.45045682579E+02  0.00000000000E+00 0.  1.
         11    1    4    4    0    0 -0.63271620852E+01  0.21019675375E+01  0.73183267027E+01  0.98999572509E+01  0.51100000000E-03 0. -1.
        -11    1    4    4    0    0 -0.10505227242E+02 -0.10927669347E+00  0.55540635580E+01  0.11883575348E+02  0.51100000000E-03 0.  1.
         12    1    4    4    0    0 -0.16411261626E+02 -0.45458483564E+01  0.17417122396E+02  0.24358784822E+02  0.00000000000E+00 0. -1.
</event>
<event>
 8    1  0.7489580E-009  0.9118800E+02  0.7816164E-02  0.1184000E+00
        -11   -1    0    0    0    0  0.00000000000E+00  0.00000000000E+00  0.45593999997E+02  0.45594000000E+02  0.51100000000E-03 0. -1.
         11   -1    0    0    0    0 -0.00000000000E+00 -0.00000000000E+00 -0.45593999997E+02  0.45594000000E+02  0.51100000000E-03 0.  1.
         23    2    1    2    0    0 -0.71054273576E-14  0.00000000000E+00 -0.22204460493E-15  0.91188000000E+02  0.91188000000E+02 0.  0.
    9900012    2    3    3    0    0 -0.40144651496E+02  0.20371544332E+02 -0.15876371822E+01  0.46142318142E+02  0.10000003476E+02 0.  0.
         12    1    3    3    0    0  0.40144651496E+02 -0.20371544332E+02  0.15876371822E+01  0.45045681858E+02  0.00000000000E+00 0. -1.
         11    1    4    4    0    0 -0.11478961384E+02  0.41962474174E+01 -0.10804348386E+00  0.12222386040E+02  0.51100000000E-03 0. -1.
        -11    1    4    4    0    0 -0.24536508488E+02  0.11861757227E+02  0.14027186991E+01  0.27289359709E+02  0.51100000000E-03 0.  1.
         12    1    4    4    0    0 -0.41291816241E+01  0.43135396871E+01 -0.28823123975E+01  0.66305723941E+01  0.00000000000E+00 0. -1.
</event>
<event>
 8    1  0.7489580E-009  0.9118800E+02  0.7816164E-02  0.1184000E+00
        -11   -1    0    0    0    0  0.00000000000E+00  0.00000000000E+00  0.45593999997E+02  0.45594000000E+02  0.51100000000E-03 0. -1.
         11   -1    0    0    0    0 -0.00000000000E+00 -0.00000000000E+00 -0.45593999997E+02  0.45594000000E+02  0.51100000000E-03 0.  1.
         23    2    1    2    0    0  0.35527136788E-14  0.00000000000E+00  0.00000000000E+00  0.91188000000E+02  0.91188000000E+02 0.  0.
    9900012    2    3    3    0    0  0.23486890032E+02  0.17863992748E+02  0.34034645060E+02  0.46142319800E+02  0.10000018592E+02 0.  0.
        -12    1    3    3    0    0 -0.23486890032E+02 -0.17863992748E+02 -0.34034645060E+02  0.45045680200E+02  0.00000000000E+00 0.  1.
         11    1    4    4    0    0  0.72811543224E+01  0.24635463625E+01  0.99755179180E+01  0.12593459689E+02  0.51100000000E-03 0. -1.
        -11    1    4    4    0    0  0.12497965964E+01 -0.56947421849E+00  0.23799044674E+01  0.27477696324E+01  0.51100000000E-03 0.  1.
         12    1    4    4    0    0  0.14955939114E+02  0.15969920604E+02  0.21679222675E+02  0.30801090478E+02  0.00000000000E+00 0. -1.
</event>
<event>
 8    1  0.7489580E-009  0.9118800E+02  0.7816164E-02  0.1184000E+00
        -11   -1    0    0    0    0  0.00000000000E+00  0.00000000000E+00  0.45593999997E+02  0.45594000000E+02  0.51100000000E-03 0.  1.
         11   -1    0    0    0    0 -0.00000000000E+00 -0.00000000000E+00 -0.45593999997E+02  0.45594000000E+02  0.51100000000E-03 0. -1.
         23    2    1    2    0    0  0.00000000000E+00  0.00000000000E+00  0.00000000000E+00  0.91188000000E+02  0.91188000000E+02 0.  0.
    9900012    2    3    3    0    0 -0.90452352918E+01 -0.25782155144E+02 -0.35813093198E+02  0.46142318190E+02  0.10000003910E+02 0.  0.
         12    1    3    3    0    0  0.90452352918E+01  0.25782155144E+02  0.35813093198E+02  0.45045681810E+02  0.00000000000E+00 0. -1.
         11    1    4    4    0    0 -0.76391295746E+01 -0.11001053356E+02 -0.11695467738E+02  0.17780985391E+02  0.51100000000E-03 0. -1.
        -11    1    4    4    0    0 -0.35414722254E+00 -0.10476906083E+02 -0.17409509321E+02  0.20321958478E+02  0.51100000000E-03 0.  1.
        -12    1    4    4    0    0 -0.10519584946E+01 -0.43041957047E+01 -0.67081161391E+01  0.80393743211E+01  0.00000000000E+00 0.  1.
</event>
<event>
 8    1  0.7489580E-009  0.9118800E+02  0.7816164E-02  0.1184000E+00
        -11   -1    0    0    0    0  0.00000000000E+00  0.00000000000E+00  0.45593999997E+02  0.45594000000E+02  0.51100000000E-03 0. -1.
         11   -1    0    0    0    0 -0.00000000000E+00 -0.00000000000E+00 -0.45593999997E+02  0.45594000000E+02  0.51100000000E-03 0.  1.
         23    2    1    2    0    0  0.55511151231E-15  0.88817841970E-15  0.00000000000E+00  0.91188000000E+02  0.91188000000E+02 0.  0.
    9900012    2    3    3    0    0 -0.82011880225E+00 -0.70504745080E+01 -0.44482937095E+02  0.46142317873E+02  0.10000001021E+02 0.  0.
         12    1    3    3    0    0  0.82011880225E+00  0.70504745080E+01  0.44482937095E+02  0.45045682127E+02  0.00000000000E+00 0. -1.
         11    1    4    4    0    0  0.33261836630E+01 -0.11759390021E+01 -0.61902270862E+01  0.71249731183E+01  0.51100000000E-03 0. -1.
        -11    1    4    4    0    0 -0.29705825903E+01 -0.31748468711E+01 -0.26959477673E+02  0.27307827637E+02  0.51100000000E-03 0.  1.
         12    1    4    4    0    0 -0.11757198749E+01 -0.26996886348E+01 -0.11333232337E+02  0.11709517118E+02  0.00000000000E+00 0. -1.
</event>
<event>
 8    1  0.7489580E-009  0.9118800E+02  0.7816164E-02  0.1184000E+00
        -11   -1    0    0    0    0  0.00000000000E+00  0.00000000000E+00  0.45593999997E+02  0.45594000000E+02  0.51100000000E-03 0. -1.
         11   -1    0    0    0    0 -0.00000000000E+00 -0.00000000000E+00 -0.45593999997E+02  0.45594000000E+02  0.51100000000E-03 0.  1.
         23    2    1    2    0    0  0.17763568394E-14  0.35527136788E-14  0.00000000000E+00  0.91188000000E+02  0.91188000000E+02 0.  0.
    9900012    2    3    3    0    0 -0.12013394076E+02 -0.15973166122E+02 -0.40368919215E+02  0.46142319721E+02  0.10000017870E+02 0.  0.
         12    1    3    3    0    0  0.12013394076E+02  0.15973166122E+02  0.40368919215E+02  0.45045680279E+02  0.00000000000E+00 0. -1.
         11    1    4    4    0    0 -0.80065605697E+00 -0.19096981198E+01 -0.68795575549E+01  0.71844491398E+01  0.51100000000E-03 0. -1.
        -11    1    4    4    0    0 -0.35210513890E+01 -0.11126025777E+02 -0.19811429348E+02  0.22993020366E+02  0.51100000000E-03 0.  1.
         12    1    4    4    0    0 -0.76916866303E+01 -0.29374422254E+01 -0.13677932313E+02  0.15964850215E+02  0.00000000000E+00 0. -1.
</event>
<event>
 8    1  0.7489580E-009  0.9118800E+02  0.7816164E-02  0.1184000E+00
        -11   -1    0    0    0    0  0.00000000000E+00  0.00000000000E+00  0.45593999997E+02  0.45594000000E+02  0.51100000000E-03 0. -1.
         11   -1    0    0    0    0 -0.00000000000E+00 -0.00000000000E+00 -0.45593999997E+02  0.45594000000E+02  0.51100000000E-03 0.  1.
         23    2    1    2    0    0  0.00000000000E+00 -0.17763568394E-14  0.00000000000E+00  0.91188000000E+02  0.91188000000E+02 0.  0.
    9900012    2    3    3    0    0 -0.23246698627E+02 -0.98028221309E+01 -0.37317679498E+02  0.46142317389E+02  0.99999966094E+01 0.  0.
         12    1    3    3    0    0  0.23246698627E+02  0.98028221309E+01  0.37317679498E+02  0.45045682611E+02  0.00000000000E+00 0. -1.
         11    1    4    4    0    0 -0.13496143490E+01 -0.24708756174E+01 -0.63383748907E+01  0.69355375944E+01  0.51100000000E-03 0. -1.
        -11    1    4    4    0    0 -0.47873444762E+01 -0.31208766961E+01 -0.12103679119E+02  0.13384976166E+02  0.51100000000E-03 0.  1.
        -12    1    4    4    0    0 -0.17109739802E+02 -0.42110698174E+01 -0.18875625488E+02  0.25821803629E+02  0.00000000000E+00 0.  1.
</event>
<event>
 8    1  0.7489580E-009  0.9118800E+02  0.7816164E-02  0.1184000E+00
        -11   -1    0    0    0    0  0.00000000000E+00  0.00000000000E+00  0.45593999997E+02  0.45594000000E+02  0.51100000000E-03 0. -1.
         11   -1    0    0    0    0 -0.00000000000E+00 -0.00000000000E+00 -0.45593999997E+02  0.45594000000E+02  0.51100000000E-03 0.  1.
         23    2    1    2    0    0  0.00000000000E+00  0.00000000000E+00  0.00000000000E+00  0.91188000000E+02  0.91188000000E+02 0.  0.
    9900012    2    3    3    0    0  0.68755298539E+01  0.27312157369E+02 -0.35155179213E+02  0.46142317893E+02  0.10000001207E+02 0.  0.
         12    1    3    3    0    0 -0.68755298539E+01 -0.27312157369E+02  0.35155179213E+02  0.45045682107E+02  0.00000000000E+00 0. -1.
         11    1    4    4    0    0  0.53642765413E+01  0.17088559020E+02 -0.16557197671E+02  0.24391291626E+02  0.51100000000E-03 0. -1.
        -11    1    4    4    0    0 -0.12062055086E+01  0.33012716688E+01 -0.37187127046E+01  0.51168496949E+01  0.51100000000E-03 0.  1.
         12    1    4    4    0    0  0.27174588212E+01  0.69223266805E+01 -0.14879268837E+02  0.16634176573E+02  0.00000000000E+00 0. -1.
</event>
<event>
 8    1  0.7489580E-009  0.9118800E+02  0.7816164E-02  0.1184000E+00
        -11   -1    0    0    0    0  0.00000000000E+00  0.00000000000E+00  0.45593999997E+02  0.45594000000E+02  0.51100000000E-03 0.  1.
         11   -1    0    0    0    0 -0.00000000000E+00 -0.00000000000E+00 -0.45593999997E+02  0.45594000000E+02  0.51100000000E-03 0. -1.
         23    2    1    2    0    0  0.00000000000E+00  0.88817841970E-15  0.33306690739E-15  0.91188000000E+02  0.91188000000E+02 0.  0.
    9900012    2    3    3    0    0  0.44972128621E+02 -0.25032168390E+01 -0.59583637624E+00  0.46142317985E+02  0.10000002041E+02 0.  0.
        -12    1    3    3    0    0 -0.44972128621E+02  0.25032168390E+01  0.59583637624E+00  0.45045682015E+02  0.00000000000E+00 0.  1.
         11    1    4    4    0    0  0.15220361960E+02  0.22004598629E+01  0.15604464830E+00  0.15379395046E+02  0.51100000000E-03 0. -1.
        -11    1    4    4    0    0  0.10677372143E+02  0.54183751413E+00 -0.22444983209E+01  0.10924176708E+02  0.51100000000E-03 0.  1.
         12    1    4    4    0    0  0.19074394518E+02 -0.52455142160E+01  0.14926172964E+01  0.19838746231E+02  0.00000000000E+00 0. -1.
</event>
<event>
 8    1  0.7489580E-009  0.9118800E+02  0.7816164E-02  0.1184000E+00
        -11   -1    0    0    0    0  0.00000000000E+00  0.00000000000E+00  0.45593999997E+02  0.45594000000E+02  0.51100000000E-03 0. -1.
         11   -1    0    0    0    0 -0.00000000000E+00 -0.00000000000E+00 -0.45593999997E+02  0.45594000000E+02  0.51100000000E-03 0.  1.
         23    2    1    2    0    0  0.00000000000E+00  0.00000000000E+00  0.00000000000E+00  0.91188000000E+02  0.91188000000E+02 0.  0.
    9900012    2    3    3    0    0  0.30898720187E+02 -0.32691360038E+02  0.23785635140E+01  0.46142317691E+02  0.99999993563E+01 0.  0.
         12    1    3    3    0    0 -0.30898720187E+02  0.32691360038E+02 -0.23785635140E+01  0.45045682309E+02  0.00000000000E+00 0. -1.
         11    1    4    4    0    0  0.64411511436E+01 -0.36481888060E+01  0.18373626062E+01  0.76271627246E+01  0.51100000000E-03 0. -1.
        -11    1    4    4    0    0  0.16875516388E+02 -0.15329474352E+02  0.12108216576E+01  0.22830723305E+02  0.51100000000E-03 0.  1.
        -12    1    4    4    0    0  0.75820526555E+01 -0.13713696880E+02 -0.66962074981E+00  0.15684431661E+02  0.00000000000E+00 0.  1.
</event>
<event>
 8    1  0.7489580E-009  0.9118800E+02  0.7816164E-02  0.1184000E+00
        -11   -1    0    0    0    0  0.00000000000E+00  0.00000000000E+00  0.45593999997E+02  0.45594000000E+02  0.51100000000E-03 0. -1.
         11   -1    0    0    0    0 -0.00000000000E+00 -0.00000000000E+00 -0.45593999997E+02  0.45594000000E+02  0.51100000000E-03 0.  1.
         23    2    1    2    0    0  0.00000000000E+00  0.35527136788E-14  0.00000000000E+00  0.91188000000E+02  0.91188000000E+02 0.  0.
    9900012    2    3    3    0    0 -0.26734361368E+02 -0.26159384746E+02  0.25101277690E+02  0.46142316193E+02  0.99999856979E+01 0.  0.
        -12    1    3    3    0    0  0.26734361368E+02  0.26159384746E+02 -0.25101277690E+02  0.45045683807E+02  0.00000000000E+00 0.  1.
         11    1    4    4    0    0 -0.17202148850E+02 -0.16590215270E+02  0.16207630172E+02  0.28876226274E+02  0.51100000000E-03 0. -1.
        -11    1    4    4    0    0 -0.93747416519E+01 -0.63562793711E+01  0.81792274474E+01  0.13970963831E+02  0.51100000000E-03 0.  1.
        -12    1    4    4    0    0 -0.15747086596E+00 -0.32128901040E+01  0.71442007065E+00  0.32951260874E+01  0.00000000000E+00 0.  1.
</event>
<event>
 8    1  0.7489580E-009  0.9118800E+02  0.7816164E-02  0.1184000E+00
        -11   -1    0    0    0    0  0.00000000000E+00  0.00000000000E+00  0.45593999997E+02  0.45594000000E+02  0.51100000000E-03 0. -1.
         11   -1    0    0    0    0 -0.00000000000E+00 -0.00000000000E+00 -0.45593999997E+02  0.45594000000E+02  0.51100000000E-03 0.  1.
         23    2    1    2    0    0  0.17763568394E-14 -0.35527136788E-14  0.00000000000E+00  0.91188000000E+02  0.91188000000E+02 0.  0.
    9900012    2    3    3    0    0  0.11471426947E+02  0.26375948341E+02 -0.34667409039E+02  0.46142317226E+02  0.99999951240E+01 0.  0.
         12    1    3    3    0    0 -0.11471426947E+02 -0.26375948341E+02  0.34667409039E+02  0.45045682774E+02  0.00000000000E+00 0. -1.
         11    1    4    4    0    0  0.22301233393E+01  0.36441008742E+01 -0.22620786610E+01  0.48342446586E+01  0.51100000000E-03 0. -1.
        -11    1    4    4    0    0 -0.37713671959E-01  0.89152371226E+01 -0.99925630794E+01  0.13391571694E+02  0.51100000000E-03 0.  1.
         12    1    4    4    0    0  0.92790172797E+01  0.13816610344E+02 -0.22412767298E+02  0.27916500874E+02  0.00000000000E+00 0. -1.
</event>
<event>
 8    1  0.7489580E-009  0.9118800E+02  0.7816164E-02  0.1184000E+00
        -11   -1    0    0    0    0  0.00000000000E+00  0.00000000000E+00  0.45593999997E+02  0.45594000000E+02  0.51100000000E-03 0. -1.
         11   -1    0    0    0    0 -0.00000000000E+00 -0.00000000000E+00 -0.45593999997E+02  0.45594000000E+02  0.51100000000E-03 0.  1.
         23    2    1    2    0    0  0.00000000000E+00  0.00000000000E+00  0.00000000000E+00  0.91188000000E+02  0.91188000000E+02 0.  0.
    9900012    2    3    3    0    0 -0.22693962075E+02 -0.25504983360E+02 -0.29386960454E+02  0.46142317237E+02  0.99999952223E+01 0.  0.
         12    1    3    3    0    0  0.22693962075E+02  0.25504983360E+02  0.29386960454E+02  0.45045682763E+02  0.00000000000E+00 0. -1.
         11    1    4    4    0    0 -0.13363178751E+02 -0.10501580898E+02 -0.12718994047E+02  0.21228060616E+02  0.51100000000E-03 0.  1.
        -11    1    4    4    0    0 -0.60947363020E+00 -0.14468415298E+01  0.19983801624E+00  0.15826383074E+01  0.51100000000E-03 0. -1.
         12    1    4    4    0    0 -0.87213096940E+01 -0.13556560933E+02 -0.16867804423E+02  0.23331618314E+02  0.00000000000E+00 0. -1.
</event>
<event>
 8    1  0.7489580E-009  0.9118800E+02  0.7816164E-02  0.1184000E+00
        -11   -1    0    0    0    0  0.00000000000E+00  0.00000000000E+00  0.45593999997E+02  0.45594000000E+02  0.51100000000E-03 0.  1.
         11   -1    0    0    0    0 -0.00000000000E+00 -0.00000000000E+00 -0.45593999997E+02  0.45594000000E+02  0.51100000000E-03 0. -1.
         23    2    1    2    0    0  0.71054273576E-14  0.00000000000E+00  0.00000000000E+00  0.91188000000E+02  0.91188000000E+02 0.  0.
    9900012    2    3    3    0    0  0.37498743005E+02 -0.19343307368E+02 -0.15773211584E+02  0.46142317959E+02  0.10000001802E+02 0.  0.
         12    1    3    3    0    0 -0.37498743005E+02  0.19343307368E+02  0.15773211584E+02  0.45045682041E+02  0.00000000000E+00 0. -1.
         11    1    4    4    0    0  0.18493052137E+02 -0.11406157849E+02 -0.48690306268E+01  0.22266586486E+02  0.51100000000E-03 0.  1.
        -11    1    4    4    0    0  0.11358879269E+02 -0.26784762301E+01 -0.41057718185E+01  0.12371569652E+02  0.51100000000E-03 0. -1.
         12    1    4    4    0    0  0.76468115984E+01 -0.52586732890E+01 -0.67984091386E+01  0.11504161821E+02  0.00000000000E+00 0. -1.
</event>
<event>
 8    1  0.7489580E-009  0.9118800E+02  0.7816164E-02  0.1184000E+00
        -11   -1    0    0    0    0  0.00000000000E+00  0.00000000000E+00  0.45593999997E+02  0.45594000000E+02  0.51100000000E-03 0. -1.
         11   -1    0    0    0    0 -0.00000000000E+00 -0.00000000000E+00 -0.45593999997E+02  0.45594000000E+02  0.51100000000E-03 0.  1.
         23    2    1    2    0    0  0.00000000000E+00  0.00000000000E+00  0.00000000000E+00  0.91188000000E+02  0.91188000000E+02 0.  0.
    9900012    2    3    3    0    0  0.33501359916E+02 -0.20299841116E+02 -0.22241601175E+02  0.46142317761E+02  0.10000000001E+02 0.  0.
         12    1    3    3    0    0 -0.33501359916E+02  0.20299841116E+02  0.22241601175E+02  0.45045682239E+02  0.00000000000E+00 0. -1.
         11    1    4    4    0    0  0.31387645586E+01 -0.34621832658E+01 -0.13196878286E+01  0.48559378236E+01  0.51100000000E-03 0.  1.
        -11    1    4    4    0    0  0.16705827359E+02 -0.13121880283E+02 -0.10411240048E+02  0.23657183466E+02  0.51100000000E-03 0. -1.
        -12    1    4    4    0    0  0.13656767998E+02 -0.37157775673E+01 -0.10510673298E+02  0.17629196472E+02  0.00000000000E+00 0.  1.
</event>
<event>
 8    1  0.7489580E-009  0.9118800E+02  0.7816164E-02  0.1184000E+00
        -11   -1    0    0    0    0  0.00000000000E+00  0.00000000000E+00  0.45593999997E+02  0.45594000000E+02  0.51100000000E-03 0. -1.
         11   -1    0    0    0    0 -0.00000000000E+00 -0.00000000000E+00 -0.45593999997E+02  0.45594000000E+02  0.51100000000E-03 0.  1.
         23    2    1    2    0    0  0.00000000000E+00  0.00000000000E+00 -0.44408920985E-15  0.91188000000E+02  0.91188000000E+02 0.  0.
    9900012    2    3    3    0    0  0.44754173768E+02 -0.40465725752E+01 -0.31308765246E+01  0.46142320883E+02  0.10000028469E+02 0.  0.
         12    1    3    3    0    0 -0.44754173768E+02  0.40465725752E+01  0.31308765246E+01  0.45045679117E+02  0.00000000000E+00 0. -1.
         11    1    4    4    0    0  0.42194082054E+01 -0.31514579181E-02  0.45888367168E+00  0.42442891067E+01  0.51100000000E-03 0. -1.
        -11    1    4    4    0    0  0.39796318737E+02 -0.28639957935E+01 -0.46211312250E+01  0.40165959605E+02  0.51100000000E-03 0.  1.
        -12    1    4    4    0    0  0.73844682614E+00 -0.11794253238E+01  0.10313710287E+01  0.17320721718E+01  0.00000000000E+00 0.  1.
</event>
<event>
 8    1  0.7489580E-009  0.9118800E+02  0.7816164E-02  0.1184000E+00
        -11   -1    0    0    0    0  0.00000000000E+00  0.00000000000E+00  0.45593999997E+02  0.45594000000E+02  0.51100000000E-03 0. -1.
         11   -1    0    0    0    0 -0.00000000000E+00 -0.00000000000E+00 -0.45593999997E+02  0.45594000000E+02  0.51100000000E-03 0.  1.
         23    2    1    2    0    0  0.35527136788E-14 -0.17763568394E-14  0.71054273576E-14  0.91188000000E+02  0.91188000000E+02 0.  0.
    9900012    2    3    3    0    0 -0.17676702061E+02  0.10217493064E+02 -0.40152838625E+02  0.46142318632E+02  0.10000007942E+02 0.  0.
         12    1    3    3    0    0  0.17676702061E+02 -0.10217493064E+02  0.40152838625E+02  0.45045681368E+02  0.00000000000E+00 0. -1.
         11    1    4    4    0    0 -0.36324397100E+01  0.54694019169E+01 -0.10827137674E+02  0.12662380742E+02  0.51100000000E-03 0. -1.
        -11    1    4    4    0    0 -0.22091362736E+01  0.24557902106E+00 -0.10889100930E+02  0.11113645282E+02  0.51100000000E-03 0.  1.
        -12    1    4    4    0    0 -0.11835126078E+02  0.45025121259E+01 -0.18436600021E+02  0.22366292608E+02  0.00000000000E+00 0.  1.
</event>
<event>
 8    1  0.7489580E-009  0.9118800E+02  0.7816164E-02  0.1184000E+00
        -11   -1    0    0    0    0  0.00000000000E+00  0.00000000000E+00  0.45593999997E+02  0.45594000000E+02  0.51100000000E-03 0. -1.
         11   -1    0    0    0    0 -0.00000000000E+00 -0.00000000000E+00 -0.45593999997E+02  0.45594000000E+02  0.51100000000E-03 0.  1.
         23    2    1    2    0    0  0.00000000000E+00  0.00000000000E+00  0.00000000000E+00  0.91188000000E+02  0.91188000000E+02 0.  0.
    9900012    2    3    3    0    0 -0.95128812768E+01  0.20203704778E+02  0.39120696621E+02  0.46142317620E+02  0.99999987140E+01 0.  0.
        -12    1    3    3    0    0  0.95128812768E+01 -0.20203704778E+02 -0.39120696621E+02  0.45045682380E+02  0.00000000000E+00 0.  1.
         11    1    4    4    0    0 -0.57650993445E+01  0.26420736425E+01  0.10941552377E+02  0.12646520955E+02  0.51100000000E-03 0. -1.
        -11    1    4    4    0    0  0.15358635428E+00  0.13846705127E+01  0.30914047357E+01  0.33908236017E+01  0.51100000000E-03 0.  1.
         12    1    4    4    0    0 -0.39013682866E+01  0.16176960623E+02  0.25087739508E+02  0.30104973063E+02  0.00000000000E+00 0. -1.
</event>
<event>
 8    1  0.7489580E-009  0.9118800E+02  0.7816164E-02  0.1184000E+00
        -11   -1    0    0    0    0  0.00000000000E+00  0.00000000000E+00  0.45593999997E+02  0.45594000000E+02  0.51100000000E-03 0. -1.
         11   -1    0    0    0    0 -0.00000000000E+00 -0.00000000000E+00 -0.45593999997E+02  0.45594000000E+02  0.51100000000E-03 0.  1.
         23    2    1    2    0    0  0.00000000000E+00 -0.35527136788E-14  0.00000000000E+00  0.91188000000E+02  0.91188000000E+02 0.  0.
    9900012    2    3    3    0    0 -0.38873685888E+02  0.15993811136E+02  0.16190985683E+02  0.46142318004E+02  0.10000002211E+02 0.  0.
        -12    1    3    3    0    0  0.38873685888E+02 -0.15993811136E+02 -0.16190985683E+02  0.45045681996E+02  0.00000000000E+00 0.  1.
         11    1    4    4    0    0 -0.16744975243E+02  0.58074353543E+01  0.61793730445E+01  0.18769793626E+02  0.51100000000E-03 0. -1.
        -11    1    4    4    0    0 -0.17067095104E+02  0.56863238970E+01  0.10036333509E+02  0.20599708865E+02  0.51100000000E-03 0.  1.
        -12    1    4    4    0    0 -0.50616155406E+01  0.45000518850E+01 -0.24720870685E-01  0.67728155128E+01  0.00000000000E+00 0.  1.
</event>
<event>
 8    1  0.1011492E-008  0.9118800E+02  0.7816164E-02  0.1184000E+00
        -11   -1    0    0    0    0  0.00000000000E+00  0.00000000000E+00  0.45593999997E+02  0.45594000000E+02  0.51100000000E-03 0. -1.
         11   -1    0    0    0    0 -0.00000000000E+00 -0.00000000000E+00 -0.45593999997E+02  0.45594000000E+02  0.51100000000E-03 0.  1.
         23    2    1    2    0    0  0.17763568394E-14  0.35527136788E-14 -0.71054273576E-14  0.91188000000E+02  0.91188000000E+02 0.  0.
    9900012    2    3    3    0    0  0.11482418817E+02  0.13924982908E+02 -0.41271810383E+02  0.46142318485E+02  0.10000006601E+02 0.  0.
         12    1    3    3    0    0 -0.11482418817E+02 -0.13924982908E+02  0.41271810383E+02  0.45045681515E+02  0.00000000000E+00 0. -1.
         11    1    4    4    0    0 -0.11219651120E+01  0.11165568532E+01 -0.10582413182E+01  0.19040430320E+01  0.51100000000E-03 0. -1.
        -11    1    4    4    0    0  0.53716215002E+01  0.52024358956E+01 -0.21754162447E+02  0.23003548440E+02  0.51100000000E-03 0.  1.
         12    1    4    4    0    0  0.72327624285E+01  0.76059901590E+01 -0.18459406618E+02  0.21234727013E+02  0.00000000000E+00 0. -1.
</event>
<event>
 8    1  0.7489580E-009  0.9118800E+02  0.7816164E-02  0.1184000E+00
        -11   -1    0    0    0    0  0.00000000000E+00  0.00000000000E+00  0.45593999997E+02  0.45594000000E+02  0.51100000000E-03 0.  1.
         11   -1    0    0    0    0 -0.00000000000E+00 -0.00000000000E+00 -0.45593999997E+02  0.45594000000E+02  0.51100000000E-03 0. -1.
         23    2    1    2    0    0  0.00000000000E+00 -0.88817841970E-15  0.00000000000E+00  0.91188000000E+02  0.91188000000E+02 0.  0.
    9900012    2    3    3    0    0 -0.41170791913E+02  0.77285201631E+01 -0.16563478945E+02  0.46142323566E+02  0.10000052933E+02 0.  0.
         12    1    3    3    0    0  0.41170791913E+02 -0.77285201631E+01  0.16563478945E+02  0.45045676434E+02  0.00000000000E+00 0. -1.
         11    1    4    4    0    0  0.77017907522E-01  0.60292502156E+00 -0.10689402430E+01  0.12296681844E+01  0.51100000000E-03 0. -1.
        -11    1    4    4    0    0 -0.25273205323E+02  0.21972776738E+01 -0.80759800647E+01  0.26623004916E+02  0.51100000000E-03 0.  1.
         12    1    4    4    0    0 -0.15974604497E+02  0.49283174677E+01 -0.74185586369E+01  0.18289650466E+02  0.00000000000E+00 0. -1.
</event>
<event>
 8    1  0.7489580E-009  0.9118800E+02  0.7816164E-02  0.1184000E+00
        -11   -1    0    0    0    0  0.00000000000E+00  0.00000000000E+00  0.45593999997E+02  0.45594000000E+02  0.51100000000E-03 0. -1.
         11   -1    0    0    0    0 -0.00000000000E+00 -0.00000000000E+00 -0.45593999997E+02  0.45594000000E+02  0.51100000000E-03 0.  1.
         23    2    1    2    0    0  0.00000000000E+00  0.00000000000E+00  0.00000000000E+00  0.91188000000E+02  0.91188000000E+02 0.  0.
    9900012    2    3    3    0    0 -0.26283732850E+01  0.30914259038E+02 -0.32657521973E+02  0.46142317638E+02  0.99999988775E+01 0.  0.
         12    1    3    3    0    0  0.26283732850E+01 -0.30914259038E+02  0.32657521973E+02  0.45045682362E+02  0.00000000000E+00 0. -1.
         11    1    4    4    0    0  0.15226017555E+01  0.14533632014E+02 -0.12827000490E+02  0.19444194955E+02  0.51100000000E-03 0. -1.
        -11    1    4    4    0    0 -0.35601184307E+01  0.15367704825E+02 -0.20043251311E+02  0.25506327023E+02  0.51100000000E-03 0.  1.
        -12    1    4    4    0    0 -0.59085660974E+00  0.10129221992E+01  0.21272982754E+00  0.11917956597E+01  0.00000000000E+00 0.  1.
</event>
<event>
 8    1  0.7489580E-009  0.9118800E+02  0.7816164E-02  0.1184000E+00
        -11   -1    0    0    0    0  0.00000000000E+00  0.00000000000E+00  0.45593999997E+02  0.45594000000E+02  0.51100000000E-03 0. -1.
         11   -1    0    0    0    0 -0.00000000000E+00 -0.00000000000E+00 -0.45593999997E+02  0.45594000000E+02  0.51100000000E-03 0.  1.
         23    2    1    2    0    0  0.35527136788E-14  0.35527136788E-14  0.71054273576E-14  0.91188000000E+02  0.91188000000E+02 0.  0.
    9900012    2    3    3    0    0  0.16367072445E+02  0.21067380081E+02  0.36295976036E+02  0.46142318295E+02  0.10000004868E+02 0.  0.
        -12    1    3    3    0    0 -0.16367072445E+02 -0.21067380081E+02 -0.36295976036E+02  0.45045681705E+02  0.00000000000E+00 0.  1.
         11    1    4    4    0    0  0.10955861606E+02  0.11331425698E+02  0.17167615610E+02  0.23305774775E+02  0.51100000000E-03 0. -1.
        -11    1    4    4    0    0  0.11083264151E+01  0.73649087362E+01  0.99834777083E+01  0.12455524700E+02  0.51100000000E-03 0.  1.
        -12    1    4    4    0    0  0.43028844238E+01  0.23710456464E+01  0.91448827176E+01  0.10381018820E+02  0.00000000000E+00 0.  1.
</event>
<event>
 8    1  0.7489580E-009  0.9118800E+02  0.7816164E-02  0.1184000E+00
        -11   -1    0    0    0    0  0.00000000000E+00  0.00000000000E+00  0.45593999997E+02  0.45594000000E+02  0.51100000000E-03 0. -1.
         11   -1    0    0    0    0 -0.00000000000E+00 -0.00000000000E+00 -0.45593999997E+02  0.45594000000E+02  0.51100000000E-03 0.  1.
         23    2    1    2    0    0  0.00000000000E+00  0.00000000000E+00  0.00000000000E+00  0.91188000000E+02  0.91188000000E+02 0.  0.
    9900012    2    3    3    0    0 -0.38981562755E+02  0.20445964122E+02 -0.95662614002E+01  0.46142322729E+02  0.10000045297E+02 0.  0.
         12    1    3    3    0    0  0.38981562755E+02 -0.20445964122E+02  0.95662614002E+01  0.45045677271E+02  0.00000000000E+00 0. -1.
         11    1    4    4    0    0 -0.92832481422E+01  0.32889847017E+01 -0.13207728730E+01  0.99368283512E+01  0.51100000000E-03 0. -1.
        -11    1    4    4    0    0 -0.13601911926E+02  0.12478333351E+02 -0.51016021144E+01  0.19150643739E+02  0.51100000000E-03 0.  1.
        -12    1    4    4    0    0 -0.16096402687E+02  0.46786460694E+01 -0.31438864128E+01  0.17054850638E+02  0.00000000000E+00 0.  1.
</event>
<event>
 8    1  0.8224838E-009  0.9118800E+02  0.7816164E-02  0.1184000E+00
        -11   -1    0    0    0    0  0.00000000000E+00  0.00000000000E+00  0.45593999997E+02  0.45594000000E+02  0.51100000000E-03 0. -1.
         11   -1    0    0    0    0 -0.00000000000E+00 -0.00000000000E+00 -0.45593999997E+02  0.45594000000E+02  0.51100000000E-03 0.  1.
         23    2    1    2    0    0  0.00000000000E+00  0.17763568394E-14  0.00000000000E+00  0.91188000000E+02  0.91188000000E+02 0.  0.
    9900012    2    3    3    0    0  0.33264574515E+02  0.11914193228E+02 -0.27939819887E+02  0.46142318151E+02  0.10000003553E+02 0.  0.
         12    1    3    3    0    0 -0.33264574515E+02 -0.11914193228E+02  0.27939819887E+02  0.45045681849E+02  0.00000000000E+00 0. -1.
         11    1    4    4    0    0  0.20180165179E+02  0.61241954826E+01 -0.12182675755E+02  0.24354926109E+02  0.51100000000E-03 0. -1.
        -11    1    4    4    0    0  0.10695794371E+02  0.34333039527E+01 -0.96057993142E+01  0.14780357708E+02  0.51100000000E-03 0.  1.
         12    1    4    4    0    0  0.23886149654E+01  0.23566937932E+01 -0.61513448176E+01  0.70070343336E+01  0.00000000000E+00 0. -1.
</event>
<event>
 8    1  0.7489580E-009  0.9118800E+02  0.7816164E-02  0.1184000E+00
        -11   -1    0    0    0    0  0.00000000000E+00  0.00000000000E+00  0.45593999997E+02  0.45594000000E+02  0.51100000000E-03 0. -1.
         11   -1    0    0    0    0 -0.00000000000E+00 -0.00000000000E+00 -0.45593999997E+02  0.45594000000E+02  0.51100000000E-03 0.  1.
         23    2    1    2    0    0  0.00000000000E+00  0.00000000000E+00  0.00000000000E+00  0.91188000000E+02  0.91188000000E+02 0.  0.
    9900012    2    3    3    0    0 -0.14502182764E+02 -0.35031559202E+02  0.24322624670E+02  0.46142317456E+02  0.99999972160E+01 0.  0.
        -12    1    3    3    0    0  0.14502182764E+02  0.35031559202E+02 -0.24322624670E+02  0.45045682544E+02  0.00000000000E+00 0.  1.
         11    1    4    4    0    0 -0.51599348144E+01 -0.63751008994E+01  0.21470469861E+01  0.84780097776E+01  0.51100000000E-03 0. -1.
        -11    1    4    4    0    0 -0.93068693884E+01 -0.23376776309E+02  0.18528161840E+02  0.31247148187E+02  0.51100000000E-03 0.  1.
        -12    1    4    4    0    0 -0.35378561623E-01 -0.52796819932E+01  0.36474158439E+01  0.64171594908E+01  0.00000000000E+00 0.  1.
</event>
<event>
 8    1  0.7489580E-009  0.9118800E+02  0.7816164E-02  0.1184000E+00
        -11   -1    0    0    0    0  0.00000000000E+00  0.00000000000E+00  0.45593999997E+02  0.45594000000E+02  0.51100000000E-03 0. -1.
         11   -1    0    0    0    0 -0.00000000000E+00 -0.00000000000E+00 -0.45593999997E+02  0.45594000000E+02  0.51100000000E-03 0.  1.
         23    2    1    2    0    0  0.71054273576E-14  0.17763568394E-14  0.00000000000E+00  0.91188000000E+02  0.91188000000E+02 0.  0.
    9900012    2    3    3    0    0 -0.29681438702E+02 -0.81774631659E+01  0.32882439038E+02  0.46142317584E+02  0.99999983860E+01 0.  0.
        -12    1    3    3    0    0  0.29681438702E+02  0.81774631659E+01 -0.32882439038E+02  0.45045682416E+02  0.00000000000E+00 0.  1.
         11    1    4    4    0    0 -0.13628247717E+02 -0.43551495571E+01  0.14661213473E+02  0.20485303128E+02  0.51100000000E-03 0. -1.
        -11    1    4    4    0    0 -0.15092023441E+02 -0.55500760562E+01  0.16021871262E+02  0.22699622789E+02  0.51100000000E-03 0.  1.
        -12    1    4    4    0    0 -0.96116754476E+00  0.17277624474E+01  0.21993543025E+01  0.29573916670E+01  0.00000000000E+00 0.  1.
</event>
<event>
 8    1  0.7489580E-009  0.9118800E+02  0.7816164E-02  0.1184000E+00
        -11   -1    0    0    0    0  0.00000000000E+00  0.00000000000E+00  0.45593999997E+02  0.45594000000E+02  0.51100000000E-03 0. -1.
         11   -1    0    0    0    0 -0.00000000000E+00 -0.00000000000E+00 -0.45593999997E+02  0.45594000000E+02  0.51100000000E-03 0.  1.
         23    2    1    2    0    0  0.00000000000E+00 -0.17763568394E-14  0.00000000000E+00  0.91188000000E+02  0.91188000000E+02 0.  0.
    9900012    2    3    3    0    0  0.38675026661E+02 -0.11751018092E+02 -0.19881380923E+02  0.46142318511E+02  0.10000006841E+02 0.  0.
         12    1    3    3    0    0 -0.38675026661E+02  0.11751018092E+02  0.19881380923E+02  0.45045681489E+02  0.00000000000E+00 0. -1.
         11    1    4    4    0    0  0.16188260310E+02 -0.43303989886E+01 -0.85035067863E+01  0.18791534136E+02  0.51100000000E-03 0. -1.
        -11    1    4    4    0    0  0.12043428380E+02 -0.45695056520E+01 -0.10259567048E+02  0.16467642980E+02  0.51100000000E-03 0.  1.
        -12    1    4    4    0    0  0.10443337970E+02 -0.28511134512E+01 -0.11183070880E+01  0.10883141395E+02  0.00000000000E+00 0.  1.
</event>
<event>
 8    1  0.7489580E-009  0.9118800E+02  0.7816164E-02  0.1184000E+00
        -11   -1    0    0    0    0  0.00000000000E+00  0.00000000000E+00  0.45593999997E+02  0.45594000000E+02  0.51100000000E-03 0. -1.
         11   -1    0    0    0    0 -0.00000000000E+00 -0.00000000000E+00 -0.45593999997E+02  0.45594000000E+02  0.51100000000E-03 0.  1.
         23    2    1    2    0    0  0.00000000000E+00  0.00000000000E+00  0.00000000000E+00  0.91188000000E+02  0.91188000000E+02 0.  0.
    9900012    2    3    3    0    0  0.35136442388E+02  0.18623191117E+02 -0.21159413398E+02  0.46142316451E+02  0.99999880495E+01 0.  0.
         12    1    3    3    0    0 -0.35136442388E+02 -0.18623191117E+02  0.21159413398E+02  0.45045683549E+02  0.00000000000E+00 0. -1.
         11    1    4    4    0    0  0.21474817881E+00  0.72263134802E+00 -0.35295097946E-01  0.75469122859E+00  0.51100000000E-03 0. -1.
        -11    1    4    4    0    0  0.12284711133E+01 -0.79647283838E+00 -0.16734895252E+01  0.22235282123E+01  0.51100000000E-03 0.  1.
        -12    1    4    4    0    0  0.33693223096E+02  0.18697032607E+02 -0.19450628775E+02  0.43164097010E+02  0.00000000000E+00 0.  1.
</event>
<event>
 8    1  0.7489580E-009  0.9118800E+02  0.7816164E-02  0.1184000E+00
        -11   -1    0    0    0    0  0.00000000000E+00  0.00000000000E+00  0.45593999997E+02  0.45594000000E+02  0.51100000000E-03 0. -1.
         11   -1    0    0    0    0 -0.00000000000E+00 -0.00000000000E+00 -0.45593999997E+02  0.45594000000E+02  0.51100000000E-03 0.  1.
         23    2    1    2    0    0  0.00000000000E+00  0.88817841970E-15 -0.71054273576E-14  0.91188000000E+02  0.91188000000E+02 0.  0.
    9900012    2    3    3    0    0 -0.23429093313E+02  0.74626623752E+01 -0.37742546717E+02  0.46142316790E+02  0.99999911419E+01 0.  0.
         12    1    3    3    0    0  0.23429093313E+02 -0.74626623752E+01  0.37742546717E+02  0.45045683210E+02  0.00000000000E+00 0. -1.
         11    1    4    4    0    0 -0.24032048489E+01 -0.35541793974E+00 -0.99501710999E+01  0.10242442123E+02  0.51100000000E-03 0. -1.
        -11    1    4    4    0    0 -0.96371702071E+01  0.39734479986E+01 -0.15733320745E+02  0.18873280598E+02  0.51100000000E-03 0.  1.
        -12    1    4    4    0    0 -0.11388718257E+02  0.38446323163E+01 -0.12059054872E+02  0.17026594069E+02  0.00000000000E+00 0.  1.
</event>
<event>
 8    1  0.7489580E-009  0.9118800E+02  0.7816164E-02  0.1184000E+00
        -11   -1    0    0    0    0  0.00000000000E+00  0.00000000000E+00  0.45593999997E+02  0.45594000000E+02  0.51100000000E-03 0. -1.
         11   -1    0    0    0    0 -0.00000000000E+00 -0.00000000000E+00 -0.45593999997E+02  0.45594000000E+02  0.51100000000E-03 0.  1.
         23    2    1    2    0    0  0.00000000000E+00  0.00000000000E+00  0.00000000000E+00  0.91188000000E+02  0.91188000000E+02 0.  0.
    9900012    2    3    3    0    0  0.22799564322E+02  0.96603164023E+01 -0.37629406082E+02  0.46142311545E+02  0.99999433162E+01 0.  0.
         12    1    3    3    0    0 -0.22799564322E+02 -0.96603164023E+01  0.37629406082E+02  0.45045688455E+02  0.00000000000E+00 0. -1.
         11    1    4    4    0    0  0.80572792779E+01  0.29386378522E+01 -0.16911454205E+02  0.18961872940E+02  0.51100000000E-03 0. -1.
        -11    1    4    4    0    0 -0.19902737476E+00 -0.36425619138E+00  0.24367010294E+00  0.48132094184E+00  0.51100000000E-03 0.  1.
        -12    1    4    4    0    0  0.14941312419E+02  0.70859347415E+01 -0.20961621980E+02  0.26699117663E+02  0.00000000000E+00 0.  1.
</event>
<event>
 8    1  0.7489580E-009  0.9118800E+02  0.7816164E-02  0.1184000E+00
        -11   -1    0    0    0    0  0.00000000000E+00  0.00000000000E+00  0.45593999997E+02  0.45594000000E+02  0.51100000000E-03 0. -1.
         11   -1    0    0    0    0 -0.00000000000E+00 -0.00000000000E+00 -0.45593999997E+02  0.45594000000E+02  0.51100000000E-03 0.  1.
         23    2    1    2    0    0  0.00000000000E+00 -0.44408920985E-15  0.00000000000E+00  0.91188000000E+02  0.91188000000E+02 0.  0.
    9900012    2    3    3    0    0  0.24162407420E+02 -0.22780167362E+01  0.37948678430E+02  0.46142317775E+02  0.10000000126E+02 0.  0.
        -12    1    3    3    0    0 -0.24162407420E+02  0.22780167362E+01 -0.37948678430E+02  0.45045682225E+02  0.00000000000E+00 0.  1.
         11    1    4    4    0    0  0.49679886975E+01 -0.20396688230E+00  0.67445574912E+01  0.83792344639E+01  0.51100000000E-03 0. -1.
        -11    1    4    4    0    0  0.18090795617E+02 -0.10811334411E+01  0.22297921213E+02  0.28734004703E+02  0.51100000000E-03 0.  1.
        -12    1    4    4    0    0  0.11036231049E+01 -0.99291641276E+00  0.89061997254E+01  0.90290786080E+01  0.00000000000E+00 0.  1.
</event>
<event>
 8    1  0.7489580E-009  0.9118800E+02  0.7816164E-02  0.1184000E+00
        -11   -1    0    0    0    0  0.00000000000E+00  0.00000000000E+00  0.45593999997E+02  0.45594000000E+02  0.51100000000E-03 0. -1.
         11   -1    0    0    0    0 -0.00000000000E+00 -0.00000000000E+00 -0.45593999997E+02  0.45594000000E+02  0.51100000000E-03 0.  1.
         23    2    1    2    0    0 -0.88817841970E-15  0.00000000000E+00 -0.71054273576E-14  0.91188000000E+02  0.91188000000E+02 0.  0.
    9900012    2    3    3    0    0  0.52901046328E+01  0.21289501820E+02  0.39343174840E+02  0.46142317618E+02  0.99999986958E+01 0.  0.
        -12    1    3    3    0    0 -0.52901046328E+01 -0.21289501820E+02 -0.39343174840E+02  0.45045682382E+02  0.00000000000E+00 0.  1.
         11    1    4    4    0    0  0.38575220177E+00  0.73688053904E+01  0.89490406247E+01  0.11598854513E+02  0.51100000000E-03 0. -1.
        -11    1    4    4    0    0  0.23150603260E+01  0.71617463755E+01  0.78909742484E+01  0.10904934219E+02  0.51100000000E-03 0.  1.
         12    1    4    4    0    0  0.25892921050E+01  0.67589500536E+01  0.22503159967E+02  0.23638528887E+02  0.00000000000E+00 0. -1.
</event>
<event>
 8    1  0.7489580E-009  0.9118800E+02  0.7816164E-02  0.1184000E+00
        -11   -1    0    0    0    0  0.00000000000E+00  0.00000000000E+00  0.45593999997E+02  0.45594000000E+02  0.51100000000E-03 0. -1.
         11   -1    0    0    0    0 -0.00000000000E+00 -0.00000000000E+00 -0.45593999997E+02  0.45594000000E+02  0.51100000000E-03 0.  1.
         23    2    1    2    0    0  0.00000000000E+00  0.88817841970E-15 -0.71054273576E-14  0.91188000000E+02  0.91188000000E+02 0.  0.
    9900012    2    3    3    0    0  0.40743762969E+01  0.31423840793E+01 -0.44750848386E+02  0.46142317064E+02  0.99999936446E+01 0.  0.
         12    1    3    3    0    0 -0.40743762969E+01 -0.31423840793E+01  0.44750848386E+02  0.45045682936E+02  0.00000000000E+00 0. -1.
         11    1    4    4    0    0  0.29375701396E+00  0.40202331074E+01 -0.11807258126E+02  0.12476374159E+02  0.51100000000E-03 0. -1.
        -11    1    4    4    0    0  0.54168384371E+00 -0.10669717311E+01 -0.10040532919E+01  0.15620414001E+01  0.51100000000E-03 0.  1.
        -12    1    4    4    0    0  0.32389354393E+01  0.18912270296E+00 -0.31939536967E+02  0.32103901505E+02  0.00000000000E+00 0.  1.
</event>
<event>
 8    1  0.7489580E-009  0.9118800E+02  0.7816164E-02  0.1184000E+00
        -11   -1    0    0    0    0  0.00000000000E+00  0.00000000000E+00  0.45593999997E+02  0.45594000000E+02  0.51100000000E-03 0. -1.
         11   -1    0    0    0    0 -0.00000000000E+00 -0.00000000000E+00 -0.45593999997E+02  0.45594000000E+02  0.51100000000E-03 0.  1.
         23    2    1    2    0    0  0.00000000000E+00  0.00000000000E+00  0.00000000000E+00  0.91188000000E+02  0.91188000000E+02 0.  0.
    9900012    2    3    3    0    0  0.97554758536E+01  0.22226539376E+02 -0.37946345109E+02  0.46142317977E+02  0.10000001971E+02 0.  0.
         12    1    3    3    0    0 -0.97554758536E+01 -0.22226539376E+02  0.37946345109E+02  0.45045682023E+02  0.00000000000E+00 0. -1.
         11    1    4    4    0    0  0.46357210779E+01  0.77447872769E+01 -0.91387541768E+01  0.12844783690E+02  0.51100000000E-03 0. -1.
        -11    1    4    4    0    0  0.46558378867E+01  0.69519152412E+01 -0.10033213774E+02  0.13064123807E+02  0.51100000000E-03 0.  1.
         12    1    4    4    0    0  0.46391688897E+00  0.75298368581E+01 -0.18774377158E+02  0.20233410480E+02  0.00000000000E+00 0. -1.
</event>
<event>
 8    1  0.7489580E-009  0.9118800E+02  0.7816164E-02  0.1184000E+00
        -11   -1    0    0    0    0  0.00000000000E+00  0.00000000000E+00  0.45593999997E+02  0.45594000000E+02  0.51100000000E-03 0. -1.
         11   -1    0    0    0    0 -0.00000000000E+00 -0.00000000000E+00 -0.45593999997E+02  0.45594000000E+02  0.51100000000E-03 0.  1.
         23    2    1    2    0    0  0.35527136788E-14  0.00000000000E+00 -0.35527136788E-14  0.91188000000E+02  0.91188000000E+02 0.  0.
    9900012    2    3    3    0    0 -0.29684187435E+02 -0.14828494087E+02  0.30464377101E+02  0.46142317713E+02  0.99999995579E+01 0.  0.
        -12    1    3    3    0    0  0.29684187435E+02  0.14828494087E+02 -0.30464377101E+02  0.45045682287E+02  0.00000000000E+00 0.  1.
         11    1    4    4    0    0 -0.21071008511E+01 -0.40387480572E+00  0.23597701131E+01  0.31892795586E+01  0.51100000000E-03 0. -1.
        -11    1    4    4    0    0 -0.27126871402E+02 -0.13610251734E+02  0.28762266020E+02  0.41813563005E+02  0.51100000000E-03 0.  1.
        -12    1    4    4    0    0 -0.45021518191E+00 -0.81436754703E+00 -0.65765903206E+00  0.11394751485E+01  0.00000000000E+00 0.  1.
</event>
<event>
 8    1  0.7489580E-009  0.9118800E+02  0.7816164E-02  0.1184000E+00
        -11   -1    0    0    0    0  0.00000000000E+00  0.00000000000E+00  0.45593999997E+02  0.45594000000E+02  0.51100000000E-03 0. -1.
         11   -1    0    0    0    0 -0.00000000000E+00 -0.00000000000E+00 -0.45593999997E+02  0.45594000000E+02  0.51100000000E-03 0.  1.
         23    2    1    2    0    0  0.00000000000E+00 -0.44408920985E-15  0.71054273576E-14  0.91188000000E+02  0.91188000000E+02 0.  0.
    9900012    2    3    3    0    0 -0.36067730706E+02 -0.35292852395E+01  0.26753998679E+02  0.46142317655E+02  0.99999990335E+01 0.  0.
        -12    1    3    3    0    0  0.36067730706E+02  0.35292852395E+01 -0.26753998679E+02  0.45045682345E+02  0.00000000000E+00 0.  1.
         11    1    4    4    0    0 -0.11182257102E+02  0.24617947385E+01  0.78288298308E+01  0.13870612244E+02  0.51100000000E-03 0. -1.
        -11    1    4    4    0    0  0.17641306131E+00  0.22281340303E-01  0.65744602523E+00  0.68106795809E+00  0.51100000000E-03 0.  1.
         12    1    4    4    0    0 -0.25061886665E+02 -0.60133613183E+01  0.18267722823E+02  0.31590637453E+02  0.00000000000E+00 0. -1.
</event>
<event>
 8    1  0.7489580E-009  0.9118800E+02  0.7816164E-02  0.1184000E+00
        -11   -1    0    0    0    0  0.00000000000E+00  0.00000000000E+00  0.45593999997E+02  0.45594000000E+02  0.51100000000E-03 0. -1.
         11   -1    0    0    0    0 -0.00000000000E+00 -0.00000000000E+00 -0.45593999997E+02  0.45594000000E+02  0.51100000000E-03 0.  1.
         23    2    1    2    0    0  0.00000000000E+00  0.35527136788E-14  0.00000000000E+00  0.91188000000E+02  0.91188000000E+02 0.  0.
    9900012    2    3    3    0    0  0.16271062380E+02  0.19263266345E+02  0.37326833563E+02  0.46142318686E+02  0.10000008433E+02 0.  0.
        -12    1    3    3    0    0 -0.16271062380E+02 -0.19263266345E+02 -0.37326833563E+02  0.45045681314E+02  0.00000000000E+00 0.  1.
         11    1    4    4    0    0  0.32730354190E+01  0.37171946539E+01  0.91714353021E+01  0.10423316301E+02  0.51100000000E-03 0. -1.
        -11    1    4    4    0    0  0.11060324531E+02  0.88098588645E+01  0.23072082286E+02  0.27060402311E+02  0.51100000000E-03 0.  1.
        -12    1    4    4    0    0  0.19377024298E+01  0.67362128262E+01  0.50833159744E+01  0.86586000741E+01  0.00000000000E+00 0.  1.
</event>
<event>
 8    1  0.7489580E-009  0.9118800E+02  0.7816164E-02  0.1184000E+00
        -11   -1    0    0    0    0  0.00000000000E+00  0.00000000000E+00  0.45593999997E+02  0.45594000000E+02  0.51100000000E-03 0. -1.
         11   -1    0    0    0    0 -0.00000000000E+00 -0.00000000000E+00 -0.45593999997E+02  0.45594000000E+02  0.51100000000E-03 0.  1.
         23    2    1    2    0    0  0.00000000000E+00 -0.17763568394E-14 -0.71054273576E-14  0.91188000000E+02  0.91188000000E+02 0.  0.
    9900012    2    3    3    0    0  0.50422594299E+01 -0.11116451293E+02 -0.43360277118E+02  0.46142317618E+02  0.99999986966E+01 0.  0.
         12    1    3    3    0    0 -0.50422594299E+01  0.11116451293E+02  0.43360277118E+02  0.45045682382E+02  0.00000000000E+00 0. -1.
         11    1    4    4    0    0 -0.10437796611E+00 -0.23167170670E+01 -0.17524047847E+02  0.17676830200E+02  0.51100000000E-03 0. -1.
        -11    1    4    4    0    0 -0.98905468010E+00  0.15121934106E+00 -0.13331761331E+01  0.16668699147E+01  0.51100000000E-03 0.  1.
        -12    1    4    4    0    0  0.61356920761E+01 -0.89509535667E+01 -0.24503053138E+02  0.26798617503E+02  0.00000000000E+00 0.  1.
</event>
<event>
 8    1  0.7489580E-009  0.9118800E+02  0.7816164E-02  0.1184000E+00
        -11   -1    0    0    0    0  0.00000000000E+00  0.00000000000E+00  0.45593999997E+02  0.45594000000E+02  0.51100000000E-03 0.  1.
         11   -1    0    0    0    0 -0.00000000000E+00 -0.00000000000E+00 -0.45593999997E+02  0.45594000000E+02  0.51100000000E-03 0. -1.
         23    2    1    2    0    0  0.71054273576E-14  0.22204460493E-15  0.33306690739E-15  0.91188000000E+02  0.91188000000E+02 0.  0.
    9900012    2    3    3    0    0 -0.45009894108E+02 -0.17033808682E+01  0.56703158357E+00  0.46142316535E+02  0.99999888181E+01 0.  0.
        -12    1    3    3    0    0  0.45009894108E+02  0.17033808682E+01 -0.56703158357E+00  0.45045683465E+02  0.00000000000E+00 0.  1.
         11    1    4    4    0    0 -0.55457826617E+01  0.67587580271E+00  0.69833857072E-01  0.55872524965E+01  0.51100000000E-03 0. -1.
        -11    1    4    4    0    0 -0.24161458937E+02 -0.38616735835E+01  0.39840042517E+01  0.24790339066E+02  0.51100000000E-03 0.  1.
         12    1    4    4    0    0 -0.15302652509E+02  0.14824169126E+01 -0.34868065252E+01  0.15764724973E+02  0.00000000000E+00 0. -1.
</event>
<event>
 8    1  0.7489580E-009  0.9118800E+02  0.7816164E-02  0.1184000E+00
        -11   -1    0    0    0    0  0.00000000000E+00  0.00000000000E+00  0.45593999997E+02  0.45594000000E+02  0.51100000000E-03 0. -1.
         11   -1    0    0    0    0 -0.00000000000E+00 -0.00000000000E+00 -0.45593999997E+02  0.45594000000E+02  0.51100000000E-03 0.  1.
         23    2    1    2    0    0  0.17763568394E-14  0.00000000000E+00  0.71054273576E-14  0.91188000000E+02  0.91188000000E+02 0.  0.
    9900012    2    3    3    0    0 -0.10496127349E+02  0.13760377348E+02 -0.41588420859E+02  0.46142318479E+02  0.10000006550E+02 0.  0.
         12    1    3    3    0    0  0.10496127349E+02 -0.13760377348E+02  0.41588420859E+02  0.45045681521E+02  0.00000000000E+00 0. -1.
         11    1    4    4    0    0 -0.35202313322E+01  0.15236528653E+01 -0.57674457124E+01  0.69265414886E+01  0.51100000000E-03 0. -1.
        -11    1    4    4    0    0 -0.61507188768E+01  0.95361739743E+01 -0.18777974922E+02  0.21940426140E+02  0.51100000000E-03 0.  1.
        -12    1    4    4    0    0 -0.82517713993E+00  0.27005505088E+01 -0.17043000225E+02  0.17275350851E+02  0.00000000000E+00 0.  1.
</event>
<event>
 8    1  0.7489580E-009  0.9118800E+02  0.7816164E-02  0.1184000E+00
        -11   -1    0    0    0    0  0.00000000000E+00  0.00000000000E+00  0.45593999997E+02  0.45594000000E+02  0.51100000000E-03 0. -1.
         11   -1    0    0    0    0 -0.00000000000E+00 -0.00000000000E+00 -0.45593999997E+02  0.45594000000E+02  0.51100000000E-03 0.  1.
         23    2    1    2    0    0 -0.71054273576E-14 -0.17763568394E-14  0.00000000000E+00  0.91188000000E+02  0.91188000000E+02 0.  0.
    9900012    2    3    3    0    0  0.39944501377E+02  0.10965224815E+02  0.17700679140E+02  0.46142318880E+02  0.10000010206E+02 0.  0.
        -12    1    3    3    0    0 -0.39944501377E+02 -0.10965224815E+02 -0.17700679140E+02  0.45045681120E+02  0.00000000000E+00 0.  1.
         11    1    4    4    0    0  0.14793663185E+02  0.72407700666E+01  0.81817214748E+01  0.18390807164E+02  0.51100000000E-03 0. -1.
        -11    1    4    4    0    0  0.47791641910E+01  0.16839590500E+01 -0.23612195092E+00  0.50726602767E+01  0.51100000000E-03 0.  1.
         12    1    4    4    0    0  0.20371674001E+02  0.20404956981E+01  0.97550796165E+01  0.22678851439E+02  0.00000000000E+00 0. -1.
</event>
<event>
 8    1  0.7489580E-009  0.9118800E+02  0.7816164E-02  0.1184000E+00
        -11   -1    0    0    0    0  0.00000000000E+00  0.00000000000E+00  0.45593999997E+02  0.45594000000E+02  0.51100000000E-03 0. -1.
         11   -1    0    0    0    0 -0.00000000000E+00 -0.00000000000E+00 -0.45593999997E+02  0.45594000000E+02  0.51100000000E-03 0.  1.
         23    2    1    2    0    0  0.00000000000E+00  0.17763568394E-14  0.00000000000E+00  0.91188000000E+02  0.91188000000E+02 0.  0.
    9900012    2    3    3    0    0  0.24767334959E+02 -0.13547456809E+02  0.35102123524E+02  0.46142317156E+02  0.99999944841E+01 0.  0.
        -12    1    3    3    0    0 -0.24767334959E+02  0.13547456809E+02 -0.35102123524E+02  0.45045682844E+02  0.00000000000E+00 0.  1.
         11    1    4    4    0    0  0.80806644815E+01 -0.12058816858E+01  0.60542812642E+01  0.10168854950E+02  0.51100000000E-03 0. -1.
        -11    1    4    4    0    0  0.70998642699E+01 -0.26240482235E+01  0.10214346775E+02  0.12713244355E+02  0.51100000000E-03 0.  1.
        -12    1    4    4    0    0  0.95868062070E+01 -0.97175269000E+01  0.18833495485E+02  0.23260217851E+02  0.00000000000E+00 0.  1.
</event>
<event>
 8    1  0.7489580E-009  0.9118800E+02  0.7816164E-02  0.1184000E+00
        -11   -1    0    0    0    0  0.00000000000E+00  0.00000000000E+00  0.45593999997E+02  0.45594000000E+02  0.51100000000E-03 0. -1.
         11   -1    0    0    0    0 -0.00000000000E+00 -0.00000000000E+00 -0.45593999997E+02  0.45594000000E+02  0.51100000000E-03 0.  1.
         23    2    1    2    0    0  0.00000000000E+00  0.00000000000E+00  0.00000000000E+00  0.91188000000E+02  0.91188000000E+02 0.  0.
    9900012    2    3    3    0    0  0.39367689736E+02  0.21148612415E+02  0.56599141711E+01  0.46142318402E+02  0.10000005842E+02 0.  0.
        -12    1    3    3    0    0 -0.39367689736E+02 -0.21148612415E+02 -0.56599141711E+01  0.45045681598E+02  0.00000000000E+00 0.  1.
         11    1    4    4    0    0  0.20850357800E+02  0.12872391215E+02 -0.64217439498E+00  0.24512206433E+02  0.51100000000E-03 0. -1.
        -11    1    4    4    0    0  0.13706043989E+02  0.79591390723E+01  0.44210040119E+01  0.16454446612E+02  0.51100000000E-03 0.  1.
        -12    1    4    4    0    0  0.48112879467E+01  0.31708212827E+00  0.18810845542E+01  0.51756653564E+01  0.00000000000E+00 0.  1.
</event>
<event>
 8    1  0.7489580E-009  0.9118800E+02  0.7816164E-02  0.1184000E+00
        -11   -1    0    0    0    0  0.00000000000E+00  0.00000000000E+00  0.45593999997E+02  0.45594000000E+02  0.51100000000E-03 0. -1.
         11   -1    0    0    0    0 -0.00000000000E+00 -0.00000000000E+00 -0.45593999997E+02  0.45594000000E+02  0.51100000000E-03 0.  1.
         23    2    1    2    0    0  0.17763568394E-14  0.35527136788E-14  0.00000000000E+00  0.91188000000E+02  0.91188000000E+02 0.  0.
    9900012    2    3    3    0    0 -0.11439118461E+02 -0.26359420037E+02 -0.34690647842E+02  0.46142317592E+02  0.99999984597E+01 0.  0.
         12    1    3    3    0    0  0.11439118461E+02  0.26359420037E+02  0.34690647842E+02  0.45045682408E+02  0.00000000000E+00 0. -1.
         11    1    4    4    0    0 -0.33879789676E+01 -0.13135441934E+02 -0.22092891409E+02  0.25925163208E+02  0.51100000000E-03 0.  1.
        -11    1    4    4    0    0  0.24623476444E+00 -0.21502943390E+00 -0.52893164155E-01  0.33116033065E+00  0.51100000000E-03 0. -1.
        -12    1    4    4    0    0 -0.82973742583E+01 -0.13008948669E+02 -0.12544863269E+02  0.19885994054E+02  0.00000000000E+00 0.  1.
</event>
<event>
 8    1  0.7489580E-009  0.9118800E+02  0.7816164E-02  0.1184000E+00
        -11   -1    0    0    0    0  0.00000000000E+00  0.00000000000E+00  0.45593999997E+02  0.45594000000E+02  0.51100000000E-03 0. -1.
         11   -1    0    0    0    0 -0.00000000000E+00 -0.00000000000E+00 -0.45593999997E+02  0.45594000000E+02  0.51100000000E-03 0.  1.
         23    2    1    2    0    0  0.00000000000E+00  0.71054273576E-14  0.00000000000E+00  0.91188000000E+02  0.91188000000E+02 0.  0.
    9900012    2    3    3    0    0 -0.18999193455E+02  0.33099238209E+02 -0.23928739461E+02  0.46142317697E+02  0.99999994121E+01 0.  0.
         12    1    3    3    0    0  0.18999193455E+02 -0.33099238209E+02  0.23928739461E+02  0.45045682303E+02  0.00000000000E+00 0. -1.
         11    1    4    4    0    0 -0.20832514165E+01  0.41734487811E+00 -0.27585127684E+01  0.34818825607E+01  0.51100000000E-03 0. -1.
        -11    1    4    4    0    0 -0.12311057331E+02  0.20965458669E+02 -0.15651122236E+02  0.28914878822E+02  0.51100000000E-03 0.  1.
        -12    1    4    4    0    0 -0.46048847071E+01  0.11716434663E+02 -0.55191044569E+01  0.13745556314E+02  0.00000000000E+00 0.  1.
</event>
<event>
 8    1  0.7489580E-009  0.9118800E+02  0.7816164E-02  0.1184000E+00
        -11   -1    0    0    0    0  0.00000000000E+00  0.00000000000E+00  0.45593999997E+02  0.45594000000E+02  0.51100000000E-03 0. -1.
         11   -1    0    0    0    0 -0.00000000000E+00 -0.00000000000E+00 -0.45593999997E+02  0.45594000000E+02  0.51100000000E-03 0.  1.
         23    2    1    2    0    0 -0.71054273576E-14 -0.35527136788E-14  0.17763568394E-14  0.91188000000E+02  0.91188000000E+02 0.  0.
    9900012    2    3    3    0    0  0.37123639334E+02  0.24191948348E+02 -0.81054493663E+01  0.46142320166E+02  0.10000021928E+02 0.  0.
         12    1    3    3    0    0 -0.37123639334E+02 -0.24191948348E+02  0.81054493663E+01  0.45045679834E+02  0.00000000000E+00 0. -1.
         11    1    4    4    0    0  0.26242583263E+01 -0.68899046293E+00 -0.17185306061E+00  0.27186344654E+01  0.51100000000E-03 0. -1.
        -11    1    4    4    0    0  0.95817118994E+01  0.49520809246E+01 -0.19531394803E+01  0.10961161549E+02  0.51100000000E-03 0.  1.
        -12    1    4    4    0    0  0.24917669109E+02  0.19928857886E+02 -0.59804568254E+01  0.32462524152E+02  0.00000000000E+00 0.  1.
</event>
<event>
 8    1  0.7489580E-009  0.9118800E+02  0.7816164E-02  0.1184000E+00
        -11   -1    0    0    0    0  0.00000000000E+00  0.00000000000E+00  0.45593999997E+02  0.45594000000E+02  0.51100000000E-03 0. -1.
         11   -1    0    0    0    0 -0.00000000000E+00 -0.00000000000E+00 -0.45593999997E+02  0.45594000000E+02  0.51100000000E-03 0.  1.
         23    2    1    2    0    0  0.00000000000E+00 -0.35527136788E-14 -0.71054273576E-14  0.91188000000E+02  0.91188000000E+02 0.  0.
    9900012    2    3    3    0    0 -0.12381410840E+02 -0.26998039782E+02 -0.33866199999E+02  0.46142323306E+02  0.10000050562E+02 0.  0.
         12    1    3    3    0    0  0.12381410840E+02  0.26998039782E+02  0.33866199999E+02  0.45045676694E+02  0.00000000000E+00 0. -1.
         11    1    4    4    0    0 -0.33766748082E+01 -0.44637393735E+01 -0.36156715285E+01  0.66633312103E+01  0.51100000000E-03 0. -1.
        -11    1    4    4    0    0 -0.49477568042E+01 -0.54225830308E+01 -0.12473235242E+02  0.14472950694E+02  0.51100000000E-03 0.  1.
         12    1    4    4    0    0 -0.40569792276E+01 -0.17111717377E+02 -0.17777293228E+02  0.25006041402E+02  0.00000000000E+00 0. -1.
</event>
<event>
 8    1  0.7489580E-009  0.9118800E+02  0.7816164E-02  0.1184000E+00
        -11   -1    0    0    0    0  0.00000000000E+00  0.00000000000E+00  0.45593999997E+02  0.45594000000E+02  0.51100000000E-03 0. -1.
         11   -1    0    0    0    0 -0.00000000000E+00 -0.00000000000E+00 -0.45593999997E+02  0.45594000000E+02  0.51100000000E-03 0.  1.
         23    2    1    2    0    0  0.00000000000E+00  0.00000000000E+00  0.71054273576E-14  0.91188000000E+02  0.91188000000E+02 0.  0.
    9900012    2    3    3    0    0  0.10194535931E+02  0.19578212378E+02 -0.39266762368E+02  0.46142316637E+02  0.99999897531E+01 0.  0.
         12    1    3    3    0    0 -0.10194535931E+02 -0.19578212378E+02  0.39266762368E+02  0.45045683363E+02  0.00000000000E+00 0. -1.
         11    1    4    4    0    0 -0.93740059695E+00  0.16070687089E+01 -0.24590740209E+01  0.30835750381E+01  0.51100000000E-03 0. -1.
        -11    1    4    4    0    0  0.90128743382E+01  0.16146559541E+02 -0.35375372820E+02  0.39916917356E+02  0.51100000000E-03 0.  1.
         12    1    4    4    0    0  0.21190621899E+01  0.18245841280E+01 -0.14323155274E+01  0.31418242431E+01  0.00000000000E+00 0. -1.
</event>
<event>
 8    1  0.7489580E-009  0.9118800E+02  0.7816164E-02  0.1184000E+00
        -11   -1    0    0    0    0  0.00000000000E+00  0.00000000000E+00  0.45593999997E+02  0.45594000000E+02  0.51100000000E-03 0. -1.
         11   -1    0    0    0    0 -0.00000000000E+00 -0.00000000000E+00 -0.45593999997E+02  0.45594000000E+02  0.51100000000E-03 0.  1.
         23    2    1    2    0    0  0.35527136788E-14  0.00000000000E+00 -0.14210854715E-13  0.91188000000E+02  0.91188000000E+02 0.  0.
    9900012    2    3    3    0    0 -0.18883871299E+02 -0.50046685554E+01  0.40588991279E+02  0.46142317458E+02  0.99999972384E+01 0.  0.
        -12    1    3    3    0    0  0.18883871299E+02  0.50046685554E+01 -0.40588991279E+02  0.45045682542E+02  0.00000000000E+00 0.  1.
         11    1    4    4    0    0 -0.38039745330E+01 -0.13258074634E+01  0.10627439847E+02  0.11365318545E+02  0.51100000000E-03 0. -1.
        -11    1    4    4    0    0 -0.23200505325E+01 -0.27398190613E+01  0.22040382190E+01  0.42127221240E+01  0.51100000000E-03 0.  1.
         12    1    4    4    0    0 -0.12759846233E+02 -0.93904203067E+00  0.27757513213E+02  0.30564276789E+02  0.00000000000E+00 0. -1.
</event>
<event>
 8    1  0.7489580E-009  0.9118800E+02  0.7816164E-02  0.1184000E+00
        -11   -1    0    0    0    0  0.00000000000E+00  0.00000000000E+00  0.45593999997E+02  0.45594000000E+02  0.51100000000E-03 0. -1.
         11   -1    0    0    0    0 -0.00000000000E+00 -0.00000000000E+00 -0.45593999997E+02  0.45594000000E+02  0.51100000000E-03 0.  1.
         23    2    1    2    0    0  0.00000000000E+00  0.00000000000E+00  0.00000000000E+00  0.91188000000E+02  0.91188000000E+02 0.  0.
    9900012    2    3    3    0    0  0.91951271392E+01 -0.60069690782E+01  0.43686150252E+02  0.46142314697E+02  0.99999720591E+01 0.  0.
        -12    1    3    3    0    0 -0.91951271392E+01  0.60069690782E+01 -0.43686150252E+02  0.45045685303E+02  0.00000000000E+00 0.  1.
         11    1    4    4    0    0  0.65582670238E+00  0.12724596438E+01  0.20045992085E+01  0.24632662171E+01  0.51100000000E-03 0. -1.
        -11    1    4    4    0    0  0.62178900024E+01 -0.58303290198E+01  0.18893348007E+02  0.20727119716E+02  0.51100000000E-03 0.  1.
        -12    1    4    4    0    0  0.23214104344E+01 -0.14490997023E+01  0.22788203036E+02  0.22951928763E+02  0.00000000000E+00 0.  1.
</event>
<event>
 8    1  0.7489580E-009  0.9118800E+02  0.7816164E-02  0.1184000E+00
        -11   -1    0    0    0    0  0.00000000000E+00  0.00000000000E+00  0.45593999997E+02  0.45594000000E+02  0.51100000000E-03 0. -1.
         11   -1    0    0    0    0 -0.00000000000E+00 -0.00000000000E+00 -0.45593999997E+02  0.45594000000E+02  0.51100000000E-03 0.  1.
         23    2    1    2    0    0  0.00000000000E+00 -0.22204460493E-15  0.00000000000E+00  0.91188000000E+02  0.91188000000E+02 0.  0.
    9900012    2    3    3    0    0 -0.84463075633E+01  0.16541441471E+01 -0.44215807036E+02  0.46142313235E+02  0.99999587268E+01 0.  0.
         12    1    3    3    0    0  0.84463075633E+01 -0.16541441471E+01  0.44215807036E+02  0.45045686765E+02  0.00000000000E+00 0. -1.
         11    1    4    4    0    0 -0.54167916573E+01 -0.75250345834E+00 -0.89554916613E+01  0.10493270437E+02  0.51100000000E-03 0. -1.
        -11    1    4    4    0    0 -0.29482234731E+01  0.28295650588E+01 -0.21671104450E+02  0.22053009510E+02  0.51100000000E-03 0.  1.
         12    1    4    4    0    0 -0.81292432918E-01 -0.42291745340E+00 -0.13589210924E+02  0.13596033288E+02  0.00000000000E+00 0. -1.
</event>
<event>
 8    1  0.7489580E-009  0.9118800E+02  0.7816164E-02  0.1184000E+00
        -11   -1    0    0    0    0  0.00000000000E+00  0.00000000000E+00  0.45593999997E+02  0.45594000000E+02  0.51100000000E-03 0.  1.
         11   -1    0    0    0    0 -0.00000000000E+00 -0.00000000000E+00 -0.45593999997E+02  0.45594000000E+02  0.51100000000E-03 0. -1.
         23    2    1    2    0    0  0.00000000000E+00  0.00000000000E+00  0.00000000000E+00  0.91188000000E+02  0.91188000000E+02 0.  0.
    9900012    2    3    3    0    0  0.22201262050E+02 -0.38785687090E+02  0.56469377096E+01  0.46142318019E+02  0.10000002349E+02 0.  0.
         12    1    3    3    0    0 -0.22201262050E+02  0.38785687090E+02 -0.56469377096E+01  0.45045681981E+02  0.00000000000E+00 0. -1.
         11    1    4    4    0    0  0.70207566270E+01 -0.82748208448E+01  0.12014090894E+01  0.10918198922E+02  0.51100000000E-03 0. -1.
        -11    1    4    4    0    0  0.10936468960E+02 -0.14635086482E+02  0.43932826239E+01  0.18790770131E+02  0.51100000000E-03 0.  1.
        -12    1    4    4    0    0  0.42440364628E+01 -0.15875779763E+02  0.52245996213E-01  0.16433348966E+02  0.00000000000E+00 0.  1.
</event>
<event>
 8    1  0.7489580E-009  0.9118800E+02  0.7816164E-02  0.1184000E+00
        -11   -1    0    0    0    0  0.00000000000E+00  0.00000000000E+00  0.45593999997E+02  0.45594000000E+02  0.51100000000E-03 0. -1.
         11   -1    0    0    0    0 -0.00000000000E+00 -0.00000000000E+00 -0.45593999997E+02  0.45594000000E+02  0.51100000000E-03 0.  1.
         23    2    1    2    0    0  0.00000000000E+00  0.00000000000E+00  0.00000000000E+00  0.91188000000E+02  0.91188000000E+02 0.  0.
    9900012    2    3    3    0    0  0.18152785529E+02  0.16210409244E+02 -0.37905308075E+02  0.46142319068E+02  0.10000011920E+02 0.  0.
         12    1    3    3    0    0 -0.18152785529E+02 -0.16210409244E+02  0.37905308075E+02  0.45045680932E+02  0.00000000000E+00 0. -1.
         11    1    4    4    0    0  0.11074373413E+02  0.72406444119E+01 -0.16553938369E+02  0.21192016274E+02  0.51100000000E-03 0. -1.
        -11    1    4    4    0    0  0.51324759983E+01  0.39260477510E+01 -0.16369571439E+02  0.17598836046E+02  0.51100000000E-03 0.  1.
         12    1    4    4    0    0  0.19459361179E+01  0.50437170813E+01 -0.49817982677E+01  0.73514667483E+01  0.00000000000E+00 0. -1.
</event>
<event>
 8    1  0.7489580E-009  0.9118800E+02  0.7816164E-02  0.1184000E+00
        -11   -1    0    0    0    0  0.00000000000E+00  0.00000000000E+00  0.45593999997E+02  0.45594000000E+02  0.51100000000E-03 0. -1.
         11   -1    0    0    0    0 -0.00000000000E+00 -0.00000000000E+00 -0.45593999997E+02  0.45594000000E+02  0.51100000000E-03 0.  1.
         23    2    1    2    0    0  0.00000000000E+00  0.00000000000E+00  0.00000000000E+00  0.91188000000E+02  0.91188000000E+02 0.  0.
    9900012    2    3    3    0    0 -0.30149400772E+02  0.61976793350E+01 -0.32889448513E+02  0.46142318525E+02  0.10000006966E+02 0.  0.
         12    1    3    3    0    0  0.30149400772E+02 -0.61976793350E+01  0.32889448513E+02  0.45045681475E+02  0.00000000000E+00 0. -1.
         11    1    4    4    0    0 -0.18373560829E+02  0.20982841424E+01 -0.23791799190E+02  0.30133706092E+02  0.51100000000E-03 0.  1.
        -11    1    4    4    0    0 -0.83167998184E+01  0.10000079368E+01 -0.46636199346E+01  0.95874149930E+01  0.51100000000E-03 0. -1.
         12    1    4    4    0    0 -0.34590401240E+01  0.30993872558E+01 -0.44340293885E+01  0.64211974396E+01  0.00000000000E+00 0. -1.
</event>
<event>
 8    1  0.7489580E-009  0.9118800E+02  0.7816164E-02  0.1184000E+00
        -11   -1    0    0    0    0  0.00000000000E+00  0.00000000000E+00  0.45593999997E+02  0.45594000000E+02  0.51100000000E-03 0. -1.
         11   -1    0    0    0    0 -0.00000000000E+00 -0.00000000000E+00 -0.45593999997E+02  0.45594000000E+02  0.51100000000E-03 0.  1.
         23    2    1    2    0    0  0.00000000000E+00  0.00000000000E+00  0.71054273576E-14  0.91188000000E+02  0.91188000000E+02 0.  0.
    9900012    2    3    3    0    0  0.33372387348E+01  0.18888788137E+02  0.40757698780E+02  0.46142317748E+02  0.99999998823E+01 0.  0.
        -12    1    3    3    0    0 -0.33372387348E+01 -0.18888788137E+02 -0.40757698780E+02  0.45045682252E+02  0.00000000000E+00 0.  1.
         11    1    4    4    0    0  0.38652772924E+01  0.51335625401E+01  0.11564535110E+02  0.13229977531E+02  0.51100000000E-03 0. -1.
        -11    1    4    4    0    0 -0.27494720244E+01  0.42070117748E+01  0.66978549765E+01  0.83737569844E+01  0.51100000000E-03 0.  1.
         12    1    4    4    0    0  0.22214334667E+01  0.95482138225E+01  0.22495308693E+02  0.24538583232E+02  0.00000000000E+00 0. -1.
</event>
<event>
 8    1  0.7489580E-009  0.9118800E+02  0.7816164E-02  0.1184000E+00
        -11   -1    0    0    0    0  0.00000000000E+00  0.00000000000E+00  0.45593999997E+02  0.45594000000E+02  0.51100000000E-03 0. -1.
         11   -1    0    0    0    0 -0.00000000000E+00 -0.00000000000E+00 -0.45593999997E+02  0.45594000000E+02  0.51100000000E-03 0.  1.
         23    2    1    2    0    0  0.35527136788E-14  0.00000000000E+00  0.00000000000E+00  0.91188000000E+02  0.91188000000E+02 0.  0.
    9900012    2    3    3    0    0  0.31493601831E+02 -0.15924715353E+02 -0.27994106607E+02  0.46142317409E+02  0.99999967849E+01 0.  0.
         12    1    3    3    0    0 -0.31493601831E+02  0.15924715353E+02  0.27994106607E+02  0.45045682591E+02  0.00000000000E+00 0. -1.
         11    1    4    4    0    0  0.51468362036E+01  0.41190219494E+00 -0.55569085823E+01  0.75854346993E+01  0.51100000000E-03 0. -1.
        -11    1    4    4    0    0  0.88686369177E+01 -0.78726288132E+01 -0.98358633500E+01  0.15406985861E+02  0.51100000000E-03 0.  1.
        -12    1    4    4    0    0  0.17478128710E+02 -0.84639887348E+01 -0.12601334675E+02  0.23149896849E+02  0.00000000000E+00 0.  1.
</event>
<event>
 8    1  0.7489580E-009  0.9118800E+02  0.7816164E-02  0.1184000E+00
        -11   -1    0    0    0    0  0.00000000000E+00  0.00000000000E+00  0.45593999997E+02  0.45594000000E+02  0.51100000000E-03 0. -1.
         11   -1    0    0    0    0 -0.00000000000E+00 -0.00000000000E+00 -0.45593999997E+02  0.45594000000E+02  0.51100000000E-03 0.  1.
         23    2    1    2    0    0  0.00000000000E+00  0.00000000000E+00  0.00000000000E+00  0.91188000000E+02  0.91188000000E+02 0.  0.
    9900012    2    3    3    0    0  0.25512195925E+02 -0.35014192341E+02  0.12338863278E+02  0.46142319261E+02  0.10000013679E+02 0.  0.
        -12    1    3    3    0    0 -0.25512195925E+02  0.35014192341E+02 -0.12338863278E+02  0.45045680739E+02  0.00000000000E+00 0.  1.
         11    1    4    4    0    0  0.65964886408E+01 -0.53956452668E+01  0.58803090466E+00  0.85423902298E+01  0.51100000000E-03 0. -1.
        -11    1    4    4    0    0  0.15431553763E+02 -0.18643087835E+02  0.80150266201E+01  0.25493886081E+02  0.51100000000E-03 0.  1.
         12    1    4    4    0    0  0.34841535218E+01 -0.10975459239E+02  0.37358057534E+01  0.12106042950E+02  0.00000000000E+00 0. -1.
</event>
<event>
 8    1  0.7489580E-009  0.9118800E+02  0.7816164E-02  0.1184000E+00
        -11   -1    0    0    0    0  0.00000000000E+00  0.00000000000E+00  0.45593999997E+02  0.45594000000E+02  0.51100000000E-03 0. -1.
         11   -1    0    0    0    0 -0.00000000000E+00 -0.00000000000E+00 -0.45593999997E+02  0.45594000000E+02  0.51100000000E-03 0.  1.
         23    2    1    2    0    0  0.00000000000E+00 -0.17763568394E-14  0.00000000000E+00  0.91188000000E+02  0.91188000000E+02 0.  0.
    9900012    2    3    3    0    0 -0.39678832546E+02 -0.14957881165E+02  0.15197547956E+02  0.46142318464E+02  0.10000006413E+02 0.  0.
        -12    1    3    3    0    0  0.39678832546E+02  0.14957881165E+02 -0.15197547956E+02  0.45045681536E+02  0.00000000000E+00 0.  1.
         11    1    4    4    0    0 -0.17726251021E+02 -0.65606988630E+01  0.59604837349E+01  0.19818933156E+02  0.51100000000E-03 0. -1.
        -11    1    4    4    0    0 -0.15763747311E+02 -0.37400799998E+01  0.32266457144E+01  0.16519539052E+02  0.51100000000E-03 0.  1.
        -12    1    4    4    0    0 -0.61888342145E+01 -0.46571023021E+01  0.60104185069E+01  0.98038462562E+01  0.00000000000E+00 0.  1.
</event>
<event>
 8    1  0.7489580E-009  0.9118800E+02  0.7816164E-02  0.1184000E+00
        -11   -1    0    0    0    0  0.00000000000E+00  0.00000000000E+00  0.45593999997E+02  0.45594000000E+02  0.51100000000E-03 0. -1.
         11   -1    0    0    0    0 -0.00000000000E+00 -0.00000000000E+00 -0.45593999997E+02  0.45594000000E+02  0.51100000000E-03 0.  1.
         23    2    1    2    0    0  0.35527136788E-14  0.00000000000E+00 -0.71054273576E-14  0.91188000000E+02  0.91188000000E+02 0.  0.
    9900012    2    3    3    0    0  0.22702422170E+02 -0.13027706860E+02 -0.36660502066E+02  0.46142317298E+02  0.99999957747E+01 0.  0.
         12    1    3    3    0    0 -0.22702422170E+02  0.13027706860E+02  0.36660502066E+02  0.45045682702E+02  0.00000000000E+00 0. -1.
         11    1    4    4    0    0  0.10687573260E+01 -0.88757946768E+00 -0.44853813221E+01  0.46956027727E+01  0.51100000000E-03 0. -1.
        -11    1    4    4    0    0  0.94076577693E+01 -0.99439088708E+01 -0.16145775462E+02  0.21167697415E+02  0.51100000000E-03 0.  1.
        -12    1    4    4    0    0  0.12226007074E+02 -0.21962185212E+01 -0.16029345282E+02  0.20279017110E+02  0.00000000000E+00 0.  1.
</event>
<event>
 8    1  0.7489580E-009  0.9118800E+02  0.7816164E-02  0.1184000E+00
        -11   -1    0    0    0    0  0.00000000000E+00  0.00000000000E+00  0.45593999997E+02  0.45594000000E+02  0.51100000000E-03 0. -1.
         11   -1    0    0    0    0 -0.00000000000E+00 -0.00000000000E+00 -0.45593999997E+02  0.45594000000E+02  0.51100000000E-03 0.  1.
         23    2    1    2    0    0  0.00000000000E+00 -0.17763568394E-14 -0.71054273576E-14  0.91188000000E+02  0.91188000000E+02 0.  0.
    9900012    2    3    3    0    0  0.22175418059E+02  0.14476121229E+02  0.36439079808E+02  0.46142314422E+02  0.99999695476E+01 0.  0.
        -12    1    3    3    0    0 -0.22175418059E+02 -0.14476121229E+02 -0.36439079808E+02  0.45045685578E+02  0.00000000000E+00 0.  1.
         11    1    4    4    0    0  0.68213956274E+01  0.33250828925E+01  0.13891150171E+02  0.15828823958E+02  0.51100000000E-03 0.  1.
        -11    1    4    4    0    0  0.11430737388E+02  0.41961108249E+01  0.15058972065E+02  0.19365994506E+02  0.51100000000E-03 0. -1.
        -12    1    4    4    0    0  0.39232850441E+01  0.69549275119E+01  0.74889575724E+01  0.10947495958E+02  0.00000000000E+00 0.  1.
</event>
<event>
 8    1  0.7489580E-009  0.9118800E+02  0.7816164E-02  0.1184000E+00
        -11   -1    0    0    0    0  0.00000000000E+00  0.00000000000E+00  0.45593999997E+02  0.45594000000E+02  0.51100000000E-03 0. -1.
         11   -1    0    0    0    0 -0.00000000000E+00 -0.00000000000E+00 -0.45593999997E+02  0.45594000000E+02  0.51100000000E-03 0.  1.
         23    2    1    2    0    0  0.00000000000E+00  0.00000000000E+00  0.00000000000E+00  0.91188000000E+02  0.91188000000E+02 0.  0.
    9900012    2    3    3    0    0  0.37322508883E+02  0.13244322617E+02 -0.21464660294E+02  0.46142318826E+02  0.10000009713E+02 0.  0.
         12    1    3    3    0    0 -0.37322508883E+02 -0.13244322617E+02  0.21464660294E+02  0.45045681174E+02  0.00000000000E+00 0. -1.
         11    1    4    4    0    0  0.46329079046E+01  0.20927203243E+01 -0.35636720369E+00  0.50961075198E+01  0.51100000000E-03 0. -1.
        -11    1    4    4    0    0  0.18408784309E+02  0.97868575758E+01 -0.12068057238E+02  0.24089498266E+02  0.51100000000E-03 0.  1.
        -12    1    4    4    0    0  0.14280816669E+02  0.13647447169E+01 -0.90402358524E+01  0.16956713040E+02  0.00000000000E+00 0.  1.
</event>
<event>
 8    1  0.7489580E-009  0.9118800E+02  0.7816164E-02  0.1184000E+00
        -11   -1    0    0    0    0  0.00000000000E+00  0.00000000000E+00  0.45593999997E+02  0.45594000000E+02  0.51100000000E-03 0. -1.
         11   -1    0    0    0    0 -0.00000000000E+00 -0.00000000000E+00 -0.45593999997E+02  0.45594000000E+02  0.51100000000E-03 0.  1.
         23    2    1    2    0    0  0.88817841970E-15 -0.35527136788E-14  0.00000000000E+00  0.91188000000E+02  0.91188000000E+02 0.  0.
    9900012    2    3    3    0    0  0.58874882352E+01 -0.29266873319E+02  0.33732806675E+02  0.46142305003E+02  0.99998836619E+01 0.  0.
        -12    1    3    3    0    0 -0.58874882352E+01  0.29266873319E+02 -0.33732806675E+02  0.45045694997E+02  0.00000000000E+00 0.  1.
         11    1    4    4    0    0  0.60198090341E+01 -0.11118321998E+02  0.16689521582E+02  0.20937891865E+02  0.51100000000E-03 0. -1.
        -11    1    4    4    0    0  0.14944239614E+01 -0.90018778995E+01  0.10061935980E+02  0.13583433462E+02  0.51100000000E-03 0.  1.
        -12    1    4    4    0    0 -0.16267447603E+01 -0.91466734216E+01  0.69813491137E+01  0.11620979677E+02  0.00000000000E+00 0.  1.
</event>
<event>
 8    1  0.7489580E-009  0.9118800E+02  0.7816164E-02  0.1184000E+00
        -11   -1    0    0    0    0  0.00000000000E+00  0.00000000000E+00  0.45593999997E+02  0.45594000000E+02  0.51100000000E-03 0. -1.
         11   -1    0    0    0    0 -0.00000000000E+00 -0.00000000000E+00 -0.45593999997E+02  0.45594000000E+02  0.51100000000E-03 0.  1.
         23    2    1    2    0    0 -0.35527136788E-14  0.00000000000E+00  0.00000000000E+00  0.91188000000E+02  0.91188000000E+02 0.  0.
    9900012    2    3    3    0    0 -0.18968730846E+02 -0.35455820076E+02 -0.20302353971E+02  0.46142317588E+02  0.99999984229E+01 0.  0.
         12    1    3    3    0    0  0.18968730846E+02  0.35455820076E+02  0.20302353971E+02  0.45045682412E+02  0.00000000000E+00 0. -1.
         11    1    4    4    0    0 -0.54077222426E+00 -0.24520088316E+00  0.70204524570E+00  0.91947042354E+00  0.51100000000E-03 0. -1.
        -11    1    4    4    0    0 -0.18727325878E+01 -0.41055245061E+01 -0.73336811463E+00  0.45716832642E+01  0.51100000000E-03 0.  1.
         12    1    4    4    0    0 -0.16555226034E+02 -0.31105094687E+02 -0.20271031102E+02  0.40651163900E+02  0.00000000000E+00 0. -1.
</event>
<event>
 8    1  0.7489580E-009  0.9118800E+02  0.7816164E-02  0.1184000E+00
        -11   -1    0    0    0    0  0.00000000000E+00  0.00000000000E+00  0.45593999997E+02  0.45594000000E+02  0.51100000000E-03 0.  1.
         11   -1    0    0    0    0 -0.00000000000E+00 -0.00000000000E+00 -0.45593999997E+02  0.45594000000E+02  0.51100000000E-03 0. -1.
         23    2    1    2    0    0  0.00000000000E+00 -0.35527136788E-14  0.35527136788E-14  0.91188000000E+02  0.91188000000E+02 0.  0.
    9900012    2    3    3    0    0  0.32826358832E+02  0.23617622180E+02 -0.19843175540E+02  0.46142317331E+02  0.99999960801E+01 0.  0.
         12    1    3    3    0    0 -0.32826358832E+02 -0.23617622180E+02  0.19843175540E+02  0.45045682669E+02  0.00000000000E+00 0. -1.
         11    1    4    4    0    0  0.11189309653E+02  0.74640476642E+01 -0.52947950825E+01  0.14455016890E+02  0.51100000000E-03 0. -1.
        -11    1    4    4    0    0  0.20540531698E+02  0.17078887698E+02 -0.13722092072E+02  0.30031610988E+02  0.51100000000E-03 0.  1.
         12    1    4    4    0    0  0.10965174805E+01 -0.92531318254E+00 -0.82628838547E+00  0.16556894536E+01  0.00000000000E+00 0. -1.
</event>
<event>
 8    1  0.7489580E-009  0.9118800E+02  0.7816164E-02  0.1184000E+00
        -11   -1    0    0    0    0  0.00000000000E+00  0.00000000000E+00  0.45593999997E+02  0.45594000000E+02  0.51100000000E-03 0. -1.
         11   -1    0    0    0    0 -0.00000000000E+00 -0.00000000000E+00 -0.45593999997E+02  0.45594000000E+02  0.51100000000E-03 0.  1.
         23    2    1    2    0    0 -0.17763568394E-14  0.00000000000E+00  0.00000000000E+00  0.91188000000E+02  0.91188000000E+02 0.  0.
    9900012    2    3    3    0    0 -0.72682539152E+01 -0.41277790414E+02  0.16505453445E+02  0.46142317744E+02  0.99999998481E+01 0.  0.
        -12    1    3    3    0    0  0.72682539152E+01  0.41277790414E+02 -0.16505453445E+02  0.45045682256E+02  0.00000000000E+00 0.  1.
         11    1    4    4    0    0 -0.35195303173E+00 -0.62299735048E+00  0.13598803380E+01  0.15366429091E+01  0.51100000000E-03 0. -1.
        -11    1    4    4    0    0  0.73562155466E+00 -0.67783634014E+01  0.48993030315E+01  0.83958632629E+01  0.51100000000E-03 0.  1.
         12    1    4    4    0    0 -0.76519224381E+01 -0.33876429662E+02  0.10246270075E+02  0.36209811573E+02  0.00000000000E+00 0. -1.
</event>
<event>
 8    1  0.7489580E-009  0.9118800E+02  0.7816164E-02  0.1184000E+00
        -11   -1    0    0    0    0  0.00000000000E+00  0.00000000000E+00  0.45593999997E+02  0.45594000000E+02  0.51100000000E-03 0. -1.
         11   -1    0    0    0    0 -0.00000000000E+00 -0.00000000000E+00 -0.45593999997E+02  0.45594000000E+02  0.51100000000E-03 0.  1.
         23    2    1    2    0    0  0.00000000000E+00  0.00000000000E+00 -0.35527136788E-14  0.91188000000E+02  0.91188000000E+02 0.  0.
    9900012    2    3    3    0    0 -0.10011796120E+02  0.32375491553E+02  0.29676674653E+02  0.46142317262E+02  0.99999954510E+01 0.  0.
        -12    1    3    3    0    0  0.10011796120E+02 -0.32375491553E+02 -0.29676674653E+02  0.45045682738E+02  0.00000000000E+00 0.  1.
         11    1    4    4    0    0 -0.44053333601E+01  0.12452110188E+02  0.11385198540E+02  0.17438026155E+02  0.51100000000E-03 0. -1.
        -11    1    4    4    0    0 -0.56642399908E+01  0.90395590295E+01  0.12295138845E+02  0.16277827914E+02  0.51100000000E-03 0.  1.
        -12    1    4    4    0    0  0.57777231075E-01  0.10883822336E+02  0.59963372677E+01  0.12426463192E+02  0.00000000000E+00 0.  1.
</event>
<event>
 8    1  0.7489580E-009  0.9118800E+02  0.7816164E-02  0.1184000E+00
        -11   -1    0    0    0    0  0.00000000000E+00  0.00000000000E+00  0.45593999997E+02  0.45594000000E+02  0.51100000000E-03 0. -1.
         11   -1    0    0    0    0 -0.00000000000E+00 -0.00000000000E+00 -0.45593999997E+02  0.45594000000E+02  0.51100000000E-03 0.  1.
         23    2    1    2    0    0  0.00000000000E+00 -0.35527136788E-14  0.00000000000E+00  0.91188000000E+02  0.91188000000E+02 0.  0.
    9900012    2    3    3    0    0 -0.26308344903E+01  0.24044239468E+02  0.38000876298E+02  0.46142319396E+02  0.10000014904E+02 0.  0.
        -12    1    3    3    0    0  0.26308344903E+01 -0.24044239468E+02 -0.38000876298E+02  0.45045680604E+02  0.00000000000E+00 0.  1.
         11    1    4    4    0    0  0.14341037807E+01  0.62121573061E+01  0.13745942290E+02  0.15152507441E+02  0.51100000000E-03 0. -1.
        -11    1    4    4    0    0 -0.39333864659E+01  0.51772092531E+01  0.99970627880E+01  0.11925447136E+02  0.51100000000E-03 0.  1.
         12    1    4    4    0    0 -0.13155180515E+00  0.12654872909E+02  0.14257871220E+02  0.19064364818E+02  0.00000000000E+00 0. -1.
</event>
<event>
 8    1  0.7489580E-009  0.9118800E+02  0.7816164E-02  0.1184000E+00
        -11   -1    0    0    0    0  0.00000000000E+00  0.00000000000E+00  0.45593999997E+02  0.45594000000E+02  0.51100000000E-03 0. -1.
         11   -1    0    0    0    0 -0.00000000000E+00 -0.00000000000E+00 -0.45593999997E+02  0.45594000000E+02  0.51100000000E-03 0.  1.
         23    2    1    2    0    0  0.00000000000E+00  0.00000000000E+00 -0.35527136788E-14  0.91188000000E+02  0.91188000000E+02 0.  0.
    9900012    2    3    3    0    0  0.38235539161E+02 -0.22184499870E+01 -0.23711503247E+02  0.46142319170E+02  0.10000012845E+02 0.  0.
         12    1    3    3    0    0 -0.38235539161E+02  0.22184499870E+01  0.23711503247E+02  0.45045680830E+02  0.00000000000E+00 0. -1.
         11    1    4    4    0    0  0.13726984115E+02 -0.12725368234E+01 -0.97193740343E+01  0.16867592441E+02  0.51100000000E-03 0.  1.
        -11    1    4    4    0    0  0.20587576357E+02 -0.25609331696E+01 -0.87086067939E+01  0.22499922478E+02  0.51100000000E-03 0. -1.
         12    1    4    4    0    0  0.39209786883E+01  0.16150200060E+01 -0.52835224187E+01  0.67748042512E+01  0.00000000000E+00 0. -1.
</event>
<event>
 8    1  0.7489580E-009  0.9118800E+02  0.7816164E-02  0.1184000E+00
        -11   -1    0    0    0    0  0.00000000000E+00  0.00000000000E+00  0.45593999997E+02  0.45594000000E+02  0.51100000000E-03 0. -1.
         11   -1    0    0    0    0 -0.00000000000E+00 -0.00000000000E+00 -0.45593999997E+02  0.45594000000E+02  0.51100000000E-03 0.  1.
         23    2    1    2    0    0 -0.22204460493E-15 -0.17763568394E-14  0.00000000000E+00  0.91188000000E+02  0.91188000000E+02 0.  0.
    9900012    2    3    3    0    0  0.17615951907E+01 -0.15732954190E+02 -0.42172078821E+02  0.46142319883E+02  0.10000019345E+02 0.  0.
         12    1    3    3    0    0 -0.17615951907E+01  0.15732954190E+02  0.42172078821E+02  0.45045680117E+02  0.00000000000E+00 0. -1.
         11    1    4    4    0    0 -0.10779614383E+01 -0.45665202703E+00 -0.25384411739E+01  0.27953918850E+01  0.51100000000E-03 0. -1.
        -11    1    4    4    0    0  0.26834719593E+00 -0.14637296049E+02 -0.35886550211E+02  0.38757798340E+02  0.51100000000E-03 0.  1.
        -12    1    4    4    0    0  0.25712094330E+01 -0.63900611413E+00 -0.37470874360E+01  0.45891296577E+01  0.00000000000E+00 0.  1.
</event>
<event>
 8    1  0.7489580E-009  0.9118800E+02  0.7816164E-02  0.1184000E+00
        -11   -1    0    0    0    0  0.00000000000E+00  0.00000000000E+00  0.45593999997E+02  0.45594000000E+02  0.51100000000E-03 0. -1.
         11   -1    0    0    0    0 -0.00000000000E+00 -0.00000000000E+00 -0.45593999997E+02  0.45594000000E+02  0.51100000000E-03 0.  1.
         23    2    1    2    0    0  0.00000000000E+00  0.00000000000E+00  0.00000000000E+00  0.91188000000E+02  0.91188000000E+02 0.  0.
    9900012    2    3    3    0    0 -0.55490135525E+01  0.13123347064E+02 -0.42732887870E+02  0.46142317684E+02  0.99999992979E+01 0.  0.
         12    1    3    3    0    0  0.55490135525E+01 -0.13123347064E+02  0.42732887870E+02  0.45045682316E+02  0.00000000000E+00 0. -1.
         11    1    4    4    0    0  0.75629989083E+00  0.42415784167E+01 -0.82583648326E+01  0.93146962891E+01  0.51100000000E-03 0. -1.
        -11    1    4    4    0    0 -0.37695770937E+00 -0.11347065255E+01 -0.19991520304E+01  0.23294345055E+01  0.51100000000E-03 0.  1.
        -12    1    4    4    0    0 -0.59283557339E+01  0.10016475173E+02 -0.32475371007E+02  0.34498186890E+02  0.00000000000E+00 0.  1.
</event>
<event>
 8    1  0.7489580E-009  0.9118800E+02  0.7816164E-02  0.1184000E+00
        -11   -1    0    0    0    0  0.00000000000E+00  0.00000000000E+00  0.45593999997E+02  0.45594000000E+02  0.51100000000E-03 0. -1.
         11   -1    0    0    0    0 -0.00000000000E+00 -0.00000000000E+00 -0.45593999997E+02  0.45594000000E+02  0.51100000000E-03 0.  1.
         23    2    1    2    0    0  0.77715611724E-15  0.35527136788E-14 -0.71054273576E-14  0.91188000000E+02  0.91188000000E+02 0.  0.
    9900012    2    3    3    0    0  0.96140356464E+00  0.15023328857E+02 -0.42455725872E+02  0.46142319118E+02  0.10000012374E+02 0.  0.
         12    1    3    3    0    0 -0.96140356464E+00 -0.15023328857E+02  0.42455725872E+02  0.45045680882E+02  0.00000000000E+00 0. -1.
         11    1    4    4    0    0  0.15510403183E+01  0.38962528748E-01 -0.15055749223E+01  0.21619436291E+01  0.51100000000E-03 0. -1.
        -11    1    4    4    0    0 -0.29867042422E+01  0.60041034708E+01 -0.18744852724E+02  0.19908268750E+02  0.51100000000E-03 0.  1.
        -12    1    4    4    0    0  0.23970674885E+01  0.89802628577E+01 -0.22205298226E+02  0.24072106739E+02  0.00000000000E+00 0.  1.
</event>
<event>
 8    1  0.1343206E-008  0.9118800E+02  0.7816164E-02  0.1184000E+00
        -11   -1    0    0    0    0  0.00000000000E+00  0.00000000000E+00  0.45593999997E+02  0.45594000000E+02  0.51100000000E-03 0. -1.
         11   -1    0    0    0    0 -0.00000000000E+00 -0.00000000000E+00 -0.45593999997E+02  0.45594000000E+02  0.51100000000E-03 0.  1.
         23    2    1    2    0    0  0.00000000000E+00 -0.17763568394E-14  0.00000000000E+00  0.91188000000E+02  0.91188000000E+02 0.  0.
    9900012    2    3    3    0    0 -0.13130504193E+01 -0.12382451592E+02 -0.43290463749E+02  0.46142318071E+02  0.10000002828E+02 0.  0.
         12    1    3    3    0    0  0.13130504193E+01  0.12382451592E+02  0.43290463749E+02  0.45045681929E+02  0.00000000000E+00 0. -1.
         11    1    4    4    0    0 -0.23969221583E+01 -0.39720273566E+01 -0.23459173130E+02  0.23913490782E+02  0.51100000000E-03 0. -1.
        -11    1    4    4    0    0 -0.13360800803E+01 -0.37710836175E+01 -0.13133882497E+02  0.13729714176E+02  0.51100000000E-03 0.  1.
         12    1    4    4    0    0  0.24199518193E+01 -0.46393406179E+01 -0.66974081214E+01  0.84991131138E+01  0.00000000000E+00 0. -1.
</event>
<event>
 8    1  0.7489580E-009  0.9118800E+02  0.7816164E-02  0.1184000E+00
        -11   -1    0    0    0    0  0.00000000000E+00  0.00000000000E+00  0.45593999997E+02  0.45594000000E+02  0.51100000000E-03 0. -1.
         11   -1    0    0    0    0 -0.00000000000E+00 -0.00000000000E+00 -0.45593999997E+02  0.45594000000E+02  0.51100000000E-03 0.  1.
         23    2    1    2    0    0  0.00000000000E+00  0.71054273576E-14  0.00000000000E+00  0.91188000000E+02  0.91188000000E+02 0.  0.
    9900012    2    3    3    0    0  0.45725896350E+01  0.44655863308E+02 -0.37495092163E+01  0.46142317376E+02  0.99999964846E+01 0.  0.
         12    1    3    3    0    0 -0.45725896350E+01 -0.44655863308E+02  0.37495092163E+01  0.45045682624E+02  0.00000000000E+00 0. -1.
         11    1    4    4    0    0  0.48481449673E+00 -0.23116961429E+00  0.43400228980E+00  0.69053800437E+00  0.51100000000E-03 0. -1.
        -11    1    4    4    0    0  0.28303579567E+01  0.25492214659E+02 -0.40329320334E+00  0.25652028771E+02  0.51100000000E-03 0.  1.
         12    1    4    4    0    0  0.12574171815E+01  0.19394818263E+02 -0.37802183028E+01  0.19799750600E+02  0.00000000000E+00 0. -1.
</event>
<event>
 8    1  0.7489580E-009  0.9118800E+02  0.7816164E-02  0.1184000E+00
        -11   -1    0    0    0    0  0.00000000000E+00  0.00000000000E+00  0.45593999997E+02  0.45594000000E+02  0.51100000000E-03 0.  1.
         11   -1    0    0    0    0 -0.00000000000E+00 -0.00000000000E+00 -0.45593999997E+02  0.45594000000E+02  0.51100000000E-03 0. -1.
         23    2    1    2    0    0  0.00000000000E+00  0.00000000000E+00 -0.35527136788E-14  0.91188000000E+02  0.91188000000E+02 0.  0.
    9900012    2    3    3    0    0 -0.25936846438E+02  0.22870512782E+02  0.28867505424E+02  0.46142320657E+02  0.10000026410E+02 0.  0.
         12    1    3    3    0    0  0.25936846438E+02 -0.22870512782E+02 -0.28867505424E+02  0.45045679343E+02  0.00000000000E+00 0. -1.
         11    1    4    4    0    0 -0.32770403193E+00  0.14131176441E+01  0.18062823130E+01  0.23166673184E+01  0.51100000000E-03 0. -1.
        -11    1    4    4    0    0 -0.22720124427E+02  0.20752561992E+02  0.21561837530E+02  0.37573737120E+02  0.51100000000E-03 0.  1.
        -12    1    4    4    0    0 -0.28890179787E+01  0.70483314579E+00  0.54993855803E+01  0.62519162187E+01  0.00000000000E+00 0.  1.
</event>
<event>
 8    1  0.7489580E-009  0.9118800E+02  0.7816164E-02  0.1184000E+00
        -11   -1    0    0    0    0  0.00000000000E+00  0.00000000000E+00  0.45593999997E+02  0.45594000000E+02  0.51100000000E-03 0.  1.
         11   -1    0    0    0    0 -0.00000000000E+00 -0.00000000000E+00 -0.45593999997E+02  0.45594000000E+02  0.51100000000E-03 0. -1.
         23    2    1    2    0    0  0.35527136788E-14  0.00000000000E+00  0.00000000000E+00  0.91188000000E+02  0.91188000000E+02 0.  0.
    9900012    2    3    3    0    0  0.29221502617E+02 -0.11240752860E+02  0.32386150917E+02  0.46142317506E+02  0.99999976774E+01 0.  0.
        -12    1    3    3    0    0 -0.29221502617E+02  0.11240752860E+02 -0.32386150917E+02  0.45045682494E+02  0.00000000000E+00 0.  1.
         11    1    4    4    0    0  0.15262615461E+02 -0.49671986945E+01  0.19132779308E+02  0.24973660883E+02  0.51100000000E-03 0. -1.
        -11    1    4    4    0    0  0.61969386204E+01 -0.60845049530E+01  0.61138899793E+01  0.10620870950E+02  0.51100000000E-03 0.  1.
        -12    1    4    4    0    0  0.77619485361E+01 -0.18904921269E+00  0.71394816301E+01  0.10547785674E+02  0.00000000000E+00 0.  1.
</event>
<event>
 8    1  0.7489580E-009  0.9118800E+02  0.7816164E-02  0.1184000E+00
        -11   -1    0    0    0    0  0.00000000000E+00  0.00000000000E+00  0.45593999997E+02  0.45594000000E+02  0.51100000000E-03 0.  1.
         11   -1    0    0    0    0 -0.00000000000E+00 -0.00000000000E+00 -0.45593999997E+02  0.45594000000E+02  0.51100000000E-03 0. -1.
         23    2    1    2    0    0 -0.44408920985E-15  0.71054273576E-14  0.11102230246E-15  0.91188000000E+02  0.91188000000E+02 0.  0.
    9900012    2    3    3    0    0  0.16262799552E+01  0.45010885125E+02  0.69922681666E+00  0.46142317805E+02  0.10000000401E+02 0.  0.
         12    1    3    3    0    0 -0.16262799552E+01 -0.45010885125E+02 -0.69922681666E+00  0.45045682195E+02  0.00000000000E+00 0. -1.
         11    1    4    4    0    0  0.11106422588E+01  0.17299144147E+02 -0.20643038918E+01  0.17457241056E+02  0.51100000000E-03 0. -1.
        -11    1    4    4    0    0  0.26244711009E+01  0.54946685322E+01 -0.58917356078E+00  0.61177084423E+01  0.51100000000E-03 0.  1.
        -12    1    4    4    0    0 -0.21088334046E+01  0.22217072446E+02  0.33527042692E+01  0.22567368307E+02  0.00000000000E+00 0.  1.
</event>
<event>
 8    1  0.7489580E-009  0.9118800E+02  0.7816164E-02  0.1184000E+00
        -11   -1    0    0    0    0  0.00000000000E+00  0.00000000000E+00  0.45593999997E+02  0.45594000000E+02  0.51100000000E-03 0. -1.
         11   -1    0    0    0    0 -0.00000000000E+00 -0.00000000000E+00 -0.45593999997E+02  0.45594000000E+02  0.51100000000E-03 0.  1.
         23    2    1    2    0    0  0.00000000000E+00  0.00000000000E+00  0.00000000000E+00  0.91188000000E+02  0.91188000000E+02 0.  0.
    9900012    2    3    3    0    0  0.54805584491E+01 -0.26614594894E+02 -0.35926881779E+02  0.46142311898E+02  0.99999465315E+01 0.  0.
         12    1    3    3    0    0 -0.54805584491E+01  0.26614594894E+02  0.35926881779E+02  0.45045688102E+02  0.00000000000E+00 0. -1.
         11    1    4    4    0    0  0.20766189531E+01 -0.27248809487E+01 -0.96751631026E+01  0.10263825008E+02  0.51100000000E-03 0. -1.
        -11    1    4    4    0    0  0.41891541128E+00 -0.86065998212E+01 -0.68963171502E+01  0.11036677086E+02  0.51100000000E-03 0.  1.
        -12    1    4    4    0    0  0.29850240847E+01 -0.15283114124E+02 -0.19355401526E+02  0.24841809804E+02  0.00000000000E+00 0.  1.
</event>
<event>
 8    1  0.7489580E-009  0.9118800E+02  0.7816164E-02  0.1184000E+00
        -11   -1    0    0    0    0  0.00000000000E+00  0.00000000000E+00  0.45593999997E+02  0.45594000000E+02  0.51100000000E-03 0. -1.
         11   -1    0    0    0    0 -0.00000000000E+00 -0.00000000000E+00 -0.45593999997E+02  0.45594000000E+02  0.51100000000E-03 0.  1.
         23    2    1    2    0    0  0.00000000000E+00  0.00000000000E+00  0.00000000000E+00  0.91188000000E+02  0.91188000000E+02 0.  0.
    9900012    2    3    3    0    0  0.50287675772E+01  0.25430148442E+02  0.36839280328E+02  0.46142317319E+02  0.99999959654E+01 0.  0.
        -12    1    3    3    0    0 -0.50287675772E+01 -0.25430148442E+02 -0.36839280328E+02  0.45045682681E+02  0.00000000000E+00 0.  1.
         11    1    4    4    0    0 -0.19421038813E+01  0.63447578239E+01  0.10241648742E+02  0.12203240903E+02  0.51100000000E-03 0. -1.
        -11    1    4    4    0    0  0.70804054440E+01  0.11714023926E+02  0.16545116855E+02  0.21473038672E+02  0.51100000000E-03 0.  1.
        -12    1    4    4    0    0 -0.10953398545E+00  0.73713666923E+01  0.10052514731E+02  0.12466037744E+02  0.00000000000E+00 0.  1.
</event>
<event>
 8    1  0.7489580E-009  0.9118800E+02  0.7816164E-02  0.1184000E+00
        -11   -1    0    0    0    0  0.00000000000E+00  0.00000000000E+00  0.45593999997E+02  0.45594000000E+02  0.51100000000E-03 0. -1.
         11   -1    0    0    0    0 -0.00000000000E+00 -0.00000000000E+00 -0.45593999997E+02  0.45594000000E+02  0.51100000000E-03 0.  1.
         23    2    1    2    0    0  0.00000000000E+00  0.00000000000E+00 -0.17763568394E-14  0.91188000000E+02  0.91188000000E+02 0.  0.
    9900012    2    3    3    0    0 -0.36806702620E+02  0.21830643316E+02  0.14064249839E+02  0.46142317977E+02  0.10000001972E+02 0.  0.
        -12    1    3    3    0    0  0.36806702620E+02 -0.21830643316E+02 -0.14064249839E+02  0.45045682023E+02  0.00000000000E+00 0.  1.
         11    1    4    4    0    0 -0.26930732840E+01 -0.38500607515E+00  0.16155759296E+01  0.31640099931E+01  0.51100000000E-03 0. -1.
        -11    1    4    4    0    0 -0.16246980941E+02  0.12608771923E+02  0.37430046992E+01  0.20903483048E+02  0.51100000000E-03 0.  1.
        -12    1    4    4    0    0 -0.17866648395E+02  0.96068774682E+01  0.87056692103E+01  0.22074824936E+02  0.00000000000E+00 0.  1.
</event>
<event>
 8    1  0.7489580E-009  0.9118800E+02  0.7816164E-02  0.1184000E+00
        -11   -1    0    0    0    0  0.00000000000E+00  0.00000000000E+00  0.45593999997E+02  0.45594000000E+02  0.51100000000E-03 0. -1.
         11   -1    0    0    0    0 -0.00000000000E+00 -0.00000000000E+00 -0.45593999997E+02  0.45594000000E+02  0.51100000000E-03 0.  1.
         23    2    1    2    0    0  0.22204460493E-15  0.00000000000E+00  0.00000000000E+00  0.91188000000E+02  0.91188000000E+02 0.  0.
    9900012    2    3    3    0    0  0.12982809963E+01  0.36375985737E+02  0.26537049892E+02  0.46142324416E+02  0.10000060682E+02 0.  0.
        -12    1    3    3    0    0 -0.12982809963E+01 -0.36375985737E+02 -0.26537049892E+02  0.45045675584E+02  0.00000000000E+00 0.  1.
         11    1    4    4    0    0  0.23615512140E+01  0.10082262632E+02  0.10160870541E+02  0.14507661229E+02  0.51100000000E-03 0. -1.
        -11    1    4    4    0    0  0.11924855674E+01  0.18579349649E+02  0.13867994131E+02  0.23214984744E+02  0.51100000000E-03 0.  1.
        -12    1    4    4    0    0 -0.22557557852E+01  0.77143734555E+01  0.25081852203E+01  0.84196784423E+01  0.00000000000E+00 0.  1.
</event>
<event>
 8    1  0.7489580E-009  0.9118800E+02  0.7816164E-02  0.1184000E+00
        -11   -1    0    0    0    0  0.00000000000E+00  0.00000000000E+00  0.45593999997E+02  0.45594000000E+02  0.51100000000E-03 0. -1.
         11   -1    0    0    0    0 -0.00000000000E+00 -0.00000000000E+00 -0.45593999997E+02  0.45594000000E+02  0.51100000000E-03 0.  1.
         23    2    1    2    0    0  0.17763568394E-14 -0.35527136788E-14  0.00000000000E+00  0.91188000000E+02  0.91188000000E+02 0.  0.
    9900012    2    3    3    0    0 -0.15582449525E+02  0.27861095654E+02  0.31781442853E+02  0.46142317698E+02  0.99999994235E+01 0.  0.
        -12    1    3    3    0    0  0.15582449525E+02 -0.27861095654E+02 -0.31781442853E+02  0.45045682302E+02  0.00000000000E+00 0.  1.
         11    1    4    4    0    0 -0.12088553036E+02  0.18969736043E+02  0.20825658332E+02  0.30654396834E+02  0.51100000000E-03 0. -1.
        -11    1    4    4    0    0 -0.13689487991E+01  0.86180963833E+01  0.80072758496E+01  0.11843228989E+02  0.51100000000E-03 0.  1.
         12    1    4    4    0    0 -0.21249476903E+01  0.27326322748E+00  0.29485086715E+01  0.36446918750E+01  0.00000000000E+00 0. -1.
</event>
<event>
 8    1  0.7489580E-009  0.9118800E+02  0.7816164E-02  0.1184000E+00
        -11   -1    0    0    0    0  0.00000000000E+00  0.00000000000E+00  0.45593999997E+02  0.45594000000E+02  0.51100000000E-03 0. -1.
         11   -1    0    0    0    0 -0.00000000000E+00 -0.00000000000E+00 -0.45593999997E+02  0.45594000000E+02  0.51100000000E-03 0.  1.
         23    2    1    2    0    0  0.00000000000E+00  0.00000000000E+00  0.00000000000E+00  0.91188000000E+02  0.91188000000E+02 0.  0.
    9900012    2    3    3    0    0 -0.10657240634E+02 -0.32949312928E+02  0.28807626099E+02  0.46142319610E+02  0.10000016862E+02 0.  0.
        -12    1    3    3    0    0  0.10657240634E+02  0.32949312928E+02 -0.28807626099E+02  0.45045680390E+02  0.00000000000E+00 0.  1.
         11    1    4    4    0    0 -0.31586797092E+01 -0.70462432832E+01  0.40063329861E+01  0.86992819341E+01  0.51100000000E-03 0. -1.
        -11    1    4    4    0    0 -0.56056035685E+01 -0.68777555842E+01  0.67480709877E+01  0.11147321452E+02  0.51100000000E-03 0.  1.
         12    1    4    4    0    0 -0.18929573561E+01 -0.19025314060E+02  0.18053222125E+02  0.26295716224E+02  0.00000000000E+00 0. -1.
</event>
<event>
 8    1  0.7489580E-009  0.9118800E+02  0.7816164E-02  0.1184000E+00
        -11   -1    0    0    0    0  0.00000000000E+00  0.00000000000E+00  0.45593999997E+02  0.45594000000E+02  0.51100000000E-03 0.  1.
         11   -1    0    0    0    0 -0.00000000000E+00 -0.00000000000E+00 -0.45593999997E+02  0.45594000000E+02  0.51100000000E-03 0. -1.
         23    2    1    2    0    0  0.00000000000E+00 -0.35527136788E-14  0.00000000000E+00  0.91188000000E+02  0.91188000000E+02 0.  0.
    9900012    2    3    3    0    0  0.26070640167E+02 -0.11507122559E+02 -0.34885835075E+02  0.46142316109E+02  0.99999849338E+01 0.  0.
        -12    1    3    3    0    0 -0.26070640167E+02  0.11507122559E+02  0.34885835075E+02  0.45045683891E+02  0.00000000000E+00 0.  1.
         11    1    4    4    0    0  0.11269246486E+02 -0.82344285185E+01 -0.20539177642E+02  0.24832630707E+02  0.51100000000E-03 0. -1.
        -11    1    4    4    0    0  0.67761296557E+01  0.72994203547E-01 -0.83200093288E+01  0.10730508691E+02  0.51100000000E-03 0.  1.
        -12    1    4    4    0    0  0.80252640253E+01 -0.33456882444E+01 -0.60266481047E+01  0.10579176711E+02  0.00000000000E+00 0.  1.
</event>
<event>
 8    1  0.7489580E-009  0.9118800E+02  0.7816164E-02  0.1184000E+00
        -11   -1    0    0    0    0  0.00000000000E+00  0.00000000000E+00  0.45593999997E+02  0.45594000000E+02  0.51100000000E-03 0. -1.
         11   -1    0    0    0    0 -0.00000000000E+00 -0.00000000000E+00 -0.45593999997E+02  0.45594000000E+02  0.51100000000E-03 0.  1.
         23    2    1    2    0    0  0.00000000000E+00  0.00000000000E+00 -0.35527136788E-14  0.91188000000E+02  0.91188000000E+02 0.  0.
    9900012    2    3    3    0    0  0.19627357389E+02  0.27691561909E+02 -0.29615160663E+02  0.46142317630E+02  0.99999988078E+01 0.  0.
         12    1    3    3    0    0 -0.19627357389E+02 -0.27691561909E+02  0.29615160663E+02  0.45045682370E+02  0.00000000000E+00 0. -1.
         11    1    4    4    0    0  0.31885596526E+01  0.66554002405E+01 -0.11036973402E+02  0.13276899004E+02  0.51100000000E-03 0. -1.
        -11    1    4    4    0    0  0.10193317616E+02  0.15539618560E+02 -0.14652613830E+02  0.23666063494E+02  0.51100000000E-03 0.  1.
        -12    1    4    4    0    0  0.62454801205E+01  0.54965431088E+01 -0.39255734305E+01  0.91993551318E+01  0.00000000000E+00 0.  1.
</event>
<event>
 8    1  0.7489580E-009  0.9118800E+02  0.7816164E-02  0.1184000E+00
        -11   -1    0    0    0    0  0.00000000000E+00  0.00000000000E+00  0.45593999997E+02  0.45594000000E+02  0.51100000000E-03 0. -1.
         11   -1    0    0    0    0 -0.00000000000E+00 -0.00000000000E+00 -0.45593999997E+02  0.45594000000E+02  0.51100000000E-03 0.  1.
         23    2    1    2    0    0 -0.36082248300E-15  0.35527136788E-14  0.00000000000E+00  0.91188000000E+02  0.91188000000E+02 0.  0.
    9900012    2    3    3    0    0 -0.23562873769E+00  0.17392768065E+02  0.41551769761E+02  0.46142317941E+02  0.10000001645E+02 0.  0.
        -12    1    3    3    0    0  0.23562873769E+00 -0.17392768065E+02 -0.41551769761E+02  0.45045682059E+02  0.00000000000E+00 0.  1.
         11    1    4    4    0    0 -0.69210029379E+00  0.15161120226E+01  0.23203554009E+01  0.28568598022E+01  0.51100000000E-03 0.  1.
        -11    1    4    4    0    0  0.46525823166E+01  0.63245656792E+01  0.17369992154E+02  0.19062090151E+02  0.51100000000E-03 0. -1.
         12    1    4    4    0    0 -0.41961107605E+01  0.95520903634E+01  0.21861422206E+02  0.24223367988E+02  0.00000000000E+00 0. -1.
</event>
<event>
 8    1  0.7489580E-009  0.9118800E+02  0.7816164E-02  0.1184000E+00
        -11   -1    0    0    0    0  0.00000000000E+00  0.00000000000E+00  0.45593999997E+02  0.45594000000E+02  0.51100000000E-03 0. -1.
         11   -1    0    0    0    0 -0.00000000000E+00 -0.00000000000E+00 -0.45593999997E+02  0.45594000000E+02  0.51100000000E-03 0.  1.
         23    2    1    2    0    0  0.71054273576E-14  0.00000000000E+00  0.00000000000E+00  0.91188000000E+02  0.91188000000E+02 0.  0.
    9900012    2    3    3    0    0  0.27489306461E+02  0.20926896851E+02  0.28905302367E+02  0.46142317782E+02  0.10000000194E+02 0.  0.
        -12    1    3    3    0    0 -0.27489306461E+02 -0.20926896851E+02 -0.28905302367E+02  0.45045682218E+02  0.00000000000E+00 0.  1.
         11    1    4    4    0    0  0.53453368954E+00  0.24690181353E+01  0.18518410741E+01  0.31322663429E+01  0.51100000000E-03 0. -1.
        -11    1    4    4    0    0  0.23844650486E+01  0.74570705207E+00  0.48463051295E+01  0.54523780358E+01  0.51100000000E-03 0.  1.
         12    1    4    4    0    0  0.24570307723E+02  0.17712171664E+02  0.22207156163E+02  0.37557673404E+02  0.00000000000E+00 0. -1.
</event>
<event>
 8    1  0.7489580E-009  0.9118800E+02  0.7816164E-02  0.1184000E+00
        -11   -1    0    0    0    0  0.00000000000E+00  0.00000000000E+00  0.45593999997E+02  0.45594000000E+02  0.51100000000E-03 0. -1.
         11   -1    0    0    0    0 -0.00000000000E+00 -0.00000000000E+00 -0.45593999997E+02  0.45594000000E+02  0.51100000000E-03 0.  1.
         23    2    1    2    0    0  0.00000000000E+00 -0.71054273576E-14  0.00000000000E+00  0.91188000000E+02  0.91188000000E+02 0.  0.
    9900012    2    3    3    0    0 -0.29075679692E+01 -0.36030311619E+02 -0.26878916830E+02  0.46142317889E+02  0.10000001169E+02 0.  0.
         12    1    3    3    0    0  0.29075679692E+01  0.36030311619E+02  0.26878916830E+02  0.45045682111E+02  0.00000000000E+00 0. -1.
         11    1    4    4    0    0  0.24212912308E+01 -0.96653889507E+01 -0.64800505559E+01  0.11885850843E+02  0.51100000000E-03 0. -1.
        -11    1    4    4    0    0 -0.21262488683E+01 -0.19017690496E+02 -0.16825059659E+02  0.25480897136E+02  0.51100000000E-03 0.  1.
        -12    1    4    4    0    0 -0.32026103317E+01 -0.73472321727E+01 -0.35738066146E+01  0.87755699106E+01  0.00000000000E+00 0.  1.
</event>
<event>
 8    1  0.7489580E-009  0.9118800E+02  0.7816164E-02  0.1184000E+00
        -11   -1    0    0    0    0  0.00000000000E+00  0.00000000000E+00  0.45593999997E+02  0.45594000000E+02  0.51100000000E-03 0. -1.
         11   -1    0    0    0    0 -0.00000000000E+00 -0.00000000000E+00 -0.45593999997E+02  0.45594000000E+02  0.51100000000E-03 0.  1.
         23    2    1    2    0    0  0.35527136788E-14 -0.35527136788E-14  0.35527136788E-14  0.91188000000E+02  0.91188000000E+02 0.  0.
    9900012    2    3    3    0    0 -0.30641388278E+02  0.26174624962E+02 -0.20127292296E+02  0.46142316936E+02  0.99999924767E+01 0.  0.
         12    1    3    3    0    0  0.30641388278E+02 -0.26174624962E+02  0.20127292296E+02  0.45045683064E+02  0.00000000000E+00 0. -1.
         11    1    4    4    0    0 -0.10020328231E+02  0.79340559634E+01 -0.76574747273E+01  0.14899434263E+02  0.51100000000E-03 0.  1.
        -11    1    4    4    0    0 -0.14024623476E+02  0.16317459386E+02 -0.11195494272E+02  0.24254662164E+02  0.51100000000E-03 0. -1.
         12    1    4    4    0    0 -0.65964365713E+01  0.19231096130E+01 -0.12743232976E+01  0.69882205095E+01  0.00000000000E+00 0. -1.
</event>
<event>
 8    1  0.7489580E-009  0.9118800E+02  0.7816164E-02  0.1184000E+00
        -11   -1    0    0    0    0  0.00000000000E+00  0.00000000000E+00  0.45593999997E+02  0.45594000000E+02  0.51100000000E-03 0. -1.
         11   -1    0    0    0    0 -0.00000000000E+00 -0.00000000000E+00 -0.45593999997E+02  0.45594000000E+02  0.51100000000E-03 0.  1.
         23    2    1    2    0    0 -0.35527136788E-14  0.00000000000E+00  0.00000000000E+00  0.91188000000E+02  0.91188000000E+02 0.  0.
    9900012    2    3    3    0    0  0.31331920045E+02  0.25875464314E+02  0.19439262460E+02  0.46142314389E+02  0.99999692520E+01 0.  0.
        -12    1    3    3    0    0 -0.31331920045E+02 -0.25875464314E+02 -0.19439262460E+02  0.45045685611E+02  0.00000000000E+00 0.  1.
         11    1    4    4    0    0  0.55979048450E+01  0.46775609782E+01  0.13508673816E+01  0.74189593814E+01  0.51100000000E-03 0. -1.
        -11    1    4    4    0    0  0.68725455834E+01  0.87210162818E+01  0.28817199682E+01  0.11471369492E+02  0.51100000000E-03 0.  1.
         12    1    4    4    0    0  0.18861469617E+02  0.12476887054E+02  0.15206675110E+02  0.27251985516E+02  0.00000000000E+00 0. -1.
</event>
<event>
 8    1  0.7489580E-009  0.9118800E+02  0.7816164E-02  0.1184000E+00
        -11   -1    0    0    0    0  0.00000000000E+00  0.00000000000E+00  0.45593999997E+02  0.45594000000E+02  0.51100000000E-03 0. -1.
         11   -1    0    0    0    0 -0.00000000000E+00 -0.00000000000E+00 -0.45593999997E+02  0.45594000000E+02  0.51100000000E-03 0.  1.
         23    2    1    2    0    0  0.00000000000E+00  0.00000000000E+00  0.00000000000E+00  0.91188000000E+02  0.91188000000E+02 0.  0.
    9900012    2    3    3    0    0 -0.22138676999E+02 -0.59364634564E+01  0.38778226514E+02  0.46142317974E+02  0.10000001941E+02 0.  0.
        -12    1    3    3    0    0  0.22138676999E+02  0.59364634564E+01 -0.38778226514E+02  0.45045682026E+02  0.00000000000E+00 0.  1.
         11    1    4    4    0    0 -0.69940749021E+01 -0.49291413049E+01  0.11665079420E+02  0.14466775587E+02  0.51100000000E-03 0.  1.
        -11    1    4    4    0    0 -0.10707875149E+02 -0.34988504826E+01  0.17870013125E+02  0.21124344114E+02  0.51100000000E-03 0. -1.
        -12    1    4    4    0    0 -0.44367269477E+01  0.24915283310E+01  0.92431339690E+01  0.10551198273E+02  0.00000000000E+00 0.  1.
</event>
<event>
 8    1  0.7489580E-009  0.9118800E+02  0.7816164E-02  0.1184000E+00
        -11   -1    0    0    0    0  0.00000000000E+00  0.00000000000E+00  0.45593999997E+02  0.45594000000E+02  0.51100000000E-03 0. -1.
         11   -1    0    0    0    0 -0.00000000000E+00 -0.00000000000E+00 -0.45593999997E+02  0.45594000000E+02  0.51100000000E-03 0.  1.
         23    2    1    2    0    0  0.00000000000E+00  0.00000000000E+00  0.00000000000E+00  0.91188000000E+02  0.91188000000E+02 0.  0.
    9900012    2    3    3    0    0 -0.20431965270E+02  0.19395446667E+02 -0.35149180791E+02  0.46142318005E+02  0.10000002220E+02 0.  0.
         12    1    3    3    0    0  0.20431965270E+02 -0.19395446667E+02  0.35149180791E+02  0.45045681995E+02  0.00000000000E+00 0. -1.
         11    1    4    4    0    0 -0.63516572749E+01  0.82123720373E+01 -0.20055294481E+02  0.22583211499E+02  0.51100000000E-03 0. -1.
        -11    1    4    4    0    0 -0.53457142928E+01  0.47104385823E+01 -0.48281871018E+01  0.86067580359E+01  0.51100000000E-03 0.  1.
         12    1    4    4    0    0 -0.87345937019E+01  0.64726360473E+01 -0.10265699208E+02  0.14952348470E+02  0.00000000000E+00 0. -1.
</event>
<event>
 8    1  0.7489580E-009  0.9118800E+02  0.7816164E-02  0.1184000E+00
        -11   -1    0    0    0    0  0.00000000000E+00  0.00000000000E+00  0.45593999997E+02  0.45594000000E+02  0.51100000000E-03 0. -1.
         11   -1    0    0    0    0 -0.00000000000E+00 -0.00000000000E+00 -0.45593999997E+02  0.45594000000E+02  0.51100000000E-03 0.  1.
         23    2    1    2    0    0  0.35527136788E-14  0.00000000000E+00  0.00000000000E+00  0.91188000000E+02  0.91188000000E+02 0.  0.
    9900012    2    3    3    0    0 -0.25882378095E+02  0.32519854058E+02  0.17368807886E+02  0.46142313289E+02  0.99999592237E+01 0.  0.
        -12    1    3    3    0    0  0.25882378095E+02 -0.32519854058E+02 -0.17368807886E+02  0.45045686711E+02  0.00000000000E+00 0.  1.
         11    1    4    4    0    0 -0.45914388726E+01  0.49569554922E+01  0.35172352609E+01  0.76173264873E+01  0.51100000000E-03 0. -1.
        -11    1    4    4    0    0 -0.10610861795E+02  0.19690268140E+02  0.62087005538E+01  0.23213035353E+02  0.51100000000E-03 0.  1.
        -12    1    4    4    0    0 -0.10680077428E+02  0.78726304261E+01  0.76428720709E+01  0.15311951449E+02  0.00000000000E+00 0.  1.
</event>
<event>
 8    1  0.7489580E-009  0.9118800E+02  0.7816164E-02  0.1184000E+00
        -11   -1    0    0    0    0  0.00000000000E+00  0.00000000000E+00  0.45593999997E+02  0.45594000000E+02  0.51100000000E-03 0.  1.
         11   -1    0    0    0    0 -0.00000000000E+00 -0.00000000000E+00 -0.45593999997E+02  0.45594000000E+02  0.51100000000E-03 0. -1.
         23    2    1    2    0    0  0.00000000000E+00  0.00000000000E+00 -0.30531133177E-15  0.91188000000E+02  0.91188000000E+02 0.  0.
    9900012    2    3    3    0    0 -0.33804625679E+02 -0.29771636488E+02  0.10172734771E+00  0.46142318688E+02  0.10000008452E+02 0.  0.
        -12    1    3    3    0    0  0.33804625679E+02  0.29771636488E+02 -0.10172734771E+00  0.45045681312E+02  0.00000000000E+00 0.  1.
         11    1    4    4    0    0 -0.22161265541E+02 -0.17072257787E+02 -0.31894801006E+01  0.28155931167E+02  0.51100000000E-03 0. -1.
        -11    1    4    4    0    0 -0.77641342944E+01 -0.99651143275E+01  0.88085100119E+00  0.12663379630E+02  0.51100000000E-03 0.  1.
        -12    1    4    4    0    0 -0.38792258435E+01 -0.27342643732E+01  0.24103564471E+01  0.53230078912E+01  0.00000000000E+00 0.  1.
</event>
<event>
 8    1  0.7489580E-009  0.9118800E+02  0.7816164E-02  0.1184000E+00
        -11   -1    0    0    0    0  0.00000000000E+00  0.00000000000E+00  0.45593999997E+02  0.45594000000E+02  0.51100000000E-03 0. -1.
         11   -1    0    0    0    0 -0.00000000000E+00 -0.00000000000E+00 -0.45593999997E+02  0.45594000000E+02  0.51100000000E-03 0.  1.
         23    2    1    2    0    0  0.22204460493E-15 -0.17763568394E-14  0.00000000000E+00  0.91188000000E+02  0.91188000000E+02 0.  0.
    9900012    2    3    3    0    0 -0.59122442562E+00 -0.91507457931E+01 -0.44102468022E+02  0.46142318958E+02  0.10000010913E+02 0.  0.
         12    1    3    3    0    0  0.59122442562E+00  0.91507457931E+01  0.44102468022E+02  0.45045681042E+02  0.00000000000E+00 0. -1.
         11    1    4    4    0    0 -0.17165822207E+01  0.28782132075E+00 -0.31506754465E+01  0.35994793601E+01  0.51100000000E-03 0. -1.
        -11    1    4    4    0    0 -0.12103216752E+01  0.66557007147E-01 -0.10179216821E+02  0.10251134754E+02  0.51100000000E-03 0.  1.
        -12    1    4    4    0    0  0.23356794703E+01 -0.95051241210E+01 -0.30772575755E+02  0.32291704844E+02  0.00000000000E+00 0.  1.
</event>
<event>
 8    1  0.7489580E-009  0.9118800E+02  0.7816164E-02  0.1184000E+00
        -11   -1    0    0    0    0  0.00000000000E+00  0.00000000000E+00  0.45593999997E+02  0.45594000000E+02  0.51100000000E-03 0. -1.
         11   -1    0    0    0    0 -0.00000000000E+00 -0.00000000000E+00 -0.45593999997E+02  0.45594000000E+02  0.51100000000E-03 0.  1.
         23    2    1    2    0    0  0.00000000000E+00  0.00000000000E+00 -0.71054273576E-14  0.91188000000E+02  0.91188000000E+02 0.  0.
    9900012    2    3    3    0    0 -0.49110426589E+01  0.90221067244E+01 -0.43858829228E+02  0.46142315956E+02  0.99999835401E+01 0.  0.
         12    1    3    3    0    0  0.49110426589E+01 -0.90221067244E+01  0.43858829228E+02  0.45045684044E+02  0.00000000000E+00 0. -1.
         11    1    4    4    0    0  0.15949414826E+01  0.17237093165E+01 -0.61878691388E+01  0.66185147035E+01  0.51100000000E-03 0. -1.
        -11    1    4    4    0    0  0.13339856003E+01  0.15631333312E+01 -0.96652948722E+01  0.98813373903E+01  0.51100000000E-03 0.  1.
        -12    1    4    4    0    0 -0.78399697418E+01  0.57352640768E+01 -0.28005665217E+02  0.29642463862E+02  0.00000000000E+00 0.  1.
</event>
<event>
 8    1  0.7489580E-009  0.9118800E+02  0.7816164E-02  0.1184000E+00
        -11   -1    0    0    0    0  0.00000000000E+00  0.00000000000E+00  0.45593999997E+02  0.45594000000E+02  0.51100000000E-03 0. -1.
         11   -1    0    0    0    0 -0.00000000000E+00 -0.00000000000E+00 -0.45593999997E+02  0.45594000000E+02  0.51100000000E-03 0.  1.
         23    2    1    2    0    0  0.00000000000E+00 -0.35527136788E-14  0.00000000000E+00  0.91188000000E+02  0.91188000000E+02 0.  0.
    9900012    2    3    3    0    0  0.39290588935E+02 -0.18583151241E+02 -0.11833407968E+02  0.46142318375E+02  0.10000005601E+02 0.  0.
         12    1    3    3    0    0 -0.39290588935E+02  0.18583151241E+02  0.11833407968E+02  0.45045681625E+02  0.00000000000E+00 0. -1.
         11    1    4    4    0    0  0.52883592965E+01  0.50366724644E+00 -0.23054594304E+01  0.57909902599E+01  0.51100000000E-03 0. -1.
        -11    1    4    4    0    0  0.38063725434E+01 -0.14618782203E+01 -0.21825097874E+01  0.46248144940E+01  0.51100000000E-03 0.  1.
        -12    1    4    4    0    0  0.30195857095E+02 -0.17624940267E+02 -0.73454387498E+01  0.35726513621E+02  0.00000000000E+00 0.  1.
</event>
<event>
 8    1  0.7926107E-009  0.9118800E+02  0.7816164E-02  0.1184000E+00
        -11   -1    0    0    0    0  0.00000000000E+00  0.00000000000E+00  0.45593999997E+02  0.45594000000E+02  0.51100000000E-03 0. -1.
         11   -1    0    0    0    0 -0.00000000000E+00 -0.00000000000E+00 -0.45593999997E+02  0.45594000000E+02  0.51100000000E-03 0.  1.
         23    2    1    2    0    0 -0.22204460493E-15  0.00000000000E+00  0.00000000000E+00  0.91188000000E+02  0.91188000000E+02 0.  0.
    9900012    2    3    3    0    0 -0.17963876012E+01 -0.26933891259E+02 -0.36061777952E+02  0.46142319454E+02  0.10000015439E+02 0.  0.
         12    1    3    3    0    0  0.17963876012E+01  0.26933891259E+02  0.36061777952E+02  0.45045680546E+02  0.00000000000E+00 0. -1.
         11    1    4    4    0    0  0.20205085247E+01 -0.99386079190E+01 -0.12931017347E+02  0.16433794204E+02  0.51100000000E-03 0.  1.
        -11    1    4    4    0    0 -0.31177442860E+01 -0.17456351818E+02 -0.22560531669E+02  0.28695333030E+02  0.51100000000E-03 0. -1.
         12    1    4    4    0    0 -0.69915183982E+00  0.46106847739E+00 -0.57022893578E+00  0.10131922202E+01  0.00000000000E+00 0. -1.
</event>
<event>
 8    1  0.7489580E-009  0.9118800E+02  0.7816164E-02  0.1184000E+00
        -11   -1    0    0    0    0  0.00000000000E+00  0.00000000000E+00  0.45593999997E+02  0.45594000000E+02  0.51100000000E-03 0. -1.
         11   -1    0    0    0    0 -0.00000000000E+00 -0.00000000000E+00 -0.45593999997E+02  0.45594000000E+02  0.51100000000E-03 0.  1.
         23    2    1    2    0    0  0.00000000000E+00  0.00000000000E+00  0.00000000000E+00  0.91188000000E+02  0.91188000000E+02 0.  0.
    9900012    2    3    3    0    0  0.21259621749E+02 -0.56935123170E+01 -0.39302999708E+02  0.46142318904E+02  0.10000010421E+02 0.  0.
         12    1    3    3    0    0 -0.21259621749E+02  0.56935123170E+01  0.39302999708E+02  0.45045681096E+02  0.00000000000E+00 0. -1.
         11    1    4    4    0    0  0.10811650218E+01 -0.47675461895E+00  0.33635045334E+00  0.12285538895E+01  0.51100000000E-03 0. -1.
        -11    1    4    4    0    0  0.42167268374E+01 -0.24614388199E+01 -0.80880734137E+01  0.94475604307E+01  0.51100000000E-03 0.  1.
        -12    1    4    4    0    0  0.15961729889E+02 -0.27553188781E+01 -0.31551276747E+02  0.35466204584E+02  0.00000000000E+00 0.  1.
</event>
<event>
 8    1  0.7489580E-009  0.9118800E+02  0.7816164E-02  0.1184000E+00
        -11   -1    0    0    0    0  0.00000000000E+00  0.00000000000E+00  0.45593999997E+02  0.45594000000E+02  0.51100000000E-03 0. -1.
         11   -1    0    0    0    0 -0.00000000000E+00 -0.00000000000E+00 -0.45593999997E+02  0.45594000000E+02  0.51100000000E-03 0.  1.
         23    2    1    2    0    0  0.00000000000E+00  0.17763568394E-14  0.00000000000E+00  0.91188000000E+02  0.91188000000E+02 0.  0.
    9900012    2    3    3    0    0  0.85673382715E+01  0.11848216994E+02  0.42606734902E+02  0.46142318853E+02  0.10000009953E+02 0.  0.
        -12    1    3    3    0    0 -0.85673382715E+01 -0.11848216994E+02 -0.42606734902E+02  0.45045681147E+02  0.00000000000E+00 0.  1.
         11    1    4    4    0    0  0.18143074248E+00 -0.40853998438E-01  0.48370039539E+01  0.48405778245E+01  0.51100000000E-03 0. -1.
        -11    1    4    4    0    0  0.19607008511E+00  0.51067281359E+01  0.64691219219E+01  0.82441891314E+01  0.51100000000E-03 0.  1.
        -12    1    4    4    0    0  0.81898374439E+01  0.67823428567E+01  0.31300609026E+02  0.33057551897E+02  0.00000000000E+00 0.  1.
</event>
<event>
 8    1  0.7489580E-009  0.9118800E+02  0.7816164E-02  0.1184000E+00
        -11   -1    0    0    0    0  0.00000000000E+00  0.00000000000E+00  0.45593999997E+02  0.45594000000E+02  0.51100000000E-03 0. -1.
         11   -1    0    0    0    0 -0.00000000000E+00 -0.00000000000E+00 -0.45593999997E+02  0.45594000000E+02  0.51100000000E-03 0.  1.
         23    2    1    2    0    0 -0.17763568394E-14  0.00000000000E+00  0.71054273576E-14  0.91188000000E+02  0.91188000000E+02 0.  0.
    9900012    2    3    3    0    0 -0.15318084276E+02 -0.17411231896E+02  0.38617596134E+02  0.46142318373E+02  0.10000005582E+02 0.  0.
        -12    1    3    3    0    0  0.15318084276E+02  0.17411231896E+02 -0.38617596134E+02  0.45045681627E+02  0.00000000000E+00 0.  1.
         11    1    4    4    0    0  0.39431958423E+00  0.52964327344E+00  0.10980368670E+01  0.12812865230E+01  0.51100000000E-03 0. -1.
        -11    1    4    4    0    0 -0.67348338692E+00 -0.40645527023E+01  0.67742610685E+01  0.79287314135E+01  0.51100000000E-03 0.  1.
         12    1    4    4    0    0 -0.15038920474E+02 -0.13876322468E+02  0.30745298199E+02  0.36932300437E+02  0.00000000000E+00 0. -1.
</event>
<event>
 8    1  0.7489580E-009  0.9118800E+02  0.7816164E-02  0.1184000E+00
        -11   -1    0    0    0    0  0.00000000000E+00  0.00000000000E+00  0.45593999997E+02  0.45594000000E+02  0.51100000000E-03 0. -1.
         11   -1    0    0    0    0 -0.00000000000E+00 -0.00000000000E+00 -0.45593999997E+02  0.45594000000E+02  0.51100000000E-03 0.  1.
         23    2    1    2    0    0  0.00000000000E+00 -0.44408920985E-15  0.00000000000E+00  0.91188000000E+02  0.91188000000E+02 0.  0.
    9900012    2    3    3    0    0  0.83786440603E+01  0.30307433383E+01 -0.44155707069E+02  0.46142317096E+02  0.99999939369E+01 0.  0.
         12    1    3    3    0    0 -0.83786440603E+01 -0.30307433383E+01  0.44155707069E+02  0.45045682904E+02  0.00000000000E+00 0. -1.
         11    1    4    4    0    0  0.26885660351E+00  0.16558661628E+01 -0.10271137668E+02  0.10407230461E+02  0.51100000000E-03 0. -1.
        -11    1    4    4    0    0  0.77447545130E+01  0.38600237762E+01 -0.23256320458E+02  0.24814057458E+02  0.51100000000E-03 0.  1.
         12    1    4    4    0    0  0.36503294377E+00 -0.24851466008E+01 -0.10628248943E+02  0.10921029177E+02  0.00000000000E+00 0. -1.
</event>
<event>
 8    1  0.1048518E-008  0.9118800E+02  0.7816164E-02  0.1184000E+00
        -11   -1    0    0    0    0  0.00000000000E+00  0.00000000000E+00  0.45593999997E+02  0.45594000000E+02  0.51100000000E-03 0. -1.
         11   -1    0    0    0    0 -0.00000000000E+00 -0.00000000000E+00 -0.45593999997E+02  0.45594000000E+02  0.51100000000E-03 0.  1.
         23    2    1    2    0    0  0.00000000000E+00  0.71054273576E-14 -0.35527136788E-14  0.91188000000E+02  0.91188000000E+02 0.  0.
    9900012    2    3    3    0    0  0.10257016758E+02  0.38897850724E+02 -0.20269787362E+02  0.46142318038E+02  0.10000002524E+02 0.  0.
         12    1    3    3    0    0 -0.10257016758E+02 -0.38897850724E+02  0.20269787362E+02  0.45045681962E+02  0.00000000000E+00 0. -1.
         11    1    4    4    0    0  0.49601341921E+01  0.24542365492E+02 -0.10882187561E+02  0.27301147257E+02  0.51100000000E-03 0. -1.
        -11    1    4    4    0    0  0.20487105329E+01  0.12168783161E+02 -0.63034392658E+01  0.13856761718E+02  0.51100000000E-03 0.  1.
         12    1    4    4    0    0  0.32481720327E+01  0.21867020705E+01 -0.30841605354E+01  0.49844090630E+01  0.00000000000E+00 0. -1.
</event>
<event>
 8    1  0.7489580E-009  0.9118800E+02  0.7816164E-02  0.1184000E+00
        -11   -1    0    0    0    0  0.00000000000E+00  0.00000000000E+00  0.45593999997E+02  0.45594000000E+02  0.51100000000E-03 0. -1.
         11   -1    0    0    0    0 -0.00000000000E+00 -0.00000000000E+00 -0.45593999997E+02  0.45594000000E+02  0.51100000000E-03 0.  1.
         23    2    1    2    0    0  0.35527136788E-14  0.00000000000E+00  0.00000000000E+00  0.91188000000E+02  0.91188000000E+02 0.  0.
    9900012    2    3    3    0    0  0.31044437410E+02  0.16114000292E+01 -0.32599994436E+02  0.46142319393E+02  0.10000014878E+02 0.  0.
         12    1    3    3    0    0 -0.31044437410E+02 -0.16114000292E+01  0.32599994436E+02  0.45045680607E+02  0.00000000000E+00 0. -1.
         11    1    4    4    0    0  0.14306111843E+02 -0.29359455522E+01 -0.15701996082E+02  0.21443817141E+02  0.51100000000E-03 0.  1.
        -11    1    4    4    0    0  0.37530290752E+01  0.20859649716E+00 -0.13796618045E+01  0.40040238129E+01  0.51100000000E-03 0. -1.
         12    1    4    4    0    0  0.12985296492E+02  0.43387490843E+01 -0.15518336550E+02  0.20694478439E+02  0.00000000000E+00 0. -1.
</event>
<event>
 8    1  0.7489580E-009  0.9118800E+02  0.7816164E-02  0.1184000E+00
        -11   -1    0    0    0    0  0.00000000000E+00  0.00000000000E+00  0.45593999997E+02  0.45594000000E+02  0.51100000000E-03 0.  1.
         11   -1    0    0    0    0 -0.00000000000E+00 -0.00000000000E+00 -0.45593999997E+02  0.45594000000E+02  0.51100000000E-03 0. -1.
         23    2    1    2    0    0  0.00000000000E+00  0.00000000000E+00  0.88817841970E-15  0.91188000000E+02  0.91188000000E+02 0.  0.
    9900012    2    3    3    0    0  0.27775208333E+02  0.35114560858E+02  0.49617528248E+01  0.46142316819E+02  0.99999914051E+01 0.  0.
        -12    1    3    3    0    0 -0.27775208333E+02 -0.35114560858E+02 -0.49617528248E+01  0.45045683181E+02  0.00000000000E+00 0.  1.
         11    1    4    4    0    0  0.64919049066E+01  0.11145549192E+02  0.28634239086E+01  0.13212391640E+02  0.51100000000E-03 0. -1.
        -11    1    4    4    0    0  0.36106713748E+01  0.76692034275E+00  0.41890732328E-01  0.36914590183E+01  0.51100000000E-03 0.  1.
         12    1    4    4    0    0  0.17672632052E+02  0.23202091323E+02  0.20564381839E+01  0.29238466160E+02  0.00000000000E+00 0. -1.
</event>
<event>
 8    1  0.7489580E-009  0.9118800E+02  0.7816164E-02  0.1184000E+00
        -11   -1    0    0    0    0  0.00000000000E+00  0.00000000000E+00  0.45593999997E+02  0.45594000000E+02  0.51100000000E-03 0. -1.
         11   -1    0    0    0    0 -0.00000000000E+00 -0.00000000000E+00 -0.45593999997E+02  0.45594000000E+02  0.51100000000E-03 0.  1.
         23    2    1    2    0    0  0.00000000000E+00  0.00000000000E+00  0.00000000000E+00  0.91188000000E+02  0.91188000000E+02 0.  0.
    9900012    2    3    3    0    0  0.14838424082E+02  0.33727474686E+01  0.42397632689E+02  0.46142317495E+02  0.99999975730E+01 0.  0.
        -12    1    3    3    0    0 -0.14838424082E+02 -0.33727474686E+01 -0.42397632689E+02  0.45045682505E+02  0.00000000000E+00 0.  1.
         11    1    4    4    0    0  0.35642872701E+01  0.29786077596E+01  0.11042931901E+02  0.11980091534E+02  0.51100000000E-03 0. -1.
        -11    1    4    4    0    0  0.50548044143E+01  0.23977332065E+01  0.22331484588E+02  0.23021628448E+02  0.51100000000E-03 0.  1.
        -12    1    4    4    0    0  0.62193323977E+01 -0.20035934974E+01  0.90232161997E+01  0.11140597514E+02  0.00000000000E+00 0.  1.
</event>
<event>
 8    1  0.7489580E-009  0.9118800E+02  0.7816164E-02  0.1184000E+00
        -11   -1    0    0    0    0  0.00000000000E+00  0.00000000000E+00  0.45593999997E+02  0.45594000000E+02  0.51100000000E-03 0. -1.
         11   -1    0    0    0    0 -0.00000000000E+00 -0.00000000000E+00 -0.45593999997E+02  0.45594000000E+02  0.51100000000E-03 0.  1.
         23    2    1    2    0    0  0.00000000000E+00  0.00000000000E+00  0.00000000000E+00  0.91188000000E+02  0.91188000000E+02 0.  0.
    9900012    2    3    3    0    0  0.22333711974E+01  0.10580356216E+02 -0.43728498733E+02  0.46142317788E+02  0.10000000241E+02 0.  0.
         12    1    3    3    0    0 -0.22333711974E+01 -0.10580356216E+02  0.43728498733E+02  0.45045682212E+02  0.00000000000E+00 0. -1.
         11    1    4    4    0    0 -0.97910500193E+00  0.16957969565E+00 -0.31814757912E+01  0.33330455066E+01  0.51100000000E-03 0. -1.
        -11    1    4    4    0    0  0.59339155756E+01  0.69596688561E+01 -0.23850316886E+02  0.25543804738E+02  0.51100000000E-03 0.  1.
        -12    1    4    4    0    0 -0.27214393763E+01  0.34511076642E+01 -0.16696706056E+02  0.17265467543E+02  0.00000000000E+00 0.  1.
</event>
<event>
 8    1  0.7489580E-009  0.9118800E+02  0.7816164E-02  0.1184000E+00
        -11   -1    0    0    0    0  0.00000000000E+00  0.00000000000E+00  0.45593999997E+02  0.45594000000E+02  0.51100000000E-03 0.  1.
         11   -1    0    0    0    0 -0.00000000000E+00 -0.00000000000E+00 -0.45593999997E+02  0.45594000000E+02  0.51100000000E-03 0. -1.
         23    2    1    2    0    0  0.00000000000E+00  0.00000000000E+00  0.00000000000E+00  0.91188000000E+02  0.91188000000E+02 0.  0.
    9900012    2    3    3    0    0  0.16501406212E+02  0.31705633594E+02 -0.27414775416E+02  0.46142317414E+02  0.99999968353E+01 0.  0.
        -12    1    3    3    0    0 -0.16501406212E+02 -0.31705633594E+02  0.27414775416E+02  0.45045682586E+02  0.00000000000E+00 0.  1.
         11    1    4    4    0    0  0.80609071806E+01  0.11287721395E+02 -0.12864576995E+02  0.18917933830E+02  0.51100000000E-03 0. -1.
        -11    1    4    4    0    0  0.75566326163E+01  0.11950666493E+02 -0.67090677835E+01  0.15650326416E+02  0.51100000000E-03 0.  1.
        -12    1    4    4    0    0  0.88386641488E+00  0.84672457052E+01 -0.78411306375E+01  0.11574057169E+02  0.00000000000E+00 0.  1.
</event>
<event>
 8    1  0.7489580E-009  0.9118800E+02  0.7816164E-02  0.1184000E+00
        -11   -1    0    0    0    0  0.00000000000E+00  0.00000000000E+00  0.45593999997E+02  0.45594000000E+02  0.51100000000E-03 0. -1.
         11   -1    0    0    0    0 -0.00000000000E+00 -0.00000000000E+00 -0.45593999997E+02  0.45594000000E+02  0.51100000000E-03 0.  1.
         23    2    1    2    0    0 -0.35527136788E-14  0.00000000000E+00  0.71054273576E-14  0.91188000000E+02  0.91188000000E+02 0.  0.
    9900012    2    3    3    0    0  0.20761084967E+02 -0.20606927567E+02 -0.34255588807E+02  0.46142317885E+02  0.10000001127E+02 0.  0.
         12    1    3    3    0    0 -0.20761084967E+02  0.20606927567E+02  0.34255588807E+02  0.45045682115E+02  0.00000000000E+00 0. -1.
         11    1    4    4    0    0  0.79574638291E+01 -0.65020504977E+01 -0.68830463760E+01  0.12368274695E+02  0.51100000000E-03 0. -1.
        -11    1    4    4    0    0  0.18115204012E+01 -0.54134925129E+01 -0.67379608728E+01  0.88310602045E+01  0.51100000000E-03 0.  1.
         12    1    4    4    0    0  0.10992100737E+02 -0.86913845562E+01 -0.20634581558E+02  0.24942982985E+02  0.00000000000E+00 0. -1.
</event>
<event>
 8    1  0.7489580E-009  0.9118800E+02  0.7816164E-02  0.1184000E+00
        -11   -1    0    0    0    0  0.00000000000E+00  0.00000000000E+00  0.45593999997E+02  0.45594000000E+02  0.51100000000E-03 0.  1.
         11   -1    0    0    0    0 -0.00000000000E+00 -0.00000000000E+00 -0.45593999997E+02  0.45594000000E+02  0.51100000000E-03 0. -1.
         23    2    1    2    0    0 -0.22204460493E-15  0.00000000000E+00  0.00000000000E+00  0.91188000000E+02  0.91188000000E+02 0.  0.
    9900012    2    3    3    0    0  0.15361970413E+01 -0.43766914138E+02  0.10545654990E+02  0.46142317480E+02  0.99999974341E+01 0.  0.
         12    1    3    3    0    0 -0.15361970413E+01  0.43766914138E+02 -0.10545654990E+02  0.45045682520E+02  0.00000000000E+00 0. -1.
         11    1    4    4    0    0  0.32694275635E+01 -0.18473655028E+02  0.45415869957E+01  0.19302618977E+02  0.51100000000E-03 0. -1.
        -11    1    4    4    0    0 -0.43981352011E+00 -0.24426047744E+02  0.63557761280E+01  0.25243239387E+02  0.51100000000E-03 0.  1.
        -12    1    4    4    0    0 -0.12934170021E+01 -0.86721136703E+00 -0.35170813335E+00  0.15964591155E+01  0.00000000000E+00 0.  1.
</event>
<event>
 8    1  0.7489580E-009  0.9118800E+02  0.7816164E-02  0.1184000E+00
        -11   -1    0    0    0    0  0.00000000000E+00  0.00000000000E+00  0.45593999997E+02  0.45594000000E+02  0.51100000000E-03 0. -1.
         11   -1    0    0    0    0 -0.00000000000E+00 -0.00000000000E+00 -0.45593999997E+02  0.45594000000E+02  0.51100000000E-03 0.  1.
         23    2    1    2    0    0 -0.35527136788E-14 -0.35527136788E-14 -0.71054273576E-14  0.91188000000E+02  0.91188000000E+02 0.  0.
    9900012    2    3    3    0    0 -0.20560013175E+02 -0.11226002892E+02 -0.38475664945E+02  0.46142311243E+02  0.99999405603E+01 0.  0.
         12    1    3    3    0    0  0.20560013175E+02  0.11226002892E+02  0.38475664945E+02  0.45045688757E+02  0.00000000000E+00 0. -1.
         11    1    4    4    0    0 -0.10528568203E+02 -0.29226154257E+01 -0.11639465178E+02  0.15964635267E+02  0.51100000000E-03 0. -1.
        -11    1    4    4    0    0 -0.66914110133E+01 -0.52580599042E+01 -0.21844616372E+02  0.23443750553E+02  0.51100000000E-03 0.  1.
        -12    1    4    4    0    0 -0.33400339585E+01 -0.30453275622E+01 -0.49915833953E+01  0.67339254226E+01  0.00000000000E+00 0.  1.
</event>
<event>
 8    1  0.7489580E-009  0.9118800E+02  0.7816164E-02  0.1184000E+00
        -11   -1    0    0    0    0  0.00000000000E+00  0.00000000000E+00  0.45593999997E+02  0.45594000000E+02  0.51100000000E-03 0. -1.
         11   -1    0    0    0    0 -0.00000000000E+00 -0.00000000000E+00 -0.45593999997E+02  0.45594000000E+02  0.51100000000E-03 0.  1.
         23    2    1    2    0    0  0.00000000000E+00  0.88817841970E-15  0.00000000000E+00  0.91188000000E+02  0.91188000000E+02 0.  0.
    9900012    2    3    3    0    0  0.20869341522E+02  0.68200086661E+01  0.39332830949E+02  0.46142317363E+02  0.99999963660E+01 0.  0.
        -12    1    3    3    0    0 -0.20869341522E+02 -0.68200086661E+01 -0.39332830949E+02  0.45045682637E+02  0.00000000000E+00 0.  1.
         11    1    4    4    0    0  0.58240045444E+01  0.12571226325E+01  0.11447110098E+02  0.12904871797E+02  0.51100000000E-03 0. -1.
        -11    1    4    4    0    0  0.29496103967E+01  0.74733356564E+00  0.74046213515E+00  0.31316119468E+01  0.51100000000E-03 0.  1.
         12    1    4    4    0    0  0.12095726581E+02  0.48155524680E+01  0.27145258716E+02  0.30105833618E+02  0.00000000000E+00 0. -1.
</event>
<event>
 8    1  0.7489580E-009  0.9118800E+02  0.7816164E-02  0.1184000E+00
        -11   -1    0    0    0    0  0.00000000000E+00  0.00000000000E+00  0.45593999997E+02  0.45594000000E+02  0.51100000000E-03 0. -1.
         11   -1    0    0    0    0 -0.00000000000E+00 -0.00000000000E+00 -0.45593999997E+02  0.45594000000E+02  0.51100000000E-03 0.  1.
         23    2    1    2    0    0  0.35527136788E-14  0.00000000000E+00 -0.71054273576E-14  0.91188000000E+02  0.91188000000E+02 0.  0.
    9900012    2    3    3    0    0  0.20134044450E+02 -0.13456051007E+01 -0.40273106550E+02  0.46142317519E+02  0.99999977917E+01 0.  0.
         12    1    3    3    0    0 -0.20134044450E+02  0.13456051007E+01  0.40273106550E+02  0.45045682481E+02  0.00000000000E+00 0. -1.
         11    1    4    4    0    0  0.14144642429E+01  0.32565983613E+00 -0.78046136036E+01  0.79384354369E+01  0.51100000000E-03 0. -1.
        -11    1    4    4    0    0  0.18924834732E+02 -0.14089710395E+01 -0.32693382280E+02  0.37802008071E+02  0.51100000000E-03 0.  1.
        -12    1    4    4    0    0 -0.20525452491E+00 -0.26229389737E+00  0.22488933355E+00  0.40187401127E+00  0.00000000000E+00 0.  1.
</event>
<event>
 8    1  0.7489580E-009  0.9118800E+02  0.7816164E-02  0.1184000E+00
        -11   -1    0    0    0    0  0.00000000000E+00  0.00000000000E+00  0.45593999997E+02  0.45594000000E+02  0.51100000000E-03 0. -1.
         11   -1    0    0    0    0 -0.00000000000E+00 -0.00000000000E+00 -0.45593999997E+02  0.45594000000E+02  0.51100000000E-03 0.  1.
         23    2    1    2    0    0  0.00000000000E+00  0.00000000000E+00 -0.71054273576E-14  0.91188000000E+02  0.91188000000E+02 0.  0.
    9900012    2    3    3    0    0 -0.42277264475E+01 -0.20615928952E+02 -0.39827418118E+02  0.46142318394E+02  0.10000005767E+02 0.  0.
         12    1    3    3    0    0  0.42277264475E+01  0.20615928952E+02  0.39827418118E+02  0.45045681606E+02  0.00000000000E+00 0. -1.
         11    1    4    4    0    0  0.83140854987E+00 -0.77291897107E+01 -0.84744699104E+01  0.11499924099E+02  0.51100000000E-03 0. -1.
        -11    1    4    4    0    0 -0.22209946924E+01 -0.95341071603E+01 -0.16833436799E+02  0.19472971306E+02  0.51100000000E-03 0.  1.
        -12    1    4    4    0    0 -0.28381403049E+01 -0.33526320813E+01 -0.14519511409E+02  0.15169422989E+02  0.00000000000E+00 0.  1.
</event>
<event>
 8    1  0.7489580E-009  0.9118800E+02  0.7816164E-02  0.1184000E+00
        -11   -1    0    0    0    0  0.00000000000E+00  0.00000000000E+00  0.45593999997E+02  0.45594000000E+02  0.51100000000E-03 0.  1.
         11   -1    0    0    0    0 -0.00000000000E+00 -0.00000000000E+00 -0.45593999997E+02  0.45594000000E+02  0.51100000000E-03 0. -1.
         23    2    1    2    0    0 -0.17763568394E-14  0.00000000000E+00  0.00000000000E+00  0.91188000000E+02  0.91188000000E+02 0.  0.
    9900012    2    3    3    0    0 -0.86556133352E+01 -0.43087505550E+02 -0.98823377167E+01  0.46142319014E+02  0.10000011423E+02 0.  0.
        -12    1    3    3    0    0  0.86556133352E+01  0.43087505550E+02  0.98823377167E+01  0.45045680986E+02  0.00000000000E+00 0.  1.
         11    1    4    4    0    0  0.10711920237E+01 -0.52346296196E+01 -0.46079682583E-01  0.53433063925E+01  0.51100000000E-03 0.  1.
        -11    1    4    4    0    0 -0.34556005209E+01 -0.17371721988E+02 -0.13637967482E+01  0.17764510734E+02  0.51100000000E-03 0. -1.
         12    1    4    4    0    0 -0.62712048380E+01 -0.20481153943E+02 -0.84724612859E+01  0.23034501887E+02  0.00000000000E+00 0. -1.
</event>
<event>
 8    1  0.7489580E-009  0.9118800E+02  0.7816164E-02  0.1184000E+00
        -11   -1    0    0    0    0  0.00000000000E+00  0.00000000000E+00  0.45593999997E+02  0.45594000000E+02  0.51100000000E-03 0. -1.
         11   -1    0    0    0    0 -0.00000000000E+00 -0.00000000000E+00 -0.45593999997E+02  0.45594000000E+02  0.51100000000E-03 0.  1.
         23    2    1    2    0    0  0.00000000000E+00  0.00000000000E+00  0.71054273576E-14  0.91188000000E+02  0.91188000000E+02 0.  0.
    9900012    2    3    3    0    0  0.94386668744E+01  0.67547525626E+01  0.43524687590E+02  0.46142317140E+02  0.99999943372E+01 0.  0.
        -12    1    3    3    0    0 -0.94386668744E+01 -0.67547525626E+01 -0.43524687590E+02  0.45045682860E+02  0.00000000000E+00 0.  1.
         11    1    4    4    0    0 -0.83678760800E+00 -0.47091586155E-01  0.10071720260E+01  0.13102774017E+01  0.51100000000E-03 0.  1.
        -11    1    4    4    0    0  0.92304486694E+01  0.22721282116E+01  0.30485898250E+02  0.31933583288E+02  0.51100000000E-03 0. -1.
         12    1    4    4    0    0  0.10450058130E+01  0.45297159371E+01  0.12031617313E+02  0.12898456450E+02  0.00000000000E+00 0. -1.
</event>
<event>
 8    1  0.7489580E-009  0.9118800E+02  0.7816164E-02  0.1184000E+00
        -11   -1    0    0    0    0  0.00000000000E+00  0.00000000000E+00  0.45593999997E+02  0.45594000000E+02  0.51100000000E-03 0. -1.
         11   -1    0    0    0    0 -0.00000000000E+00 -0.00000000000E+00 -0.45593999997E+02  0.45594000000E+02  0.51100000000E-03 0.  1.
         23    2    1    2    0    0 -0.35527136788E-14  0.00000000000E+00  0.35527136788E-14  0.91188000000E+02  0.91188000000E+02 0.  0.
    9900012    2    3    3    0    0  0.22850065997E+02 -0.28010582694E+02 -0.26877425047E+02  0.46142309461E+02  0.99999243171E+01 0.  0.
         12    1    3    3    0    0 -0.22850065997E+02  0.28010582694E+02  0.26877425047E+02  0.45045690539E+02  0.00000000000E+00 0. -1.
         11    1    4    4    0    0  0.16231586914E+02 -0.23803067669E+02 -0.17653428686E+02  0.33788962530E+02  0.51100000000E-03 0.  1.
        -11    1    4    4    0    0  0.46070366951E+01 -0.21199860290E+01 -0.43453450894E+01  0.66784093975E+01  0.51100000000E-03 0. -1.
        -12    1    4    4    0    0  0.20114423879E+01 -0.20875289962E+01 -0.48786512714E+01  0.56749375342E+01  0.00000000000E+00 0.  1.
</event>
<event>
 8    1  0.7489580E-009  0.9118800E+02  0.7816164E-02  0.1184000E+00
        -11   -1    0    0    0    0  0.00000000000E+00  0.00000000000E+00  0.45593999997E+02  0.45594000000E+02  0.51100000000E-03 0. -1.
         11   -1    0    0    0    0 -0.00000000000E+00 -0.00000000000E+00 -0.45593999997E+02  0.45594000000E+02  0.51100000000E-03 0.  1.
         23    2    1    2    0    0  0.00000000000E+00 -0.44408920985E-15 -0.71054273576E-14  0.91188000000E+02  0.91188000000E+02 0.  0.
    9900012    2    3    3    0    0  0.64016427460E+01  0.36374806506E+01  0.44439861833E+02  0.46142316355E+02  0.99999871752E+01 0.  0.
        -12    1    3    3    0    0 -0.64016427460E+01 -0.36374806506E+01 -0.44439861833E+02  0.45045683645E+02  0.00000000000E+00 0.  1.
         11    1    4    4    0    0  0.64081195332E+01  0.40388728181E+01  0.21462269489E+02  0.22759734214E+02  0.51100000000E-03 0. -1.
        -11    1    4    4    0    0 -0.93616744559E+00 -0.13919595276E+01  0.37623136898E+01  0.41193404053E+01  0.51100000000E-03 0.  1.
         12    1    4    4    0    0  0.92969065843E+00  0.99056736010E+00  0.19215278654E+02  0.19263241736E+02  0.00000000000E+00 0. -1.
</event>
<event>
 8    1  0.7489580E-009  0.9118800E+02  0.7816164E-02  0.1184000E+00
        -11   -1    0    0    0    0  0.00000000000E+00  0.00000000000E+00  0.45593999997E+02  0.45594000000E+02  0.51100000000E-03 0. -1.
         11   -1    0    0    0    0 -0.00000000000E+00 -0.00000000000E+00 -0.45593999997E+02  0.45594000000E+02  0.51100000000E-03 0.  1.
         23    2    1    2    0    0  0.00000000000E+00  0.00000000000E+00  0.00000000000E+00  0.91188000000E+02  0.91188000000E+02 0.  0.
    9900012    2    3    3    0    0  0.19964014409E+02 -0.18965698494E+02 -0.35649037954E+02  0.46142317657E+02  0.99999990515E+01 0.  0.
         12    1    3    3    0    0 -0.19964014409E+02  0.18965698494E+02  0.35649037954E+02  0.45045682343E+02  0.00000000000E+00 0. -1.
         11    1    4    4    0    0  0.95673095978E+00 -0.15089008090E+01 -0.61034312436E+00  0.18880240389E+01  0.51100000000E-03 0. -1.
        -11    1    4    4    0    0  0.18989023130E+02 -0.15810178549E+02 -0.29526666350E+02  0.38501542452E+02  0.51100000000E-03 0.  1.
        -12    1    4    4    0    0  0.18260319243E-01 -0.16466191355E+01 -0.55120284795E+01  0.57527511658E+01  0.00000000000E+00 0.  1.
</event>
<event>
 8    1  0.7489580E-009  0.9118800E+02  0.7816164E-02  0.1184000E+00
        -11   -1    0    0    0    0  0.00000000000E+00  0.00000000000E+00  0.45593999997E+02  0.45594000000E+02  0.51100000000E-03 0. -1.
         11   -1    0    0    0    0 -0.00000000000E+00 -0.00000000000E+00 -0.45593999997E+02  0.45594000000E+02  0.51100000000E-03 0.  1.
         23    2    1    2    0    0  0.00000000000E+00  0.00000000000E+00  0.00000000000E+00  0.91188000000E+02  0.91188000000E+02 0.  0.
    9900012    2    3    3    0    0  0.54782694908E+01  0.75881658068E+01 -0.44062702941E+02  0.46142317772E+02  0.10000000101E+02 0.  0.
         12    1    3    3    0    0 -0.54782694908E+01 -0.75881658068E+01  0.44062702941E+02  0.45045682228E+02  0.00000000000E+00 0. -1.
         11    1    4    4    0    0  0.73862801922E+00  0.61114986916E+01 -0.17737139782E+02  0.18775039694E+02  0.51100000000E-03 0. -1.
        -11    1    4    4    0    0  0.20794604103E+01  0.24568406555E+01 -0.56851912274E+01  0.65331172619E+01  0.51100000000E-03 0.  1.
        -12    1    4    4    0    0  0.26601810612E+01 -0.98017354036E+00 -0.20640371932E+02  0.20834160816E+02  0.00000000000E+00 0.  1.
</event>
<event>
 8    1  0.7489580E-009  0.9118800E+02  0.7816164E-02  0.1184000E+00
        -11   -1    0    0    0    0  0.00000000000E+00  0.00000000000E+00  0.45593999997E+02  0.45594000000E+02  0.51100000000E-03 0.  1.
         11   -1    0    0    0    0 -0.00000000000E+00 -0.00000000000E+00 -0.45593999997E+02  0.45594000000E+02  0.51100000000E-03 0. -1.
         23    2    1    2    0    0 -0.35527136788E-14  0.17763568394E-14  0.71054273576E-14  0.91188000000E+02  0.91188000000E+02 0.  0.
    9900012    2    3    3    0    0 -0.26559639097E+02  0.13951598075E+02  0.33601367835E+02  0.46142318318E+02  0.10000005079E+02 0.  0.
        -12    1    3    3    0    0  0.26559639097E+02 -0.13951598075E+02 -0.33601367835E+02  0.45045681682E+02  0.00000000000E+00 0.  1.
         11    1    4    4    0    0 -0.40414721407E+01  0.24554606863E+01  0.15192957217E+01  0.49669954698E+01  0.51100000000E-03 0. -1.
        -11    1    4    4    0    0 -0.13027998651E+01  0.87817742491E+00  0.44830253867E+00  0.16338477608E+01  0.51100000000E-03 0.  1.
        -12    1    4    4    0    0 -0.21215367091E+02  0.10617959964E+02  0.31633769574E+02  0.39541475088E+02  0.00000000000E+00 0.  1.
</event>
<event>
 8    1  0.7489580E-009  0.9118800E+02  0.7816164E-02  0.1184000E+00
        -11   -1    0    0    0    0  0.00000000000E+00  0.00000000000E+00  0.45593999997E+02  0.45594000000E+02  0.51100000000E-03 0. -1.
         11   -1    0    0    0    0 -0.00000000000E+00 -0.00000000000E+00 -0.45593999997E+02  0.45594000000E+02  0.51100000000E-03 0.  1.
         23    2    1    2    0    0  0.00000000000E+00  0.17763568394E-14  0.35527136788E-14  0.91188000000E+02  0.91188000000E+02 0.  0.
    9900012    2    3    3    0    0  0.39475721522E+02  0.98731452520E+01  0.19321019728E+02  0.46142318851E+02  0.10000009941E+02 0.  0.
        -12    1    3    3    0    0 -0.39475721522E+02 -0.98731452520E+01 -0.19321019728E+02  0.45045681149E+02  0.00000000000E+00 0.  1.
         11    1    4    4    0    0  0.28124846764E+02  0.86887765558E+01  0.98697994428E+01  0.31046977064E+02  0.51100000000E-03 0. -1.
        -11    1    4    4    0    0  0.14117551170E+01 -0.42598537777E+00  0.33360995899E+00  0.15118901807E+01  0.51100000000E-03 0.  1.
         12    1    4    4    0    0  0.99391196407E+01  0.16103540739E+01  0.91176103264E+01  0.13583451606E+02  0.00000000000E+00 0. -1.
</event>
<event>
 8    1  0.8629013E-009  0.9118800E+02  0.7816164E-02  0.1184000E+00
        -11   -1    0    0    0    0  0.00000000000E+00  0.00000000000E+00  0.45593999997E+02  0.45594000000E+02  0.51100000000E-03 0. -1.
         11   -1    0    0    0    0 -0.00000000000E+00 -0.00000000000E+00 -0.45593999997E+02  0.45594000000E+02  0.51100000000E-03 0.  1.
         23    2    1    2    0    0  0.00000000000E+00  0.00000000000E+00  0.00000000000E+00  0.91188000000E+02  0.91188000000E+02 0.  0.
    9900012    2    3    3    0    0  0.10445287175E+02  0.17241706238E+02 -0.40283155409E+02  0.46142322429E+02  0.10000042564E+02 0.  0.
         12    1    3    3    0    0 -0.10445287175E+02 -0.17241706238E+02  0.40283155409E+02  0.45045677571E+02  0.00000000000E+00 0. -1.
         11    1    4    4    0    0  0.43954588810E+01  0.89180879487E+01 -0.19587420667E+02  0.21966324228E+02  0.51100000000E-03 0. -1.
        -11    1    4    4    0    0  0.48783163591E+01  0.92217344779E+01 -0.14860174357E+02  0.18156627976E+02  0.51100000000E-03 0.  1.
         12    1    4    4    0    0  0.11715119349E+01 -0.89811618857E+00 -0.58355603849E+01  0.60193702251E+01  0.00000000000E+00 0. -1.
</event>
<event>
 8    1  0.7489580E-009  0.9118800E+02  0.7816164E-02  0.1184000E+00
        -11   -1    0    0    0    0  0.00000000000E+00  0.00000000000E+00  0.45593999997E+02  0.45594000000E+02  0.51100000000E-03 0. -1.
         11   -1    0    0    0    0 -0.00000000000E+00 -0.00000000000E+00 -0.45593999997E+02  0.45594000000E+02  0.51100000000E-03 0.  1.
         23    2    1    2    0    0  0.00000000000E+00  0.00000000000E+00  0.00000000000E+00  0.91188000000E+02  0.91188000000E+02 0.  0.
    9900012    2    3    3    0    0  0.65565460881E+00  0.30802312828E+02  0.32861848279E+02  0.46142318400E+02  0.10000005825E+02 0.  0.
        -12    1    3    3    0    0 -0.65565460881E+00 -0.30802312828E+02 -0.32861848279E+02  0.45045681600E+02  0.00000000000E+00 0.  1.
         11    1    4    4    0    0 -0.21663476541E+01  0.10178904484E+02  0.12133157771E+02  0.15984889003E+02  0.51100000000E-03 0. -1.
        -11    1    4    4    0    0  0.98495582391E+00  0.17713774498E+02  0.13999319634E+02  0.22599311835E+02  0.51100000000E-03 0.  1.
        -12    1    4    4    0    0  0.18370464390E+01  0.29096338461E+01  0.67293708735E+01  0.75581175626E+01  0.00000000000E+00 0.  1.
</event>
<event>
 8    1  0.7489580E-009  0.9118800E+02  0.7816164E-02  0.1184000E+00
        -11   -1    0    0    0    0  0.00000000000E+00  0.00000000000E+00  0.45593999997E+02  0.45594000000E+02  0.51100000000E-03 0. -1.
         11   -1    0    0    0    0 -0.00000000000E+00 -0.00000000000E+00 -0.45593999997E+02  0.45594000000E+02  0.51100000000E-03 0.  1.
         23    2    1    2    0    0  0.88817841970E-15  0.00000000000E+00 -0.88817841970E-15  0.91188000000E+02  0.91188000000E+02 0.  0.
    9900012    2    3    3    0    0 -0.69187724298E+01 -0.44247338970E+02 -0.48389996116E+01  0.46142330562E+02  0.10000116727E+02 0.  0.
         12    1    3    3    0    0  0.69187724298E+01  0.44247338970E+02  0.48389996116E+01  0.45045669438E+02  0.00000000000E+00 0. -1.
         11    1    4    4    0    0 -0.47362105380E+01 -0.11295987567E+02  0.16852033171E+00  0.12249874479E+02  0.51100000000E-03 0. -1.
        -11    1    4    4    0    0 -0.22287817246E+01 -0.14714171312E+02  0.34487932490E+00  0.14886008443E+02  0.51100000000E-03 0.  1.
         12    1    4    4    0    0  0.46219832757E-01 -0.18237180091E+02 -0.53523992683E+01  0.19006447640E+02  0.00000000000E+00 0. -1.
</event>
<event>
 8    1  0.7489580E-009  0.9118800E+02  0.7816164E-02  0.1184000E+00
        -11   -1    0    0    0    0  0.00000000000E+00  0.00000000000E+00  0.45593999997E+02  0.45594000000E+02  0.51100000000E-03 0. -1.
         11   -1    0    0    0    0 -0.00000000000E+00 -0.00000000000E+00 -0.45593999997E+02  0.45594000000E+02  0.51100000000E-03 0.  1.
         23    2    1    2    0    0  0.00000000000E+00  0.35527136788E-14  0.00000000000E+00  0.91188000000E+02  0.91188000000E+02 0.  0.
    9900012    2    3    3    0    0 -0.11103178574E+01 -0.29726879167E+02  0.33825926736E+02  0.46142317962E+02  0.10000001831E+02 0.  0.
        -12    1    3    3    0    0  0.11103178574E+01  0.29726879167E+02 -0.33825926736E+02  0.45045682038E+02  0.00000000000E+00 0.  1.
         11    1    4    4    0    0  0.12540268532E+01 -0.65919211378E+01  0.31344759278E+01  0.74061425343E+01  0.51100000000E-03 0. -1.
        -11    1    4    4    0    0 -0.60476399052E+00 -0.48414464107E+01  0.95451021798E+01  0.10719809640E+02  0.51100000000E-03 0.  1.
         12    1    4    4    0    0 -0.17595807200E+01 -0.18293511619E+02  0.21146348628E+02  0.28016365788E+02  0.00000000000E+00 0. -1.
</event>
<event>
 8    1  0.7489580E-009  0.9118800E+02  0.7816164E-02  0.1184000E+00
        -11   -1    0    0    0    0  0.00000000000E+00  0.00000000000E+00  0.45593999997E+02  0.45594000000E+02  0.51100000000E-03 0.  1.
         11   -1    0    0    0    0 -0.00000000000E+00 -0.00000000000E+00 -0.45593999997E+02  0.45594000000E+02  0.51100000000E-03 0. -1.
         23    2    1    2    0    0  0.00000000000E+00 -0.71054273576E-14  0.00000000000E+00  0.91188000000E+02  0.91188000000E+02 0.  0.
    9900012    2    3    3    0    0 -0.25293814154E+02 -0.37017179507E+02 -0.43663340550E+01  0.46142317785E+02  0.10000000215E+02 0.  0.
         12    1    3    3    0    0  0.25293814154E+02  0.37017179507E+02  0.43663340550E+01  0.45045682215E+02  0.00000000000E+00 0. -1.
         11    1    4    4    0    0 -0.11619317016E+02 -0.10734749661E+02 -0.15035803220E+01  0.15890378607E+02  0.51100000000E-03 0. -1.
        -11    1    4    4    0    0 -0.12957325907E+02 -0.25887665122E+02 -0.35719083445E+01  0.29168853759E+02  0.51100000000E-03 0.  1.
         12    1    4    4    0    0 -0.71717123120E+00 -0.39476472421E+00  0.70915461149E+00  0.10830854192E+01  0.00000000000E+00 0. -1.
</event>
<event>
 8    1  0.7489580E-009  0.9118800E+02  0.7816164E-02  0.1184000E+00
        -11   -1    0    0    0    0  0.00000000000E+00  0.00000000000E+00  0.45593999997E+02  0.45594000000E+02  0.51100000000E-03 0. -1.
         11   -1    0    0    0    0 -0.00000000000E+00 -0.00000000000E+00 -0.45593999997E+02  0.45594000000E+02  0.51100000000E-03 0.  1.
         23    2    1    2    0    0  0.00000000000E+00  0.00000000000E+00  0.00000000000E+00  0.91188000000E+02  0.91188000000E+02 0.  0.
    9900012    2    3    3    0    0 -0.18820953776E+02  0.22300133254E+02  0.34316021249E+02  0.46142316982E+02  0.99999928934E+01 0.  0.
        -12    1    3    3    0    0  0.18820953776E+02 -0.22300133254E+02 -0.34316021249E+02  0.45045683018E+02  0.00000000000E+00 0.  1.
         11    1    4    4    0    0 -0.32620769163E+01  0.81274803705E+01  0.15128479737E+02  0.17480502921E+02  0.51100000000E-03 0. -1.
        -11    1    4    4    0    0 -0.70679098501E+01  0.82418906182E+01  0.85999179642E+01  0.13850729218E+02  0.51100000000E-03 0.  1.
        -12    1    4    4    0    0 -0.84909670101E+01  0.59307622653E+01  0.10587623548E+02  0.14811084843E+02  0.00000000000E+00 0.  1.
</event>
<event>
 8    1  0.7489580E-009  0.9118800E+02  0.7816164E-02  0.1184000E+00
        -11   -1    0    0    0    0  0.00000000000E+00  0.00000000000E+00  0.45593999997E+02  0.45594000000E+02  0.51100000000E-03 0. -1.
         11   -1    0    0    0    0 -0.00000000000E+00 -0.00000000000E+00 -0.45593999997E+02  0.45594000000E+02  0.51100000000E-03 0.  1.
         23    2    1    2    0    0  0.00000000000E+00 -0.35527136788E-14  0.00000000000E+00  0.91188000000E+02  0.91188000000E+02 0.  0.
    9900012    2    3    3    0    0 -0.18208201785E+01  0.30508967660E+02 -0.33090799804E+02  0.46142317349E+02  0.99999962454E+01 0.  0.
         12    1    3    3    0    0  0.18208201785E+01 -0.30508967660E+02  0.33090799804E+02  0.45045682651E+02  0.00000000000E+00 0. -1.
         11    1    4    4    0    0 -0.45113471589E+01  0.98168443704E+01 -0.95274250222E+01  0.14404669881E+02  0.51100000000E-03 0.  1.
        -11    1    4    4    0    0  0.30525587510E+01  0.11876609221E+02 -0.11662379401E+02  0.16922855996E+02  0.51100000000E-03 0. -1.
         12    1    4    4    0    0 -0.36203177065E+00  0.88155140689E+01 -0.11900995380E+02  0.14814791472E+02  0.00000000000E+00 0. -1.
</event>
<event>
 8    1  0.7489580E-009  0.9118800E+02  0.7816164E-02  0.1184000E+00
        -11   -1    0    0    0    0  0.00000000000E+00  0.00000000000E+00  0.45593999997E+02  0.45594000000E+02  0.51100000000E-03 0. -1.
         11   -1    0    0    0    0 -0.00000000000E+00 -0.00000000000E+00 -0.45593999997E+02  0.45594000000E+02  0.51100000000E-03 0.  1.
         23    2    1    2    0    0  0.00000000000E+00  0.00000000000E+00 -0.71054273576E-14  0.91188000000E+02  0.91188000000E+02 0.  0.
    9900012    2    3    3    0    0  0.76102718353E+00 -0.83241823001E+01 -0.44263329632E+02  0.46142317372E+02  0.99999964492E+01 0.  0.
         12    1    3    3    0    0 -0.76102718353E+00  0.83241823001E+01  0.44263329632E+02  0.45045682628E+02  0.00000000000E+00 0. -1.
         11    1    4    4    0    0 -0.10917655608E+00  0.18143784069E+01 -0.69021698580E+01  0.71374951862E+01  0.51100000000E-03 0. -1.
        -11    1    4    4    0    0 -0.18774022961E+01 -0.28447522014E+01 -0.11607499409E+02  0.12097574024E+02  0.51100000000E-03 0.  1.
        -12    1    4    4    0    0  0.27476060357E+01 -0.72938085056E+01 -0.25753660365E+02  0.26907248162E+02  0.00000000000E+00 0.  1.
</event>
<event>
 8    1  0.7489580E-009  0.9118800E+02  0.7816164E-02  0.1184000E+00
        -11   -1    0    0    0    0  0.00000000000E+00  0.00000000000E+00  0.45593999997E+02  0.45594000000E+02  0.51100000000E-03 0. -1.
         11   -1    0    0    0    0 -0.00000000000E+00 -0.00000000000E+00 -0.45593999997E+02  0.45594000000E+02  0.51100000000E-03 0.  1.
         23    2    1    2    0    0  0.00000000000E+00  0.00000000000E+00  0.00000000000E+00  0.91188000000E+02  0.91188000000E+02 0.  0.
    9900012    2    3    3    0    0  0.26766468994E+01 -0.39350572177E+02 -0.21759637696E+02  0.46142314281E+02  0.99999682655E+01 0.  0.
         12    1    3    3    0    0 -0.26766468994E+01  0.39350572177E+02  0.21759637696E+02  0.45045685719E+02  0.00000000000E+00 0. -1.
         11    1    4    4    0    0 -0.16474849919E+01 -0.32465071575E+01 -0.21706991864E+01  0.42386260440E+01  0.51100000000E-03 0. -1.
        -11    1    4    4    0    0  0.38068647338E+01 -0.35873250732E+02 -0.19958163066E+02  0.41227546743E+02  0.51100000000E-03 0.  1.
        -12    1    4    4    0    0  0.51726715752E+00 -0.23081428707E+00  0.36922455656E+00  0.67614149446E+00  0.00000000000E+00 0.  1.
</event>
<event>
 8    1  0.7489580E-009  0.9118800E+02  0.7816164E-02  0.1184000E+00
        -11   -1    0    0    0    0  0.00000000000E+00  0.00000000000E+00  0.45593999997E+02  0.45594000000E+02  0.51100000000E-03 0. -1.
         11   -1    0    0    0    0 -0.00000000000E+00 -0.00000000000E+00 -0.45593999997E+02  0.45594000000E+02  0.51100000000E-03 0.  1.
         23    2    1    2    0    0  0.71054273576E-14  0.00000000000E+00 -0.35527136788E-14  0.91188000000E+02  0.91188000000E+02 0.  0.
    9900012    2    3    3    0    0  0.36647754478E+02  0.12836398415E+01 -0.26161190867E+02  0.46142317109E+02  0.99999940525E+01 0.  0.
         12    1    3    3    0    0 -0.36647754478E+02 -0.12836398415E+01  0.26161190867E+02  0.45045682891E+02  0.00000000000E+00 0. -1.
         11    1    4    4    0    0  0.89759352441E+01 -0.73441274121E+00 -0.52845052116E+01  0.10441875846E+02  0.51100000000E-03 0. -1.
        -11    1    4    4    0    0  0.73775836805E+01  0.16203578769E+01 -0.16282233326E+01  0.77269277267E+01  0.51100000000E-03 0.  1.
        -12    1    4    4    0    0  0.20294235554E+02  0.39769470588E+00 -0.19248462323E+02  0.27973513537E+02  0.00000000000E+00 0.  1.
</event>
<event>
 8    1  0.7489580E-009  0.9118800E+02  0.7816164E-02  0.1184000E+00
        -11   -1    0    0    0    0  0.00000000000E+00  0.00000000000E+00  0.45593999997E+02  0.45594000000E+02  0.51100000000E-03 0. -1.
         11   -1    0    0    0    0 -0.00000000000E+00 -0.00000000000E+00 -0.45593999997E+02  0.45594000000E+02  0.51100000000E-03 0.  1.
         23    2    1    2    0    0 -0.88817841970E-15  0.00000000000E+00 -0.14210854715E-13  0.91188000000E+02  0.91188000000E+02 0.  0.
    9900012    2    3    3    0    0 -0.78516290330E+01  0.19005095547E+02 -0.40078320604E+02  0.46142317436E+02  0.99999970355E+01 0.  0.
         12    1    3    3    0    0  0.78516290330E+01 -0.19005095547E+02  0.40078320604E+02  0.45045682564E+02  0.00000000000E+00 0. -1.
         11    1    4    4    0    0 -0.91372379704E+00 -0.43043844919E-01 -0.23796428327E+00  0.94518316272E+00  0.51100000000E-03 0. -1.
        -11    1    4    4    0    0  0.70374977076E+00  0.35791547252E+01 -0.39597640533E+01  0.53838038510E+01  0.51100000000E-03 0.  1.
         12    1    4    4    0    0 -0.76416550068E+01  0.15468984667E+02 -0.35880592267E+02  0.39813330422E+02  0.00000000000E+00 0. -1.
</event>
<event>
 8    1  0.7489580E-009  0.9118800E+02  0.7816164E-02  0.1184000E+00
        -11   -1    0    0    0    0  0.00000000000E+00  0.00000000000E+00  0.45593999997E+02  0.45594000000E+02  0.51100000000E-03 0. -1.
         11   -1    0    0    0    0 -0.00000000000E+00 -0.00000000000E+00 -0.45593999997E+02  0.45594000000E+02  0.51100000000E-03 0.  1.
         23    2    1    2    0    0  0.00000000000E+00  0.00000000000E+00  0.71054273576E-14  0.91188000000E+02  0.91188000000E+02 0.  0.
    9900012    2    3    3    0    0 -0.18548541386E+02 -0.10514849281E+02  0.39680009044E+02  0.46142316958E+02  0.99999926791E+01 0.  0.
        -12    1    3    3    0    0  0.18548541386E+02  0.10514849281E+02 -0.39680009044E+02  0.45045683042E+02  0.00000000000E+00 0.  1.
         11    1    4    4    0    0 -0.11646268182E+02 -0.53025965822E+01  0.17125399304E+02  0.21378315992E+02  0.51100000000E-03 0.  1.
        -11    1    4    4    0    0 -0.32754372056E+01  0.57108982803E+00  0.60515190164E+01  0.69047458423E+01  0.51100000000E-03 0. -1.
        -12    1    4    4    0    0 -0.36268359986E+01 -0.57833425265E+01  0.16503090724E+02  0.17859255124E+02  0.00000000000E+00 0.  1.
</event>
<event>
 8    1  0.7489580E-009  0.9118800E+02  0.7816164E-02  0.1184000E+00
        -11   -1    0    0    0    0  0.00000000000E+00  0.00000000000E+00  0.45593999997E+02  0.45594000000E+02  0.51100000000E-03 0. -1.
         11   -1    0    0    0    0 -0.00000000000E+00 -0.00000000000E+00 -0.45593999997E+02  0.45594000000E+02  0.51100000000E-03 0.  1.
         23    2    1    2    0    0  0.35527136788E-14  0.00000000000E+00  0.00000000000E+00  0.91188000000E+02  0.91188000000E+02 0.  0.
    9900012    2    3    3    0    0  0.29945177077E+02 -0.20283792984E+02 -0.26850840377E+02  0.46142317444E+02  0.99999971045E+01 0.  0.
         12    1    3    3    0    0 -0.29945177077E+02  0.20283792984E+02  0.26850840377E+02  0.45045682556E+02  0.00000000000E+00 0. -1.
         11    1    4    4    0    0  0.21479545903E+01 -0.16232118081E+00 -0.78209892074E+00  0.22916666579E+01  0.51100000000E-03 0. -1.
        -11    1    4    4    0    0  0.27911401258E+02 -0.18480363515E+02 -0.23912496555E+02  0.41138517810E+02  0.51100000000E-03 0.  1.
        -12    1    4    4    0    0 -0.11417877083E+00 -0.16411082879E+01 -0.21562449011E+01  0.27121329757E+01  0.00000000000E+00 0.  1.
</event>
<event>
 8    1  0.7489580E-009  0.9118800E+02  0.7816164E-02  0.1184000E+00
        -11   -1    0    0    0    0  0.00000000000E+00  0.00000000000E+00  0.45593999997E+02  0.45594000000E+02  0.51100000000E-03 0. -1.
         11   -1    0    0    0    0 -0.00000000000E+00 -0.00000000000E+00 -0.45593999997E+02  0.45594000000E+02  0.51100000000E-03 0.  1.
         23    2    1    2    0    0  0.00000000000E+00  0.00000000000E+00  0.35527136788E-14  0.91188000000E+02  0.91188000000E+02 0.  0.
    9900012    2    3    3    0    0 -0.11453907058E+01 -0.38240886780E+02  0.23778902061E+02  0.46142317357E+02  0.99999963130E+01 0.  0.
        -12    1    3    3    0    0  0.11453907058E+01  0.38240886780E+02 -0.23778902061E+02  0.45045682643E+02  0.00000000000E+00 0.  1.
         11    1    4    4    0    0  0.14643216950E+01 -0.85951092382E+01  0.28729801741E+01  0.91800956523E+01  0.51100000000E-03 0. -1.
        -11    1    4    4    0    0  0.11360440674E+00 -0.71219379822E+01  0.19166535983E+01  0.73762095862E+01  0.51100000000E-03 0.  1.
         12    1    4    4    0    0 -0.27233168075E+01 -0.22523839560E+02  0.18989268288E+02  0.29586012118E+02  0.00000000000E+00 0. -1.
</event>
<event>
 8    1  0.7489580E-009  0.9118800E+02  0.7816164E-02  0.1184000E+00
        -11   -1    0    0    0    0  0.00000000000E+00  0.00000000000E+00  0.45593999997E+02  0.45594000000E+02  0.51100000000E-03 0. -1.
         11   -1    0    0    0    0 -0.00000000000E+00 -0.00000000000E+00 -0.45593999997E+02  0.45594000000E+02  0.51100000000E-03 0.  1.
         23    2    1    2    0    0  0.00000000000E+00  0.00000000000E+00  0.00000000000E+00  0.91188000000E+02  0.91188000000E+02 0.  0.
    9900012    2    3    3    0    0 -0.15968949604E+02 -0.34833052691E+02  0.23680466401E+02  0.46142318740E+02  0.10000008923E+02 0.  0.
        -12    1    3    3    0    0  0.15968949604E+02  0.34833052691E+02 -0.23680466401E+02  0.45045681260E+02  0.00000000000E+00 0.  1.
         11    1    4    4    0    0 -0.53133226118E+01 -0.23168351622E+02  0.13885294680E+02  0.27528264070E+02  0.51100000000E-03 0. -1.
        -11    1    4    4    0    0 -0.38522255933E+01 -0.49157704521E+01  0.38583434769E+01  0.73410663944E+01  0.51100000000E-03 0.  1.
         12    1    4    4    0    0 -0.68034013990E+01 -0.67489306167E+01  0.59368282440E+01  0.11272988276E+02  0.00000000000E+00 0. -1.
</event>
<event>
 8    1  0.7489580E-009  0.9118800E+02  0.7816164E-02  0.1184000E+00
        -11   -1    0    0    0    0  0.00000000000E+00  0.00000000000E+00  0.45593999997E+02  0.45594000000E+02  0.51100000000E-03 0. -1.
         11   -1    0    0    0    0 -0.00000000000E+00 -0.00000000000E+00 -0.45593999997E+02  0.45594000000E+02  0.51100000000E-03 0.  1.
         23    2    1    2    0    0  0.17763568394E-14  0.00000000000E+00  0.00000000000E+00  0.91188000000E+02  0.91188000000E+02 0.  0.
    9900012    2    3    3    0    0 -0.15000633160E+02 -0.93012628840E+00  0.42464448090E+02  0.46142317835E+02  0.10000000674E+02 0.  0.
        -12    1    3    3    0    0  0.15000633160E+02  0.93012628840E+00 -0.42464448090E+02  0.45045682165E+02  0.00000000000E+00 0.  1.
         11    1    4    4    0    0 -0.11944880674E+02 -0.41253340933E+01  0.27608247417E+02  0.30363034785E+02  0.51100000000E-03 0.  1.
        -11    1    4    4    0    0 -0.31905027122E+01  0.13676549332E+01  0.10255680754E+02  0.10827223816E+02  0.51100000000E-03 0. -1.
        -12    1    4    4    0    0  0.13475022665E+00  0.18275528717E+01  0.46005199193E+01  0.49520592333E+01  0.00000000000E+00 0.  1.
</event>
<event>
 8    1  0.7489580E-009  0.9118800E+02  0.7816164E-02  0.1184000E+00
        -11   -1    0    0    0    0  0.00000000000E+00  0.00000000000E+00  0.45593999997E+02  0.45594000000E+02  0.51100000000E-03 0. -1.
         11   -1    0    0    0    0 -0.00000000000E+00 -0.00000000000E+00 -0.45593999997E+02  0.45594000000E+02  0.51100000000E-03 0.  1.
         23    2    1    2    0    0  0.00000000000E+00  0.00000000000E+00  0.00000000000E+00  0.91188000000E+02  0.91188000000E+02 0.  0.
    9900012    2    3    3    0    0  0.17701288533E+02  0.13605730347E+02  0.39123676541E+02  0.46142316744E+02  0.99999907209E+01 0.  0.
        -12    1    3    3    0    0 -0.17701288533E+02 -0.13605730347E+02 -0.39123676541E+02  0.45045683256E+02  0.00000000000E+00 0.  1.
         11    1    4    4    0    0  0.83919480661E+00  0.13797301951E+00  0.64998558975E+00  0.10704045990E+01  0.51100000000E-03 0. -1.
        -11    1    4    4    0    0  0.10673280113E+02  0.28259431703E+01  0.20541215570E+02  0.23320514586E+02  0.51100000000E-03 0.  1.
         12    1    4    4    0    0  0.61888136127E+01  0.10641814157E+02  0.17932475381E+02  0.21751397559E+02  0.00000000000E+00 0. -1.
</event>
<event>
 8    1  0.7489580E-009  0.9118800E+02  0.7816164E-02  0.1184000E+00
        -11   -1    0    0    0    0  0.00000000000E+00  0.00000000000E+00  0.45593999997E+02  0.45594000000E+02  0.51100000000E-03 0. -1.
         11   -1    0    0    0    0 -0.00000000000E+00 -0.00000000000E+00 -0.45593999997E+02  0.45594000000E+02  0.51100000000E-03 0.  1.
         23    2    1    2    0    0  0.88817841970E-15  0.00000000000E+00  0.00000000000E+00  0.91188000000E+02  0.91188000000E+02 0.  0.
    9900012    2    3    3    0    0  0.64525337020E+01  0.20784357107E+02 -0.39439686396E+02  0.46142317027E+02  0.99999933038E+01 0.  0.
         12    1    3    3    0    0 -0.64525337020E+01 -0.20784357107E+02  0.39439686396E+02  0.45045682973E+02  0.00000000000E+00 0. -1.
         11    1    4    4    0    0 -0.11224999624E+01  0.63765011412E+01 -0.10918412457E+02  0.12693758459E+02  0.51100000000E-03 0. -1.
        -11    1    4    4    0    0  0.11833261075E+01  0.66587903024E+01 -0.71926511900E+01  0.98728911860E+01  0.51100000000E-03 0.  1.
         12    1    4    4    0    0  0.63917075568E+01  0.77490656637E+01 -0.21328622748E+02  0.23575667382E+02  0.00000000000E+00 0. -1.
</event>
<event>
 8    1  0.7489580E-009  0.9118800E+02  0.7816164E-02  0.1184000E+00
        -11   -1    0    0    0    0  0.00000000000E+00  0.00000000000E+00  0.45593999997E+02  0.45594000000E+02  0.51100000000E-03 0. -1.
         11   -1    0    0    0    0 -0.00000000000E+00 -0.00000000000E+00 -0.45593999997E+02  0.45594000000E+02  0.51100000000E-03 0.  1.
         23    2    1    2    0    0  0.11102230246E-15  0.00000000000E+00  0.00000000000E+00  0.91188000000E+02  0.91188000000E+02 0.  0.
    9900012    2    3    3    0    0  0.94646306660E+00  0.10871065116E+02  0.43703976023E+02  0.46142319082E+02  0.10000012046E+02 0.  0.
        -12    1    3    3    0    0 -0.94646306660E+00 -0.10871065116E+02 -0.43703976023E+02  0.45045680918E+02  0.00000000000E+00 0.  1.
         11    1    4    4    0    0  0.23706705948E+01  0.38907327140E+01  0.12421292981E+02  0.13230510183E+02  0.51100000000E-03 0. -1.
        -11    1    4    4    0    0 -0.81020753977E+00  0.18890355830E+01  0.11690593427E+01  0.23646546681E+01  0.51100000000E-03 0.  1.
        -12    1    4    4    0    0 -0.61399998842E+00  0.50912968194E+01  0.30113623699E+02  0.30547154231E+02  0.00000000000E+00 0.  1.
</event>
<event>
 8    1  0.7489580E-009  0.9118800E+02  0.7816164E-02  0.1184000E+00
        -11   -1    0    0    0    0  0.00000000000E+00  0.00000000000E+00  0.45593999997E+02  0.45594000000E+02  0.51100000000E-03 0. -1.
         11   -1    0    0    0    0 -0.00000000000E+00 -0.00000000000E+00 -0.45593999997E+02  0.45594000000E+02  0.51100000000E-03 0.  1.
         23    2    1    2    0    0  0.00000000000E+00  0.00000000000E+00  0.00000000000E+00  0.91188000000E+02  0.91188000000E+02 0.  0.
    9900012    2    3    3    0    0 -0.16325831103E+02 -0.17163204877E+02  0.38314553342E+02  0.46142319179E+02  0.10000012928E+02 0.  0.
        -12    1    3    3    0    0  0.16325831103E+02  0.17163204877E+02 -0.38314553342E+02  0.45045680821E+02  0.00000000000E+00 0.  1.
         11    1    4    4    0    0 -0.34004078534E+01 -0.45796984859E+01  0.48402866755E+01  0.74809616463E+01  0.51100000000E-03 0. -1.
        -11    1    4    4    0    0 -0.11838568710E+02 -0.97027701905E+01  0.22138152954E+02  0.26914555076E+02  0.51100000000E-03 0.  1.
         12    1    4    4    0    0 -0.10868545393E+01 -0.28807362010E+01  0.11336113712E+02  0.11746802456E+02  0.00000000000E+00 0. -1.
</event>
<event>
 8    1  0.7489580E-009  0.9118800E+02  0.7816164E-02  0.1184000E+00
        -11   -1    0    0    0    0  0.00000000000E+00  0.00000000000E+00  0.45593999997E+02  0.45594000000E+02  0.51100000000E-03 0. -1.
         11   -1    0    0    0    0 -0.00000000000E+00 -0.00000000000E+00 -0.45593999997E+02  0.45594000000E+02  0.51100000000E-03 0.  1.
         23    2    1    2    0    0  0.35527136788E-14  0.17763568394E-14  0.35527136788E-14  0.91188000000E+02  0.91188000000E+02 0.  0.
    9900012    2    3    3    0    0 -0.31814588590E+02 -0.15308995373E+02 -0.27974633529E+02  0.46142317548E+02  0.99999980591E+01 0.  0.
         12    1    3    3    0    0  0.31814588590E+02  0.15308995373E+02  0.27974633529E+02  0.45045682452E+02  0.00000000000E+00 0. -1.
         11    1    4    4    0    0 -0.15666080344E+02 -0.11057513452E+02 -0.15534679154E+02  0.24678349494E+02  0.51100000000E-03 0. -1.
        -11    1    4    4    0    0 -0.25821567362E+01  0.10147473019E+01 -0.31562001871E+01  0.42022428986E+01  0.51100000000E-03 0.  1.
        -12    1    4    4    0    0 -0.13566351510E+02 -0.52662292221E+01 -0.92837541873E+01  0.17261725155E+02  0.00000000000E+00 0.  1.
</event>
<event>
 8    1  0.7489580E-009  0.9118800E+02  0.7816164E-02  0.1184000E+00
        -11   -1    0    0    0    0  0.00000000000E+00  0.00000000000E+00  0.45593999997E+02  0.45594000000E+02  0.51100000000E-03 0. -1.
         11   -1    0    0    0    0 -0.00000000000E+00 -0.00000000000E+00 -0.45593999997E+02  0.45594000000E+02  0.51100000000E-03 0.  1.
         23    2    1    2    0    0  0.00000000000E+00  0.00000000000E+00  0.00000000000E+00  0.91188000000E+02  0.91188000000E+02 0.  0.
    9900012    2    3    3    0    0 -0.38458544788E+02  0.17946024795E+02  0.15099472506E+02  0.46142317154E+02  0.99999944598E+01 0.  0.
        -12    1    3    3    0    0  0.38458544788E+02 -0.17946024795E+02 -0.15099472506E+02  0.45045682846E+02  0.00000000000E+00 0.  1.
         11    1    4    4    0    0 -0.36861429033E+01  0.68360380093E+00  0.44821038289E+01  0.58433054563E+01  0.51100000000E-03 0.  1.
        -11    1    4    4    0    0 -0.15374017876E+02  0.66130381139E+01  0.50231715198E+01  0.17473550044E+02  0.51100000000E-03 0. -1.
        -12    1    4    4    0    0 -0.19398384009E+02  0.10649382880E+02  0.55941971570E+01  0.22825461654E+02  0.00000000000E+00 0.  1.
</event>
<event>
 8    1  0.7489580E-009  0.9118800E+02  0.7816164E-02  0.1184000E+00
        -11   -1    0    0    0    0  0.00000000000E+00  0.00000000000E+00  0.45593999997E+02  0.45594000000E+02  0.51100000000E-03 0. -1.
         11   -1    0    0    0    0 -0.00000000000E+00 -0.00000000000E+00 -0.45593999997E+02  0.45594000000E+02  0.51100000000E-03 0.  1.
         23    2    1    2    0    0  0.17763568394E-14  0.00000000000E+00  0.00000000000E+00  0.91188000000E+02  0.91188000000E+02 0.  0.
    9900012    2    3    3    0    0  0.15695081553E+02  0.23683723357E+02 -0.34955103267E+02  0.46142316728E+02  0.99999905819E+01 0.  0.
         12    1    3    3    0    0 -0.15695081553E+02 -0.23683723357E+02  0.34955103267E+02  0.45045683272E+02  0.00000000000E+00 0. -1.
         11    1    4    4    0    0  0.44927104205E+01  0.95729182223E+01 -0.87986186486E+01  0.13756485765E+02  0.51100000000E-03 0. -1.
        -11    1    4    4    0    0  0.56609529898E+01  0.11404778537E+02 -0.15348000642E+02  0.19941827554E+02  0.51100000000E-03 0.  1.
        -12    1    4    4    0    0  0.55414181429E+01  0.27060265974E+01 -0.10808483976E+02  0.12444003409E+02  0.00000000000E+00 0.  1.
</event>
<event>
 8    1  0.7489580E-009  0.9118800E+02  0.7816164E-02  0.1184000E+00
        -11   -1    0    0    0    0  0.00000000000E+00  0.00000000000E+00  0.45593999997E+02  0.45594000000E+02  0.51100000000E-03 0. -1.
         11   -1    0    0    0    0 -0.00000000000E+00 -0.00000000000E+00 -0.45593999997E+02  0.45594000000E+02  0.51100000000E-03 0.  1.
         23    2    1    2    0    0  0.00000000000E+00  0.00000000000E+00  0.00000000000E+00  0.91188000000E+02  0.91188000000E+02 0.  0.
    9900012    2    3    3    0    0  0.49140478832E+01 -0.16105700765E+02 -0.41780043435E+02  0.46142317708E+02  0.99999995176E+01 0.  0.
         12    1    3    3    0    0 -0.49140478832E+01  0.16105700765E+02  0.41780043435E+02  0.45045682292E+02  0.00000000000E+00 0. -1.
         11    1    4    4    0    0  0.20700121171E-02  0.26306515530E-02 -0.54526527374E+01  0.54526537889E+01  0.51100000000E-03 0. -1.
        -11    1    4    4    0    0  0.51840105740E+01 -0.80039577807E+01 -0.25016057492E+02  0.26772008488E+02  0.51100000000E-03 0.  1.
        -12    1    4    4    0    0 -0.27203270292E+00 -0.81043736359E+01 -0.11311333206E+02  0.13917655431E+02  0.00000000000E+00 0.  1.
</event>
<event>
 8    1  0.7489580E-009  0.9118800E+02  0.7816164E-02  0.1184000E+00
        -11   -1    0    0    0    0  0.00000000000E+00  0.00000000000E+00  0.45593999997E+02  0.45594000000E+02  0.51100000000E-03 0. -1.
         11   -1    0    0    0    0 -0.00000000000E+00 -0.00000000000E+00 -0.45593999997E+02  0.45594000000E+02  0.51100000000E-03 0.  1.
         23    2    1    2    0    0  0.35527136788E-14 -0.71054273576E-14  0.00000000000E+00  0.91188000000E+02  0.91188000000E+02 0.  0.
    9900012    2    3    3    0    0 -0.29081237091E+02  0.33844539994E+02  0.61597243566E+01  0.46142318272E+02  0.10000004659E+02 0.  0.
        -12    1    3    3    0    0  0.29081237091E+02 -0.33844539994E+02 -0.61597243566E+01  0.45045681728E+02  0.00000000000E+00 0.  1.
         11    1    4    4    0    0 -0.19967132803E+02  0.22372424749E+02  0.39431317200E+01  0.30245000736E+02  0.51100000000E-03 0. -1.
        -11    1    4    4    0    0 -0.60367572786E+01  0.33741982392E+01  0.21216037718E+01  0.72338686070E+01  0.51100000000E-03 0.  1.
        -12    1    4    4    0    0 -0.30773470101E+01  0.80979170061E+01  0.94988864827E-01  0.86634489288E+01  0.00000000000E+00 0.  1.
</event>
<event>
 8    1  0.7489580E-009  0.9118800E+02  0.7816164E-02  0.1184000E+00
        -11   -1    0    0    0    0  0.00000000000E+00  0.00000000000E+00  0.45593999997E+02  0.45594000000E+02  0.51100000000E-03 0. -1.
         11   -1    0    0    0    0 -0.00000000000E+00 -0.00000000000E+00 -0.45593999997E+02  0.45594000000E+02  0.51100000000E-03 0.  1.
         23    2    1    2    0    0  0.00000000000E+00  0.00000000000E+00 -0.35527136788E-14  0.91188000000E+02  0.91188000000E+02 0.  0.
    9900012    2    3    3    0    0 -0.20282959453E+02 -0.31881912425E+02  0.24520578537E+02  0.46142317012E+02  0.99999931656E+01 0.  0.
        -12    1    3    3    0    0  0.20282959453E+02  0.31881912425E+02 -0.24520578537E+02  0.45045682988E+02  0.00000000000E+00 0.  1.
         11    1    4    4    0    0 -0.26316849325E+01 -0.10665943353E+01  0.81565181091E+00  0.29544334817E+01  0.51100000000E-03 0. -1.
        -11    1    4    4    0    0  0.38954115108E+00 -0.10479129133E+00  0.63304096006E+00  0.75064281876E+00  0.51100000000E-03 0.  1.
         12    1    4    4    0    0 -0.18040815672E+02 -0.30710526799E+02  0.23071885766E+02  0.42437240711E+02  0.00000000000E+00 0. -1.
</event>
<event>
 8    1  0.8238708E-009  0.9118800E+02  0.7816164E-02  0.1184000E+00
        -11   -1    0    0    0    0  0.00000000000E+00  0.00000000000E+00  0.45593999997E+02  0.45594000000E+02  0.51100000000E-03 0. -1.
         11   -1    0    0    0    0 -0.00000000000E+00 -0.00000000000E+00 -0.45593999997E+02  0.45594000000E+02  0.51100000000E-03 0.  1.
         23    2    1    2    0    0 -0.17763568394E-14  0.00000000000E+00  0.00000000000E+00  0.91188000000E+02  0.91188000000E+02 0.  0.
    9900012    2    3    3    0    0  0.11249958391E+02  0.28349834189E+02 -0.33148737570E+02  0.46142318022E+02  0.10000002383E+02 0.  0.
         12    1    3    3    0    0 -0.11249958391E+02 -0.28349834189E+02  0.33148737570E+02  0.45045681978E+02  0.00000000000E+00 0. -1.
         11    1    4    4    0    0  0.18061622837E+01  0.75108260177E+01 -0.13072525670E+02  0.15184388605E+02  0.51100000000E-03 0.  1.
        -11    1    4    4    0    0  0.40362700502E+01  0.88188868841E+01 -0.12266433796E+02  0.15637443529E+02  0.51100000000E-03 0. -1.
         12    1    4    4    0    0  0.54075260573E+01  0.12020121287E+02 -0.78097781044E+01  0.15320485888E+02  0.00000000000E+00 0. -1.
</event>
<event>
 8    1  0.7489580E-009  0.9118800E+02  0.7816164E-02  0.1184000E+00
        -11   -1    0    0    0    0  0.00000000000E+00  0.00000000000E+00  0.45593999997E+02  0.45594000000E+02  0.51100000000E-03 0.  1.
         11   -1    0    0    0    0 -0.00000000000E+00 -0.00000000000E+00 -0.45593999997E+02  0.45594000000E+02  0.51100000000E-03 0. -1.
         23    2    1    2    0    0 -0.35527136788E-14  0.71054273576E-14 -0.17763568394E-14  0.91188000000E+02  0.91188000000E+02 0.  0.
    9900012    2    3    3    0    0 -0.26079135951E+02  0.34451237197E+02 -0.12732018891E+02  0.46142318948E+02  0.10000010825E+02 0.  0.
         12    1    3    3    0    0  0.26079135951E+02 -0.34451237197E+02  0.12732018891E+02  0.45045681052E+02  0.00000000000E+00 0. -1.
         11    1    4    4    0    0 -0.13950371561E+02  0.22590664049E+02 -0.86197369123E+01  0.27915064635E+02  0.51100000000E-03 0. -1.
        -11    1    4    4    0    0 -0.10060664365E+02  0.10532681810E+02 -0.52971452412E+01  0.15498841942E+02  0.51100000000E-03 0.  1.
         12    1    4    4    0    0 -0.20681000244E+01  0.13278913390E+01  0.11848632625E+01  0.27284123717E+01  0.00000000000E+00 0. -1.
</event>
<event>
 8    1  0.7489580E-009  0.9118800E+02  0.7816164E-02  0.1184000E+00
        -11   -1    0    0    0    0  0.00000000000E+00  0.00000000000E+00  0.45593999997E+02  0.45594000000E+02  0.51100000000E-03 0. -1.
         11   -1    0    0    0    0 -0.00000000000E+00 -0.00000000000E+00 -0.45593999997E+02  0.45594000000E+02  0.51100000000E-03 0.  1.
         23    2    1    2    0    0 -0.71054273576E-14 -0.17763568394E-14  0.00000000000E+00  0.91188000000E+02  0.91188000000E+02 0.  0.
    9900012    2    3    3    0    0  0.39565931095E+02 -0.63781680001E+01  0.20566225438E+02  0.46142316975E+02  0.99999928291E+01 0.  0.
        -12    1    3    3    0    0 -0.39565931095E+02  0.63781680001E+01 -0.20566225438E+02  0.45045683025E+02  0.00000000000E+00 0.  1.
         11    1    4    4    0    0  0.90343133373E+01  0.19446524079E+00  0.58864224498E+01  0.10784553942E+02  0.51100000000E-03 0. -1.
        -11    1    4    4    0    0  0.34797246747E-01  0.53048773416E+00 -0.33761736305E+00  0.62977283955E+00  0.51100000000E-03 0.  1.
         12    1    4    4    0    0  0.30496820511E+02 -0.71031209751E+01  0.15017420351E+02  0.34727990193E+02  0.00000000000E+00 0. -1.
</event>
<event>
 8    1  0.7489580E-009  0.9118800E+02  0.7816164E-02  0.1184000E+00
        -11   -1    0    0    0    0  0.00000000000E+00  0.00000000000E+00  0.45593999997E+02  0.45594000000E+02  0.51100000000E-03 0. -1.
         11   -1    0    0    0    0 -0.00000000000E+00 -0.00000000000E+00 -0.45593999997E+02  0.45594000000E+02  0.51100000000E-03 0.  1.
         23    2    1    2    0    0  0.00000000000E+00 -0.88817841970E-15 -0.71054273576E-14  0.91188000000E+02  0.91188000000E+02 0.  0.
    9900012    2    3    3    0    0  0.21645437046E+02  0.77350091625E+01  0.38739618994E+02  0.46142318836E+02  0.10000009805E+02 0.  0.
        -12    1    3    3    0    0 -0.21645437046E+02 -0.77350091625E+01 -0.38739618994E+02  0.45045681164E+02  0.00000000000E+00 0.  1.
         11    1    4    4    0    0  0.38244938523E+01  0.27543135501E+01  0.12318588372E+02  0.13189413031E+02  0.51100000000E-03 0. -1.
        -11    1    4    4    0    0  0.35603044177E+01  0.36428085406E+01  0.46766500025E+01  0.69149748457E+01  0.51100000000E-03 0.  1.
         12    1    4    4    0    0  0.14260638776E+02  0.13378870718E+01  0.21744380620E+02  0.26037930960E+02  0.00000000000E+00 0. -1.
</event>
<event>
 8    1  0.7489580E-009  0.9118800E+02  0.7816164E-02  0.1184000E+00
        -11   -1    0    0    0    0  0.00000000000E+00  0.00000000000E+00  0.45593999997E+02  0.45594000000E+02  0.51100000000E-03 0. -1.
         11   -1    0    0    0    0 -0.00000000000E+00 -0.00000000000E+00 -0.45593999997E+02  0.45594000000E+02  0.51100000000E-03 0.  1.
         23    2    1    2    0    0 -0.17763568394E-14  0.88817841970E-15  0.00000000000E+00  0.91188000000E+02  0.91188000000E+02 0.  0.
    9900012    2    3    3    0    0 -0.96293756246E+01  0.51296807315E+01  0.43704404959E+02  0.46142317498E+02  0.99999975972E+01 0.  0.
        -12    1    3    3    0    0  0.96293756246E+01 -0.51296807315E+01 -0.43704404959E+02  0.45045682502E+02  0.00000000000E+00 0.  1.
         11    1    4    4    0    0 -0.15561787176E+01  0.57581754372E+01  0.22855875232E+02  0.23621373995E+02  0.51100000000E-03 0. -1.
        -11    1    4    4    0    0 -0.18941772562E+01 -0.49587693523E+00  0.26040107521E+01  0.32580168310E+01  0.51100000000E-03 0.  1.
         12    1    4    4    0    0 -0.61790196508E+01 -0.13261777053E+00  0.18244518975E+02  0.19262926671E+02  0.00000000000E+00 0. -1.
</event>
<event>
 8    1  0.7489580E-009  0.9118800E+02  0.7816164E-02  0.1184000E+00
        -11   -1    0    0    0    0  0.00000000000E+00  0.00000000000E+00  0.45593999997E+02  0.45594000000E+02  0.51100000000E-03 0. -1.
         11   -1    0    0    0    0 -0.00000000000E+00 -0.00000000000E+00 -0.45593999997E+02  0.45594000000E+02  0.51100000000E-03 0.  1.
         23    2    1    2    0    0  0.00000000000E+00  0.00000000000E+00  0.35527136788E-14  0.91188000000E+02  0.91188000000E+02 0.  0.
    9900012    2    3    3    0    0  0.32952747780E+02 -0.18841212342E+02  0.24253630153E+02  0.46142318249E+02  0.10000004451E+02 0.  0.
        -12    1    3    3    0    0 -0.32952747780E+02  0.18841212342E+02 -0.24253630153E+02  0.45045681751E+02  0.00000000000E+00 0.  1.
         11    1    4    4    0    0  0.19149601508E+02 -0.73406158367E+01  0.13648045334E+02  0.24634549325E+02  0.51100000000E-03 0. -1.
        -11    1    4    4    0    0  0.25631923946E+00 -0.19412182807E+01  0.21074876626E+01  0.28767225231E+01  0.51100000000E-03 0.  1.
         12    1    4    4    0    0  0.13546827033E+02 -0.95593782241E+01  0.84980971565E+01  0.18631046401E+02  0.00000000000E+00 0. -1.
</event>
<event>
 8    1  0.7489580E-009  0.9118800E+02  0.7816164E-02  0.1184000E+00
        -11   -1    0    0    0    0  0.00000000000E+00  0.00000000000E+00  0.45593999997E+02  0.45594000000E+02  0.51100000000E-03 0. -1.
         11   -1    0    0    0    0 -0.00000000000E+00 -0.00000000000E+00 -0.45593999997E+02  0.45594000000E+02  0.51100000000E-03 0.  1.
         23    2    1    2    0    0  0.00000000000E+00  0.00000000000E+00  0.00000000000E+00  0.91188000000E+02  0.91188000000E+02 0.  0.
    9900012    2    3    3    0    0 -0.14003271359E+02 -0.94349511204E+01  0.41761268515E+02  0.46142318083E+02  0.10000002935E+02 0.  0.
        -12    1    3    3    0    0  0.14003271359E+02  0.94349511204E+01 -0.41761268515E+02  0.45045681917E+02  0.00000000000E+00 0.  1.
         11    1    4    4    0    0 -0.44217019027E+01  0.15727229447E+01  0.91377829159E+01  0.10272486654E+02  0.51100000000E-03 0. -1.
        -11    1    4    4    0    0 -0.13448646612E+01 -0.30974602310E+01  0.94510775905E+01  0.10036223828E+02  0.51100000000E-03 0.  1.
         12    1    4    4    0    0 -0.82367047954E+01 -0.79102138341E+01  0.23172408008E+02  0.25833607601E+02  0.00000000000E+00 0. -1.
</event>
<event>
 8    1  0.7489580E-009  0.9118800E+02  0.7816164E-02  0.1184000E+00
        -11   -1    0    0    0    0  0.00000000000E+00  0.00000000000E+00  0.45593999997E+02  0.45594000000E+02  0.51100000000E-03 0. -1.
         11   -1    0    0    0    0 -0.00000000000E+00 -0.00000000000E+00 -0.45593999997E+02  0.45594000000E+02  0.51100000000E-03 0.  1.
         23    2    1    2    0    0  0.88817841970E-15  0.00000000000E+00  0.00000000000E+00  0.91188000000E+02  0.91188000000E+02 0.  0.
    9900012    2    3    3    0    0 -0.72823571565E+01  0.22072423719E+01 -0.44398297220E+02  0.46142318290E+02  0.10000004823E+02 0.  0.
         12    1    3    3    0    0  0.72823571565E+01 -0.22072423719E+01  0.44398297220E+02  0.45045681710E+02  0.00000000000E+00 0. -1.
         11    1    4    4    0    0 -0.15019744254E+01  0.33365898159E+01 -0.69849050717E+01  0.78852810917E+01  0.51100000000E-03 0. -1.
        -11    1    4    4    0    0  0.10359156777E+01 -0.22000565704E+00 -0.67032490170E+01  0.67863886881E+01  0.51100000000E-03 0.  1.
        -12    1    4    4    0    0 -0.68162984088E+01 -0.90934178693E+00 -0.30710143132E+02  0.31470648510E+02  0.00000000000E+00 0.  1.
</event>
<event>
 8    1  0.9638892E-009  0.9118800E+02  0.7816164E-02  0.1184000E+00
        -11   -1    0    0    0    0  0.00000000000E+00  0.00000000000E+00  0.45593999997E+02  0.45594000000E+02  0.51100000000E-03 0. -1.
         11   -1    0    0    0    0 -0.00000000000E+00 -0.00000000000E+00 -0.45593999997E+02  0.45594000000E+02  0.51100000000E-03 0.  1.
         23    2    1    2    0    0  0.00000000000E+00  0.00000000000E+00  0.71054273576E-14  0.91188000000E+02  0.91188000000E+02 0.  0.
    9900012    2    3    3    0    0 -0.10539047927E+02  0.20605305535E+01 -0.43746951981E+02  0.46142321795E+02  0.10000036782E+02 0.  0.
         12    1    3    3    0    0  0.10539047927E+02 -0.20605305535E+01  0.43746951981E+02  0.45045678205E+02  0.00000000000E+00 0. -1.
         11    1    4    4    0    0 -0.40382917999E+01  0.30213090159E+01 -0.15294625361E+02  0.16104709685E+02  0.51100000000E-03 0. -1.
        -11    1    4    4    0    0 -0.36012518958E+01 -0.30369783583E+00 -0.25804719417E+02  0.26056569076E+02  0.51100000000E-03 0.  1.
         12    1    4    4    0    0 -0.28995042310E+01 -0.65708062659E+00 -0.26476072027E+01  0.39810430335E+01  0.00000000000E+00 0. -1.
</event>
<event>
 8    1  0.7489580E-009  0.9118800E+02  0.7816164E-02  0.1184000E+00
        -11   -1    0    0    0    0  0.00000000000E+00  0.00000000000E+00  0.45593999997E+02  0.45594000000E+02  0.51100000000E-03 0.  1.
         11   -1    0    0    0    0 -0.00000000000E+00 -0.00000000000E+00 -0.45593999997E+02  0.45594000000E+02  0.51100000000E-03 0. -1.
         23    2    1    2    0    0 -0.71054273576E-14  0.00000000000E+00  0.00000000000E+00  0.91188000000E+02  0.91188000000E+02 0.  0.
    9900012    2    3    3    0    0  0.38547903589E+02 -0.11488821820E+02 -0.20277564615E+02  0.46142317359E+02  0.99999963308E+01 0.  0.
         12    1    3    3    0    0 -0.38547903589E+02  0.11488821820E+02  0.20277564615E+02  0.45045682641E+02  0.00000000000E+00 0. -1.
         11    1    4    4    0    0  0.17431400665E+02 -0.59589761164E+01 -0.13082798763E+02  0.22594750480E+02  0.51100000000E-03 0. -1.
        -11    1    4    4    0    0  0.17771918597E+02 -0.39353775486E+01 -0.77819182870E+01  0.19796124357E+02  0.51100000000E-03 0.  1.
         12    1    4    4    0    0  0.33445843259E+01 -0.15944681552E+01  0.58715243488E+00  0.37514425216E+01  0.00000000000E+00 0. -1.
</event>
<event>
 8    1  0.7489580E-009  0.9118800E+02  0.7816164E-02  0.1184000E+00
        -11   -1    0    0    0    0  0.00000000000E+00  0.00000000000E+00  0.45593999997E+02  0.45594000000E+02  0.51100000000E-03 0. -1.
         11   -1    0    0    0    0 -0.00000000000E+00 -0.00000000000E+00 -0.45593999997E+02  0.45594000000E+02  0.51100000000E-03 0.  1.
         23    2    1    2    0    0  0.35527136788E-14 -0.44408920985E-15  0.00000000000E+00  0.91188000000E+02  0.91188000000E+02 0.  0.
    9900012    2    3    3    0    0  0.19167270775E+02 -0.39289748353E+01 -0.40574529389E+02  0.46142317107E+02  0.99999940328E+01 0.  0.
         12    1    3    3    0    0 -0.19167270775E+02  0.39289748353E+01  0.40574529389E+02  0.45045682893E+02  0.00000000000E+00 0. -1.
         11    1    4    4    0    0  0.15623008097E+02 -0.30819077201E+01 -0.25066659125E+02  0.29697035831E+02  0.51100000000E-03 0. -1.
        -11    1    4    4    0    0  0.24540797331E+01 -0.24033651380E+01 -0.11634089804E+02  0.12130569531E+02  0.51100000000E-03 0.  1.
         12    1    4    4    0    0  0.10901829445E+01  0.15562980228E+01 -0.38737804597E+01  0.43147117445E+01  0.00000000000E+00 0. -1.
</event>
<event>
 8    1  0.7489580E-009  0.9118800E+02  0.7816164E-02  0.1184000E+00
        -11   -1    0    0    0    0  0.00000000000E+00  0.00000000000E+00  0.45593999997E+02  0.45594000000E+02  0.51100000000E-03 0. -1.
         11   -1    0    0    0    0 -0.00000000000E+00 -0.00000000000E+00 -0.45593999997E+02  0.45594000000E+02  0.51100000000E-03 0.  1.
         23    2    1    2    0    0 -0.35527136788E-14 -0.44408920985E-15  0.00000000000E+00  0.91188000000E+02  0.91188000000E+02 0.  0.
    9900012    2    3    3    0    0  0.29682629798E+02  0.21053638252E+01 -0.33817487571E+02  0.46142317253E+02  0.99999953647E+01 0.  0.
         12    1    3    3    0    0 -0.29682629798E+02 -0.21053638252E+01  0.33817487571E+02  0.45045682747E+02  0.00000000000E+00 0. -1.
         11    1    4    4    0    0  0.12126096577E+01  0.50156063383E+00 -0.64411526607E+00  0.14618036764E+01  0.51100000000E-03 0. -1.
        -11    1    4    4    0    0  0.72630797893E+01  0.39628453717E+01 -0.64950355871E+01  0.10518648155E+02  0.51100000000E-03 0.  1.
        -12    1    4    4    0    0  0.21206940351E+02 -0.23590421803E+01 -0.26678336718E+02  0.34161865422E+02  0.00000000000E+00 0.  1.
</event>
<event>
 8    1  0.7489580E-009  0.9118800E+02  0.7816164E-02  0.1184000E+00
        -11   -1    0    0    0    0  0.00000000000E+00  0.00000000000E+00  0.45593999997E+02  0.45594000000E+02  0.51100000000E-03 0. -1.
         11   -1    0    0    0    0 -0.00000000000E+00 -0.00000000000E+00 -0.45593999997E+02  0.45594000000E+02  0.51100000000E-03 0.  1.
         23    2    1    2    0    0 -0.88817841970E-15  0.00000000000E+00  0.00000000000E+00  0.91188000000E+02  0.91188000000E+02 0.  0.
    9900012    2    3    3    0    0 -0.60179398196E+01  0.26989613598E+02  0.35559227512E+02  0.46142317598E+02  0.99999985096E+01 0.  0.
        -12    1    3    3    0    0  0.60179398196E+01 -0.26989613598E+02 -0.35559227512E+02  0.45045682402E+02  0.00000000000E+00 0.  1.
         11    1    4    4    0    0  0.14046932879E+01  0.10095303305E+02  0.14832174941E+02  0.17996714305E+02  0.51100000000E-03 0. -1.
        -11    1    4    4    0    0 -0.23946234337E-02 -0.23976621695E+00  0.81090803365E+00  0.84561555873E+00  0.51100000000E-03 0.  1.
        -12    1    4    4    0    0 -0.74202384841E+01  0.17134076510E+02  0.19916144537E+02  0.27299987734E+02  0.00000000000E+00 0.  1.
</event>
<event>
 8    1  0.7489580E-009  0.9118800E+02  0.7816164E-02  0.1184000E+00
        -11   -1    0    0    0    0  0.00000000000E+00  0.00000000000E+00  0.45593999997E+02  0.45594000000E+02  0.51100000000E-03 0. -1.
         11   -1    0    0    0    0 -0.00000000000E+00 -0.00000000000E+00 -0.45593999997E+02  0.45594000000E+02  0.51100000000E-03 0.  1.
         23    2    1    2    0    0  0.17763568394E-14 -0.35527136788E-14 -0.71054273576E-14  0.91188000000E+02  0.91188000000E+02 0.  0.
    9900012    2    3    3    0    0 -0.11877138704E+02  0.20607637099E+02  0.38254050100E+02  0.46142317858E+02  0.10000000881E+02 0.  0.
        -12    1    3    3    0    0  0.11877138704E+02 -0.20607637099E+02 -0.38254050100E+02  0.45045682142E+02  0.00000000000E+00 0.  1.
         11    1    4    4    0    0 -0.64870388605E+01  0.49801180338E+01  0.75638978972E+01  0.11139829463E+02  0.51100000000E-03 0. -1.
        -11    1    4    4    0    0 -0.21589330632E+01  0.50780126872E+01  0.73966749470E+01  0.92281095223E+01  0.51100000000E-03 0.  1.
        -12    1    4    4    0    0 -0.32311667805E+01  0.10549506378E+02  0.23293477256E+02  0.25774378872E+02  0.00000000000E+00 0.  1.
</event>
<event>
 8    1  0.7489580E-009  0.9118800E+02  0.7816164E-02  0.1184000E+00
        -11   -1    0    0    0    0  0.00000000000E+00  0.00000000000E+00  0.45593999997E+02  0.45594000000E+02  0.51100000000E-03 0. -1.
         11   -1    0    0    0    0 -0.00000000000E+00 -0.00000000000E+00 -0.45593999997E+02  0.45594000000E+02  0.51100000000E-03 0.  1.
         23    2    1    2    0    0  0.00000000000E+00  0.00000000000E+00  0.00000000000E+00  0.91188000000E+02  0.91188000000E+02 0.  0.
    9900012    2    3    3    0    0  0.21170340087E+02  0.14240982693E+02 -0.37123100741E+02  0.46142317676E+02  0.99999992201E+01 0.  0.
         12    1    3    3    0    0 -0.21170340087E+02 -0.14240982693E+02  0.37123100741E+02  0.45045682324E+02  0.00000000000E+00 0. -1.
         11    1    4    4    0    0  0.90506557607E+00 -0.30566970877E+00  0.21812065407E+00  0.97987476174E+00  0.51100000000E-03 0. -1.
        -11    1    4    4    0    0  0.81450272240E+01  0.34760553916E+01 -0.10953276343E+02  0.14085407075E+02  0.51100000000E-03 0.  1.
        -12    1    4    4    0    0  0.12120247287E+02  0.11070597010E+02 -0.26387945052E+02  0.31077035839E+02  0.00000000000E+00 0.  1.
</event>
<event>
 8    1  0.7489580E-009  0.9118800E+02  0.7816164E-02  0.1184000E+00
        -11   -1    0    0    0    0  0.00000000000E+00  0.00000000000E+00  0.45593999997E+02  0.45594000000E+02  0.51100000000E-03 0. -1.
         11   -1    0    0    0    0 -0.00000000000E+00 -0.00000000000E+00 -0.45593999997E+02  0.45594000000E+02  0.51100000000E-03 0.  1.
         23    2    1    2    0    0  0.35527136788E-14  0.00000000000E+00  0.00000000000E+00  0.91188000000E+02  0.91188000000E+02 0.  0.
    9900012    2    3    3    0    0 -0.24467610471E+02  0.32660302164E+02  0.19072341060E+02  0.46142317709E+02  0.99999995205E+01 0.  0.
        -12    1    3    3    0    0  0.24467610471E+02 -0.32660302164E+02 -0.19072341060E+02  0.45045682291E+02  0.00000000000E+00 0.  1.
         11    1    4    4    0    0 -0.11097197252E+02  0.13749027583E+02  0.97348543256E+01  0.20173024943E+02  0.51100000000E-03 0. -1.
        -11    1    4    4    0    0  0.74774222617E+00  0.12861995987E+01  0.13702766172E+01  0.20226433480E+01  0.51100000000E-03 0.  1.
         12    1    4    4    0    0 -0.14118155445E+02  0.17625074982E+02  0.79672101174E+01  0.23946649418E+02  0.00000000000E+00 0. -1.
</event>
<event>
 8    1  0.7489580E-009  0.9118800E+02  0.7816164E-02  0.1184000E+00
        -11   -1    0    0    0    0  0.00000000000E+00  0.00000000000E+00  0.45593999997E+02  0.45594000000E+02  0.51100000000E-03 0. -1.
         11   -1    0    0    0    0 -0.00000000000E+00 -0.00000000000E+00 -0.45593999997E+02  0.45594000000E+02  0.51100000000E-03 0.  1.
         23    2    1    2    0    0  0.00000000000E+00 -0.35527136788E-14  0.00000000000E+00  0.91188000000E+02  0.91188000000E+02 0.  0.
    9900012    2    3    3    0    0 -0.22264893613E+02 -0.15993468363E+02  0.35743489096E+02  0.46142317292E+02  0.99999957257E+01 0.  0.
        -12    1    3    3    0    0  0.22264893613E+02  0.15993468363E+02 -0.35743489096E+02  0.45045682708E+02  0.00000000000E+00 0.  1.
         11    1    4    4    0    0 -0.13708318187E+02 -0.11971272453E+02  0.22696315818E+02  0.29092131301E+02  0.51100000000E-03 0. -1.
        -11    1    4    4    0    0 -0.75295069930E+01 -0.53518667722E+01  0.10354212535E+02  0.13876082696E+02  0.51100000000E-03 0.  1.
        -12    1    4    4    0    0 -0.10270684327E+01  0.13296708624E+01  0.26929607428E+01  0.31741032955E+01  0.00000000000E+00 0.  1.
</event>
<event>
 8    1  0.7489580E-009  0.9118800E+02  0.7816164E-02  0.1184000E+00
        -11   -1    0    0    0    0  0.00000000000E+00  0.00000000000E+00  0.45593999997E+02  0.45594000000E+02  0.51100000000E-03 0.  1.
         11   -1    0    0    0    0 -0.00000000000E+00 -0.00000000000E+00 -0.45593999997E+02  0.45594000000E+02  0.51100000000E-03 0. -1.
         23    2    1    2    0    0  0.35527136788E-14 -0.71054273576E-14 -0.11102230246E-15  0.91188000000E+02  0.91188000000E+02 0.  0.
    9900012    2    3    3    0    0  0.18848261126E+02  0.40911358351E+02  0.34241228460E+00  0.46142318345E+02  0.10000005327E+02 0.  0.
         12    1    3    3    0    0 -0.18848261126E+02 -0.40911358351E+02 -0.34241228460E+00  0.45045681655E+02  0.00000000000E+00 0. -1.
         11    1    4    4    0    0  0.97241626422E+01  0.14459941406E+02  0.22911637546E+00  0.17427040459E+02  0.51100000000E-03 0. -1.
        -11    1    4    4    0    0  0.52053456027E+01  0.11258056561E+02 -0.29005745173E+01  0.12737848843E+02  0.51100000000E-03 0.  1.
        -12    1    4    4    0    0  0.39187528807E+01  0.15193360384E+02  0.30138704264E+01  0.15977429043E+02  0.00000000000E+00 0.  1.
</event>
<event>
 8    1  0.7489580E-009  0.9118800E+02  0.7816164E-02  0.1184000E+00
        -11   -1    0    0    0    0  0.00000000000E+00  0.00000000000E+00  0.45593999997E+02  0.45594000000E+02  0.51100000000E-03 0. -1.
         11   -1    0    0    0    0 -0.00000000000E+00 -0.00000000000E+00 -0.45593999997E+02  0.45594000000E+02  0.51100000000E-03 0.  1.
         23    2    1    2    0    0 -0.35527136788E-14  0.35527136788E-14 -0.71054273576E-14  0.91188000000E+02  0.91188000000E+02 0.  0.
    9900012    2    3    3    0    0 -0.17642834322E+02  0.18510718540E+02 -0.37083652071E+02  0.46142317025E+02  0.99999932880E+01 0.  0.
         12    1    3    3    0    0  0.17642834322E+02 -0.18510718540E+02  0.37083652071E+02  0.45045682975E+02  0.00000000000E+00 0. -1.
         11    1    4    4    0    0 -0.11229807490E+02  0.49453669350E+01 -0.15281952308E+02  0.19598553441E+02  0.51100000000E-03 0. -1.
        -11    1    4    4    0    0 -0.35062149310E+01  0.91268620535E+01 -0.15220622134E+02  0.18090342520E+02  0.51100000000E-03 0.  1.
         12    1    4    4    0    0 -0.29068119005E+01  0.44384895513E+01 -0.65810776296E+01  0.84534210642E+01  0.00000000000E+00 0. -1.
</event>
<event>
 8    1  0.7489580E-009  0.9118800E+02  0.7816164E-02  0.1184000E+00
        -11   -1    0    0    0    0  0.00000000000E+00  0.00000000000E+00  0.45593999997E+02  0.45594000000E+02  0.51100000000E-03 0. -1.
         11   -1    0    0    0    0 -0.00000000000E+00 -0.00000000000E+00 -0.45593999997E+02  0.45594000000E+02  0.51100000000E-03 0.  1.
         23    2    1    2    0    0  0.00000000000E+00  0.00000000000E+00  0.71054273576E-14  0.91188000000E+02  0.91188000000E+02 0.  0.
    9900012    2    3    3    0    0  0.17701222499E+02  0.24836468909E+02 -0.33150114434E+02  0.46142317046E+02  0.99999934778E+01 0.  0.
         12    1    3    3    0    0 -0.17701222499E+02 -0.24836468909E+02  0.33150114434E+02  0.45045682954E+02  0.00000000000E+00 0. -1.
         11    1    4    4    0    0  0.17828395726E+00  0.80163020345E+00  0.14327351345E-01  0.82134139469E+00  0.51100000000E-03 0. -1.
        -11    1    4    4    0    0  0.15807342345E+02  0.20150811161E+02 -0.31862809993E+02  0.40879896324E+02  0.51100000000E-03 0.  1.
        -12    1    4    4    0    0  0.17155961961E+01  0.38840275443E+01 -0.13016317919E+01  0.44410793277E+01  0.00000000000E+00 0.  1.
</event>
<event>
 8    1  0.7489580E-009  0.9118800E+02  0.7816164E-02  0.1184000E+00
        -11   -1    0    0    0    0  0.00000000000E+00  0.00000000000E+00  0.45593999997E+02  0.45594000000E+02  0.51100000000E-03 0. -1.
         11   -1    0    0    0    0 -0.00000000000E+00 -0.00000000000E+00 -0.45593999997E+02  0.45594000000E+02  0.51100000000E-03 0.  1.
         23    2    1    2    0    0  0.00000000000E+00  0.00000000000E+00  0.00000000000E+00  0.91188000000E+02  0.91188000000E+02 0.  0.
    9900012    2    3    3    0    0 -0.17680054580E+02  0.11154466581E+02 -0.39901219275E+02  0.46142314810E+02  0.99999730852E+01 0.  0.
         12    1    3    3    0    0  0.17680054580E+02 -0.11154466581E+02  0.39901219275E+02  0.45045685190E+02  0.00000000000E+00 0. -1.
         11    1    4    4    0    0 -0.29789516613E+01  0.54004990842E+01 -0.15550654381E+02  0.16729088298E+02  0.51100000000E-03 0. -1.
        -11    1    4    4    0    0 -0.85466092402E+01  0.57350928585E+01 -0.16339018408E+02  0.19310601814E+02  0.51100000000E-03 0.  1.
         12    1    4    4    0    0 -0.61544936781E+01  0.18874638774E-01 -0.80115464859E+01  0.10102624698E+02  0.00000000000E+00 0. -1.
</event>
<event>
 8    1  0.7489580E-009  0.9118800E+02  0.7816164E-02  0.1184000E+00
        -11   -1    0    0    0    0  0.00000000000E+00  0.00000000000E+00  0.45593999997E+02  0.45594000000E+02  0.51100000000E-03 0. -1.
         11   -1    0    0    0    0 -0.00000000000E+00 -0.00000000000E+00 -0.45593999997E+02  0.45594000000E+02  0.51100000000E-03 0.  1.
         23    2    1    2    0    0 -0.55511151231E-15  0.00000000000E+00 -0.71054273576E-14  0.91188000000E+02  0.91188000000E+02 0.  0.
    9900012    2    3    3    0    0  0.36242336743E+00  0.13030816178E+02  0.43118210292E+02  0.46142316747E+02  0.99999907549E+01 0.  0.
        -12    1    3    3    0    0 -0.36242336743E+00 -0.13030816178E+02 -0.43118210292E+02  0.45045683253E+02  0.00000000000E+00 0.  1.
         11    1    4    4    0    0 -0.16102998720E+01  0.49977703438E+01  0.98635800255E+01  0.11174121230E+02  0.51100000000E-03 0. -1.
        -11    1    4    4    0    0 -0.11427523607E+01 -0.43300395074E+00  0.91419100437E+01  0.92232258396E+01  0.51100000000E-03 0.  1.
         12    1    4    4    0    0  0.31154756001E+01  0.84660497847E+01  0.24112720222E+02  0.25744969678E+02  0.00000000000E+00 0. -1.
</event>
<event>
 8    1  0.7489580E-009  0.9118800E+02  0.7816164E-02  0.1184000E+00
        -11   -1    0    0    0    0  0.00000000000E+00  0.00000000000E+00  0.45593999997E+02  0.45594000000E+02  0.51100000000E-03 0. -1.
         11   -1    0    0    0    0 -0.00000000000E+00 -0.00000000000E+00 -0.45593999997E+02  0.45594000000E+02  0.51100000000E-03 0.  1.
         23    2    1    2    0    0  0.00000000000E+00 -0.35527136788E-14  0.71054273576E-14  0.91188000000E+02  0.91188000000E+02 0.  0.
    9900012    2    3    3    0    0 -0.54801691268E+01 -0.18662565877E+02  0.40629913091E+02  0.46142318114E+02  0.10000003219E+02 0.  0.
        -12    1    3    3    0    0  0.54801691268E+01  0.18662565877E+02 -0.40629913091E+02  0.45045681886E+02  0.00000000000E+00 0.  1.
         11    1    4    4    0    0  0.21064847015E+01 -0.49460827008E+01  0.87214423711E+01  0.10245221773E+02  0.51100000000E-03 0. -1.
        -11    1    4    4    0    0 -0.69216573377E+00 -0.62261336976E+01  0.12300126561E+02  0.13803512158E+02  0.51100000000E-03 0.  1.
        -12    1    4    4    0    0 -0.68944880945E+01 -0.74903494784E+01  0.19608344159E+02  0.22093584183E+02  0.00000000000E+00 0.  1.
</event>
<event>
 8    1  0.7489580E-009  0.9118800E+02  0.7816164E-02  0.1184000E+00
        -11   -1    0    0    0    0  0.00000000000E+00  0.00000000000E+00  0.45593999997E+02  0.45594000000E+02  0.51100000000E-03 0. -1.
         11   -1    0    0    0    0 -0.00000000000E+00 -0.00000000000E+00 -0.45593999997E+02  0.45594000000E+02  0.51100000000E-03 0.  1.
         23    2    1    2    0    0  0.00000000000E+00  0.00000000000E+00  0.00000000000E+00  0.91188000000E+02  0.91188000000E+02 0.  0.
    9900012    2    3    3    0    0  0.32733868962E+02 -0.25097835632E+02  0.18102646314E+02  0.46142319472E+02  0.10000015603E+02 0.  0.
        -12    1    3    3    0    0 -0.32733868962E+02  0.25097835632E+02 -0.18102646314E+02  0.45045680528E+02  0.00000000000E+00 0.  1.
         11    1    4    4    0    0  0.14635355566E+02 -0.11875606032E+02  0.48780440051E+01  0.19468409405E+02  0.51100000000E-03 0. -1.
        -11    1    4    4    0    0  0.66364865934E+01 -0.16994266297E+01  0.30488597583E+01  0.74984365878E+01  0.51100000000E-03 0.  1.
         12    1    4    4    0    0  0.11462026803E+02 -0.11522802970E+02  0.10175742550E+02  0.19175473479E+02  0.00000000000E+00 0. -1.
</event>
<event>
 8    1  0.7489580E-009  0.9118800E+02  0.7816164E-02  0.1184000E+00
        -11   -1    0    0    0    0  0.00000000000E+00  0.00000000000E+00  0.45593999997E+02  0.45594000000E+02  0.51100000000E-03 0. -1.
         11   -1    0    0    0    0 -0.00000000000E+00 -0.00000000000E+00 -0.45593999997E+02  0.45594000000E+02  0.51100000000E-03 0.  1.
         23    2    1    2    0    0 -0.35527136788E-14 -0.35527136788E-14  0.35527136788E-14  0.91188000000E+02  0.91188000000E+02 0.  0.
    9900012    2    3    3    0    0 -0.28208247695E+02 -0.27998129558E+02  0.21201716165E+02  0.46142320239E+02  0.10000022595E+02 0.  0.
        -12    1    3    3    0    0  0.28208247695E+02  0.27998129558E+02 -0.21201716165E+02  0.45045679761E+02  0.00000000000E+00 0.  1.
         11    1    4    4    0    0 -0.18537417668E+02 -0.22322096090E+02  0.17043364112E+02  0.33650974550E+02  0.51100000000E-03 0. -1.
        -11    1    4    4    0    0 -0.26621795841E+00 -0.87871625153E+00  0.12306408025E+01  0.15354124195E+01  0.51100000000E-03 0.  1.
         12    1    4    4    0    0 -0.94046120681E+01 -0.47973172164E+01  0.29277112508E+01  0.10955933269E+02  0.00000000000E+00 0. -1.
</event>
<event>
 8    1  0.7489580E-009  0.9118800E+02  0.7816164E-02  0.1184000E+00
        -11   -1    0    0    0    0  0.00000000000E+00  0.00000000000E+00  0.45593999997E+02  0.45594000000E+02  0.51100000000E-03 0. -1.
         11   -1    0    0    0    0 -0.00000000000E+00 -0.00000000000E+00 -0.45593999997E+02  0.45594000000E+02  0.51100000000E-03 0.  1.
         23    2    1    2    0    0  0.00000000000E+00  0.00000000000E+00  0.00000000000E+00  0.91188000000E+02  0.91188000000E+02 0.  0.
    9900012    2    3    3    0    0 -0.10596382890E+02  0.26890587144E+02 -0.34550347271E+02  0.46142317589E+02  0.99999984300E+01 0.  0.
         12    1    3    3    0    0  0.10596382890E+02 -0.26890587144E+02  0.34550347271E+02  0.45045682411E+02  0.00000000000E+00 0. -1.
         11    1    4    4    0    0 -0.26824413016E+01  0.45666010266E+01 -0.25964791642E+01  0.58983930510E+01  0.51100000000E-03 0. -1.
        -11    1    4    4    0    0 -0.64173383239E+00  0.97849844992E+01 -0.15214554636E+02  0.18100840229E+02  0.51100000000E-03 0.  1.
        -12    1    4    4    0    0 -0.72722077558E+01  0.12539001619E+02 -0.16739313471E+02  0.22143084309E+02  0.00000000000E+00 0.  1.
</event>
<event>
 8    1  0.7489580E-009  0.9118800E+02  0.7816164E-02  0.1184000E+00
        -11   -1    0    0    0    0  0.00000000000E+00  0.00000000000E+00  0.45593999997E+02  0.45594000000E+02  0.51100000000E-03 0. -1.
         11   -1    0    0    0    0 -0.00000000000E+00 -0.00000000000E+00 -0.45593999997E+02  0.45594000000E+02  0.51100000000E-03 0.  1.
         23    2    1    2    0    0  0.71054273576E-14  0.00000000000E+00 -0.17763568394E-14  0.91188000000E+02  0.91188000000E+02 0.  0.
    9900012    2    3    3    0    0 -0.41764341082E+02  0.84873438170E+01  0.14588292344E+02  0.46142318025E+02  0.10000002403E+02 0.  0.
        -12    1    3    3    0    0  0.41764341082E+02 -0.84873438170E+01 -0.14588292344E+02  0.45045681975E+02  0.00000000000E+00 0.  1.
         11    1    4    4    0    0 -0.28063840531E+02  0.41445516192E+01  0.85109154944E+01  0.29617429603E+02  0.51100000000E-03 0. -1.
        -11    1    4    4    0    0 -0.47421437740E+01  0.14180376058E+01  0.50071186206E+01  0.70405962365E+01  0.51100000000E-03 0.  1.
        -12    1    4    4    0    0 -0.89583567780E+01  0.29247545921E+01  0.10702582288E+01  0.94842921856E+01  0.00000000000E+00 0.  1.
</event>
<event>
 8    1  0.7489580E-009  0.9118800E+02  0.7816164E-02  0.1184000E+00
        -11   -1    0    0    0    0  0.00000000000E+00  0.00000000000E+00  0.45593999997E+02  0.45594000000E+02  0.51100000000E-03 0. -1.
         11   -1    0    0    0    0 -0.00000000000E+00 -0.00000000000E+00 -0.45593999997E+02  0.45594000000E+02  0.51100000000E-03 0.  1.
         23    2    1    2    0    0  0.00000000000E+00  0.35527136788E-14 -0.35527136788E-14  0.91188000000E+02  0.91188000000E+02 0.  0.
    9900012    2    3    3    0    0 -0.16966114211E+02  0.28802123210E+02 -0.30194405382E+02  0.46142318196E+02  0.10000003962E+02 0.  0.
         12    1    3    3    0    0  0.16966114211E+02 -0.28802123210E+02  0.30194405382E+02  0.45045681804E+02  0.00000000000E+00 0. -1.
         11    1    4    4    0    0 -0.36921411302E+01  0.91179410635E+01 -0.11256936367E+02  0.14949494038E+02  0.51100000000E-03 0. -1.
        -11    1    4    4    0    0 -0.13151124715E+02  0.15203096615E+02 -0.16928744089E+02  0.26280574664E+02  0.51100000000E-03 0.  1.
        -12    1    4    4    0    0 -0.12284836613E+00  0.44810855315E+01 -0.20087249260E+01  0.49122494938E+01  0.00000000000E+00 0.  1.
</event>
<event>
 8    1  0.7489580E-009  0.9118800E+02  0.7816164E-02  0.1184000E+00
        -11   -1    0    0    0    0  0.00000000000E+00  0.00000000000E+00  0.45593999997E+02  0.45594000000E+02  0.51100000000E-03 0. -1.
         11   -1    0    0    0    0 -0.00000000000E+00 -0.00000000000E+00 -0.45593999997E+02  0.45594000000E+02  0.51100000000E-03 0.  1.
         23    2    1    2    0    0  0.00000000000E+00  0.00000000000E+00 -0.17763568394E-14  0.91188000000E+02  0.91188000000E+02 0.  0.
    9900012    2    3    3    0    0 -0.39630923623E+02  0.15209829187E+02  0.15071974039E+02  0.46142318603E+02  0.10000007676E+02 0.  0.
        -12    1    3    3    0    0  0.39630923623E+02 -0.15209829187E+02 -0.15071974039E+02  0.45045681397E+02  0.00000000000E+00 0.  1.
         11    1    4    4    0    0 -0.13740087600E+02  0.70317297370E+01  0.12411731911E+01  0.15484693782E+02  0.51100000000E-03 0. -1.
        -11    1    4    4    0    0 -0.22456331009E+02  0.76707423226E+01  0.10898851717E+02  0.26113445946E+02  0.51100000000E-03 0.  1.
         12    1    4    4    0    0 -0.34345050128E+01  0.50735712752E+00  0.29319491313E+01  0.45441788749E+01  0.00000000000E+00 0. -1.
</event>
<event>
 8    1  0.7489580E-009  0.9118800E+02  0.7816164E-02  0.1184000E+00
        -11   -1    0    0    0    0  0.00000000000E+00  0.00000000000E+00  0.45593999997E+02  0.45594000000E+02  0.51100000000E-03 0. -1.
         11   -1    0    0    0    0 -0.00000000000E+00 -0.00000000000E+00 -0.45593999997E+02  0.45594000000E+02  0.51100000000E-03 0.  1.
         23    2    1    2    0    0  0.35527136788E-14  0.00000000000E+00  0.00000000000E+00  0.91188000000E+02  0.91188000000E+02 0.  0.
    9900012    2    3    3    0    0  0.23774928181E+02  0.35841373168E+02  0.13388888437E+02  0.46142316808E+02  0.99999913110E+01 0.  0.
        -12    1    3    3    0    0 -0.23774928181E+02 -0.35841373168E+02 -0.13388888437E+02  0.45045683192E+02  0.00000000000E+00 0.  1.
         11    1    4    4    0    0  0.50632845550E+01  0.88518764140E+01 -0.74577218979E-01  0.10197947272E+02  0.51100000000E-03 0. -1.
        -11    1    4    4    0    0  0.10557296116E+01  0.46178987046E+01  0.28765291151E+01  0.55420188983E+01  0.51100000000E-03 0.  1.
         12    1    4    4    0    0  0.17655914015E+02  0.22371598050E+02  0.10586936541E+02  0.30402350638E+02  0.00000000000E+00 0. -1.
</event>
<event>
 8    1  0.7489580E-009  0.9118800E+02  0.7816164E-02  0.1184000E+00
        -11   -1    0    0    0    0  0.00000000000E+00  0.00000000000E+00  0.45593999997E+02  0.45594000000E+02  0.51100000000E-03 0. -1.
         11   -1    0    0    0    0 -0.00000000000E+00 -0.00000000000E+00 -0.45593999997E+02  0.45594000000E+02  0.51100000000E-03 0.  1.
         23    2    1    2    0    0  0.00000000000E+00  0.17763568394E-14  0.00000000000E+00  0.91188000000E+02  0.91188000000E+02 0.  0.
    9900012    2    3    3    0    0 -0.22040228454E+02  0.10469256932E+02  0.37864711702E+02  0.46142318705E+02  0.10000008610E+02 0.  0.
        -12    1    3    3    0    0  0.22040228454E+02 -0.10469256932E+02 -0.37864711702E+02  0.45045681295E+02  0.00000000000E+00 0.  1.
         11    1    4    4    0    0 -0.15311570964E+02  0.10586101463E+02  0.24501685703E+02  0.30770803567E+02  0.51100000000E-03 0. -1.
        -11    1    4    4    0    0  0.14806011484E+00 -0.54320915999E+00  0.20467218275E+01  0.21227502183E+01  0.51100000000E-03 0.  1.
         12    1    4    4    0    0 -0.68767176050E+01  0.42636462863E+00  0.11316304171E+02  0.13248764920E+02  0.00000000000E+00 0. -1.
</event>
<event>
 8    1  0.7489580E-009  0.9118800E+02  0.7816164E-02  0.1184000E+00
        -11   -1    0    0    0    0  0.00000000000E+00  0.00000000000E+00  0.45593999997E+02  0.45594000000E+02  0.51100000000E-03 0. -1.
         11   -1    0    0    0    0 -0.00000000000E+00 -0.00000000000E+00 -0.45593999997E+02  0.45594000000E+02  0.51100000000E-03 0.  1.
         23    2    1    2    0    0 -0.35527136788E-14 -0.88817841970E-15  0.71054273576E-14  0.91188000000E+02  0.91188000000E+02 0.  0.
    9900012    2    3    3    0    0  0.19031477384E+02  0.42048730038E+01 -0.40610780609E+02  0.46142316632E+02  0.99999897022E+01 0.  0.
         12    1    3    3    0    0 -0.19031477384E+02 -0.42048730038E+01  0.40610780609E+02  0.45045683368E+02  0.00000000000E+00 0. -1.
         11    1    4    4    0    0  0.17704058113E+02  0.39804094386E+01 -0.36538389824E+02  0.40796216297E+02  0.51100000000E-03 0.  1.
        -11    1    4    4    0    0  0.10834352652E+01  0.67051578617E+00 -0.32715117729E-01  0.12745563673E+01  0.51100000000E-03 0. -1.
        -12    1    4    4    0    0  0.24398400612E+00 -0.44605222100E+00 -0.40396756680E+01  0.40715439678E+01  0.00000000000E+00 0.  1.
</event>
<event>
 8    1  0.7489580E-009  0.9118800E+02  0.7816164E-02  0.1184000E+00
        -11   -1    0    0    0    0  0.00000000000E+00  0.00000000000E+00  0.45593999997E+02  0.45594000000E+02  0.51100000000E-03 0.  1.
         11   -1    0    0    0    0 -0.00000000000E+00 -0.00000000000E+00 -0.45593999997E+02  0.45594000000E+02  0.51100000000E-03 0. -1.
         23    2    1    2    0    0  0.00000000000E+00 -0.35527136788E-14  0.83266726847E-15  0.91188000000E+02  0.91188000000E+02 0.  0.
    9900012    2    3    3    0    0  0.34936331385E+02 -0.28432958919E+02  0.36482128320E+00  0.46142317653E+02  0.99999990127E+01 0.  0.
         12    1    3    3    0    0 -0.34936331385E+02  0.28432958919E+02 -0.36482128320E+00  0.45045682347E+02  0.00000000000E+00 0. -1.
         11    1    4    4    0    0  0.57660211904E+01 -0.46487639468E+01  0.20904119900E+01  0.76959618730E+01  0.51100000000E-03 0. -1.
        -11    1    4    4    0    0  0.14774194993E+02 -0.92524886162E+01  0.23469944168E+01  0.17589592557E+02  0.51100000000E-03 0.  1.
         12    1    4    4    0    0  0.14396115202E+02 -0.14531706356E+02 -0.40725851237E+01  0.20856763222E+02  0.00000000000E+00 0. -1.
</event>
<event>
 8    1  0.7489580E-009  0.9118800E+02  0.7816164E-02  0.1184000E+00
        -11   -1    0    0    0    0  0.00000000000E+00  0.00000000000E+00  0.45593999997E+02  0.45594000000E+02  0.51100000000E-03 0. -1.
         11   -1    0    0    0    0 -0.00000000000E+00 -0.00000000000E+00 -0.45593999997E+02  0.45594000000E+02  0.51100000000E-03 0.  1.
         23    2    1    2    0    0  0.35527136788E-14 -0.35527136788E-14 -0.35527136788E-14  0.91188000000E+02  0.91188000000E+02 0.  0.
    9900012    2    3    3    0    0 -0.28603212784E+02  0.26394215899E+02  0.22678514059E+02  0.46142318582E+02  0.10000007483E+02 0.  0.
        -12    1    3    3    0    0  0.28603212784E+02 -0.26394215899E+02 -0.22678514059E+02  0.45045681418E+02  0.00000000000E+00 0.  1.
         11    1    4    4    0    0 -0.15619707463E+02  0.13411284518E+02  0.15512431824E+02  0.25777380686E+02  0.51100000000E-03 0. -1.
        -11    1    4    4    0    0 -0.10436666072E+02  0.77574624025E+01  0.64257204422E+01  0.14504899347E+02  0.51100000000E-03 0.  1.
        -12    1    4    4    0    0 -0.25468392496E+01  0.52254689784E+01  0.74036179286E+00  0.58600385487E+01  0.00000000000E+00 0.  1.
</event>
<event>
 8    1  0.7489580E-009  0.9118800E+02  0.7816164E-02  0.1184000E+00
        -11   -1    0    0    0    0  0.00000000000E+00  0.00000000000E+00  0.45593999997E+02  0.45594000000E+02  0.51100000000E-03 0. -1.
         11   -1    0    0    0    0 -0.00000000000E+00 -0.00000000000E+00 -0.45593999997E+02  0.45594000000E+02  0.51100000000E-03 0.  1.
         23    2    1    2    0    0  0.00000000000E+00 -0.17763568394E-14  0.00000000000E+00  0.91188000000E+02  0.91188000000E+02 0.  0.
    9900012    2    3    3    0    0 -0.32857368549E+01  0.15087296743E+02  0.42316555059E+02  0.46142318500E+02  0.10000006739E+02 0.  0.
        -12    1    3    3    0    0  0.32857368549E+01 -0.15087296743E+02 -0.42316555059E+02  0.45045681500E+02  0.00000000000E+00 0.  1.
         11    1    4    4    0    0 -0.47514595285E+01  0.75668784591E+01  0.30242943522E+02  0.31535212864E+02  0.51100000000E-03 0. -1.
        -11    1    4    4    0    0  0.12772005907E+00 -0.86993495202E-01 -0.10408181327E+00  0.18631577139E+00  0.51100000000E-03 0.  1.
         12    1    4    4    0    0  0.13380026145E+01  0.76074117790E+01  0.12177693351E+02  0.14420789865E+02  0.00000000000E+00 0. -1.
</event>
<event>
 8    1  0.7489580E-009  0.9118800E+02  0.7816164E-02  0.1184000E+00
        -11   -1    0    0    0    0  0.00000000000E+00  0.00000000000E+00  0.45593999997E+02  0.45594000000E+02  0.51100000000E-03 0. -1.
         11   -1    0    0    0    0 -0.00000000000E+00 -0.00000000000E+00 -0.45593999997E+02  0.45594000000E+02  0.51100000000E-03 0.  1.
         23    2    1    2    0    0  0.00000000000E+00 -0.35527136788E-14  0.35527136788E-14  0.91188000000E+02  0.91188000000E+02 0.  0.
    9900012    2    3    3    0    0  0.21024288697E+02 -0.25920336449E+02  0.30252728863E+02  0.46142332500E+02  0.10000134402E+02 0.  0.
        -12    1    3    3    0    0 -0.21024288697E+02  0.25920336449E+02 -0.30252728863E+02  0.45045667500E+02  0.00000000000E+00 0.  1.
         11    1    4    4    0    0  0.29109079009E+01 -0.22115945284E+01  0.11110985495E+01  0.38208736453E+01  0.51100000000E-03 0. -1.
        -11    1    4    4    0    0 -0.22222964035E+00  0.31811424211E+00  0.88337509260E-01  0.39797796515E+00  0.51100000000E-03 0.  1.
         12    1    4    4    0    0  0.18335610436E+02 -0.24026856163E+02  0.29053292804E+02  0.41923480890E+02  0.00000000000E+00 0. -1.
</event>
<event>
 8    1  0.7489580E-009  0.9118800E+02  0.7816164E-02  0.1184000E+00
        -11   -1    0    0    0    0  0.00000000000E+00  0.00000000000E+00  0.45593999997E+02  0.45594000000E+02  0.51100000000E-03 0. -1.
         11   -1    0    0    0    0 -0.00000000000E+00 -0.00000000000E+00 -0.45593999997E+02  0.45594000000E+02  0.51100000000E-03 0.  1.
         23    2    1    2    0    0 -0.35527136788E-14 -0.17763568394E-14 -0.71054273576E-14  0.91188000000E+02  0.91188000000E+02 0.  0.
    9900012    2    3    3    0    0 -0.21508909463E+02 -0.75903169133E+01 -0.38844142860E+02  0.46142317281E+02  0.99999956211E+01 0.  0.
         12    1    3    3    0    0  0.21508909463E+02  0.75903169133E+01  0.38844142860E+02  0.45045682719E+02  0.00000000000E+00 0. -1.
         11    1    4    4    0    0 -0.15404545042E+01 -0.18320271210E+01 -0.11572845186E+01  0.26586897468E+01  0.51100000000E-03 0. -1.
        -11    1    4    4    0    0 -0.33806734885E+01 -0.26697386045E+01 -0.12009577636E+02  0.12758777869E+02  0.51100000000E-03 0.  1.
         12    1    4    4    0    0 -0.16587781470E+02 -0.30885511879E+01 -0.25677280705E+02  0.30724849665E+02  0.00000000000E+00 0. -1.
</event>
<event>
 8    1  0.7489580E-009  0.9118800E+02  0.7816164E-02  0.1184000E+00
        -11   -1    0    0    0    0  0.00000000000E+00  0.00000000000E+00  0.45593999997E+02  0.45594000000E+02  0.51100000000E-03 0. -1.
         11   -1    0    0    0    0 -0.00000000000E+00 -0.00000000000E+00 -0.45593999997E+02  0.45594000000E+02  0.51100000000E-03 0.  1.
         23    2    1    2    0    0  0.17763568394E-14  0.00000000000E+00 -0.71054273576E-14  0.91188000000E+02  0.91188000000E+02 0.  0.
    9900012    2    3    3    0    0  0.15021790704E+02 -0.11672339074E+02 -0.40831556248E+02  0.46142315623E+02  0.99999804999E+01 0.  0.
         12    1    3    3    0    0 -0.15021790704E+02  0.11672339074E+02  0.40831556248E+02  0.45045684377E+02  0.00000000000E+00 0. -1.
         11    1    4    4    0    0  0.58461880713E+01 -0.16853074947E+01 -0.69619475862E+01  0.92459121114E+01  0.51100000000E-03 0. -1.
        -11    1    4    4    0    0  0.82441703408E+01 -0.89093178600E+01 -0.23701400823E+02  0.26628907048E+02  0.51100000000E-03 0.  1.
        -12    1    4    4    0    0  0.93143229160E+00 -0.10777137194E+01 -0.10168207839E+02  0.10267496463E+02  0.00000000000E+00 0.  1.
</event>
<event>
 8    1  0.7489580E-009  0.9118800E+02  0.7816164E-02  0.1184000E+00
        -11   -1    0    0    0    0  0.00000000000E+00  0.00000000000E+00  0.45593999997E+02  0.45594000000E+02  0.51100000000E-03 0. -1.
         11   -1    0    0    0    0 -0.00000000000E+00 -0.00000000000E+00 -0.45593999997E+02  0.45594000000E+02  0.51100000000E-03 0.  1.
         23    2    1    2    0    0  0.00000000000E+00  0.00000000000E+00  0.00000000000E+00  0.91188000000E+02  0.91188000000E+02 0.  0.
    9900012    2    3    3    0    0  0.19745393802E+02 -0.82105539520E+01 -0.39646181984E+02  0.46142317427E+02  0.99999969510E+01 0.  0.
         12    1    3    3    0    0 -0.19745393802E+02  0.82105539520E+01  0.39646181984E+02  0.45045682573E+02  0.00000000000E+00 0. -1.
         11    1    4    4    0    0  0.14526392304E+01 -0.25233440701E+01 -0.18960945972E+01  0.34745648667E+01  0.51100000000E-03 0. -1.
        -11    1    4    4    0    0  0.76071809445E+01 -0.51503404463E+01 -0.17269099713E+02  0.19560598503E+02  0.51100000000E-03 0.  1.
        -12    1    4    4    0    0  0.10685573628E+02 -0.53686943556E+00 -0.20480987674E+02  0.23107154057E+02  0.00000000000E+00 0.  1.
</event>
<event>
 8    1  0.7489580E-009  0.9118800E+02  0.7816164E-02  0.1184000E+00
        -11   -1    0    0    0    0  0.00000000000E+00  0.00000000000E+00  0.45593999997E+02  0.45594000000E+02  0.51100000000E-03 0. -1.
         11   -1    0    0    0    0 -0.00000000000E+00 -0.00000000000E+00 -0.45593999997E+02  0.45594000000E+02  0.51100000000E-03 0.  1.
         23    2    1    2    0    0  0.00000000000E+00  0.00000000000E+00  0.00000000000E+00  0.91188000000E+02  0.91188000000E+02 0.  0.
    9900012    2    3    3    0    0  0.18366671796E+02  0.12111208157E+02  0.39307718403E+02  0.46142326269E+02  0.10000077578E+02 0.  0.
        -12    1    3    3    0    0 -0.18366671796E+02 -0.12111208157E+02 -0.39307718403E+02  0.45045673731E+02  0.00000000000E+00 0.  1.
         11    1    4    4    0    0  0.59443838769E+00 -0.78764623834E+00  0.55003286005E-01  0.98831635427E+00  0.51100000000E-03 0. -1.
        -11    1    4    4    0    0  0.34899989106E+01  0.34275681725E+01  0.59676874848E+01  0.77163210243E+01  0.51100000000E-03 0.  1.
         12    1    4    4    0    0  0.14282234497E+02  0.94712862232E+01  0.33285027632E+02  0.37437688890E+02  0.00000000000E+00 0. -1.
</event>
<event>
 8    1  0.7489580E-009  0.9118800E+02  0.7816164E-02  0.1184000E+00
        -11   -1    0    0    0    0  0.00000000000E+00  0.00000000000E+00  0.45593999997E+02  0.45594000000E+02  0.51100000000E-03 0. -1.
         11   -1    0    0    0    0 -0.00000000000E+00 -0.00000000000E+00 -0.45593999997E+02  0.45594000000E+02  0.51100000000E-03 0.  1.
         23    2    1    2    0    0  0.00000000000E+00  0.00000000000E+00  0.14210854715E-13  0.91188000000E+02  0.91188000000E+02 0.  0.
    9900012    2    3    3    0    0  0.41196775459E+01 -0.23198283325E+02  0.38392464531E+02  0.46142318464E+02  0.10000006407E+02 0.  0.
        -12    1    3    3    0    0 -0.41196775459E+01  0.23198283325E+02 -0.38392464531E+02  0.45045681536E+02  0.00000000000E+00 0.  1.
         11    1    4    4    0    0  0.30970871712E+01 -0.85311592785E+01  0.11798295269E+02  0.14885308163E+02  0.51100000000E-03 0. -1.
        -11    1    4    4    0    0 -0.14437957788E+00  0.68112806014E+00  0.23906345157E+00  0.73616064267E+00  0.51100000000E-03 0.  1.
        -12    1    4    4    0    0  0.11669699526E+01 -0.15348252107E+02  0.26355105810E+02  0.30520849658E+02  0.00000000000E+00 0.  1.
</event>
<event>
 8    1  0.1123957E-008  0.9118800E+02  0.7816164E-02  0.1184000E+00
        -11   -1    0    0    0    0  0.00000000000E+00  0.00000000000E+00  0.45593999997E+02  0.45594000000E+02  0.51100000000E-03 0.  1.
         11   -1    0    0    0    0 -0.00000000000E+00 -0.00000000000E+00 -0.45593999997E+02  0.45594000000E+02  0.51100000000E-03 0. -1.
         23    2    1    2    0    0  0.88817841970E-15  0.71054273576E-14 -0.35527136788E-14  0.91188000000E+02  0.91188000000E+02 0.  0.
    9900012    2    3    3    0    0  0.64887234418E+01  0.34123158322E+02 -0.28681354720E+02  0.46142316806E+02  0.99999912931E+01 0.  0.
         12    1    3    3    0    0 -0.64887234418E+01 -0.34123158322E+02  0.28681354720E+02  0.45045683194E+02  0.00000000000E+00 0. -1.
         11    1    4    4    0    0  0.30527614727E+01  0.79577693701E+01 -0.81962746888E+01  0.11824735303E+02  0.51100000000E-03 0. -1.
        -11    1    4    4    0    0  0.59996497142E+01  0.18788894863E+02 -0.14682117859E+02  0.24588268584E+02  0.51100000000E-03 0.  1.
         12    1    4    4    0    0 -0.25636877451E+01  0.73764940894E+01 -0.58029621729E+01  0.97293129195E+01  0.00000000000E+00 0. -1.
</event>
<event>
 8    1  0.7489580E-009  0.9118800E+02  0.7816164E-02  0.1184000E+00
        -11   -1    0    0    0    0  0.00000000000E+00  0.00000000000E+00  0.45593999997E+02  0.45594000000E+02  0.51100000000E-03 0. -1.
         11   -1    0    0    0    0 -0.00000000000E+00 -0.00000000000E+00 -0.45593999997E+02  0.45594000000E+02  0.51100000000E-03 0.  1.
         23    2    1    2    0    0  0.00000000000E+00 -0.71054273576E-14  0.00000000000E+00  0.91188000000E+02  0.91188000000E+02 0.  0.
    9900012    2    3    3    0    0 -0.22269507500E+02  0.32236477678E+02  0.22225936701E+02  0.46142315194E+02  0.99999765887E+01 0.  0.
        -12    1    3    3    0    0  0.22269507500E+02 -0.32236477678E+02 -0.22225936701E+02  0.45045684806E+02  0.00000000000E+00 0.  1.
         11    1    4    4    0    0 -0.11458301417E+01  0.68720143733E+01  0.32638919474E+01  0.76935361938E+01  0.51100000000E-03 0.  1.
        -11    1    4    4    0    0 -0.15908148602E+02  0.19503670089E+02  0.11688367228E+02  0.27750320135E+02  0.51100000000E-03 0. -1.
        -12    1    4    4    0    0 -0.52155287568E+01  0.58607932159E+01  0.72736775255E+01  0.10698458865E+02  0.00000000000E+00 0.  1.
</event>
<event>
 8    1  0.7489580E-009  0.9118800E+02  0.7816164E-02  0.1184000E+00
        -11   -1    0    0    0    0  0.00000000000E+00  0.00000000000E+00  0.45593999997E+02  0.45594000000E+02  0.51100000000E-03 0. -1.
         11   -1    0    0    0    0 -0.00000000000E+00 -0.00000000000E+00 -0.45593999997E+02  0.45594000000E+02  0.51100000000E-03 0.  1.
         23    2    1    2    0    0 -0.17763568394E-14  0.88817841970E-15  0.00000000000E+00  0.91188000000E+02  0.91188000000E+02 0.  0.
    9900012    2    3    3    0    0 -0.15923169636E+02  0.45062903541E+01  0.41895819597E+02  0.46142315593E+02  0.99999802261E+01 0.  0.
        -12    1    3    3    0    0  0.15923169636E+02 -0.45062903541E+01 -0.41895819597E+02  0.45045684407E+02  0.00000000000E+00 0.  1.
         11    1    4    4    0    0 -0.36605197889E+01  0.51438852640E+01  0.14067574367E+02  0.15419325846E+02  0.51100000000E-03 0. -1.
        -11    1    4    4    0    0 -0.35538420341E+01 -0.78706715498E+00  0.42971044392E+01  0.56315517162E+01  0.51100000000E-03 0.  1.
         12    1    4    4    0    0 -0.87088078130E+01  0.14947224505E+00  0.23531140791E+02  0.25091438030E+02  0.00000000000E+00 0. -1.
</event>
<event>
 8    1  0.7489580E-009  0.9118800E+02  0.7816164E-02  0.1184000E+00
        -11   -1    0    0    0    0  0.00000000000E+00  0.00000000000E+00  0.45593999997E+02  0.45594000000E+02  0.51100000000E-03 0.  1.
         11   -1    0    0    0    0 -0.00000000000E+00 -0.00000000000E+00 -0.45593999997E+02  0.45594000000E+02  0.51100000000E-03 0. -1.
         23    2    1    2    0    0  0.00000000000E+00  0.00000000000E+00  0.00000000000E+00  0.91188000000E+02  0.91188000000E+02 0.  0.
    9900012    2    3    3    0    0  0.86199345874E+01  0.43934054571E+02  0.49608038673E+01  0.46142312100E+02  0.99999483789E+01 0.  0.
        -12    1    3    3    0    0 -0.86199345874E+01 -0.43934054571E+02 -0.49608038673E+01  0.45045687900E+02  0.00000000000E+00 0.  1.
         11    1    4    4    0    0  0.50967541838E+01  0.39282333406E+02  0.36905231807E+01  0.39783144454E+02  0.51100000000E-03 0. -1.
        -11    1    4    4    0    0  0.27986257742E+01  0.42706635004E+01  0.33606084803E+00  0.51170118343E+01  0.51100000000E-03 0.  1.
         12    1    4    4    0    0  0.72455462934E+00  0.38105766505E+00  0.93421983855E+00  0.12421558122E+01  0.00000000000E+00 0. -1.
</event>
<event>
 8    1  0.7489580E-009  0.9118800E+02  0.7816164E-02  0.1184000E+00
        -11   -1    0    0    0    0  0.00000000000E+00  0.00000000000E+00  0.45593999997E+02  0.45594000000E+02  0.51100000000E-03 0. -1.
         11   -1    0    0    0    0 -0.00000000000E+00 -0.00000000000E+00 -0.45593999997E+02  0.45594000000E+02  0.51100000000E-03 0.  1.
         23    2    1    2    0    0  0.35527136788E-14  0.71054273576E-14  0.00000000000E+00  0.91188000000E+02  0.91188000000E+02 0.  0.
    9900012    2    3    3    0    0  0.24911227712E+02  0.33939817109E+02 -0.16019771809E+02  0.46142317184E+02  0.99999947415E+01 0.  0.
         12    1    3    3    0    0 -0.24911227712E+02 -0.33939817109E+02  0.16019771809E+02  0.45045682816E+02  0.00000000000E+00 0. -1.
         11    1    4    4    0    0  0.16486339906E+02  0.19584735016E+02 -0.11965781932E+02  0.28258471060E+02  0.51100000000E-03 0. -1.
        -11    1    4    4    0    0  0.70412482344E+01  0.81976774671E+01 -0.41397284928E+01  0.11572313719E+02  0.51100000000E-03 0.  1.
         12    1    4    4    0    0  0.13836395711E+01  0.61574046263E+01  0.85738616165E-01  0.63115324054E+01  0.00000000000E+00 0. -1.
</event>
<event>
 8    1  0.7489580E-009  0.9118800E+02  0.7816164E-02  0.1184000E+00
        -11   -1    0    0    0    0  0.00000000000E+00  0.00000000000E+00  0.45593999997E+02  0.45594000000E+02  0.51100000000E-03 0. -1.
         11   -1    0    0    0    0 -0.00000000000E+00 -0.00000000000E+00 -0.45593999997E+02  0.45594000000E+02  0.51100000000E-03 0.  1.
         23    2    1    2    0    0 -0.35527136788E-14  0.00000000000E+00  0.00000000000E+00  0.91188000000E+02  0.91188000000E+02 0.  0.
    9900012    2    3    3    0    0  0.28668420968E+02  0.14402763616E+02 -0.31619537828E+02  0.46142321705E+02  0.10000035961E+02 0.  0.
         12    1    3    3    0    0 -0.28668420968E+02 -0.14402763616E+02  0.31619537828E+02  0.45045678295E+02  0.00000000000E+00 0. -1.
         11    1    4    4    0    0  0.13923813983E+01  0.33366539617E+01 -0.54705597466E+01  0.65573630234E+01  0.51100000000E-03 0. -1.
        -11    1    4    4    0    0  0.12661052929E+02  0.71795353124E+01 -0.11789139381E+02  0.18730504429E+02  0.51100000000E-03 0.  1.
        -12    1    4    4    0    0  0.14614986641E+02  0.38865743423E+01 -0.14359838701E+02  0.20854454252E+02  0.00000000000E+00 0.  1.
</event>
<event>
 8    1  0.7489580E-009  0.9118800E+02  0.7816164E-02  0.1184000E+00
        -11   -1    0    0    0    0  0.00000000000E+00  0.00000000000E+00  0.45593999997E+02  0.45594000000E+02  0.51100000000E-03 0. -1.
         11   -1    0    0    0    0 -0.00000000000E+00 -0.00000000000E+00 -0.45593999997E+02  0.45594000000E+02  0.51100000000E-03 0.  1.
         23    2    1    2    0    0  0.71054273576E-14 -0.17763568394E-14  0.88817841970E-15  0.91188000000E+02  0.91188000000E+02 0.  0.
    9900012    2    3    3    0    0 -0.42633226734E+02  0.14394103557E+02 -0.20811878813E+01  0.46142316722E+02  0.99999905265E+01 0.  0.
         12    1    3    3    0    0  0.42633226734E+02 -0.14394103557E+02  0.20811878813E+01  0.45045683278E+02  0.00000000000E+00 0. -1.
         11    1    4    4    0    0 -0.32365820442E+00  0.79971367055E+00 -0.34369060124E+00  0.92866575185E+00  0.51100000000E-03 0. -1.
        -11    1    4    4    0    0 -0.32405773837E+02  0.74742905548E+01  0.93080477126E+00  0.33269589643E+02  0.51100000000E-03 0.  1.
        -12    1    4    4    0    0 -0.99037946931E+01  0.61200993314E+01 -0.26683020513E+01  0.11944061327E+02  0.00000000000E+00 0.  1.
</event>
<event>
 8    1  0.7489580E-009  0.9118800E+02  0.7816164E-02  0.1184000E+00
        -11   -1    0    0    0    0  0.00000000000E+00  0.00000000000E+00  0.45593999997E+02  0.45594000000E+02  0.51100000000E-03 0. -1.
         11   -1    0    0    0    0 -0.00000000000E+00 -0.00000000000E+00 -0.45593999997E+02  0.45594000000E+02  0.51100000000E-03 0.  1.
         23    2    1    2    0    0  0.00000000000E+00  0.00000000000E+00  0.35527136788E-14  0.91188000000E+02  0.91188000000E+02 0.  0.
    9900012    2    3    3    0    0  0.20784891128E+02 -0.34804428432E+02 -0.19640633406E+02  0.46142307439E+02  0.99999058775E+01 0.  0.
         12    1    3    3    0    0 -0.20784891128E+02  0.34804428432E+02  0.19640633406E+02  0.45045692561E+02  0.00000000000E+00 0. -1.
         11    1    4    4    0    0  0.38593602476E+01 -0.84307637447E+01 -0.25206773176E+01  0.96086551213E+01  0.51100000000E-03 0. -1.
        -11    1    4    4    0    0  0.10429915143E+02 -0.22186886409E+02 -0.12337028562E+02  0.27445278873E+02  0.51100000000E-03 0.  1.
         12    1    4    4    0    0  0.64956157368E+01 -0.41867782788E+01 -0.47829275264E+01  0.90883734452E+01  0.00000000000E+00 0. -1.
</event>
<event>
 8    1  0.7489580E-009  0.9118800E+02  0.7816164E-02  0.1184000E+00
        -11   -1    0    0    0    0  0.00000000000E+00  0.00000000000E+00  0.45593999997E+02  0.45594000000E+02  0.51100000000E-03 0. -1.
         11   -1    0    0    0    0 -0.00000000000E+00 -0.00000000000E+00 -0.45593999997E+02  0.45594000000E+02  0.51100000000E-03 0.  1.
         23    2    1    2    0    0  0.17763568394E-14  0.00000000000E+00  0.00000000000E+00  0.91188000000E+02  0.91188000000E+02 0.  0.
    9900012    2    3    3    0    0 -0.10497564763E+02  0.17694397979E+02 -0.40072720564E+02  0.46142317419E+02  0.99999968839E+01 0.  0.
         12    1    3    3    0    0  0.10497564763E+02 -0.17694397979E+02  0.40072720564E+02  0.45045682581E+02  0.00000000000E+00 0. -1.
         11    1    4    4    0    0 -0.17452593714E+01  0.16884682388E+01 -0.46981366601E+01  0.52886050717E+01  0.51100000000E-03 0. -1.
        -11    1    4    4    0    0 -0.28811088436E+01 -0.32534449596E+00 -0.72160889235E+01  0.77767973371E+01  0.51100000000E-03 0.  1.
         12    1    4    4    0    0 -0.58711965482E+01  0.16331274236E+02 -0.28158494980E+02  0.33076915011E+02  0.00000000000E+00 0. -1.
</event>
<event>
 8    1  0.7489580E-009  0.9118800E+02  0.7816164E-02  0.1184000E+00
        -11   -1    0    0    0    0  0.00000000000E+00  0.00000000000E+00  0.45593999997E+02  0.45594000000E+02  0.51100000000E-03 0. -1.
         11   -1    0    0    0    0 -0.00000000000E+00 -0.00000000000E+00 -0.45593999997E+02  0.45594000000E+02  0.51100000000E-03 0.  1.
         23    2    1    2    0    0 -0.35527136788E-14  0.00000000000E+00  0.71054273576E-14  0.91188000000E+02  0.91188000000E+02 0.  0.
    9900012    2    3    3    0    0  0.19838118748E+02  0.15648008335E+02 -0.37292122751E+02  0.46142317193E+02  0.99999948173E+01 0.  0.
         12    1    3    3    0    0 -0.19838118748E+02 -0.15648008335E+02  0.37292122751E+02  0.45045682807E+02  0.00000000000E+00 0. -1.
         11    1    4    4    0    0  0.68866917042E-02 -0.67471757208E-02  0.21690463235E+00  0.21711939471E+00  0.51100000000E-03 0. -1.
        -11    1    4    4    0    0  0.11850620406E+02  0.48431950048E+01 -0.21509877844E+02  0.25031352081E+02  0.51100000000E-03 0.  1.
         12    1    4    4    0    0  0.79806116499E+01  0.10811560506E+02 -0.15999149539E+02  0.20893845717E+02  0.00000000000E+00 0. -1.
</event>
<event>
 8    1  0.7489580E-009  0.9118800E+02  0.7816164E-02  0.1184000E+00
        -11   -1    0    0    0    0  0.00000000000E+00  0.00000000000E+00  0.45593999997E+02  0.45594000000E+02  0.51100000000E-03 0. -1.
         11   -1    0    0    0    0 -0.00000000000E+00 -0.00000000000E+00 -0.45593999997E+02  0.45594000000E+02  0.51100000000E-03 0.  1.
         23    2    1    2    0    0  0.71054273576E-14  0.88817841970E-15  0.17763568394E-14  0.91188000000E+02  0.91188000000E+02 0.  0.
    9900012    2    3    3    0    0 -0.44044383781E+02 -0.48036229233E+01 -0.81320807150E+01  0.46142320156E+02  0.10000021843E+02 0.  0.
         12    1    3    3    0    0  0.44044383781E+02  0.48036229233E+01  0.81320807150E+01  0.45045679844E+02  0.00000000000E+00 0. -1.
         11    1    4    4    0    0 -0.26733399396E+02 -0.13264530442E+01 -0.35986622695E+00  0.26768706075E+02  0.51100000000E-03 0.  1.
        -11    1    4    4    0    0 -0.87120649157E+01 -0.14845196247E+01 -0.48176767239E+01  0.10065479765E+02  0.51100000000E-03 0. -1.
        -12    1    4    4    0    0 -0.85989194687E+01 -0.19926502544E+01 -0.29545377642E+01  0.93081343171E+01  0.00000000000E+00 0.  1.
</event>
<event>
 8    1  0.7489580E-009  0.9118800E+02  0.7816164E-02  0.1184000E+00
        -11   -1    0    0    0    0  0.00000000000E+00  0.00000000000E+00  0.45593999997E+02  0.45594000000E+02  0.51100000000E-03 0. -1.
         11   -1    0    0    0    0 -0.00000000000E+00 -0.00000000000E+00 -0.45593999997E+02  0.45594000000E+02  0.51100000000E-03 0.  1.
         23    2    1    2    0    0  0.00000000000E+00  0.00000000000E+00  0.00000000000E+00  0.91188000000E+02  0.91188000000E+02 0.  0.
    9900012    2    3    3    0    0  0.27891224222E+02 -0.31077991790E+02  0.16892345361E+02  0.46142319917E+02  0.10000019663E+02 0.  0.
        -12    1    3    3    0    0 -0.27891224222E+02  0.31077991790E+02 -0.16892345361E+02  0.45045680083E+02  0.00000000000E+00 0.  1.
         11    1    4    4    0    0  0.18032871567E+02 -0.18152075874E+02  0.12705522900E+02  0.28567685029E+02  0.51100000000E-03 0. -1.
        -11    1    4    4    0    0  0.26937317214E+01 -0.20051136449E+01  0.29236602858E+01  0.44524668493E+01  0.51100000000E-03 0.  1.
         12    1    4    4    0    0  0.71646209336E+01 -0.10920802271E+02  0.12631621751E+01  0.13122168039E+02  0.00000000000E+00 0. -1.
</event>
<event>
 8    1  0.7489580E-009  0.9118800E+02  0.7816164E-02  0.1184000E+00
        -11   -1    0    0    0    0  0.00000000000E+00  0.00000000000E+00  0.45593999997E+02  0.45594000000E+02  0.51100000000E-03 0. -1.
         11   -1    0    0    0    0 -0.00000000000E+00 -0.00000000000E+00 -0.45593999997E+02  0.45594000000E+02  0.51100000000E-03 0.  1.
         23    2    1    2    0    0  0.00000000000E+00  0.00000000000E+00 -0.35527136788E-14  0.91188000000E+02  0.91188000000E+02 0.  0.
    9900012    2    3    3    0    0 -0.52932647941E+01  0.34006078772E+02  0.29063403212E+02  0.46142318166E+02  0.10000003688E+02 0.  0.
        -12    1    3    3    0    0  0.52932647941E+01 -0.34006078772E+02 -0.29063403212E+02  0.45045681834E+02  0.00000000000E+00 0.  1.
         11    1    4    4    0    0 -0.11354461743E+01  0.10835296157E+02  0.11178945950E+02  0.15609667314E+02  0.51100000000E-03 0. -1.
        -11    1    4    4    0    0 -0.26276053685E+01  0.45970080452E+01  0.75521099652E+01  0.92234027413E+01  0.51100000000E-03 0.  1.
         12    1    4    4    0    0 -0.15302132513E+01  0.18573774570E+02  0.10332347297E+02  0.21309248111E+02  0.00000000000E+00 0. -1.
</event>
<event>
 8    1  0.7489580E-009  0.9118800E+02  0.7816164E-02  0.1184000E+00
        -11   -1    0    0    0    0  0.00000000000E+00  0.00000000000E+00  0.45593999997E+02  0.45594000000E+02  0.51100000000E-03 0. -1.
         11   -1    0    0    0    0 -0.00000000000E+00 -0.00000000000E+00 -0.45593999997E+02  0.45594000000E+02  0.51100000000E-03 0.  1.
         23    2    1    2    0    0  0.71054273576E-14  0.00000000000E+00  0.35527136788E-14  0.91188000000E+02  0.91188000000E+02 0.  0.
    9900012    2    3    3    0    0  0.39989078911E+02 -0.54691011958E+01 -0.20001900149E+02  0.46142317525E+02  0.99999978476E+01 0.  0.
         12    1    3    3    0    0 -0.39989078911E+02  0.54691011958E+01  0.20001900149E+02  0.45045682475E+02  0.00000000000E+00 0. -1.
         11    1    4    4    0    0  0.59624391563E+01 -0.29967892769E+01 -0.16116007668E+00  0.66751329196E+01  0.51100000000E-03 0. -1.
        -11    1    4    4    0    0  0.30497679335E+02 -0.21299514999E+01 -0.17773556367E+02  0.35363037827E+02  0.51100000000E-03 0.  1.
         12    1    4    4    0    0  0.35289604204E+01 -0.34236041907E+00 -0.20671837052E+01  0.41041467781E+01  0.00000000000E+00 0. -1.
</event>
<event>
 8    1  0.7489580E-009  0.9118800E+02  0.7816164E-02  0.1184000E+00
        -11   -1    0    0    0    0  0.00000000000E+00  0.00000000000E+00  0.45593999997E+02  0.45594000000E+02  0.51100000000E-03 0. -1.
         11   -1    0    0    0    0 -0.00000000000E+00 -0.00000000000E+00 -0.45593999997E+02  0.45594000000E+02  0.51100000000E-03 0.  1.
         23    2    1    2    0    0 -0.17763568394E-14  0.88817841970E-15  0.00000000000E+00  0.91188000000E+02  0.91188000000E+02 0.  0.
    9900012    2    3    3    0    0  0.14962614584E+02 -0.60508273361E+01  0.42054977573E+02  0.46142317795E+02  0.10000000310E+02 0.  0.
        -12    1    3    3    0    0 -0.14962614584E+02  0.60508273361E+01 -0.42054977573E+02  0.45045682205E+02  0.00000000000E+00 0.  1.
         11    1    4    4    0    0  0.12357198202E+02 -0.77175652655E+01  0.33348688903E+02  0.36392254847E+02  0.51100000000E-03 0. -1.
        -11    1    4    4    0    0 -0.33542986095E+00 -0.65498537586E-01 -0.56165551560E-01  0.34634965042E+00  0.51100000000E-03 0.  1.
         12    1    4    4    0    0  0.29408462431E+01  0.17322364670E+01  0.87624542215E+01  0.94037132977E+01  0.00000000000E+00 0. -1.
</event>
<event>
 8    1  0.7489580E-009  0.9118800E+02  0.7816164E-02  0.1184000E+00
        -11   -1    0    0    0    0  0.00000000000E+00  0.00000000000E+00  0.45593999997E+02  0.45594000000E+02  0.51100000000E-03 0. -1.
         11   -1    0    0    0    0 -0.00000000000E+00 -0.00000000000E+00 -0.45593999997E+02  0.45594000000E+02  0.51100000000E-03 0.  1.
         23    2    1    2    0    0  0.44408920985E-15  0.00000000000E+00  0.00000000000E+00  0.91188000000E+02  0.91188000000E+02 0.  0.
    9900012    2    3    3    0    0 -0.28099543890E+01  0.28572936806E+02  0.34710299762E+02  0.46142317954E+02  0.10000001757E+02 0.  0.
        -12    1    3    3    0    0  0.28099543890E+01 -0.28572936806E+02 -0.34710299762E+02  0.45045682046E+02  0.00000000000E+00 0.  1.
         11    1    4    4    0    0  0.34377447523E+01  0.10344256367E+02  0.14342306676E+02  0.18014535515E+02  0.51100000000E-03 0. -1.
        -11    1    4    4    0    0 -0.27798658228E+01  0.54941518288E+01  0.73705142493E+01  0.96040532522E+01  0.51100000000E-03 0.  1.
         12    1    4    4    0    0 -0.34678333186E+01  0.12734528611E+02  0.12997478837E+02  0.18523729187E+02  0.00000000000E+00 0. -1.
</event>
<event>
 8    1  0.7489580E-009  0.9118800E+02  0.7816164E-02  0.1184000E+00
        -11   -1    0    0    0    0  0.00000000000E+00  0.00000000000E+00  0.45593999997E+02  0.45594000000E+02  0.51100000000E-03 0. -1.
         11   -1    0    0    0    0 -0.00000000000E+00 -0.00000000000E+00 -0.45593999997E+02  0.45594000000E+02  0.51100000000E-03 0.  1.
         23    2    1    2    0    0  0.88817841970E-15  0.00000000000E+00  0.35527136788E-14  0.91188000000E+02  0.91188000000E+02 0.  0.
    9900012    2    3    3    0    0  0.65179798329E+01  0.40863447251E+02 -0.17799101621E+02  0.46142318732E+02  0.10000008854E+02 0.  0.
         12    1    3    3    0    0 -0.65179798329E+01 -0.40863447251E+02  0.17799101621E+02  0.45045681268E+02  0.00000000000E+00 0. -1.
         11    1    4    4    0    0  0.42924695114E+01  0.63410189556E+01 -0.17914173007E+01  0.78640315429E+01  0.51100000000E-03 0. -1.
        -11    1    4    4    0    0  0.11360021967E+01  0.13229368258E+02 -0.80083416176E+01  0.15506134954E+02  0.51100000000E-03 0.  1.
         12    1    4    4    0    0  0.10895081248E+01  0.21293060038E+02 -0.79993427031E+01  0.22772152235E+02  0.00000000000E+00 0. -1.
</event>
<event>
 8    1  0.7489580E-009  0.9118800E+02  0.7816164E-02  0.1184000E+00
        -11   -1    0    0    0    0  0.00000000000E+00  0.00000000000E+00  0.45593999997E+02  0.45594000000E+02  0.51100000000E-03 0. -1.
         11   -1    0    0    0    0 -0.00000000000E+00 -0.00000000000E+00 -0.45593999997E+02  0.45594000000E+02  0.51100000000E-03 0.  1.
         23    2    1    2    0    0  0.17763568394E-14  0.35527136788E-14  0.35527136788E-14  0.91188000000E+02  0.91188000000E+02 0.  0.
    9900012    2    3    3    0    0 -0.14865030015E+02 -0.29061090905E+02 -0.31041870423E+02  0.46142313844E+02  0.99999642776E+01 0.  0.
         12    1    3    3    0    0  0.14865030015E+02  0.29061090905E+02  0.31041870423E+02  0.45045686156E+02  0.00000000000E+00 0. -1.
         11    1    4    4    0    0 -0.56380851143E+01 -0.58015562818E+01 -0.46041854238E+01  0.93083071890E+01  0.51100000000E-03 0. -1.
        -11    1    4    4    0    0 -0.75387884924E+01 -0.21083281081E+02 -0.25475181077E+02  0.33916410839E+02  0.51100000000E-03 0.  1.
        -12    1    4    4    0    0 -0.16881564087E+01 -0.21762535424E+01 -0.96250392205E+00  0.29175958152E+01  0.00000000000E+00 0.  1.
</event>
<event>
 8    1  0.7489580E-009  0.9118800E+02  0.7816164E-02  0.1184000E+00
        -11   -1    0    0    0    0  0.00000000000E+00  0.00000000000E+00  0.45593999997E+02  0.45594000000E+02  0.51100000000E-03 0. -1.
         11   -1    0    0    0    0 -0.00000000000E+00 -0.00000000000E+00 -0.45593999997E+02  0.45594000000E+02  0.51100000000E-03 0.  1.
         23    2    1    2    0    0  0.00000000000E+00  0.35527136788E-14  0.44408920985E-15  0.91188000000E+02  0.91188000000E+02 0.  0.
    9900012    2    3    3    0    0 -0.37081938743E+02 -0.25266326833E+02 -0.39567389350E+01  0.46142320567E+02  0.10000025587E+02 0.  0.
        -12    1    3    3    0    0  0.37081938743E+02  0.25266326833E+02  0.39567389350E+01  0.45045679433E+02  0.00000000000E+00 0.  1.
         11    1    4    4    0    0 -0.42562193200E+01 -0.28111214582E+01 -0.30566410621E+01  0.59464999450E+01  0.51100000000E-03 0. -1.
        -11    1    4    4    0    0 -0.13617220086E+02 -0.85192807611E+01  0.23832208593E+01  0.16238428788E+02  0.51100000000E-03 0.  1.
         12    1    4    4    0    0 -0.19208499337E+02 -0.13935924614E+02 -0.32833187322E+01  0.23957391834E+02  0.00000000000E+00 0. -1.
</event>
<event>
 8    1  0.7489580E-009  0.9118800E+02  0.7816164E-02  0.1184000E+00
        -11   -1    0    0    0    0  0.00000000000E+00  0.00000000000E+00  0.45593999997E+02  0.45594000000E+02  0.51100000000E-03 0. -1.
         11   -1    0    0    0    0 -0.00000000000E+00 -0.00000000000E+00 -0.45593999997E+02  0.45594000000E+02  0.51100000000E-03 0.  1.
         23    2    1    2    0    0  0.00000000000E+00  0.00000000000E+00  0.00000000000E+00  0.91188000000E+02  0.91188000000E+02 0.  0.
    9900012    2    3    3    0    0  0.21714255236E+01  0.37815776595E+02 -0.24379613130E+02  0.46142316693E+02  0.99999902588E+01 0.  0.
         12    1    3    3    0    0 -0.21714255236E+01 -0.37815776595E+02  0.24379613130E+02  0.45045683307E+02  0.00000000000E+00 0. -1.
         11    1    4    4    0    0  0.96404962745E+00  0.15258538702E+02 -0.51460937771E+01  0.16131790863E+02  0.51100000000E-03 0. -1.
        -11    1    4    4    0    0 -0.16699110151E+01  0.10632047171E+02 -0.86139277562E+01  0.13785092727E+02  0.51100000000E-03 0.  1.
         12    1    4    4    0    0  0.28772869112E+01  0.11925190721E+02 -0.10619591596E+02  0.16225433103E+02  0.00000000000E+00 0. -1.
</event>
<event>
 8    1  0.7489580E-009  0.9118800E+02  0.7816164E-02  0.1184000E+00
        -11   -1    0    0    0    0  0.00000000000E+00  0.00000000000E+00  0.45593999997E+02  0.45594000000E+02  0.51100000000E-03 0. -1.
         11   -1    0    0    0    0 -0.00000000000E+00 -0.00000000000E+00 -0.45593999997E+02  0.45594000000E+02  0.51100000000E-03 0.  1.
         23    2    1    2    0    0  0.00000000000E+00  0.35527136788E-14  0.00000000000E+00  0.91188000000E+02  0.91188000000E+02 0.  0.
    9900012    2    3    3    0    0  0.17946983333E+02 -0.21512108591E+02 -0.35273909391E+02  0.46142315296E+02  0.99999775169E+01 0.  0.
         12    1    3    3    0    0 -0.17946983333E+02  0.21512108591E+02  0.35273909391E+02  0.45045684704E+02  0.00000000000E+00 0. -1.
         11    1    4    4    0    0  0.51481380449E+01 -0.62547322733E+01 -0.69395405889E+01  0.10666875128E+02  0.51100000000E-03 0. -1.
        -11    1    4    4    0    0  0.88416708357E+01 -0.11003200615E+02 -0.13450448665E+02  0.19497695671E+02  0.51100000000E-03 0.  1.
         12    1    4    4    0    0  0.39571744523E+01 -0.42541757026E+01 -0.14883920137E+02  0.15977744497E+02  0.00000000000E+00 0. -1.
</event>
<event>
 8    1  0.7489580E-009  0.9118800E+02  0.7816164E-02  0.1184000E+00
        -11   -1    0    0    0    0  0.00000000000E+00  0.00000000000E+00  0.45593999997E+02  0.45594000000E+02  0.51100000000E-03 0. -1.
         11   -1    0    0    0    0 -0.00000000000E+00 -0.00000000000E+00 -0.45593999997E+02  0.45594000000E+02  0.51100000000E-03 0.  1.
         23    2    1    2    0    0  0.44408920985E-15  0.00000000000E+00  0.00000000000E+00  0.91188000000E+02  0.91188000000E+02 0.  0.
    9900012    2    3    3    0    0  0.33255853231E+01 -0.17343390001E+02 -0.41439845347E+02  0.46142317889E+02  0.10000001164E+02 0.  0.
         12    1    3    3    0    0 -0.33255853231E+01  0.17343390001E+02  0.41439845347E+02  0.45045682111E+02  0.00000000000E+00 0. -1.
         11    1    4    4    0    0  0.28553638349E+01 -0.11577365266E+02 -0.24710535683E+02  0.27437183950E+02  0.51100000000E-03 0. -1.
        -11    1    4    4    0    0 -0.56271117575E+00 -0.16513741250E+01 -0.12813889957E+02  0.12932109513E+02  0.51100000000E-03 0.  1.
         12    1    4    4    0    0  0.10329326640E+01 -0.41146506103E+01 -0.39154197074E+01  0.57730244256E+01  0.00000000000E+00 0. -1.
</event>
<event>
 8    1  0.7489580E-009  0.9118800E+02  0.7816164E-02  0.1184000E+00
        -11   -1    0    0    0    0  0.00000000000E+00  0.00000000000E+00  0.45593999997E+02  0.45594000000E+02  0.51100000000E-03 0.  1.
         11   -1    0    0    0    0 -0.00000000000E+00 -0.00000000000E+00 -0.45593999997E+02  0.45594000000E+02  0.51100000000E-03 0. -1.
         23    2    1    2    0    0  0.00000000000E+00  0.00000000000E+00  0.00000000000E+00  0.91188000000E+02  0.91188000000E+02 0.  0.
    9900012    2    3    3    0    0 -0.47410301791E+01  0.44720140446E+02 -0.25971602814E+01  0.46142316853E+02  0.99999917183E+01 0.  0.
        -12    1    3    3    0    0  0.47410301791E+01 -0.44720140446E+02  0.25971602814E+01  0.45045683147E+02  0.00000000000E+00 0.  1.
         11    1    4    4    0    0 -0.15585615829E+00  0.11471366139E+02 -0.10084529345E+01  0.11516662269E+02  0.51100000000E-03 0. -1.
        -11    1    4    4    0    0 -0.15003142567E+01  0.16627525876E+02  0.33206909968E+01  0.17022119392E+02  0.51100000000E-03 0.  1.
         12    1    4    4    0    0 -0.30848597641E+01  0.16621248431E+02 -0.49093983438E+01  0.17603535192E+02  0.00000000000E+00 0. -1.
</event>
<event>
 8    1  0.7489580E-009  0.9118800E+02  0.7816164E-02  0.1184000E+00
        -11   -1    0    0    0    0  0.00000000000E+00  0.00000000000E+00  0.45593999997E+02  0.45594000000E+02  0.51100000000E-03 0. -1.
         11   -1    0    0    0    0 -0.00000000000E+00 -0.00000000000E+00 -0.45593999997E+02  0.45594000000E+02  0.51100000000E-03 0.  1.
         23    2    1    2    0    0 -0.35527136788E-14  0.17763568394E-14 -0.71054273576E-14  0.91188000000E+02  0.91188000000E+02 0.  0.
    9900012    2    3    3    0    0  0.18918432207E+02 -0.95571156624E+01 -0.39747552392E+02  0.46142318097E+02  0.10000003062E+02 0.  0.
         12    1    3    3    0    0 -0.18918432207E+02  0.95571156624E+01  0.39747552392E+02  0.45045681903E+02  0.00000000000E+00 0. -1.
         11    1    4    4    0    0  0.16692515999E+02 -0.98461573668E+01 -0.30038160069E+02  0.35747419010E+02  0.51100000000E-03 0.  1.
        -11    1    4    4    0    0  0.25956584490E+01  0.64631762570E+00 -0.51185496626E+01  0.57753545490E+01  0.51100000000E-03 0. -1.
        -12    1    4    4    0    0 -0.36974224080E+00 -0.35727592131E+00 -0.45908426600E+01  0.46195445379E+01  0.00000000000E+00 0.  1.
</event>
<event>
 8    1  0.7489580E-009  0.9118800E+02  0.7816164E-02  0.1184000E+00
        -11   -1    0    0    0    0  0.00000000000E+00  0.00000000000E+00  0.45593999997E+02  0.45594000000E+02  0.51100000000E-03 0. -1.
         11   -1    0    0    0    0 -0.00000000000E+00 -0.00000000000E+00 -0.45593999997E+02  0.45594000000E+02  0.51100000000E-03 0.  1.
         23    2    1    2    0    0  0.00000000000E+00  0.00000000000E+00 -0.71054273576E-14  0.91188000000E+02  0.91188000000E+02 0.  0.
    9900012    2    3    3    0    0  0.17541939693E+02 -0.17460350725E+02  0.37636818406E+02  0.46142316574E+02  0.99999891741E+01 0.  0.
        -12    1    3    3    0    0 -0.17541939693E+02  0.17460350725E+02 -0.37636818406E+02  0.45045683426E+02  0.00000000000E+00 0.  1.
         11    1    4    4    0    0  0.41877418865E+01 -0.50570874478E+01  0.10535197317E+02  0.12413770512E+02  0.51100000000E-03 0. -1.
        -11    1    4    4    0    0  0.20927989792E+01 -0.74779277454E+01  0.97455850984E+01  0.12460964654E+02  0.51100000000E-03 0.  1.
        -12    1    4    4    0    0  0.11261398827E+02 -0.49253355320E+01  0.17356035990E+02  0.21267581408E+02  0.00000000000E+00 0.  1.
</event>
<event>
 8    1  0.7489580E-009  0.9118800E+02  0.7816164E-02  0.1184000E+00
        -11   -1    0    0    0    0  0.00000000000E+00  0.00000000000E+00  0.45593999997E+02  0.45594000000E+02  0.51100000000E-03 0. -1.
         11   -1    0    0    0    0 -0.00000000000E+00 -0.00000000000E+00 -0.45593999997E+02  0.45594000000E+02  0.51100000000E-03 0.  1.
         23    2    1    2    0    0  0.00000000000E+00 -0.35527136788E-14  0.35527136788E-14  0.91188000000E+02  0.91188000000E+02 0.  0.
    9900012    2    3    3    0    0  0.21816277618E+02 -0.25245716421E+02  0.30262472770E+02  0.46142318466E+02  0.10000006429E+02 0.  0.
        -12    1    3    3    0    0 -0.21816277618E+02  0.25245716421E+02 -0.30262472770E+02  0.45045681534E+02  0.00000000000E+00 0.  1.
         11    1    4    4    0    0  0.15453371777E+02 -0.19998305107E+02  0.25403011830E+02  0.35833670154E+02  0.51100000000E-03 0. -1.
        -11    1    4    4    0    0  0.11703049497E+01 -0.84670334424E+00  0.28769894998E+01  0.32192528748E+01  0.51100000000E-03 0.  1.
        -12    1    4    4    0    0  0.51926008914E+01 -0.44007079699E+01  0.19824714397E+01  0.70893954370E+01  0.00000000000E+00 0.  1.
</event>
<event>
 8    1  0.7489580E-009  0.9118800E+02  0.7816164E-02  0.1184000E+00
        -11   -1    0    0    0    0  0.00000000000E+00  0.00000000000E+00  0.45593999997E+02  0.45594000000E+02  0.51100000000E-03 0. -1.
         11   -1    0    0    0    0 -0.00000000000E+00 -0.00000000000E+00 -0.45593999997E+02  0.45594000000E+02  0.51100000000E-03 0.  1.
         23    2    1    2    0    0  0.35527136788E-14 -0.17763568394E-14 -0.71054273576E-14  0.91188000000E+02  0.91188000000E+02 0.  0.
    9900012    2    3    3    0    0 -0.20362143308E+02  0.11625527879E+02  0.38462237770E+02  0.46142317490E+02  0.99999975257E+01 0.  0.
        -12    1    3    3    0    0  0.20362143308E+02 -0.11625527879E+02 -0.38462237770E+02  0.45045682510E+02  0.00000000000E+00 0.  1.
         11    1    4    4    0    0 -0.10986854587E+02  0.83418990561E+01  0.28828529070E+02  0.31959072925E+02  0.51100000000E-03 0. -1.
        -11    1    4    4    0    0 -0.26717417062E+01  0.38986988796E+00  0.45343364523E+01  0.52773487281E+01  0.51100000000E-03 0.  1.
        -12    1    4    4    0    0 -0.67035470142E+01  0.28937589346E+01  0.50993722474E+01  0.89058958371E+01  0.00000000000E+00 0.  1.
</event>
<event>
 8    1  0.7489580E-009  0.9118800E+02  0.7816164E-02  0.1184000E+00
        -11   -1    0    0    0    0  0.00000000000E+00  0.00000000000E+00  0.45593999997E+02  0.45594000000E+02  0.51100000000E-03 0. -1.
         11   -1    0    0    0    0 -0.00000000000E+00 -0.00000000000E+00 -0.45593999997E+02  0.45594000000E+02  0.51100000000E-03 0.  1.
         23    2    1    2    0    0 -0.35527136788E-14  0.00000000000E+00  0.00000000000E+00  0.91188000000E+02  0.91188000000E+02 0.  0.
    9900012    2    3    3    0    0  0.15704602056E+02  0.22207448997E+02 -0.35906937355E+02  0.46142317999E+02  0.10000002170E+02 0.  0.
         12    1    3    3    0    0 -0.15704602056E+02 -0.22207448997E+02  0.35906937355E+02  0.45045682001E+02  0.00000000000E+00 0. -1.
         11    1    4    4    0    0 -0.73580232906E+00  0.33795971480E+01 -0.61038263668E+01  0.70156809026E+01  0.51100000000E-03 0. -1.
        -11    1    4    4    0    0  0.13387001839E+02  0.17461992097E+02 -0.25667085698E+02  0.33807281387E+02  0.51100000000E-03 0.  1.
        -12    1    4    4    0    0  0.30534025461E+01  0.13658597523E+01 -0.41360252898E+01  0.53193557100E+01  0.00000000000E+00 0.  1.
</event>
<event>
 8    1  0.7489580E-009  0.9118800E+02  0.7816164E-02  0.1184000E+00
        -11   -1    0    0    0    0  0.00000000000E+00  0.00000000000E+00  0.45593999997E+02  0.45594000000E+02  0.51100000000E-03 0. -1.
         11   -1    0    0    0    0 -0.00000000000E+00 -0.00000000000E+00 -0.45593999997E+02  0.45594000000E+02  0.51100000000E-03 0.  1.
         23    2    1    2    0    0 -0.88817841970E-15  0.35527136788E-14  0.71054273576E-14  0.91188000000E+02  0.91188000000E+02 0.  0.
    9900012    2    3    3    0    0  0.61977308572E+01 -0.30723617625E+02 -0.32353684671E+02  0.46142318081E+02  0.10000002919E+02 0.  0.
         12    1    3    3    0    0 -0.61977308572E+01  0.30723617625E+02  0.32353684671E+02  0.45045681919E+02  0.00000000000E+00 0. -1.
         11    1    4    4    0    0 -0.42103501177E+00 -0.37425658035E+01 -0.78933966341E+01  0.87458435819E+01  0.51100000000E-03 0. -1.
        -11    1    4    4    0    0  0.35975859764E+01 -0.12653234271E+02 -0.15058384984E+02  0.19995047411E+02  0.51100000000E-03 0.  1.
         12    1    4    4    0    0  0.30211798925E+01 -0.14327817550E+02 -0.94019030527E+01  0.17401427088E+02  0.00000000000E+00 0. -1.
</event>
<event>
 8    1  0.7489580E-009  0.9118800E+02  0.7816164E-02  0.1184000E+00
        -11   -1    0    0    0    0  0.00000000000E+00  0.00000000000E+00  0.45593999997E+02  0.45594000000E+02  0.51100000000E-03 0. -1.
         11   -1    0    0    0    0 -0.00000000000E+00 -0.00000000000E+00 -0.45593999997E+02  0.45594000000E+02  0.51100000000E-03 0.  1.
         23    2    1    2    0    0  0.00000000000E+00 -0.17763568394E-14  0.00000000000E+00  0.91188000000E+02  0.91188000000E+02 0.  0.
    9900012    2    3    3    0    0  0.21333455162E+02  0.96207004320E+01 -0.38489468842E+02  0.46142318768E+02  0.10000009177E+02 0.  0.
         12    1    3    3    0    0 -0.21333455162E+02 -0.96207004320E+01  0.38489468842E+02  0.45045681232E+02  0.00000000000E+00 0. -1.
         11    1    4    4    0    0  0.95324130097E+01  0.71879366651E+01 -0.17448413121E+02  0.21141912212E+02  0.51100000000E-03 0. -1.
        -11    1    4    4    0    0  0.91462470028E+01 -0.18098166805E-02 -0.10845650191E+02  0.14187387562E+02  0.51100000000E-03 0.  1.
        -12    1    4    4    0    0  0.26547951496E+01  0.24345735835E+01 -0.10195405531E+02  0.10813018994E+02  0.00000000000E+00 0.  1.
</event>
<event>
 8    1  0.7489580E-009  0.9118800E+02  0.7816164E-02  0.1184000E+00
        -11   -1    0    0    0    0  0.00000000000E+00  0.00000000000E+00  0.45593999997E+02  0.45594000000E+02  0.51100000000E-03 0.  1.
         11   -1    0    0    0    0 -0.00000000000E+00 -0.00000000000E+00 -0.45593999997E+02  0.45594000000E+02  0.51100000000E-03 0. -1.
         23    2    1    2    0    0  0.00000000000E+00 -0.71054273576E-14 -0.17763568394E-14  0.91188000000E+02  0.91188000000E+02 0.  0.
    9900012    2    3    3    0    0 -0.13652931537E+02  0.42162228835E+02 -0.80658189956E+01  0.46142317455E+02  0.99999972061E+01 0.  0.
        -12    1    3    3    0    0  0.13652931537E+02 -0.42162228835E+02  0.80658189956E+01  0.45045682545E+02  0.00000000000E+00 0.  1.
         11    1    4    4    0    0 -0.16370437699E+00  0.32047073256E+01  0.54571794097E-02  0.32088904948E+01  0.51100000000E-03 0. -1.
        -11    1    4    4    0    0 -0.15953430762E+01  0.14186833675E+02 -0.56325685495E+01  0.15347221181E+02  0.51100000000E-03 0.  1.
         12    1    4    4    0    0 -0.11893884083E+02  0.24770687835E+02 -0.24387076255E+01  0.27586205779E+02  0.00000000000E+00 0. -1.
</event>
<event>
 8    1  0.7489580E-009  0.9118800E+02  0.7816164E-02  0.1184000E+00
        -11   -1    0    0    0    0  0.00000000000E+00  0.00000000000E+00  0.45593999997E+02  0.45594000000E+02  0.51100000000E-03 0.  1.
         11   -1    0    0    0    0 -0.00000000000E+00 -0.00000000000E+00 -0.45593999997E+02  0.45594000000E+02  0.51100000000E-03 0. -1.
         23    2    1    2    0    0  0.00000000000E+00  0.00000000000E+00  0.44408920985E-15  0.91188000000E+02  0.91188000000E+02 0.  0.
    9900012    2    3    3    0    0  0.24477694172E+02 -0.37667704733E+02 -0.33316634459E+01  0.46142317930E+02  0.10000001538E+02 0.  0.
        -12    1    3    3    0    0 -0.24477694172E+02  0.37667704733E+02  0.33316634459E+01  0.45045682070E+02  0.00000000000E+00 0.  1.
         11    1    4    4    0    0  0.15186644709E+02 -0.19919443625E+02 -0.35354977366E+01  0.25296603652E+02  0.51100000000E-03 0. -1.
        -11    1    4    4    0    0  0.96529715470E+01 -0.13583691161E+02  0.20147517882E+00  0.16665446822E+02  0.51100000000E-03 0.  1.
         12    1    4    4    0    0 -0.36192208337E+00 -0.41645699468E+01  0.23591118293E-02  0.41802674558E+01  0.00000000000E+00 0. -1.
</event>
<event>
 8    1  0.7489580E-009  0.9118800E+02  0.7816164E-02  0.1184000E+00
        -11   -1    0    0    0    0  0.00000000000E+00  0.00000000000E+00  0.45593999997E+02  0.45594000000E+02  0.51100000000E-03 0.  1.
         11   -1    0    0    0    0 -0.00000000000E+00 -0.00000000000E+00 -0.45593999997E+02  0.45594000000E+02  0.51100000000E-03 0. -1.
         23    2    1    2    0    0  0.00000000000E+00  0.00000000000E+00 -0.44408920985E-15  0.91188000000E+02  0.91188000000E+02 0.  0.
    9900012    2    3    3    0    0  0.31223317358E+01 -0.44846130057E+02 -0.28615682656E+01  0.46142324186E+02  0.10000058590E+02 0.  0.
        -12    1    3    3    0    0 -0.31223317358E+01  0.44846130057E+02  0.28615682656E+01  0.45045675814E+02  0.00000000000E+00 0.  1.
         11    1    4    4    0    0  0.85246134113E+00 -0.22096884510E+02 -0.38916304732E+01  0.22453146402E+02  0.51100000000E-03 0. -1.
        -11    1    4    4    0    0  0.38489856756E+01 -0.20619890534E+02  0.47899548022E+00  0.20981515991E+02  0.51100000000E-03 0.  1.
        -12    1    4    4    0    0 -0.15791152810E+01 -0.21293550139E+01  0.55106672731E+00  0.27076617928E+01  0.00000000000E+00 0.  1.
</event>
<event>
 8    1  0.7489580E-009  0.9118800E+02  0.7816164E-02  0.1184000E+00
        -11   -1    0    0    0    0  0.00000000000E+00  0.00000000000E+00  0.45593999997E+02  0.45594000000E+02  0.51100000000E-03 0. -1.
         11   -1    0    0    0    0 -0.00000000000E+00 -0.00000000000E+00 -0.45593999997E+02  0.45594000000E+02  0.51100000000E-03 0.  1.
         23    2    1    2    0    0 -0.71054273576E-14  0.22204460493E-15  0.35527136788E-14  0.91188000000E+02  0.91188000000E+02 0.  0.
    9900012    2    3    3    0    0  0.36140773516E+02 -0.12335953852E+01  0.26859564272E+02  0.46142318067E+02  0.10000002792E+02 0.  0.
        -12    1    3    3    0    0 -0.36140773516E+02  0.12335953852E+01 -0.26859564272E+02  0.45045681933E+02  0.00000000000E+00 0.  1.
         11    1    4    4    0    0  0.15154364682E+02 -0.11064308460E-01  0.12353495664E+02  0.19551566350E+02  0.51100000000E-03 0. -1.
        -11    1    4    4    0    0  0.17616649108E+02  0.18429732869E+01  0.11953145109E+02  0.21368681630E+02  0.51100000000E-03 0.  1.
         12    1    4    4    0    0  0.33697597250E+01 -0.30655043637E+01  0.25529234993E+01  0.52220700878E+01  0.00000000000E+00 0. -1.
</event>
<event>
 8    1  0.7489580E-009  0.9118800E+02  0.7816164E-02  0.1184000E+00
        -11   -1    0    0    0    0  0.00000000000E+00  0.00000000000E+00  0.45593999997E+02  0.45594000000E+02  0.51100000000E-03 0. -1.
         11   -1    0    0    0    0 -0.00000000000E+00 -0.00000000000E+00 -0.45593999997E+02  0.45594000000E+02  0.51100000000E-03 0.  1.
         23    2    1    2    0    0  0.00000000000E+00  0.00000000000E+00  0.00000000000E+00  0.91188000000E+02  0.91188000000E+02 0.  0.
    9900012    2    3    3    0    0 -0.21535903811E+02  0.38614402771E+02  0.86166268280E+01  0.46142317497E+02  0.99999975871E+01 0.  0.
        -12    1    3    3    0    0  0.21535903811E+02 -0.38614402771E+02 -0.86166268280E+01  0.45045682503E+02  0.00000000000E+00 0.  1.
         11    1    4    4    0    0 -0.34827533755E+01  0.12572555511E+02  0.56676820505E+00  0.13058328745E+02  0.51100000000E-03 0. -1.
        -11    1    4    4    0    0 -0.12959518366E+01  0.13097376220E+01  0.17735015773E+01  0.25573838013E+01  0.51100000000E-03 0.  1.
         12    1    4    4    0    0 -0.16757198599E+02  0.24732109638E+02  0.62763570456E+01  0.30526604950E+02  0.00000000000E+00 0. -1.
</event>
<event>
 8    1  0.7489580E-009  0.9118800E+02  0.7816164E-02  0.1184000E+00
        -11   -1    0    0    0    0  0.00000000000E+00  0.00000000000E+00  0.45593999997E+02  0.45594000000E+02  0.51100000000E-03 0. -1.
         11   -1    0    0    0    0 -0.00000000000E+00 -0.00000000000E+00 -0.45593999997E+02  0.45594000000E+02  0.51100000000E-03 0.  1.
         23    2    1    2    0    0  0.00000000000E+00  0.00000000000E+00  0.35527136788E-14  0.91188000000E+02  0.91188000000E+02 0.  0.
    9900012    2    3    3    0    0 -0.32851782958E+02 -0.22403153428E+02 -0.21165366524E+02  0.46142315777E+02  0.99999819061E+01 0.  0.
         12    1    3    3    0    0  0.32851782958E+02  0.22403153428E+02  0.21165366524E+02  0.45045684223E+02  0.00000000000E+00 0. -1.
         11    1    4    4    0    0 -0.22845088207E+02 -0.18085396516E+02 -0.12239890464E+02  0.31603710876E+02  0.51100000000E-03 0. -1.
        -11    1    4    4    0    0 -0.29467618082E+01 -0.30398988148E+01 -0.25621494209E+01  0.49486361631E+01  0.51100000000E-03 0.  1.
         12    1    4    4    0    0 -0.70599329430E+01 -0.12778580979E+01 -0.63633266392E+01  0.95899687379E+01  0.00000000000E+00 0. -1.
</event>
<event>
 8    1  0.7489580E-009  0.9118800E+02  0.7816164E-02  0.1184000E+00
        -11   -1    0    0    0    0  0.00000000000E+00  0.00000000000E+00  0.45593999997E+02  0.45594000000E+02  0.51100000000E-03 0. -1.
         11   -1    0    0    0    0 -0.00000000000E+00 -0.00000000000E+00 -0.45593999997E+02  0.45594000000E+02  0.51100000000E-03 0.  1.
         23    2    1    2    0    0  0.00000000000E+00  0.22204460493E-15  0.00000000000E+00  0.91188000000E+02  0.91188000000E+02 0.  0.
    9900012    2    3    3    0    0  0.29280129363E+02 -0.78804601769E+00 -0.34222310076E+02  0.46142317643E+02  0.99999989268E+01 0.  0.
         12    1    3    3    0    0 -0.29280129363E+02  0.78804601769E+00  0.34222310076E+02  0.45045682357E+02  0.00000000000E+00 0. -1.
         11    1    4    4    0    0  0.94986220472E+01 -0.19933800677E+01 -0.54364384268E+01  0.11124398767E+02  0.51100000000E-03 0. -1.
        -11    1    4    4    0    0  0.12060977666E+02  0.61261184382E+00 -0.15623011402E+02  0.19746416411E+02  0.51100000000E-03 0.  1.
         12    1    4    4    0    0  0.77205296490E+01  0.59272220615E+00 -0.13162860248E+02  0.15271502466E+02  0.00000000000E+00 0. -1.
</event>
<event>
 8    1  0.7489580E-009  0.9118800E+02  0.7816164E-02  0.1184000E+00
        -11   -1    0    0    0    0  0.00000000000E+00  0.00000000000E+00  0.45593999997E+02  0.45594000000E+02  0.51100000000E-03 0. -1.
         11   -1    0    0    0    0 -0.00000000000E+00 -0.00000000000E+00 -0.45593999997E+02  0.45594000000E+02  0.51100000000E-03 0.  1.
         23    2    1    2    0    0  0.00000000000E+00  0.00000000000E+00  0.00000000000E+00  0.91188000000E+02  0.91188000000E+02 0.  0.
    9900012    2    3    3    0    0  0.22180312314E+02 -0.25911052779E+02 -0.29423877621E+02  0.46142317802E+02  0.10000000371E+02 0.  0.
         12    1    3    3    0    0 -0.22180312314E+02  0.25911052779E+02  0.29423877621E+02  0.45045682198E+02  0.00000000000E+00 0. -1.
         11    1    4    4    0    0  0.76056207285E+01 -0.48209422967E+01 -0.40010199254E+01  0.98536851989E+01  0.51100000000E-03 0. -1.
        -11    1    4    4    0    0  0.48100343892E+01 -0.73317975155E+01 -0.11184706732E+02  0.14212295753E+02  0.51100000000E-03 0.  1.
         12    1    4    4    0    0  0.97646571967E+01 -0.13758312966E+02 -0.14238150963E+02  0.22076336850E+02  0.00000000000E+00 0. -1.
</event>
<event>
 8    1  0.7489580E-009  0.9118800E+02  0.7816164E-02  0.1184000E+00
        -11   -1    0    0    0    0  0.00000000000E+00  0.00000000000E+00  0.45593999997E+02  0.45594000000E+02  0.51100000000E-03 0.  1.
         11   -1    0    0    0    0 -0.00000000000E+00 -0.00000000000E+00 -0.45593999997E+02  0.45594000000E+02  0.51100000000E-03 0. -1.
         23    2    1    2    0    0  0.11102230246E-15  0.71054273576E-14 -0.35527136788E-14  0.91188000000E+02  0.91188000000E+02 0.  0.
    9900012    2    3    3    0    0  0.81335422094E+00 -0.39989507543E+02  0.20719342546E+02  0.46142318585E+02  0.10000007514E+02 0.  0.
        -12    1    3    3    0    0 -0.81335422094E+00  0.39989507543E+02 -0.20719342546E+02  0.45045681415E+02  0.00000000000E+00 0.  1.
         11    1    4    4    0    0  0.27092201005E+01 -0.29113890255E+02  0.11003913637E+02  0.31241712420E+02  0.51100000000E-03 0. -1.
        -11    1    4    4    0    0 -0.10499223192E+01 -0.12963273446E+01  0.11903363174E+01  0.20493175133E+01  0.51100000000E-03 0.  1.
         12    1    4    4    0    0 -0.84594356032E+00 -0.95792899430E+01  0.85250925912E+01  0.12851288652E+02  0.00000000000E+00 0. -1.
</event>
<event>
 8    1  0.7489580E-009  0.9118800E+02  0.7816164E-02  0.1184000E+00
        -11   -1    0    0    0    0  0.00000000000E+00  0.00000000000E+00  0.45593999997E+02  0.45594000000E+02  0.51100000000E-03 0. -1.
         11   -1    0    0    0    0 -0.00000000000E+00 -0.00000000000E+00 -0.45593999997E+02  0.45594000000E+02  0.51100000000E-03 0.  1.
         23    2    1    2    0    0  0.00000000000E+00 -0.35527136788E-14 -0.88817841970E-15  0.91188000000E+02  0.91188000000E+02 0.  0.
    9900012    2    3    3    0    0 -0.40330580582E+02 -0.19548929122E+02 -0.45163206824E+01  0.46142317494E+02  0.99999975647E+01 0.  0.
         12    1    3    3    0    0  0.40330580582E+02  0.19548929122E+02  0.45163206824E+01  0.45045682506E+02  0.00000000000E+00 0. -1.
         11    1    4    4    0    0 -0.20268795177E+02 -0.10345732103E+02 -0.18529770238E+01  0.22831814531E+02  0.51100000000E-03 0. -1.
        -11    1    4    4    0    0 -0.17446456722E+02 -0.74420051839E+01 -0.47201602945E+01  0.19545899999E+02  0.51100000000E-03 0.  1.
         12    1    4    4    0    0 -0.26153286836E+01 -0.17611918346E+01  0.20568166359E+01  0.37646029638E+01  0.00000000000E+00 0. -1.
</event>
<event>
 8    1  0.1105842E-008  0.9118800E+02  0.7816164E-02  0.1184000E+00
        -11   -1    0    0    0    0  0.00000000000E+00  0.00000000000E+00  0.45593999997E+02  0.45594000000E+02  0.51100000000E-03 0. -1.
         11   -1    0    0    0    0 -0.00000000000E+00 -0.00000000000E+00 -0.45593999997E+02  0.45594000000E+02  0.51100000000E-03 0.  1.
         23    2    1    2    0    0  0.00000000000E+00  0.35527136788E-14  0.35527136788E-14  0.91188000000E+02  0.91188000000E+02 0.  0.
    9900012    2    3    3    0    0 -0.30970575432E+02 -0.24591722471E+02 -0.21568128583E+02  0.46142317329E+02  0.99999960607E+01 0.  0.
         12    1    3    3    0    0  0.30970575432E+02  0.24591722471E+02  0.21568128583E+02  0.45045682671E+02  0.00000000000E+00 0. -1.
         11    1    4    4    0    0 -0.93490575355E+01 -0.62058337385E+01 -0.50646792849E+01  0.12311304793E+02  0.51100000000E-03 0.  1.
        -11    1    4    4    0    0 -0.20373814927E+02 -0.14121930191E+02 -0.15622957094E+02  0.29301843554E+02  0.51100000000E-03 0. -1.
         12    1    4    4    0    0 -0.12477029692E+01 -0.42639585421E+01 -0.88049220404E+00  0.45291689822E+01  0.00000000000E+00 0. -1.
</event>
<event>
 8    1  0.7489580E-009  0.9118800E+02  0.7816164E-02  0.1184000E+00
        -11   -1    0    0    0    0  0.00000000000E+00  0.00000000000E+00  0.45593999997E+02  0.45594000000E+02  0.51100000000E-03 0. -1.
         11   -1    0    0    0    0 -0.00000000000E+00 -0.00000000000E+00 -0.45593999997E+02  0.45594000000E+02  0.51100000000E-03 0.  1.
         23    2    1    2    0    0 -0.17763568394E-14  0.17763568394E-14 -0.71054273576E-14  0.91188000000E+02  0.91188000000E+02 0.  0.
    9900012    2    3    3    0    0  0.15294180239E+02 -0.15908447707E+02  0.39269876944E+02  0.46142313272E+02  0.99999590616E+01 0.  0.
        -12    1    3    3    0    0 -0.15294180239E+02  0.15908447707E+02 -0.39269876944E+02  0.45045686728E+02  0.00000000000E+00 0.  1.
         11    1    4    4    0    0  0.60572863421E+01 -0.81761800489E+01  0.20784804769E+02  0.23141926186E+02  0.51100000000E-03 0. -1.
        -11    1    4    4    0    0  0.18521610921E+01 -0.48736469776E+01  0.10664885209E+02  0.11871087244E+02  0.51100000000E-03 0.  1.
         12    1    4    4    0    0  0.73847328051E+01 -0.28586206808E+01  0.78201869657E+01  0.11129299842E+02  0.00000000000E+00 0. -1.
</event>
<event>
 8    1  0.7489580E-009  0.9118800E+02  0.7816164E-02  0.1184000E+00
        -11   -1    0    0    0    0  0.00000000000E+00  0.00000000000E+00  0.45593999997E+02  0.45594000000E+02  0.51100000000E-03 0. -1.
         11   -1    0    0    0    0 -0.00000000000E+00 -0.00000000000E+00 -0.45593999997E+02  0.45594000000E+02  0.51100000000E-03 0.  1.
         23    2    1    2    0    0  0.00000000000E+00  0.00000000000E+00 -0.71054273576E-14  0.91188000000E+02  0.91188000000E+02 0.  0.
    9900012    2    3    3    0    0  0.10640922794E+02 -0.79156882650E+01  0.43049113427E+02  0.46142317349E+02  0.99999962421E+01 0.  0.
        -12    1    3    3    0    0 -0.10640922794E+02  0.79156882650E+01 -0.43049113427E+02  0.45045682651E+02  0.00000000000E+00 0.  1.
         11    1    4    4    0    0  0.69513193811E+01 -0.66241651794E+01  0.30595317320E+02  0.32066709336E+02  0.51100000000E-03 0. -1.
        -11    1    4    4    0    0  0.75108631790E+00 -0.18965442366E+01  0.99821873120E+01  0.10188477536E+02  0.51100000000E-03 0.  1.
        -12    1    4    4    0    0  0.29385170954E+01  0.60502115099E+00  0.24716087952E+01  0.38871304775E+01  0.00000000000E+00 0.  1.
</event>
<event>
 8    1  0.7489580E-009  0.9118800E+02  0.7816164E-02  0.1184000E+00
        -11   -1    0    0    0    0  0.00000000000E+00  0.00000000000E+00  0.45593999997E+02  0.45594000000E+02  0.51100000000E-03 0. -1.
         11   -1    0    0    0    0 -0.00000000000E+00 -0.00000000000E+00 -0.45593999997E+02  0.45594000000E+02  0.51100000000E-03 0.  1.
         23    2    1    2    0    0  0.00000000000E+00  0.71054273576E-14  0.00000000000E+00  0.91188000000E+02  0.91188000000E+02 0.  0.
    9900012    2    3    3    0    0  0.26130732628E+02 -0.35682757883E+02 -0.85462859292E+01  0.46142318731E+02  0.10000008847E+02 0.  0.
         12    1    3    3    0    0 -0.26130732628E+02  0.35682757883E+02  0.85462859292E+01  0.45045681269E+02  0.00000000000E+00 0. -1.
         11    1    4    4    0    0  0.20913151217E+02 -0.25707522009E+02 -0.76178001407E+01  0.34003933021E+02  0.51100000000E-03 0. -1.
        -11    1    4    4    0    0  0.44844784851E+01 -0.93352519756E+01 -0.21492748332E+01  0.10577185793E+02  0.51100000000E-03 0.  1.
         12    1    4    4    0    0  0.73310292500E+00 -0.63998389857E+00  0.12207890446E+01  0.15611999169E+01  0.00000000000E+00 0. -1.
</event>
<event>
 8    1  0.7489580E-009  0.9118800E+02  0.7816164E-02  0.1184000E+00
        -11   -1    0    0    0    0  0.00000000000E+00  0.00000000000E+00  0.45593999997E+02  0.45594000000E+02  0.51100000000E-03 0. -1.
         11   -1    0    0    0    0 -0.00000000000E+00 -0.00000000000E+00 -0.45593999997E+02  0.45594000000E+02  0.51100000000E-03 0.  1.
         23    2    1    2    0    0  0.22204460493E-15 -0.17763568394E-14 -0.71054273576E-14  0.91188000000E+02  0.91188000000E+02 0.  0.
    9900012    2    3    3    0    0  0.16580179094E+01  0.96117006458E+01  0.43977035524E+02  0.46142318008E+02  0.10000002250E+02 0.  0.
        -12    1    3    3    0    0 -0.16580179094E+01 -0.96117006458E+01 -0.43977035524E+02  0.45045681992E+02  0.00000000000E+00 0.  1.
         11    1    4    4    0    0 -0.10245630280E+00 -0.13770875452E+00  0.12288922256E+01  0.12408212435E+01  0.51100000000E-03 0. -1.
        -11    1    4    4    0    0  0.28439035779E+01 -0.63794461263E+00  0.55979883228E+01  0.63112783501E+01  0.51100000000E-03 0.  1.
         12    1    4    4    0    0 -0.10834293657E+01  0.10387354013E+02  0.37150154975E+02  0.38590218414E+02  0.00000000000E+00 0. -1.
</event>
<event>
 8    1  0.7489580E-009  0.9118800E+02  0.7816164E-02  0.1184000E+00
        -11   -1    0    0    0    0  0.00000000000E+00  0.00000000000E+00  0.45593999997E+02  0.45594000000E+02  0.51100000000E-03 0. -1.
         11   -1    0    0    0    0 -0.00000000000E+00 -0.00000000000E+00 -0.45593999997E+02  0.45594000000E+02  0.51100000000E-03 0.  1.
         23    2    1    2    0    0  0.00000000000E+00 -0.35527136788E-14  0.00000000000E+00  0.91188000000E+02  0.91188000000E+02 0.  0.
    9900012    2    3    3    0    0 -0.10850414225E+02  0.24912299841E+02 -0.35927139750E+02  0.46142317157E+02  0.99999944880E+01 0.  0.
         12    1    3    3    0    0  0.10850414225E+02 -0.24912299841E+02  0.35927139750E+02  0.45045682843E+02  0.00000000000E+00 0. -1.
         11    1    4    4    0    0 -0.38759897884E+01  0.37199342773E+01 -0.78744183820E+01  0.95324536706E+01  0.51100000000E-03 0. -1.
        -11    1    4    4    0    0 -0.59594351260E+01  0.69949551061E+01 -0.93852695710E+01  0.13134974272E+02  0.51100000000E-03 0.  1.
         12    1    4    4    0    0 -0.10149893107E+01  0.14197410458E+02 -0.18667451797E+02  0.23474889214E+02  0.00000000000E+00 0. -1.
</event>
<event>
 8    1  0.7489580E-009  0.9118800E+02  0.7816164E-02  0.1184000E+00
        -11   -1    0    0    0    0  0.00000000000E+00  0.00000000000E+00  0.45593999997E+02  0.45594000000E+02  0.51100000000E-03 0. -1.
         11   -1    0    0    0    0 -0.00000000000E+00 -0.00000000000E+00 -0.45593999997E+02  0.45594000000E+02  0.51100000000E-03 0.  1.
         23    2    1    2    0    0  0.88817841970E-15 -0.71054273576E-14 -0.35527136788E-14  0.91188000000E+02  0.91188000000E+02 0.  0.
    9900012    2    3    3    0    0 -0.70958240727E+01 -0.39849672303E+02 -0.19767813960E+02  0.46142316847E+02  0.99999916651E+01 0.  0.
         12    1    3    3    0    0  0.70958240727E+01  0.39849672303E+02  0.19767813960E+02  0.45045683153E+02  0.00000000000E+00 0. -1.
         11    1    4    4    0    0 -0.38674770390E+00 -0.96156823935E+01 -0.93174060705E+01  0.13394960912E+02  0.51100000000E-03 0. -1.
        -11    1    4    4    0    0 -0.24979025907E+01 -0.83296373733E+01 -0.36200587548E+01  0.94195117587E+01  0.51100000000E-03 0.  1.
         12    1    4    4    0    0 -0.42111737781E+01 -0.21904352536E+02 -0.68303491349E+01  0.23327844177E+02  0.00000000000E+00 0. -1.
</event>
<event>
 8    1  0.7489580E-009  0.9118800E+02  0.7816164E-02  0.1184000E+00
        -11   -1    0    0    0    0  0.00000000000E+00  0.00000000000E+00  0.45593999997E+02  0.45594000000E+02  0.51100000000E-03 0. -1.
         11   -1    0    0    0    0 -0.00000000000E+00 -0.00000000000E+00 -0.45593999997E+02  0.45594000000E+02  0.51100000000E-03 0.  1.
         23    2    1    2    0    0 -0.22204460493E-15  0.00000000000E+00  0.71054273576E-14  0.91188000000E+02  0.91188000000E+02 0.  0.
    9900012    2    3    3    0    0 -0.12668892028E+01  0.28235804571E+02  0.35074888531E+02  0.46142317927E+02  0.10000001510E+02 0.  0.
        -12    1    3    3    0    0  0.12668892028E+01 -0.28235804571E+02 -0.35074888531E+02  0.45045682073E+02  0.00000000000E+00 0.  1.
         11    1    4    4    0    0  0.11965153853E+01  0.81669612666E+01  0.79084830479E+01  0.11431317062E+02  0.51100000000E-03 0. -1.
        -11    1    4    4    0    0  0.59163218337E+00  0.13610461873E+02  0.22066237067E+02  0.25932865627E+02  0.51100000000E-03 0.  1.
         12    1    4    4    0    0 -0.30550367715E+01  0.64583814313E+01  0.51001684153E+01  0.87781352378E+01  0.00000000000E+00 0. -1.
</event>
<event>
 8    1  0.7489580E-009  0.9118800E+02  0.7816164E-02  0.1184000E+00
        -11   -1    0    0    0    0  0.00000000000E+00  0.00000000000E+00  0.45593999997E+02  0.45594000000E+02  0.51100000000E-03 0. -1.
         11   -1    0    0    0    0 -0.00000000000E+00 -0.00000000000E+00 -0.45593999997E+02  0.45594000000E+02  0.51100000000E-03 0.  1.
         23    2    1    2    0    0 -0.35527136788E-14  0.14210854715E-13 -0.35527136788E-14  0.91188000000E+02  0.91188000000E+02 0.  0.
    9900012    2    3    3    0    0  0.18090091330E+02 -0.34215769873E+02  0.23046542153E+02  0.46142318547E+02  0.10000007170E+02 0.  0.
        -12    1    3    3    0    0 -0.18090091330E+02  0.34215769873E+02 -0.23046542153E+02  0.45045681453E+02  0.00000000000E+00 0.  1.
         11    1    4    4    0    0  0.15448778724E+02 -0.29085908736E+02  0.17499456819E+02  0.37294581916E+02  0.51100000000E-03 0. -1.
        -11    1    4    4    0    0  0.34244686209E+00  0.52049972447E+00  0.31563354682E-01  0.62384799672E+00  0.51100000000E-03 0.  1.
        -12    1    4    4    0    0  0.22988657437E+01 -0.56503608617E+01  0.55155219791E+01  0.82238886348E+01  0.00000000000E+00 0.  1.
</event>
<event>
 8    1  0.7489580E-009  0.9118800E+02  0.7816164E-02  0.1184000E+00
        -11   -1    0    0    0    0  0.00000000000E+00  0.00000000000E+00  0.45593999997E+02  0.45594000000E+02  0.51100000000E-03 0. -1.
         11   -1    0    0    0    0 -0.00000000000E+00 -0.00000000000E+00 -0.45593999997E+02  0.45594000000E+02  0.51100000000E-03 0.  1.
         23    2    1    2    0    0  0.00000000000E+00 -0.17763568394E-14  0.00000000000E+00  0.91188000000E+02  0.91188000000E+02 0.  0.
    9900012    2    3    3    0    0  0.19651330858E+02  0.14526292279E+02 -0.37840791411E+02  0.46142318004E+02  0.10000002218E+02 0.  0.
         12    1    3    3    0    0 -0.19651330858E+02 -0.14526292279E+02  0.37840791411E+02  0.45045681996E+02  0.00000000000E+00 0. -1.
         11    1    4    4    0    0  0.56528145172E+01  0.23763810846E+01 -0.15899200965E+02  0.17040718607E+02  0.51100000000E-03 0. -1.
        -11    1    4    4    0    0  0.39624289837E+01  0.49771749068E+01 -0.47376142052E+01  0.79320931741E+01  0.51100000000E-03 0.  1.
         12    1    4    4    0    0  0.10036087357E+02  0.71727362872E+01 -0.17203976240E+02  0.21169506224E+02  0.00000000000E+00 0. -1.
</event>
<event>
 8    1  0.7489580E-009  0.9118800E+02  0.7816164E-02  0.1184000E+00
        -11   -1    0    0    0    0  0.00000000000E+00  0.00000000000E+00  0.45593999997E+02  0.45594000000E+02  0.51100000000E-03 0. -1.
         11   -1    0    0    0    0 -0.00000000000E+00 -0.00000000000E+00 -0.45593999997E+02  0.45594000000E+02  0.51100000000E-03 0.  1.
         23    2    1    2    0    0  0.71054273576E-14 -0.71054273576E-14  0.14210854715E-13  0.91188000000E+02  0.91188000000E+02 0.  0.
    9900012    2    3    3    0    0  0.21454710434E+02 -0.18713088861E+02  0.34908868999E+02  0.46142318416E+02  0.10000005975E+02 0.  0.
        -12    1    3    3    0    0 -0.21454710434E+02  0.18713088861E+02 -0.34908868999E+02  0.45045681584E+02  0.00000000000E+00 0.  1.
         11    1    4    4    0    0  0.18776677159E+01 -0.90086667526E+00  0.11688980967E+01  0.23882043128E+01  0.51100000000E-03 0. -1.
        -11    1    4    4    0    0 -0.18987918028E+00 -0.72244277591E+00 -0.33071165383E+00  0.81691378166E+00  0.51100000000E-03 0.  1.
         12    1    4    4    0    0  0.19766921898E+02 -0.17089779410E+02  0.34070682557E+02  0.42937200322E+02  0.00000000000E+00 0. -1.
</event>
<event>
 8    1  0.7489580E-009  0.9118800E+02  0.7816164E-02  0.1184000E+00
        -11   -1    0    0    0    0  0.00000000000E+00  0.00000000000E+00  0.45593999997E+02  0.45594000000E+02  0.51100000000E-03 0. -1.
         11   -1    0    0    0    0 -0.00000000000E+00 -0.00000000000E+00 -0.45593999997E+02  0.45594000000E+02  0.51100000000E-03 0.  1.
         23    2    1    2    0    0  0.00000000000E+00 -0.35527136788E-14  0.00000000000E+00  0.91188000000E+02  0.91188000000E+02 0.  0.
    9900012    2    3    3    0    0 -0.33751361928E+02 -0.95920834719E+01  0.28248026060E+02  0.46142317925E+02  0.10000001491E+02 0.  0.
        -12    1    3    3    0    0  0.33751361928E+02  0.95920834719E+01 -0.28248026060E+02  0.45045682075E+02  0.00000000000E+00 0.  1.
         11    1    4    4    0    0 -0.64554516619E+01  0.34803459812E+00  0.56041784275E+01  0.85557466272E+01  0.51100000000E-03 0. -1.
        -11    1    4    4    0    0 -0.21642433574E+02 -0.91700885572E+01  0.14414956103E+02  0.27573110359E+02  0.51100000000E-03 0.  1.
         12    1    4    4    0    0 -0.56534766926E+01 -0.77002951282E+00  0.82288915298E+01  0.10013460939E+02  0.00000000000E+00 0. -1.
</event>
<event>
 8    1  0.7489580E-009  0.9118800E+02  0.7816164E-02  0.1184000E+00
        -11   -1    0    0    0    0  0.00000000000E+00  0.00000000000E+00  0.45593999997E+02  0.45594000000E+02  0.51100000000E-03 0. -1.
         11   -1    0    0    0    0 -0.00000000000E+00 -0.00000000000E+00 -0.45593999997E+02  0.45594000000E+02  0.51100000000E-03 0.  1.
         23    2    1    2    0    0  0.35527136788E-14  0.00000000000E+00  0.35527136788E-14  0.91188000000E+02  0.91188000000E+02 0.  0.
    9900012    2    3    3    0    0 -0.27362284623E+02 -0.20845381903E+02 -0.29084169600E+02  0.46142317767E+02  0.10000000057E+02 0.  0.
         12    1    3    3    0    0  0.27362284623E+02  0.20845381903E+02  0.29084169600E+02  0.45045682233E+02  0.00000000000E+00 0. -1.
         11    1    4    4    0    0 -0.29407080198E+01 -0.24273962052E+01 -0.53237927615E+00  0.38501225889E+01  0.51100000000E-03 0. -1.
        -11    1    4    4    0    0 -0.22644022817E+02 -0.17598532950E+02 -0.24215680225E+02  0.37534774548E+02  0.51100000000E-03 0.  1.
         12    1    4    4    0    0 -0.17775537867E+01 -0.81945274774E+00 -0.43361100985E+01  0.47574206306E+01  0.00000000000E+00 0. -1.
</event>
<event>
 8    1  0.7489580E-009  0.9118800E+02  0.7816164E-02  0.1184000E+00
        -11   -1    0    0    0    0  0.00000000000E+00  0.00000000000E+00  0.45593999997E+02  0.45594000000E+02  0.51100000000E-03 0. -1.
         11   -1    0    0    0    0 -0.00000000000E+00 -0.00000000000E+00 -0.45593999997E+02  0.45594000000E+02  0.51100000000E-03 0.  1.
         23    2    1    2    0    0 -0.88817841970E-15  0.00000000000E+00  0.00000000000E+00  0.91188000000E+02  0.91188000000E+02 0.  0.
    9900012    2    3    3    0    0  0.69930148354E+01  0.35564604928E+02 -0.26746402780E+02  0.46142318277E+02  0.10000004706E+02 0.  0.
         12    1    3    3    0    0 -0.69930148354E+01 -0.35564604928E+02  0.26746402780E+02  0.45045681723E+02  0.00000000000E+00 0. -1.
         11    1    4    4    0    0  0.40272504696E+01  0.14714754028E+02 -0.80314544318E+01  0.17240852444E+02  0.51100000000E-03 0. -1.
        -11    1    4    4    0    0 -0.28924173753E+00  0.12642905327E+02 -0.77820525443E+01  0.14848806617E+02  0.51100000000E-03 0.  1.
        -12    1    4    4    0    0  0.32550061034E+01  0.82069455738E+01 -0.10932895804E+02  0.14052659216E+02  0.00000000000E+00 0.  1.
</event>
<event>
 8    1  0.7489580E-009  0.9118800E+02  0.7816164E-02  0.1184000E+00
        -11   -1    0    0    0    0  0.00000000000E+00  0.00000000000E+00  0.45593999997E+02  0.45594000000E+02  0.51100000000E-03 0. -1.
         11   -1    0    0    0    0 -0.00000000000E+00 -0.00000000000E+00 -0.45593999997E+02  0.45594000000E+02  0.51100000000E-03 0.  1.
         23    2    1    2    0    0  0.35527136788E-14 -0.35527136788E-14  0.00000000000E+00  0.91188000000E+02  0.91188000000E+02 0.  0.
    9900012    2    3    3    0    0 -0.16693425329E+02  0.27584139362E+02  0.31457245191E+02  0.46142317981E+02  0.10000002009E+02 0.  0.
        -12    1    3    3    0    0  0.16693425329E+02 -0.27584139362E+02 -0.31457245191E+02  0.45045682019E+02  0.00000000000E+00 0.  1.
         11    1    4    4    0    0 -0.14363723527E+02  0.23251691161E+02  0.23630363010E+02  0.36129651973E+02  0.51100000000E-03 0. -1.
        -11    1    4    4    0    0 -0.82906315383E+00  0.28986805344E+01  0.72600580559E+01  0.78611791602E+01  0.51100000000E-03 0.  1.
        -12    1    4    4    0    0 -0.15006386475E+01  0.14337676661E+01  0.56682412513E+00  0.21514868486E+01  0.00000000000E+00 0.  1.
</event>
<event>
 8    1  0.7489580E-009  0.9118800E+02  0.7816164E-02  0.1184000E+00
        -11   -1    0    0    0    0  0.00000000000E+00  0.00000000000E+00  0.45593999997E+02  0.45594000000E+02  0.51100000000E-03 0.  1.
         11   -1    0    0    0    0 -0.00000000000E+00 -0.00000000000E+00 -0.45593999997E+02  0.45594000000E+02  0.51100000000E-03 0. -1.
         23    2    1    2    0    0  0.00000000000E+00  0.35527136788E-14  0.00000000000E+00  0.91188000000E+02  0.91188000000E+02 0.  0.
    9900012    2    3    3    0    0  0.37528906252E+02 -0.16670457095E+02  0.18514605899E+02  0.46142316791E+02  0.99999911495E+01 0.  0.
        -12    1    3    3    0    0 -0.37528906252E+02  0.16670457095E+02 -0.18514605899E+02  0.45045683209E+02  0.00000000000E+00 0.  1.
         11    1    4    4    0    0  0.11728014985E+02 -0.55770426790E+01  0.95714067606E+01  0.16132624343E+02  0.51100000000E-03 0. -1.
        -11    1    4    4    0    0  0.90079295191E+01 -0.12304135935E+01  0.18148502075E+01  0.92709434994E+01  0.51100000000E-03 0.  1.
        -12    1    4    4    0    0  0.16792961747E+02 -0.98630008225E+01  0.71283489311E+01  0.20738748949E+02  0.00000000000E+00 0.  1.
</event>
<event>
 8    1  0.7489580E-009  0.9118800E+02  0.7816164E-02  0.1184000E+00
        -11   -1    0    0    0    0  0.00000000000E+00  0.00000000000E+00  0.45593999997E+02  0.45594000000E+02  0.51100000000E-03 0. -1.
         11   -1    0    0    0    0 -0.00000000000E+00 -0.00000000000E+00 -0.45593999997E+02  0.45594000000E+02  0.51100000000E-03 0.  1.
         23    2    1    2    0    0  0.88817841970E-15 -0.22204460493E-15  0.00000000000E+00  0.91188000000E+02  0.91188000000E+02 0.  0.
    9900012    2    3    3    0    0 -0.61341457277E+01  0.13768727116E+01 -0.44604822800E+02  0.46142314976E+02  0.99999746024E+01 0.  0.
         12    1    3    3    0    0  0.61341457277E+01 -0.13768727116E+01  0.44604822800E+02  0.45045685024E+02  0.00000000000E+00 0. -1.
         11    1    4    4    0    0 -0.93896920565E+00  0.59543429867E-01 -0.50253598585E+00  0.10666542399E+01  0.51100000000E-03 0. -1.
        -11    1    4    4    0    0 -0.18068959611E+01  0.31913915636E+01 -0.34896974794E+02  0.35089153639E+02  0.51100000000E-03 0.  1.
        -12    1    4    4    0    0 -0.33882805609E+01 -0.18740622819E+01 -0.92053120205E+01  0.99865070967E+01  0.00000000000E+00 0.  1.
</event>
<event>
 8    1  0.7489580E-009  0.9118800E+02  0.7816164E-02  0.1184000E+00
        -11   -1    0    0    0    0  0.00000000000E+00  0.00000000000E+00  0.45593999997E+02  0.45594000000E+02  0.51100000000E-03 0. -1.
         11   -1    0    0    0    0 -0.00000000000E+00 -0.00000000000E+00 -0.45593999997E+02  0.45594000000E+02  0.51100000000E-03 0.  1.
         23    2    1    2    0    0  0.00000000000E+00 -0.35527136788E-14 -0.71054273576E-14  0.91188000000E+02  0.91188000000E+02 0.  0.
    9900012    2    3    3    0    0  0.27820093486E+01 -0.30978704280E+02 -0.32583643536E+02  0.46142317399E+02  0.99999967016E+01 0.  0.
         12    1    3    3    0    0 -0.27820093486E+01  0.30978704280E+02  0.32583643536E+02  0.45045682601E+02  0.00000000000E+00 0. -1.
         11    1    4    4    0    0  0.48742486450E+01 -0.20601879301E+02 -0.23668722456E+02  0.31755379914E+02  0.51100000000E-03 0. -1.
        -11    1    4    4    0    0  0.18755822389E+00 -0.33214707451E+01 -0.85407893414E+00  0.34346465734E+01  0.51100000000E-03 0.  1.
         12    1    4    4    0    0 -0.22797975203E+01 -0.70553542342E+01 -0.80608421462E+01  0.10952290911E+02  0.00000000000E+00 0. -1.
</event>
<event>
 8    1  0.7489580E-009  0.9118800E+02  0.7816164E-02  0.1184000E+00
        -11   -1    0    0    0    0  0.00000000000E+00  0.00000000000E+00  0.45593999997E+02  0.45594000000E+02  0.51100000000E-03 0. -1.
         11   -1    0    0    0    0 -0.00000000000E+00 -0.00000000000E+00 -0.45593999997E+02  0.45594000000E+02  0.51100000000E-03 0.  1.
         23    2    1    2    0    0  0.00000000000E+00  0.00000000000E+00  0.00000000000E+00  0.91188000000E+02  0.91188000000E+02 0.  0.
    9900012    2    3    3    0    0  0.32308329338E+01  0.14693148508E+02 -0.42459234530E+02  0.46142317728E+02  0.99999996949E+01 0.  0.
         12    1    3    3    0    0 -0.32308329338E+01 -0.14693148508E+02  0.42459234530E+02  0.45045682272E+02  0.00000000000E+00 0. -1.
         11    1    4    4    0    0  0.16843355152E+01  0.67532874877E+00 -0.49303291994E+01  0.52536845473E+01  0.51100000000E-03 0. -1.
        -11    1    4    4    0    0  0.17366859494E+00  0.12673791533E+02 -0.36642534693E+02  0.38772806212E+02  0.51100000000E-03 0.  1.
        -12    1    4    4    0    0  0.13728288237E+01  0.13440282261E+01 -0.88637063769E+00  0.21158269681E+01  0.00000000000E+00 0.  1.
</event>
<event>
 8    1  0.7489580E-009  0.9118800E+02  0.7816164E-02  0.1184000E+00
        -11   -1    0    0    0    0  0.00000000000E+00  0.00000000000E+00  0.45593999997E+02  0.45594000000E+02  0.51100000000E-03 0. -1.
         11   -1    0    0    0    0 -0.00000000000E+00 -0.00000000000E+00 -0.45593999997E+02  0.45594000000E+02  0.51100000000E-03 0.  1.
         23    2    1    2    0    0  0.00000000000E+00  0.88817841970E-15  0.00000000000E+00  0.91188000000E+02  0.91188000000E+02 0.  0.
    9900012    2    3    3    0    0 -0.26409181436E+02  0.79915880284E+01  0.35606219745E+02  0.46142320653E+02  0.10000026367E+02 0.  0.
        -12    1    3    3    0    0  0.26409181436E+02 -0.79915880284E+01 -0.35606219745E+02  0.45045679347E+02  0.00000000000E+00 0.  1.
         11    1    4    4    0    0 -0.72928008679E+01  0.33954511758E+01  0.60462412068E+01  0.10063352631E+02  0.51100000000E-03 0. -1.
        -11    1    4    4    0    0 -0.31610832847E+00  0.65354365372E+00 -0.10922993887E+00  0.73414931949E+00  0.51100000000E-03 0.  1.
         12    1    4    4    0    0 -0.18800272239E+02  0.39425931989E+01  0.29669208477E+02  0.35344818702E+02  0.00000000000E+00 0. -1.
</event>
<event>
 8    1  0.7489580E-009  0.9118800E+02  0.7816164E-02  0.1184000E+00
        -11   -1    0    0    0    0  0.00000000000E+00  0.00000000000E+00  0.45593999997E+02  0.45594000000E+02  0.51100000000E-03 0.  1.
         11   -1    0    0    0    0 -0.00000000000E+00 -0.00000000000E+00 -0.45593999997E+02  0.45594000000E+02  0.51100000000E-03 0. -1.
         23    2    1    2    0    0  0.00000000000E+00  0.00000000000E+00  0.00000000000E+00  0.91188000000E+02  0.91188000000E+02 0.  0.
    9900012    2    3    3    0    0  0.61039034806E+01  0.28472443034E+02  0.34368240386E+02  0.46142316552E+02  0.99999889777E+01 0.  0.
        -12    1    3    3    0    0 -0.61039034806E+01 -0.28472443034E+02 -0.34368240386E+02  0.45045683448E+02  0.00000000000E+00 0.  1.
         11    1    4    4    0    0  0.46071069061E+01  0.92499019775E+01  0.81181695404E+01  0.13141187069E+02  0.51100000000E-03 0. -1.
        -11    1    4    4    0    0 -0.11040430763E+01  0.11550306550E+01  0.11642800627E+01  0.19770066398E+01  0.51100000000E-03 0.  1.
         12    1    4    4    0    0  0.26008396508E+01  0.18067510402E+02  0.25085790783E+02  0.31024122844E+02  0.00000000000E+00 0. -1.
</event>
<event>
 8    1  0.7489580E-009  0.9118800E+02  0.7816164E-02  0.1184000E+00
        -11   -1    0    0    0    0  0.00000000000E+00  0.00000000000E+00  0.45593999997E+02  0.45594000000E+02  0.51100000000E-03 0. -1.
         11   -1    0    0    0    0 -0.00000000000E+00 -0.00000000000E+00 -0.45593999997E+02  0.45594000000E+02  0.51100000000E-03 0.  1.
         23    2    1    2    0    0  0.17763568394E-14  0.00000000000E+00 -0.71054273576E-14  0.91188000000E+02  0.91188000000E+02 0.  0.
    9900012    2    3    3    0    0  0.54487367537E+01  0.98202790471E+01 -0.43623237922E+02  0.46142317637E+02  0.99999988659E+01 0.  0.
         12    1    3    3    0    0 -0.54487367537E+01 -0.98202790471E+01  0.43623237922E+02  0.45045682363E+02  0.00000000000E+00 0. -1.
         11    1    4    4    0    0  0.43578830184E+00  0.20656456956E+01 -0.26853648225E+01  0.34158436842E+01  0.51100000000E-03 0.  1.
        -11    1    4    4    0    0 -0.12204296472E+01  0.24397900395E+01 -0.36925141986E+01  0.45909351257E+01  0.51100000000E-03 0. -1.
        -12    1    4    4    0    0  0.62333780991E+01  0.53148433120E+01 -0.37245358901E+02  0.38135538827E+02  0.00000000000E+00 0.  1.
</event>
<event>
 8    1  0.7489580E-009  0.9118800E+02  0.7816164E-02  0.1184000E+00
        -11   -1    0    0    0    0  0.00000000000E+00  0.00000000000E+00  0.45593999997E+02  0.45594000000E+02  0.51100000000E-03 0. -1.
         11   -1    0    0    0    0 -0.00000000000E+00 -0.00000000000E+00 -0.45593999997E+02  0.45594000000E+02  0.51100000000E-03 0.  1.
         23    2    1    2    0    0  0.00000000000E+00  0.00000000000E+00  0.35527136788E-14  0.91188000000E+02  0.91188000000E+02 0.  0.
    9900012    2    3    3    0    0 -0.41008294734E+02 -0.75726518481E+01  0.17031971554E+02  0.46142319319E+02  0.10000014208E+02 0.  0.
        -12    1    3    3    0    0  0.41008294734E+02  0.75726518481E+01 -0.17031971554E+02  0.45045680681E+02  0.00000000000E+00 0.  1.
         11    1    4    4    0    0 -0.20080920210E+02 -0.19976813195E+01  0.49738039942E+01  0.20783955677E+02  0.51100000000E-03 0. -1.
        -11    1    4    4    0    0 -0.43528593207E+00  0.40056872117E+00 -0.33106465426E+00  0.67788878841E+00  0.51100000000E-03 0.  1.
        -12    1    4    4    0    0 -0.20492088592E+02 -0.59755392498E+01  0.12389232214E+02  0.24680474854E+02  0.00000000000E+00 0.  1.
</event>
<event>
 8    1  0.7489580E-009  0.9118800E+02  0.7816164E-02  0.1184000E+00
        -11   -1    0    0    0    0  0.00000000000E+00  0.00000000000E+00  0.45593999997E+02  0.45594000000E+02  0.51100000000E-03 0. -1.
         11   -1    0    0    0    0 -0.00000000000E+00 -0.00000000000E+00 -0.45593999997E+02  0.45594000000E+02  0.51100000000E-03 0.  1.
         23    2    1    2    0    0 -0.35527136788E-14  0.00000000000E+00  0.00000000000E+00  0.91188000000E+02  0.91188000000E+02 0.  0.
    9900012    2    3    3    0    0  0.22525694884E+02 -0.12201630799E+02 -0.37051676201E+02  0.46142318370E+02  0.10000005556E+02 0.  0.
         12    1    3    3    0    0 -0.22525694884E+02  0.12201630799E+02  0.37051676201E+02  0.45045681630E+02  0.00000000000E+00 0. -1.
         11    1    4    4    0    0  0.67012871456E+01 -0.38754993556E+01 -0.17807620279E+02  0.19417468551E+02  0.51100000000E-03 0. -1.
        -11    1    4    4    0    0  0.67777228257E+01 -0.53023301642E+01 -0.11905444465E+02  0.14689855004E+02  0.51100000000E-03 0.  1.
        -12    1    4    4    0    0  0.90466849130E+01 -0.30238012792E+01 -0.73386114572E+01  0.12034994816E+02  0.00000000000E+00 0.  1.
</event>
<event>
 8    1  0.7489580E-009  0.9118800E+02  0.7816164E-02  0.1184000E+00
        -11   -1    0    0    0    0  0.00000000000E+00  0.00000000000E+00  0.45593999997E+02  0.45594000000E+02  0.51100000000E-03 0. -1.
         11   -1    0    0    0    0 -0.00000000000E+00 -0.00000000000E+00 -0.45593999997E+02  0.45594000000E+02  0.51100000000E-03 0.  1.
         23    2    1    2    0    0 -0.35527136788E-14  0.00000000000E+00  0.71054273576E-14  0.91188000000E+02  0.91188000000E+02 0.  0.
    9900012    2    3    3    0    0  0.22266159912E+02 -0.26474215422E+01 -0.39068181580E+02  0.46142317299E+02  0.99999957880E+01 0.  0.
         12    1    3    3    0    0 -0.22266159912E+02  0.26474215422E+01  0.39068181580E+02  0.45045682701E+02  0.00000000000E+00 0. -1.
         11    1    4    4    0    0 -0.39358857008E+00 -0.53657104267E+00 -0.19584643405E+01  0.20684301488E+01  0.51100000000E-03 0. -1.
        -11    1    4    4    0    0  0.19137586643E+02 -0.40440192777E+01 -0.28424905784E+02  0.34504732770E+02  0.51100000000E-03 0.  1.
         12    1    4    4    0    0  0.35221618388E+01  0.19331687782E+01 -0.86848114554E+01  0.95691543806E+01  0.00000000000E+00 0. -1.
</event>
<event>
 8    1  0.7489580E-009  0.9118800E+02  0.7816164E-02  0.1184000E+00
        -11   -1    0    0    0    0  0.00000000000E+00  0.00000000000E+00  0.45593999997E+02  0.45594000000E+02  0.51100000000E-03 0. -1.
         11   -1    0    0    0    0 -0.00000000000E+00 -0.00000000000E+00 -0.45593999997E+02  0.45594000000E+02  0.51100000000E-03 0.  1.
         23    2    1    2    0    0  0.35527136788E-14 -0.61062266354E-15  0.00000000000E+00  0.91188000000E+02  0.91188000000E+02 0.  0.
    9900012    2    3    3    0    0 -0.19487862874E+02 -0.48701225202E+00  0.40609106058E+02  0.46142317908E+02  0.10000001338E+02 0.  0.
        -12    1    3    3    0    0  0.19487862874E+02  0.48701225202E+00 -0.40609106058E+02  0.45045682092E+02  0.00000000000E+00 0.  1.
         11    1    4    4    0    0 -0.10485652603E+02  0.45121955239E+00  0.24618593697E+02  0.26762430111E+02  0.51100000000E-03 0. -1.
        -11    1    4    4    0    0 -0.25815876781E+01  0.15651665764E+01  0.92890943334E+01  0.97673750387E+01  0.51100000000E-03 0.  1.
        -12    1    4    4    0    0 -0.64206225937E+01 -0.25033983808E+01  0.67014180275E+01  0.96125127580E+01  0.00000000000E+00 0.  1.
</event>
<event>
 8    1  0.7489580E-009  0.9118800E+02  0.7816164E-02  0.1184000E+00
        -11   -1    0    0    0    0  0.00000000000E+00  0.00000000000E+00  0.45593999997E+02  0.45594000000E+02  0.51100000000E-03 0. -1.
         11   -1    0    0    0    0 -0.00000000000E+00 -0.00000000000E+00 -0.45593999997E+02  0.45594000000E+02  0.51100000000E-03 0.  1.
         23    2    1    2    0    0  0.00000000000E+00 -0.35527136788E-14  0.00000000000E+00  0.91188000000E+02  0.91188000000E+02 0.  0.
    9900012    2    3    3    0    0  0.19502135113E+02 -0.19102948748E+02 -0.35830958367E+02  0.46142317606E+02  0.99999985860E+01 0.  0.
         12    1    3    3    0    0 -0.19502135113E+02  0.19102948748E+02  0.35830958367E+02  0.45045682394E+02  0.00000000000E+00 0. -1.
         11    1    4    4    0    0  0.64344051296E+00 -0.70773749118E-01 -0.52405918674E+00  0.83286428042E+00  0.51100000000E-03 0. -1.
        -11    1    4    4    0    0  0.17394881531E+02 -0.15937965153E+02 -0.24669180772E+02  0.34134573630E+02  0.51100000000E-03 0.  1.
         12    1    4    4    0    0  0.14638130689E+01 -0.30942098463E+01 -0.10637718408E+02  0.11174879695E+02  0.00000000000E+00 0. -1.
</event>
<event>
 8    1  0.7489580E-009  0.9118800E+02  0.7816164E-02  0.1184000E+00
        -11   -1    0    0    0    0  0.00000000000E+00  0.00000000000E+00  0.45593999997E+02  0.45594000000E+02  0.51100000000E-03 0. -1.
         11   -1    0    0    0    0 -0.00000000000E+00 -0.00000000000E+00 -0.45593999997E+02  0.45594000000E+02  0.51100000000E-03 0.  1.
         23    2    1    2    0    0 -0.17763568394E-14  0.00000000000E+00  0.00000000000E+00  0.91188000000E+02  0.91188000000E+02 0.  0.
    9900012    2    3    3    0    0 -0.95102520501E+01  0.11526190791E+02 -0.42494887117E+02  0.46142318749E+02  0.10000009012E+02 0.  0.
         12    1    3    3    0    0  0.95102520501E+01 -0.11526190791E+02  0.42494887117E+02  0.45045681251E+02  0.00000000000E+00 0. -1.
         11    1    4    4    0    0  0.36755297575E+00 -0.76999152521E+00 -0.10368036411E+01  0.13427375731E+01  0.51100000000E-03 0. -1.
        -11    1    4    4    0    0 -0.73834898887E+01  0.57845218958E+01 -0.29518926450E+02  0.30973272922E+02  0.51100000000E-03 0.  1.
        -12    1    4    4    0    0 -0.24943151371E+01  0.65116604207E+01 -0.11939157027E+02  0.13826308254E+02  0.00000000000E+00 0.  1.
</event>
<event>
 8    1  0.7489580E-009  0.9118800E+02  0.7816164E-02  0.1184000E+00
        -11   -1    0    0    0    0  0.00000000000E+00  0.00000000000E+00  0.45593999997E+02  0.45594000000E+02  0.51100000000E-03 0.  1.
         11   -1    0    0    0    0 -0.00000000000E+00 -0.00000000000E+00 -0.45593999997E+02  0.45594000000E+02  0.51100000000E-03 0. -1.
         23    2    1    2    0    0  0.00000000000E+00  0.00000000000E+00  0.17763568394E-14  0.91188000000E+02  0.91188000000E+02 0.  0.
    9900012    2    3    3    0    0  0.25348785675E+01 -0.43368112882E+02  0.11911959784E+02  0.46142316409E+02  0.99999876695E+01 0.  0.
        -12    1    3    3    0    0 -0.25348785675E+01  0.43368112882E+02 -0.11911959784E+02  0.45045683591E+02  0.00000000000E+00 0.  1.
         11    1    4    4    0    0 -0.35650677461E+00 -0.60289058679E+01  0.12484779445E+01  0.61671306523E+01  0.51100000000E-03 0. -1.
        -11    1    4    4    0    0  0.56441966830E+01 -0.23804763757E+02  0.89828133460E+01  0.26061747248E+02  0.51100000000E-03 0.  1.
         12    1    4    4    0    0 -0.27528113409E+01 -0.13534443257E+02  0.16806684930E+01  0.13913438509E+02  0.00000000000E+00 0. -1.
</event>
<event>
 8    1  0.7489580E-009  0.9118800E+02  0.7816164E-02  0.1184000E+00
        -11   -1    0    0    0    0  0.00000000000E+00  0.00000000000E+00  0.45593999997E+02  0.45594000000E+02  0.51100000000E-03 0. -1.
         11   -1    0    0    0    0 -0.00000000000E+00 -0.00000000000E+00 -0.45593999997E+02  0.45594000000E+02  0.51100000000E-03 0.  1.
         23    2    1    2    0    0  0.00000000000E+00  0.00000000000E+00  0.00000000000E+00  0.91188000000E+02  0.91188000000E+02 0.  0.
    9900012    2    3    3    0    0  0.18117621479E+02  0.17368698334E+02  0.37405796523E+02  0.46142317594E+02  0.99999984781E+01 0.  0.
        -12    1    3    3    0    0 -0.18117621479E+02 -0.17368698334E+02 -0.37405796523E+02  0.45045682406E+02  0.00000000000E+00 0.  1.
         11    1    4    4    0    0  0.40921318542E+01  0.12027342847E+01  0.67870067479E+01  0.80159574431E+01  0.51100000000E-03 0.  1.
        -11    1    4    4    0    0  0.14153889115E+02  0.13231470731E+02  0.28663793913E+02  0.34597940351E+02  0.51100000000E-03 0. -1.
        -12    1    4    4    0    0 -0.12839949050E+00  0.29344933181E+01  0.19549958622E+01  0.35284197999E+01  0.00000000000E+00 0.  1.
</event>
<event>
 8    1  0.7489580E-009  0.9118800E+02  0.7816164E-02  0.1184000E+00
        -11   -1    0    0    0    0  0.00000000000E+00  0.00000000000E+00  0.45593999997E+02  0.45594000000E+02  0.51100000000E-03 0. -1.
         11   -1    0    0    0    0 -0.00000000000E+00 -0.00000000000E+00 -0.45593999997E+02  0.45594000000E+02  0.51100000000E-03 0.  1.
         23    2    1    2    0    0 -0.17763568394E-14  0.00000000000E+00  0.00000000000E+00  0.91188000000E+02  0.91188000000E+02 0.  0.
    9900012    2    3    3    0    0  0.13784820378E+02  0.37359021413E+02  0.21056973978E+02  0.46142313115E+02  0.99999576314E+01 0.  0.
        -12    1    3    3    0    0 -0.13784820378E+02 -0.37359021413E+02 -0.21056973978E+02  0.45045686885E+02  0.00000000000E+00 0.  1.
         11    1    4    4    0    0  0.66970043056E+00  0.13493468281E+02  0.68831626361E+01  0.15162457356E+02  0.51100000000E-03 0. -1.
        -11    1    4    4    0    0  0.32366648797E+01  0.41758825032E+01  0.44194049633E+01  0.68880428798E+01  0.51100000000E-03 0.  1.
         12    1    4    4    0    0  0.98784550680E+01  0.19689670629E+02  0.97544063789E+01  0.24091812879E+02  0.00000000000E+00 0. -1.
</event>
<event>
 8    1  0.7489580E-009  0.9118800E+02  0.7816164E-02  0.1184000E+00
        -11   -1    0    0    0    0  0.00000000000E+00  0.00000000000E+00  0.45593999997E+02  0.45594000000E+02  0.51100000000E-03 0. -1.
         11   -1    0    0    0    0 -0.00000000000E+00 -0.00000000000E+00 -0.45593999997E+02  0.45594000000E+02  0.51100000000E-03 0.  1.
         23    2    1    2    0    0 -0.35527136788E-14  0.35527136788E-14 -0.35527136788E-14  0.91188000000E+02  0.91188000000E+02 0.  0.
    9900012    2    3    3    0    0  0.25025656195E+02  0.29843885603E+02  0.22631230782E+02  0.46142316715E+02  0.99999904583E+01 0.  0.
        -12    1    3    3    0    0 -0.25025656195E+02 -0.29843885603E+02 -0.22631230782E+02  0.45045683285E+02  0.00000000000E+00 0.  1.
         11    1    4    4    0    0  0.87651434925E+01  0.12165906183E+02  0.49394328272E+01  0.15787178678E+02  0.51100000000E-03 0. -1.
        -11    1    4    4    0    0  0.24729708026E+01  0.31541364072E+00  0.16613277202E+01  0.29958438561E+01  0.51100000000E-03 0.  1.
         12    1    4    4    0    0  0.13787541900E+02  0.17362565779E+02  0.16030470235E+02  0.27359294180E+02  0.00000000000E+00 0. -1.
</event>
<event>
 8    1  0.7489580E-009  0.9118800E+02  0.7816164E-02  0.1184000E+00
        -11   -1    0    0    0    0  0.00000000000E+00  0.00000000000E+00  0.45593999997E+02  0.45594000000E+02  0.51100000000E-03 0. -1.
         11   -1    0    0    0    0 -0.00000000000E+00 -0.00000000000E+00 -0.45593999997E+02  0.45594000000E+02  0.51100000000E-03 0.  1.
         23    2    1    2    0    0  0.00000000000E+00  0.00000000000E+00  0.00000000000E+00  0.91188000000E+02  0.91188000000E+02 0.  0.
    9900012    2    3    3    0    0 -0.24008895370E+02  0.18350401719E+02 -0.33405824755E+02  0.46142318434E+02  0.10000006140E+02 0.  0.
         12    1    3    3    0    0  0.24008895370E+02 -0.18350401719E+02  0.33405824755E+02  0.45045681566E+02  0.00000000000E+00 0. -1.
         11    1    4    4    0    0 -0.26626789818E+01  0.48094072250E+01 -0.10052783936E+02  0.11457692714E+02  0.51100000000E-03 0. -1.
        -11    1    4    4    0    0 -0.14713713439E+02  0.77445558951E+01 -0.17311862399E+02  0.24003584923E+02  0.51100000000E-03 0.  1.
         12    1    4    4    0    0 -0.66325029497E+01  0.57964385983E+01 -0.60411784201E+01  0.10681040797E+02  0.00000000000E+00 0. -1.
</event>
<event>
 8    1  0.7489580E-009  0.9118800E+02  0.7816164E-02  0.1184000E+00
        -11   -1    0    0    0    0  0.00000000000E+00  0.00000000000E+00  0.45593999997E+02  0.45594000000E+02  0.51100000000E-03 0. -1.
         11   -1    0    0    0    0 -0.00000000000E+00 -0.00000000000E+00 -0.45593999997E+02  0.45594000000E+02  0.51100000000E-03 0.  1.
         23    2    1    2    0    0  0.88817841970E-15 -0.88817841970E-15  0.00000000000E+00  0.91188000000E+02  0.91188000000E+02 0.  0.
    9900012    2    3    3    0    0 -0.76524280914E+01  0.51419780973E+01  0.44092108499E+02  0.46142316230E+02  0.99999860356E+01 0.  0.
        -12    1    3    3    0    0  0.76524280914E+01 -0.51419780973E+01 -0.44092108499E+02  0.45045683770E+02  0.00000000000E+00 0.  1.
         11    1    4    4    0    0 -0.52919486316E+01  0.21000253383E+01  0.12651418061E+02  0.13873471301E+02  0.51100000000E-03 0. -1.
        -11    1    4    4    0    0 -0.97637962635E+00  0.27137146419E+01  0.48685171270E+01  0.56586238265E+01  0.51100000000E-03 0.  1.
        -12    1    4    4    0    0 -0.13840998335E+01  0.32823811706E+00  0.26572173311E+02  0.26610221102E+02  0.00000000000E+00 0.  1.
</event>
<event>
 8    1  0.7489580E-009  0.9118800E+02  0.7816164E-02  0.1184000E+00
        -11   -1    0    0    0    0  0.00000000000E+00  0.00000000000E+00  0.45593999997E+02  0.45594000000E+02  0.51100000000E-03 0. -1.
         11   -1    0    0    0    0 -0.00000000000E+00 -0.00000000000E+00 -0.45593999997E+02  0.45594000000E+02  0.51100000000E-03 0.  1.
         23    2    1    2    0    0  0.35527136788E-14  0.00000000000E+00  0.71054273576E-14  0.91188000000E+02  0.91188000000E+02 0.  0.
    9900012    2    3    3    0    0 -0.25933693471E+02 -0.17538515342E+02 -0.32387612760E+02  0.46142318323E+02  0.10000005128E+02 0.  0.
         12    1    3    3    0    0  0.25933693471E+02  0.17538515342E+02  0.32387612760E+02  0.45045681677E+02  0.00000000000E+00 0. -1.
         11    1    4    4    0    0 -0.31723759202E+01 -0.78586071059E+00 -0.62578315062E+01  0.70598867878E+01  0.51100000000E-03 0. -1.
        -11    1    4    4    0    0 -0.14051408264E+02 -0.67614049376E+01 -0.11743900131E+02  0.19521215676E+02  0.51100000000E-03 0.  1.
         12    1    4    4    0    0 -0.87099092866E+01 -0.99912496939E+01 -0.14385881123E+02  0.19561215860E+02  0.00000000000E+00 0. -1.
</event>
<event>
 8    1  0.7489580E-009  0.9118800E+02  0.7816164E-02  0.1184000E+00
        -11   -1    0    0    0    0  0.00000000000E+00  0.00000000000E+00  0.45593999997E+02  0.45594000000E+02  0.51100000000E-03 0. -1.
         11   -1    0    0    0    0 -0.00000000000E+00 -0.00000000000E+00 -0.45593999997E+02  0.45594000000E+02  0.51100000000E-03 0.  1.
         23    2    1    2    0    0  0.00000000000E+00  0.00000000000E+00  0.00000000000E+00  0.91188000000E+02  0.91188000000E+02 0.  0.
    9900012    2    3    3    0    0 -0.27023323021E+01  0.42487249263E+01 -0.44763368937E+02  0.46142318054E+02  0.10000002671E+02 0.  0.
         12    1    3    3    0    0  0.27023323021E+01 -0.42487249263E+01  0.44763368937E+02  0.45045681946E+02  0.00000000000E+00 0. -1.
         11    1    4    4    0    0  0.21187944883E+01 -0.30990209085E-01 -0.50465930294E+01  0.54734223245E+01  0.51100000000E-03 0. -1.
        -11    1    4    4    0    0 -0.25698384812E+01  0.37340494854E+00 -0.47574729569E+01  0.54200599878E+01  0.51100000000E-03 0.  1.
        -12    1    4    4    0    0 -0.22512883092E+01  0.39063101869E+01 -0.34959302951E+02  0.35248835742E+02  0.00000000000E+00 0.  1.
</event>
<event>
 8    1  0.7489580E-009  0.9118800E+02  0.7816164E-02  0.1184000E+00
        -11   -1    0    0    0    0  0.00000000000E+00  0.00000000000E+00  0.45593999997E+02  0.45594000000E+02  0.51100000000E-03 0. -1.
         11   -1    0    0    0    0 -0.00000000000E+00 -0.00000000000E+00 -0.45593999997E+02  0.45594000000E+02  0.51100000000E-03 0.  1.
         23    2    1    2    0    0  0.00000000000E+00 -0.35527136788E-14  0.00000000000E+00  0.91188000000E+02  0.91188000000E+02 0.  0.
    9900012    2    3    3    0    0  0.36722835927E+02 -0.18208574755E+02 -0.18681388923E+02  0.46142321348E+02  0.10000032711E+02 0.  0.
         12    1    3    3    0    0 -0.36722835927E+02  0.18208574755E+02  0.18681388923E+02  0.45045678652E+02  0.00000000000E+00 0. -1.
         11    1    4    4    0    0  0.63525508209E+01 -0.30205103885E+01 -0.38706880779E+00  0.70447290553E+01  0.51100000000E-03 0. -1.
        -11    1    4    4    0    0  0.20458835310E+02 -0.13399162137E+02 -0.13637982394E+02  0.28001715166E+02  0.51100000000E-03 0.  1.
         12    1    4    4    0    0  0.99114497962E+01 -0.17889022300E+01 -0.46563377213E+01  0.11095877127E+02  0.00000000000E+00 0. -1.
</event>
<event>
 8    1  0.7489580E-009  0.9118800E+02  0.7816164E-02  0.1184000E+00
        -11   -1    0    0    0    0  0.00000000000E+00  0.00000000000E+00  0.45593999997E+02  0.45594000000E+02  0.51100000000E-03 0. -1.
         11   -1    0    0    0    0 -0.00000000000E+00 -0.00000000000E+00 -0.45593999997E+02  0.45594000000E+02  0.51100000000E-03 0.  1.
         23    2    1    2    0    0  0.00000000000E+00  0.00000000000E+00  0.00000000000E+00  0.91188000000E+02  0.91188000000E+02 0.  0.
    9900012    2    3    3    0    0  0.15415116985E+02  0.34915388262E+02  0.23924952382E+02  0.46142317458E+02  0.99999972370E+01 0.  0.
        -12    1    3    3    0    0 -0.15415116985E+02 -0.34915388262E+02 -0.23924952382E+02  0.45045682542E+02  0.00000000000E+00 0.  1.
         11    1    4    4    0    0  0.90862273019E+01  0.22570330092E+02  0.15263975419E+02  0.28722260929E+02  0.51100000000E-03 0. -1.
        -11    1    4    4    0    0  0.56350656926E+01  0.49143259420E+01  0.56538901197E+01  0.93739553322E+01  0.51100000000E-03 0.  1.
        -12    1    4    4    0    0  0.69382399061E+00  0.74307322284E+01  0.30070868435E+01  0.80461011965E+01  0.00000000000E+00 0.  1.
</event>
<event>
 8    1  0.7489580E-009  0.9118800E+02  0.7816164E-02  0.1184000E+00
        -11   -1    0    0    0    0  0.00000000000E+00  0.00000000000E+00  0.45593999997E+02  0.45594000000E+02  0.51100000000E-03 0. -1.
         11   -1    0    0    0    0 -0.00000000000E+00 -0.00000000000E+00 -0.45593999997E+02  0.45594000000E+02  0.51100000000E-03 0.  1.
         23    2    1    2    0    0 -0.35527136788E-14  0.00000000000E+00  0.35527136788E-14  0.91188000000E+02  0.91188000000E+02 0.  0.
    9900012    2    3    3    0    0  0.17158286690E+02 -0.27620412196E+02  0.31174019471E+02  0.46142318053E+02  0.10000002665E+02 0.  0.
        -12    1    3    3    0    0 -0.17158286690E+02  0.27620412196E+02 -0.31174019471E+02  0.45045681947E+02  0.00000000000E+00 0.  1.
         11    1    4    4    0    0  0.11907023307E+02 -0.11539323488E+02  0.16599599829E+02  0.23462308184E+02  0.51100000000E-03 0. -1.
        -11    1    4    4    0    0  0.57555916478E+01 -0.14183822965E+02  0.12043728685E+02  0.19477142245E+02  0.51100000000E-03 0.  1.
        -12    1    4    4    0    0 -0.50432826446E+00 -0.18972657439E+01  0.25306909568E+01  0.32028676245E+01  0.00000000000E+00 0.  1.
</event>
<event>
 8    1  0.7489580E-009  0.9118800E+02  0.7816164E-02  0.1184000E+00
        -11   -1    0    0    0    0  0.00000000000E+00  0.00000000000E+00  0.45593999997E+02  0.45594000000E+02  0.51100000000E-03 0. -1.
         11   -1    0    0    0    0 -0.00000000000E+00 -0.00000000000E+00 -0.45593999997E+02  0.45594000000E+02  0.51100000000E-03 0.  1.
         23    2    1    2    0    0  0.00000000000E+00  0.88817841970E-15  0.00000000000E+00  0.91188000000E+02  0.91188000000E+02 0.  0.
    9900012    2    3    3    0    0  0.56774754641E+01 -0.76502805073E+01  0.44026729465E+02  0.46142318444E+02  0.10000006227E+02 0.  0.
        -12    1    3    3    0    0 -0.56774754641E+01  0.76502805073E+01 -0.44026729465E+02  0.45045681556E+02  0.00000000000E+00 0.  1.
         11    1    4    4    0    0 -0.56444498911E+00 -0.20538713892E+01  0.13550047698E+02  0.13716441911E+02  0.51100000000E-03 0. -1.
        -11    1    4    4    0    0  0.34924903654E+01 -0.40458978339E+01  0.27733879788E+02  0.28244200583E+02  0.51100000000E-03 0.  1.
        -12    1    4    4    0    0  0.27494300877E+01 -0.15505112843E+01  0.27428019788E+01  0.41816759493E+01  0.00000000000E+00 0.  1.
</event>
<event>
 8    1  0.7489580E-009  0.9118800E+02  0.7816164E-02  0.1184000E+00
        -11   -1    0    0    0    0  0.00000000000E+00  0.00000000000E+00  0.45593999997E+02  0.45594000000E+02  0.51100000000E-03 0. -1.
         11   -1    0    0    0    0 -0.00000000000E+00 -0.00000000000E+00 -0.45593999997E+02  0.45594000000E+02  0.51100000000E-03 0.  1.
         23    2    1    2    0    0 -0.88817841970E-15 -0.22204460493E-15 -0.71054273576E-14  0.91188000000E+02  0.91188000000E+02 0.  0.
    9900012    2    3    3    0    0  0.78700430949E+01  0.19259661015E+01  0.44311023974E+02  0.46142314643E+02  0.99999715622E+01 0.  0.
        -12    1    3    3    0    0 -0.78700430949E+01 -0.19259661015E+01 -0.44311023974E+02  0.45045685357E+02  0.00000000000E+00 0.  1.
         11    1    4    4    0    0  0.16953046608E+01  0.34194302262E+01  0.20091708623E+02  0.20450997937E+02  0.51100000000E-03 0. -1.
        -11    1    4    4    0    0  0.19753174812E+01  0.10755689003E+01  0.22657017410E+01  0.31925119031E+01  0.51100000000E-03 0.  1.
        -12    1    4    4    0    0  0.41994209528E+01 -0.25690330250E+01  0.21953613609E+02  0.22498804802E+02  0.00000000000E+00 0.  1.
</event>
<event>
 8    1  0.7489580E-009  0.9118800E+02  0.7816164E-02  0.1184000E+00
        -11   -1    0    0    0    0  0.00000000000E+00  0.00000000000E+00  0.45593999997E+02  0.45594000000E+02  0.51100000000E-03 0.  1.
         11   -1    0    0    0    0 -0.00000000000E+00 -0.00000000000E+00 -0.45593999997E+02  0.45594000000E+02  0.51100000000E-03 0. -1.
         23    2    1    2    0    0 -0.44408920985E-15  0.00000000000E+00 -0.35527136788E-14  0.91188000000E+02  0.91188000000E+02 0.  0.
    9900012    2    3    3    0    0 -0.34453774826E+01  0.37646456197E+02  0.24494636915E+02  0.46142317323E+02  0.99999960057E+01 0.  0.
        -12    1    3    3    0    0  0.34453774826E+01 -0.37646456197E+02 -0.24494636915E+02  0.45045682677E+02  0.00000000000E+00 0.  1.
         11    1    4    4    0    0 -0.44771923598E+01  0.23603603326E+02  0.16159361330E+02  0.28953416037E+02  0.51100000000E-03 0. -1.
        -11    1    4    4    0    0  0.16101667750E+01  0.34527559853E+01  0.18699599617E+00  0.38143320124E+01  0.51100000000E-03 0.  1.
        -12    1    4    4    0    0 -0.57835189778E+00  0.10590096886E+02  0.81482795895E+01  0.13374569273E+02  0.00000000000E+00 0.  1.
</event>
<event>
 8    1  0.7489580E-009  0.9118800E+02  0.7816164E-02  0.1184000E+00
        -11   -1    0    0    0    0  0.00000000000E+00  0.00000000000E+00  0.45593999997E+02  0.45594000000E+02  0.51100000000E-03 0. -1.
         11   -1    0    0    0    0 -0.00000000000E+00 -0.00000000000E+00 -0.45593999997E+02  0.45594000000E+02  0.51100000000E-03 0.  1.
         23    2    1    2    0    0  0.00000000000E+00  0.00000000000E+00  0.00000000000E+00  0.91188000000E+02  0.91188000000E+02 0.  0.
    9900012    2    3    3    0    0 -0.54906874320E+01  0.43371571135E+02 -0.10856924816E+02  0.46142315993E+02  0.99999838754E+01 0.  0.
         12    1    3    3    0    0  0.54906874320E+01 -0.43371571135E+02  0.10856924816E+02  0.45045684007E+02  0.00000000000E+00 0. -1.
         11    1    4    4    0    0  0.37561815258E+00  0.79459985401E+00 -0.43119808570E+00  0.97898415450E+00  0.51100000000E-03 0. -1.
        -11    1    4    4    0    0 -0.71976607500E+01  0.29469779593E+02 -0.43180193436E+01  0.30641793695E+02  0.51100000000E-03 0.  1.
        -12    1    4    4    0    0  0.13313551654E+01  0.13107191688E+02 -0.61077073866E+01  0.14521538144E+02  0.00000000000E+00 0.  1.
</event>
<event>
 8    1  0.7489580E-009  0.9118800E+02  0.7816164E-02  0.1184000E+00
        -11   -1    0    0    0    0  0.00000000000E+00  0.00000000000E+00  0.45593999997E+02  0.45594000000E+02  0.51100000000E-03 0. -1.
         11   -1    0    0    0    0 -0.00000000000E+00 -0.00000000000E+00 -0.45593999997E+02  0.45594000000E+02  0.51100000000E-03 0.  1.
         23    2    1    2    0    0 -0.44408920985E-15  0.00000000000E+00  0.00000000000E+00  0.91188000000E+02  0.91188000000E+02 0.  0.
    9900012    2    3    3    0    0  0.14734880212E+01  0.30742027674E+02  0.32891793397E+02  0.46142317573E+02  0.99999982804E+01 0.  0.
        -12    1    3    3    0    0 -0.14734880212E+01 -0.30742027674E+02 -0.32891793397E+02  0.45045682427E+02  0.00000000000E+00 0.  1.
         11    1    4    4    0    0 -0.11749178635E+01  0.26574249327E+02  0.29455077042E+02  0.39688445713E+02  0.51100000000E-03 0. -1.
        -11    1    4    4    0    0  0.19881947423E+01  0.23358043297E+01  0.32944614716E+01  0.45013749953E+01  0.51100000000E-03 0.  1.
         12    1    4    4    0    0  0.66021114245E+00  0.18319740170E+01  0.14225488325E+00  0.19524968638E+01  0.00000000000E+00 0. -1.
</event>
<event>
 8    1  0.7489580E-009  0.9118800E+02  0.7816164E-02  0.1184000E+00
        -11   -1    0    0    0    0  0.00000000000E+00  0.00000000000E+00  0.45593999997E+02  0.45594000000E+02  0.51100000000E-03 0. -1.
         11   -1    0    0    0    0 -0.00000000000E+00 -0.00000000000E+00 -0.45593999997E+02  0.45594000000E+02  0.51100000000E-03 0.  1.
         23    2    1    2    0    0 -0.35527136788E-14 -0.35527136788E-14  0.00000000000E+00  0.91188000000E+02  0.91188000000E+02 0.  0.
    9900012    2    3    3    0    0  0.24959792757E+02  0.27077528542E+02  0.25940887635E+02  0.46142318102E+02  0.10000003106E+02 0.  0.
        -12    1    3    3    0    0 -0.24959792757E+02 -0.27077528542E+02 -0.25940887635E+02  0.45045681898E+02  0.00000000000E+00 0.  1.
         11    1    4    4    0    0 -0.46454877143E+00 -0.22166253063E+00 -0.12309764643E-01  0.51487049824E+00  0.51100000000E-03 0.  1.
        -11    1    4    4    0    0  0.62982105935E+01  0.74205162341E+01  0.47249561338E+01  0.10819275789E+02  0.51100000000E-03 0. -1.
        -12    1    4    4    0    0  0.19126130935E+02  0.19878674839E+02  0.21228241265E+02  0.34808171815E+02  0.00000000000E+00 0.  1.
</event>
<event>
 8    1  0.7489580E-009  0.9118800E+02  0.7816164E-02  0.1184000E+00
        -11   -1    0    0    0    0  0.00000000000E+00  0.00000000000E+00  0.45593999997E+02  0.45594000000E+02  0.51100000000E-03 0.  1.
         11   -1    0    0    0    0 -0.00000000000E+00 -0.00000000000E+00 -0.45593999997E+02  0.45594000000E+02  0.51100000000E-03 0. -1.
         23    2    1    2    0    0  0.00000000000E+00  0.00000000000E+00 -0.22204460493E-15  0.91188000000E+02  0.91188000000E+02 0.  0.
    9900012    2    3    3    0    0 -0.50104411140E+01  0.44739149581E+02  0.15548146715E+01  0.46142317920E+02  0.10000001450E+02 0.  0.
        -12    1    3    3    0    0  0.50104411140E+01 -0.44739149581E+02 -0.15548146715E+01  0.45045682080E+02  0.00000000000E+00 0.  1.
         11    1    4    4    0    0 -0.58965665118E+01  0.18475738454E+02  0.48416451684E+00  0.19399918133E+02  0.51100000000E-03 0. -1.
        -11    1    4    4    0    0  0.10860033797E+01  0.71550721429E+01 -0.16978389815E+01  0.74335131788E+01  0.51100000000E-03 0.  1.
         12    1    4    4    0    0 -0.19987798196E+00  0.19108338984E+02  0.27684891361E+01  0.19308886608E+02  0.00000000000E+00 0. -1.
</event>
<event>
 8    1  0.7489580E-009  0.9118800E+02  0.7816164E-02  0.1184000E+00
        -11   -1    0    0    0    0  0.00000000000E+00  0.00000000000E+00  0.45593999997E+02  0.45594000000E+02  0.51100000000E-03 0.  1.
         11   -1    0    0    0    0 -0.00000000000E+00 -0.00000000000E+00 -0.45593999997E+02  0.45594000000E+02  0.51100000000E-03 0. -1.
         23    2    1    2    0    0  0.00000000000E+00  0.35527136788E-14  0.00000000000E+00  0.91188000000E+02  0.91188000000E+02 0.  0.
    9900012    2    3    3    0    0 -0.28087690128E+02 -0.28378925149E+02  0.20852621074E+02  0.46142317243E+02  0.99999952791E+01 0.  0.
        -12    1    3    3    0    0  0.28087690128E+02  0.28378925149E+02 -0.20852621074E+02  0.45045682757E+02  0.00000000000E+00 0.  1.
         11    1    4    4    0    0 -0.47808942413E+01 -0.60180234778E+01  0.49128813793E+01  0.91219493549E+01  0.51100000000E-03 0.  1.
        -11    1    4    4    0    0 -0.12971363860E+02 -0.13230126405E+02  0.13712879999E+02  0.23050718063E+02  0.51100000000E-03 0. -1.
         12    1    4    4    0    0 -0.10335432027E+02 -0.91307752670E+01  0.22268596953E+01  0.13969649826E+02  0.00000000000E+00 0. -1.
</event>
<event>
 8    1  0.7489580E-009  0.9118800E+02  0.7816164E-02  0.1184000E+00
        -11   -1    0    0    0    0  0.00000000000E+00  0.00000000000E+00  0.45593999997E+02  0.45594000000E+02  0.51100000000E-03 0. -1.
         11   -1    0    0    0    0 -0.00000000000E+00 -0.00000000000E+00 -0.45593999997E+02  0.45594000000E+02  0.51100000000E-03 0.  1.
         23    2    1    2    0    0  0.17763568394E-14  0.00000000000E+00  0.00000000000E+00  0.91188000000E+02  0.91188000000E+02 0.  0.
    9900012    2    3    3    0    0  0.95218487759E+01  0.17101155512E+02  0.40570907523E+02  0.46142315842E+02  0.99999825041E+01 0.  0.
        -12    1    3    3    0    0 -0.95218487759E+01 -0.17101155512E+02 -0.40570907523E+02  0.45045684158E+02  0.00000000000E+00 0.  1.
         11    1    4    4    0    0  0.42313467539E+01  0.58034782928E+01  0.11037589230E+02  0.13168638195E+02  0.51100000000E-03 0. -1.
        -11    1    4    4    0    0  0.19177045213E+01  0.20649461096E+01  0.13487029787E+01  0.31241947847E+01  0.51100000000E-03 0.  1.
        -12    1    4    4    0    0  0.33727975007E+01  0.92327311091E+01  0.28184615315E+02  0.29849482863E+02  0.00000000000E+00 0.  1.
</event>
<event>
 8    1  0.7489580E-009  0.9118800E+02  0.7816164E-02  0.1184000E+00
        -11   -1    0    0    0    0  0.00000000000E+00  0.00000000000E+00  0.45593999997E+02  0.45594000000E+02  0.51100000000E-03 0. -1.
         11   -1    0    0    0    0 -0.00000000000E+00 -0.00000000000E+00 -0.45593999997E+02  0.45594000000E+02  0.51100000000E-03 0.  1.
         23    2    1    2    0    0  0.88817841970E-15 -0.35527136788E-14 -0.71054273576E-14  0.91188000000E+02  0.91188000000E+02 0.  0.
    9900012    2    3    3    0    0 -0.35702000283E+01  0.27808375573E+02  0.35257076200E+02  0.46142317605E+02  0.99999985739E+01 0.  0.
        -12    1    3    3    0    0  0.35702000283E+01 -0.27808375573E+02 -0.35257076200E+02  0.45045682395E+02  0.00000000000E+00 0.  1.
         11    1    4    4    0    0 -0.52011937806E+01  0.22919926813E+02  0.28632912094E+02  0.37043476040E+02  0.51100000000E-03 0. -1.
        -11    1    4    4    0    0  0.21367865120E+01  0.45802608877E+01  0.68077041341E+01  0.84787665515E+01  0.51100000000E-03 0.  1.
        -12    1    4    4    0    0 -0.50579275967E+00  0.30818787199E+00 -0.18354002780E+00  0.62007501319E+00  0.00000000000E+00 0.  1.
</event>
<event>
 8    1  0.7489580E-009  0.9118800E+02  0.7816164E-02  0.1184000E+00
        -11   -1    0    0    0    0  0.00000000000E+00  0.00000000000E+00  0.45593999997E+02  0.45594000000E+02  0.51100000000E-03 0. -1.
         11   -1    0    0    0    0 -0.00000000000E+00 -0.00000000000E+00 -0.45593999997E+02  0.45594000000E+02  0.51100000000E-03 0.  1.
         23    2    1    2    0    0 -0.35527136788E-14  0.88817841970E-15  0.00000000000E+00  0.91188000000E+02  0.91188000000E+02 0.  0.
    9900012    2    3    3    0    0  0.20055469669E+02 -0.41826938647E+01 -0.40117286596E+02  0.46142317905E+02  0.10000001314E+02 0.  0.
         12    1    3    3    0    0 -0.20055469669E+02  0.41826938647E+01  0.40117286596E+02  0.45045682095E+02  0.00000000000E+00 0. -1.
         11    1    4    4    0    0  0.96172273767E+01 -0.27889950830E+01 -0.14707302642E+02  0.17792535155E+02  0.51100000000E-03 0. -1.
        -11    1    4    4    0    0  0.57194976314E+01 -0.26665009062E-01 -0.58466955482E+01  0.81790716633E+01  0.51100000000E-03 0.  1.
        -12    1    4    4    0    0  0.47187446605E+01 -0.13670337727E+01 -0.19563288406E+02  0.20170711087E+02  0.00000000000E+00 0.  1.
</event>
<event>
 8    1  0.7489580E-009  0.9118800E+02  0.7816164E-02  0.1184000E+00
        -11   -1    0    0    0    0  0.00000000000E+00  0.00000000000E+00  0.45593999997E+02  0.45594000000E+02  0.51100000000E-03 0. -1.
         11   -1    0    0    0    0 -0.00000000000E+00 -0.00000000000E+00 -0.45593999997E+02  0.45594000000E+02  0.51100000000E-03 0.  1.
         23    2    1    2    0    0  0.71054273576E-14  0.44408920985E-15 -0.35527136788E-14  0.91188000000E+02  0.91188000000E+02 0.  0.
    9900012    2    3    3    0    0 -0.35767479781E+02 -0.29700763678E+01  0.27220939212E+02  0.46142317686E+02  0.99999993188E+01 0.  0.
        -12    1    3    3    0    0  0.35767479781E+02  0.29700763678E+01 -0.27220939212E+02  0.45045682314E+02  0.00000000000E+00 0.  1.
         11    1    4    4    0    0 -0.19834048214E+02 -0.18695435573E+01  0.12419041252E+02  0.23475886513E+02  0.51100000000E-03 0. -1.
        -11    1    4    4    0    0 -0.15515864579E+02 -0.11729952327E+01  0.11528075577E+02  0.19365291070E+02  0.51100000000E-03 0.  1.
        -12    1    4    4    0    0 -0.41756698796E+00  0.72462422204E-01  0.32738223827E+01  0.33011401038E+01  0.00000000000E+00 0.  1.
</event>
<event>
 8    1  0.7489580E-009  0.9118800E+02  0.7816164E-02  0.1184000E+00
        -11   -1    0    0    0    0  0.00000000000E+00  0.00000000000E+00  0.45593999997E+02  0.45594000000E+02  0.51100000000E-03 0. -1.
         11   -1    0    0    0    0 -0.00000000000E+00 -0.00000000000E+00 -0.45593999997E+02  0.45594000000E+02  0.51100000000E-03 0.  1.
         23    2    1    2    0    0  0.00000000000E+00  0.00000000000E+00  0.35527136788E-14  0.91188000000E+02  0.91188000000E+02 0.  0.
    9900012    2    3    3    0    0  0.65132242442E+01 -0.35103559038E+02  0.27466918101E+02  0.46142317219E+02  0.99999950598E+01 0.  0.
        -12    1    3    3    0    0 -0.65132242442E+01  0.35103559038E+02 -0.27466918101E+02  0.45045682781E+02  0.00000000000E+00 0.  1.
         11    1    4    4    0    0  0.20543760675E+00 -0.10185542958E+02  0.29677335603E+01  0.10611075945E+02  0.51100000000E-03 0. -1.
        -11    1    4    4    0    0  0.24965283807E+01 -0.80150979072E+01  0.85131252263E+01  0.11956075853E+02  0.51100000000E-03 0.  1.
         12    1    4    4    0    0  0.38112582567E+01 -0.16902918173E+02  0.15986059314E+02  0.23575165422E+02  0.00000000000E+00 0. -1.
</event>
<event>
 8    1  0.7489580E-009  0.9118800E+02  0.7816164E-02  0.1184000E+00
        -11   -1    0    0    0    0  0.00000000000E+00  0.00000000000E+00  0.45593999997E+02  0.45594000000E+02  0.51100000000E-03 0. -1.
         11   -1    0    0    0    0 -0.00000000000E+00 -0.00000000000E+00 -0.45593999997E+02  0.45594000000E+02  0.51100000000E-03 0.  1.
         23    2    1    2    0    0  0.00000000000E+00 -0.17763568394E-14  0.00000000000E+00  0.91188000000E+02  0.91188000000E+02 0.  0.
    9900012    2    3    3    0    0  0.18412982783E+02 -0.14370320519E+02  0.38517130252E+02  0.46142319079E+02  0.10000012017E+02 0.  0.
        -12    1    3    3    0    0 -0.18412982783E+02  0.14370320519E+02 -0.38517130252E+02  0.45045680921E+02  0.00000000000E+00 0.  1.
         11    1    4    4    0    0  0.34047171359E+01 -0.47963764498E+01  0.65528423185E+01  0.88055135305E+01  0.51100000000E-03 0. -1.
        -11    1    4    4    0    0  0.17220557339E+01  0.10040098796E+01  0.16420517632E+01  0.25826045077E+01  0.51100000000E-03 0.  1.
         12    1    4    4    0    0  0.13286209913E+02 -0.10577953949E+02  0.30322236170E+02  0.34754201041E+02  0.00000000000E+00 0. -1.
</event>
<event>
 8    1  0.7489580E-009  0.9118800E+02  0.7816164E-02  0.1184000E+00
        -11   -1    0    0    0    0  0.00000000000E+00  0.00000000000E+00  0.45593999997E+02  0.45594000000E+02  0.51100000000E-03 0. -1.
         11   -1    0    0    0    0 -0.00000000000E+00 -0.00000000000E+00 -0.45593999997E+02  0.45594000000E+02  0.51100000000E-03 0.  1.
         23    2    1    2    0    0  0.00000000000E+00 -0.35527136788E-14  0.00000000000E+00  0.91188000000E+02  0.91188000000E+02 0.  0.
    9900012    2    3    3    0    0  0.18295780237E+02 -0.27875384144E+02  0.30287641062E+02  0.46142314116E+02  0.99999667618E+01 0.  0.
        -12    1    3    3    0    0 -0.18295780237E+02  0.27875384144E+02 -0.30287641062E+02  0.45045685884E+02  0.00000000000E+00 0.  1.
         11    1    4    4    0    0  0.34146799827E+01 -0.98402713953E+01  0.13087179046E+02  0.16726184148E+02  0.51100000000E-03 0. -1.
        -11    1    4    4    0    0  0.25143973175E+01 -0.58037252816E+01  0.32035266184E+01  0.70899932348E+01  0.51100000000E-03 0.  1.
        -12    1    4    4    0    0  0.12366702937E+02 -0.12231387467E+02  0.13996935397E+02  0.22326136733E+02  0.00000000000E+00 0.  1.
</event>
<event>
 8    1  0.7812733E-009  0.9118800E+02  0.7816164E-02  0.1184000E+00
        -11   -1    0    0    0    0  0.00000000000E+00  0.00000000000E+00  0.45593999997E+02  0.45594000000E+02  0.51100000000E-03 0. -1.
         11   -1    0    0    0    0 -0.00000000000E+00 -0.00000000000E+00 -0.45593999997E+02  0.45594000000E+02  0.51100000000E-03 0.  1.
         23    2    1    2    0    0  0.35527136788E-14 -0.71054273576E-14 -0.35527136788E-14  0.91188000000E+02  0.91188000000E+02 0.  0.
    9900012    2    3    3    0    0  0.16071824735E+02 -0.37527791492E+02 -0.19038771346E+02  0.46142317644E+02  0.99999989318E+01 0.  0.
         12    1    3    3    0    0 -0.16071824735E+02  0.37527791492E+02  0.19038771346E+02  0.45045682356E+02  0.00000000000E+00 0. -1.
         11    1    4    4    0    0  0.68960826119E+01 -0.15255270717E+02 -0.68066062589E+01  0.18072330482E+02  0.51100000000E-03 0. -1.
        -11    1    4    4    0    0  0.99532965267E+01 -0.20583081850E+02 -0.94854659720E+01  0.24752887411E+02  0.51100000000E-03 0.  1.
         12    1    4    4    0    0 -0.77755440342E+00 -0.16894389247E+01 -0.27466991149E+01  0.33170997510E+01  0.00000000000E+00 0. -1.
</event>
<event>
 8    1  0.7489580E-009  0.9118800E+02  0.7816164E-02  0.1184000E+00
        -11   -1    0    0    0    0  0.00000000000E+00  0.00000000000E+00  0.45593999997E+02  0.45594000000E+02  0.51100000000E-03 0. -1.
         11   -1    0    0    0    0 -0.00000000000E+00 -0.00000000000E+00 -0.45593999997E+02  0.45594000000E+02  0.51100000000E-03 0.  1.
         23    2    1    2    0    0  0.11102230246E-15  0.00000000000E+00  0.00000000000E+00  0.91188000000E+02  0.91188000000E+02 0.  0.
    9900012    2    3    3    0    0  0.53437975851E+00 -0.24109518303E+02 -0.38046800370E+02  0.46142318154E+02  0.10000003584E+02 0.  0.
         12    1    3    3    0    0 -0.53437975851E+00  0.24109518303E+02  0.38046800370E+02  0.45045681846E+02  0.00000000000E+00 0. -1.
         11    1    4    4    0    0  0.42913298558E+00 -0.46900002906E+00 -0.57313784579E+00  0.85592254203E+00  0.51100000000E-03 0. -1.
        -11    1    4    4    0    0  0.71589618783E+00 -0.13639559124E+02 -0.29403628780E+02  0.32421034316E+02  0.51100000000E-03 0.  1.
        -12    1    4    4    0    0 -0.61064941490E+00 -0.10000959151E+02 -0.80700337444E+01  0.12865361296E+02  0.00000000000E+00 0.  1.
</event>
<event>
 8    1  0.7489580E-009  0.9118800E+02  0.7816164E-02  0.1184000E+00
        -11   -1    0    0    0    0  0.00000000000E+00  0.00000000000E+00  0.45593999997E+02  0.45594000000E+02  0.51100000000E-03 0. -1.
         11   -1    0    0    0    0 -0.00000000000E+00 -0.00000000000E+00 -0.45593999997E+02  0.45594000000E+02  0.51100000000E-03 0.  1.
         23    2    1    2    0    0 -0.35527136788E-14  0.00000000000E+00  0.00000000000E+00  0.91188000000E+02  0.91188000000E+02 0.  0.
    9900012    2    3    3    0    0 -0.18468525265E+02 -0.35203300026E+02 -0.21183831727E+02  0.46142317800E+02  0.10000000358E+02 0.  0.
         12    1    3    3    0    0  0.18468525265E+02  0.35203300026E+02  0.21183831727E+02  0.45045682200E+02  0.00000000000E+00 0. -1.
         11    1    4    4    0    0 -0.38777536605E+01 -0.37797447199E+01 -0.43164037550E+01  0.69249393670E+01  0.51100000000E-03 0. -1.
        -11    1    4    4    0    0 -0.11531378248E+02 -0.21986185908E+02 -0.85076495177E+01  0.26243954650E+02  0.51100000000E-03 0.  1.
        -12    1    4    4    0    0 -0.30593933571E+01 -0.94373693980E+01 -0.83597784544E+01  0.12973423784E+02  0.00000000000E+00 0.  1.
</event>
<event>
 8    1  0.7489580E-009  0.9118800E+02  0.7816164E-02  0.1184000E+00
        -11   -1    0    0    0    0  0.00000000000E+00  0.00000000000E+00  0.45593999997E+02  0.45594000000E+02  0.51100000000E-03 0. -1.
         11   -1    0    0    0    0 -0.00000000000E+00 -0.00000000000E+00 -0.45593999997E+02  0.45594000000E+02  0.51100000000E-03 0.  1.
         23    2    1    2    0    0  0.00000000000E+00  0.00000000000E+00  0.00000000000E+00  0.91188000000E+02  0.91188000000E+02 0.  0.
    9900012    2    3    3    0    0 -0.37306620179E+02  0.33312004531E+01 -0.25024641105E+02  0.46142317986E+02  0.10000002050E+02 0.  0.
         12    1    3    3    0    0  0.37306620179E+02 -0.33312004531E+01  0.25024641105E+02  0.45045682014E+02  0.00000000000E+00 0. -1.
         11    1    4    4    0    0 -0.14665152642E+02  0.15854723549E+01 -0.63187527069E+01  0.16047026535E+02  0.51100000000E-03 0. -1.
        -11    1    4    4    0    0 -0.81742821737E+01  0.55716721983E+00 -0.30426095395E+01  0.87399540866E+01  0.51100000000E-03 0.  1.
        -12    1    4    4    0    0 -0.14467185364E+02  0.11885608783E+01 -0.15663278859E+02  0.21355337364E+02  0.00000000000E+00 0.  1.
</event>
<event>
 8    1  0.7489580E-009  0.9118800E+02  0.7816164E-02  0.1184000E+00
        -11   -1    0    0    0    0  0.00000000000E+00  0.00000000000E+00  0.45593999997E+02  0.45594000000E+02  0.51100000000E-03 0. -1.
         11   -1    0    0    0    0 -0.00000000000E+00 -0.00000000000E+00 -0.45593999997E+02  0.45594000000E+02  0.51100000000E-03 0.  1.
         23    2    1    2    0    0  0.00000000000E+00  0.00000000000E+00 -0.35527136788E-14  0.91188000000E+02  0.91188000000E+02 0.  0.
    9900012    2    3    3    0    0  0.33438543499E+02 -0.21643473186E+02  0.21036572661E+02  0.46142317496E+02  0.99999975829E+01 0.  0.
        -12    1    3    3    0    0 -0.33438543499E+02  0.21643473186E+02 -0.21036572661E+02  0.45045682504E+02  0.00000000000E+00 0.  1.
         11    1    4    4    0    0  0.25245291177E+02 -0.13257727019E+02  0.14441226307E+02  0.31963120465E+02  0.51100000000E-03 0. -1.
        -11    1    4    4    0    0  0.63570438693E+01 -0.44798027225E+01  0.59996854813E+01  0.98222637576E+01  0.51100000000E-03 0.  1.
        -12    1    4    4    0    0  0.18362084529E+01 -0.39059434449E+01  0.59566087293E+00  0.43569332738E+01  0.00000000000E+00 0.  1.
</event>
<event>
 8    1  0.7489580E-009  0.9118800E+02  0.7816164E-02  0.1184000E+00
        -11   -1    0    0    0    0  0.00000000000E+00  0.00000000000E+00  0.45593999997E+02  0.45594000000E+02  0.51100000000E-03 0. -1.
         11   -1    0    0    0    0 -0.00000000000E+00 -0.00000000000E+00 -0.45593999997E+02  0.45594000000E+02  0.51100000000E-03 0.  1.
         23    2    1    2    0    0  0.00000000000E+00  0.00000000000E+00  0.35527136788E-14  0.91188000000E+02  0.91188000000E+02 0.  0.
    9900012    2    3    3    0    0 -0.34177959655E+02  0.16486811517E+02 -0.24272733728E+02  0.46142317823E+02  0.10000000561E+02 0.  0.
         12    1    3    3    0    0  0.34177959655E+02 -0.16486811517E+02  0.24272733728E+02  0.45045682177E+02  0.00000000000E+00 0. -1.
         11    1    4    4    0    0 -0.19216901049E+02  0.55829156431E+01 -0.14935559993E+02  0.24970566385E+02  0.51100000000E-03 0. -1.
        -11    1    4    4    0    0 -0.28298458005E+01  0.11363358309E+01 -0.73632198638E-01  0.30503620010E+01  0.51100000000E-03 0.  1.
         12    1    4    4    0    0 -0.12131212806E+02  0.97675600430E+01 -0.92635415355E+01  0.18121389436E+02  0.00000000000E+00 0. -1.
</event>
<event>
 8    1  0.7489580E-009  0.9118800E+02  0.7816164E-02  0.1184000E+00
        -11   -1    0    0    0    0  0.00000000000E+00  0.00000000000E+00  0.45593999997E+02  0.45594000000E+02  0.51100000000E-03 0. -1.
         11   -1    0    0    0    0 -0.00000000000E+00 -0.00000000000E+00 -0.45593999997E+02  0.45594000000E+02  0.51100000000E-03 0.  1.
         23    2    1    2    0    0  0.00000000000E+00  0.00000000000E+00  0.00000000000E+00  0.91188000000E+02  0.91188000000E+02 0.  0.
    9900012    2    3    3    0    0 -0.19715699088E+01  0.18304805479E+02  0.41111551509E+02  0.46142326967E+02  0.10000083944E+02 0.  0.
        -12    1    3    3    0    0  0.19715699088E+01 -0.18304805479E+02 -0.41111551509E+02  0.45045673033E+02  0.00000000000E+00 0.  1.
         11    1    4    4    0    0  0.15880411346E+01  0.39940056742E+01  0.77762550951E+01  0.88850492140E+01  0.51100000000E-03 0. -1.
        -11    1    4    4    0    0 -0.18993136454E+01  0.40584158572E+00  0.14232732698E+01  0.24078635297E+01  0.51100000000E-03 0.  1.
        -12    1    4    4    0    0 -0.16602973980E+01  0.13904958220E+02  0.31912023144E+02  0.34849414223E+02  0.00000000000E+00 0.  1.
</event>
<event>
 8    1  0.7489580E-009  0.9118800E+02  0.7816164E-02  0.1184000E+00
        -11   -1    0    0    0    0  0.00000000000E+00  0.00000000000E+00  0.45593999997E+02  0.45594000000E+02  0.51100000000E-03 0. -1.
         11   -1    0    0    0    0 -0.00000000000E+00 -0.00000000000E+00 -0.45593999997E+02  0.45594000000E+02  0.51100000000E-03 0.  1.
         23    2    1    2    0    0  0.00000000000E+00  0.00000000000E+00  0.00000000000E+00  0.91188000000E+02  0.91188000000E+02 0.  0.
    9900012    2    3    3    0    0 -0.21428901491E+02  0.19102147693E+02 -0.34713450049E+02  0.46142317855E+02  0.10000000857E+02 0.  0.
         12    1    3    3    0    0  0.21428901491E+02 -0.19102147693E+02  0.34713450049E+02  0.45045682145E+02  0.00000000000E+00 0. -1.
         11    1    4    4    0    0 -0.97404096455E+00  0.33181561196E+01 -0.29834964931E+01  0.45672932269E+01  0.51100000000E-03 0. -1.
        -11    1    4    4    0    0 -0.10187520437E+02  0.11110654219E+02 -0.22050616820E+02  0.26710707819E+02  0.51100000000E-03 0.  1.
        -12    1    4    4    0    0 -0.10267340089E+02  0.46733373550E+01 -0.96793367364E+01  0.14864316809E+02  0.00000000000E+00 0.  1.
</event>
<event>
 8    1  0.7489580E-009  0.9118800E+02  0.7816164E-02  0.1184000E+00
        -11   -1    0    0    0    0  0.00000000000E+00  0.00000000000E+00  0.45593999997E+02  0.45594000000E+02  0.51100000000E-03 0. -1.
         11   -1    0    0    0    0 -0.00000000000E+00 -0.00000000000E+00 -0.45593999997E+02  0.45594000000E+02  0.51100000000E-03 0.  1.
         23    2    1    2    0    0  0.00000000000E+00  0.00000000000E+00  0.00000000000E+00  0.91188000000E+02  0.91188000000E+02 0.  0.
    9900012    2    3    3    0    0 -0.42882766089E+02 -0.10332703413E+02 -0.91333009285E+01  0.46142316820E+02  0.99999914213E+01 0.  0.
         12    1    3    3    0    0  0.42882766089E+02  0.10332703413E+02  0.91333009285E+01  0.45045683180E+02  0.00000000000E+00 0. -1.
         11    1    4    4    0    0 -0.64544365710E+01 -0.53248994784E+00  0.73050784046E+00  0.65174334641E+01  0.51100000000E-03 0. -1.
        -11    1    4    4    0    0 -0.26618176826E+02 -0.58699688746E+01 -0.40317003768E+01  0.27554282431E+02  0.51100000000E-03 0.  1.
        -12    1    4    4    0    0 -0.98101526922E+01 -0.39302445908E+01 -0.58321083922E+01  0.12070600925E+02  0.00000000000E+00 0.  1.
</event>
<event>
 8    1  0.7489580E-009  0.9118800E+02  0.7816164E-02  0.1184000E+00
        -11   -1    0    0    0    0  0.00000000000E+00  0.00000000000E+00  0.45593999997E+02  0.45594000000E+02  0.51100000000E-03 0.  1.
         11   -1    0    0    0    0 -0.00000000000E+00 -0.00000000000E+00 -0.45593999997E+02  0.45594000000E+02  0.51100000000E-03 0. -1.
         23    2    1    2    0    0 -0.44408920985E-15  0.00000000000E+00  0.00000000000E+00  0.91188000000E+02  0.91188000000E+02 0.  0.
    9900012    2    3    3    0    0 -0.23463010514E+01  0.33819638807E+02 -0.29662098857E+02  0.46142320892E+02  0.10000028552E+02 0.  0.
         12    1    3    3    0    0  0.23463010514E+01 -0.33819638807E+02  0.29662098857E+02  0.45045679108E+02  0.00000000000E+00 0. -1.
         11    1    4    4    0    0  0.28677555231E+01  0.44056621720E+01 -0.32694775200E+01  0.61905867597E+01  0.51100000000E-03 0. -1.
        -11    1    4    4    0    0 -0.43185981416E+00  0.94744690262E+01 -0.80610983159E+01  0.12447223487E+02  0.51100000000E-03 0.  1.
        -12    1    4    4    0    0 -0.47821967603E+01  0.19939507609E+02 -0.18331523021E+02  0.27504510645E+02  0.00000000000E+00 0.  1.
</event>
<event>
 8    1  0.7489580E-009  0.9118800E+02  0.7816164E-02  0.1184000E+00
        -11   -1    0    0    0    0  0.00000000000E+00  0.00000000000E+00  0.45593999997E+02  0.45594000000E+02  0.51100000000E-03 0.  1.
         11   -1    0    0    0    0 -0.00000000000E+00 -0.00000000000E+00 -0.45593999997E+02  0.45594000000E+02  0.51100000000E-03 0. -1.
         23    2    1    2    0    0  0.00000000000E+00  0.00000000000E+00  0.44408920985E-15  0.91188000000E+02  0.91188000000E+02 0.  0.
    9900012    2    3    3    0    0 -0.19256893760E+02  0.40667179037E+02 -0.21133057418E+01  0.46142317973E+02  0.10000001931E+02 0.  0.
         12    1    3    3    0    0  0.19256893760E+02 -0.40667179037E+02  0.21133057418E+01  0.45045682027E+02  0.00000000000E+00 0. -1.
         11    1    4    4    0    0 -0.85037467883E+01  0.93791255386E+01  0.99443335036E+00  0.12699236326E+02  0.51100000000E-03 0. -1.
        -11    1    4    4    0    0 -0.66290426967E+01  0.14109481271E+02 -0.61371347474E+00  0.15601227942E+02  0.51100000000E-03 0.  1.
        -12    1    4    4    0    0 -0.41241042753E+01  0.17178572227E+02 -0.24940256174E+01  0.17841853705E+02  0.00000000000E+00 0.  1.
</event>
<event>
 8    1  0.7489580E-009  0.9118800E+02  0.7816164E-02  0.1184000E+00
        -11   -1    0    0    0    0  0.00000000000E+00  0.00000000000E+00  0.45593999997E+02  0.45594000000E+02  0.51100000000E-03 0. -1.
         11   -1    0    0    0    0 -0.00000000000E+00 -0.00000000000E+00 -0.45593999997E+02  0.45594000000E+02  0.51100000000E-03 0.  1.
         23    2    1    2    0    0  0.00000000000E+00  0.88817841970E-15  0.00000000000E+00  0.91188000000E+02  0.91188000000E+02 0.  0.
    9900012    2    3    3    0    0 -0.76701856734E+01  0.59217087001E+01  0.43991081115E+02  0.46142316523E+02  0.99999887142E+01 0.  0.
        -12    1    3    3    0    0  0.76701856734E+01 -0.59217087001E+01 -0.43991081115E+02  0.45045683477E+02  0.00000000000E+00 0.  1.
         11    1    4    4    0    0 -0.66407160025E+01  0.40030438890E+01  0.17685602621E+02  0.19310722662E+02  0.51100000000E-03 0. -1.
        -11    1    4    4    0    0 -0.15898322306E+01 -0.99343362157E+00  0.53853261208E+01  0.57022990601E+01  0.51100000000E-03 0.  1.
         12    1    4    4    0    0  0.56036255964E+00  0.29120984327E+01  0.20920152373E+02  0.21129294801E+02  0.00000000000E+00 0. -1.
</event>
<event>
 8    1  0.7489580E-009  0.9118800E+02  0.7816164E-02  0.1184000E+00
        -11   -1    0    0    0    0  0.00000000000E+00  0.00000000000E+00  0.45593999997E+02  0.45594000000E+02  0.51100000000E-03 0. -1.
         11   -1    0    0    0    0 -0.00000000000E+00 -0.00000000000E+00 -0.45593999997E+02  0.45594000000E+02  0.51100000000E-03 0.  1.
         23    2    1    2    0    0  0.00000000000E+00  0.00000000000E+00  0.00000000000E+00  0.91188000000E+02  0.91188000000E+02 0.  0.
    9900012    2    3    3    0    0  0.14945616301E+02  0.24917438640E+02  0.34421841570E+02  0.46142319052E+02  0.10000011774E+02 0.  0.
        -12    1    3    3    0    0 -0.14945616301E+02 -0.24917438640E+02 -0.34421841570E+02  0.45045680948E+02  0.00000000000E+00 0.  1.
         11    1    4    4    0    0  0.73570402741E+01  0.97551375393E+01  0.12400991933E+02  0.17409002016E+02  0.51100000000E-03 0. -1.
        -11    1    4    4    0    0  0.84693249570E+01  0.10412145641E+02  0.17967230036E+02  0.22426849923E+02  0.51100000000E-03 0.  1.
        -12    1    4    4    0    0 -0.88074893059E+00  0.47501554607E+01  0.40536196011E+01  0.63064671132E+01  0.00000000000E+00 0.  1.
</event>
<event>
 8    1  0.7489580E-009  0.9118800E+02  0.7816164E-02  0.1184000E+00
        -11   -1    0    0    0    0  0.00000000000E+00  0.00000000000E+00  0.45593999997E+02  0.45594000000E+02  0.51100000000E-03 0. -1.
         11   -1    0    0    0    0 -0.00000000000E+00 -0.00000000000E+00 -0.45593999997E+02  0.45594000000E+02  0.51100000000E-03 0.  1.
         23    2    1    2    0    0 -0.17763568394E-14  0.00000000000E+00  0.71054273576E-14  0.91188000000E+02  0.91188000000E+02 0.  0.
    9900012    2    3    3    0    0  0.89049644186E+01  0.29717287293E+02 -0.32660342390E+02  0.46142317406E+02  0.99999967622E+01 0.  0.
         12    1    3    3    0    0 -0.89049644186E+01 -0.29717287293E+02  0.32660342390E+02  0.45045682594E+02  0.00000000000E+00 0. -1.
         11    1    4    4    0    0 -0.87495601325E+00  0.35990464120E+00 -0.51657862666E-01  0.94749573707E+00  0.51100000000E-03 0. -1.
        -11    1    4    4    0    0  0.10310082761E+01  0.63934868383E+01 -0.46561968190E+01  0.79762034261E+01  0.51100000000E-03 0.  1.
        -12    1    4    4    0    0  0.87489121558E+01  0.22963895813E+02 -0.27952487708E+02  0.37218618243E+02  0.00000000000E+00 0.  1.
</event>
<event>
 8    1  0.7489580E-009  0.9118800E+02  0.7816164E-02  0.1184000E+00
        -11   -1    0    0    0    0  0.00000000000E+00  0.00000000000E+00  0.45593999997E+02  0.45594000000E+02  0.51100000000E-03 0. -1.
         11   -1    0    0    0    0 -0.00000000000E+00 -0.00000000000E+00 -0.45593999997E+02  0.45594000000E+02  0.51100000000E-03 0.  1.
         23    2    1    2    0    0 -0.35527136788E-14  0.35527136788E-14  0.00000000000E+00  0.91188000000E+02  0.91188000000E+02 0.  0.
    9900012    2    3    3    0    0  0.16670273036E+02  0.22402756921E+02 -0.35345895050E+02  0.46142314106E+02  0.99999666724E+01 0.  0.
         12    1    3    3    0    0 -0.16670273036E+02 -0.22402756921E+02  0.35345895050E+02  0.45045685894E+02  0.00000000000E+00 0. -1.
         11    1    4    4    0    0  0.49185805522E+01  0.93668417320E+01 -0.15044037658E+02  0.18391661915E+02  0.51100000000E-03 0. -1.
        -11    1    4    4    0    0  0.12596143595E+02  0.12777609872E+02 -0.19854841145E+02  0.26760883107E+02  0.51100000000E-03 0.  1.
         12    1    4    4    0    0 -0.84445111090E+00  0.25830531693E+00 -0.44701624677E+00  0.98976908435E+00  0.00000000000E+00 0. -1.
</event>
<event>
 8    1  0.7489580E-009  0.9118800E+02  0.7816164E-02  0.1184000E+00
        -11   -1    0    0    0    0  0.00000000000E+00  0.00000000000E+00  0.45593999997E+02  0.45594000000E+02  0.51100000000E-03 0. -1.
         11   -1    0    0    0    0 -0.00000000000E+00 -0.00000000000E+00 -0.45593999997E+02  0.45594000000E+02  0.51100000000E-03 0.  1.
         23    2    1    2    0    0  0.00000000000E+00 -0.35527136788E-14  0.00000000000E+00  0.91188000000E+02  0.91188000000E+02 0.  0.
    9900012    2    3    3    0    0  0.22811711561E+02 -0.97147643669E+01 -0.37608017487E+02  0.46142314187E+02  0.99999674102E+01 0.  0.
         12    1    3    3    0    0 -0.22811711561E+02  0.97147643669E+01  0.37608017487E+02  0.45045685813E+02  0.00000000000E+00 0. -1.
         11    1    4    4    0    0 -0.39162650134E+00 -0.13832026858E-01  0.31664737829E+00  0.50381391884E+00  0.51100000000E-03 0. -1.
        -11    1    4    4    0    0  0.23693313581E+01 -0.10081751776E+01 -0.60904521373E+01  0.66123941028E+01  0.51100000000E-03 0.  1.
         12    1    4    4    0    0  0.20834006704E+02 -0.86927571624E+01 -0.31834212728E+02  0.39026106166E+02  0.00000000000E+00 0. -1.
</event>
<event>
 8    1  0.7489580E-009  0.9118800E+02  0.7816164E-02  0.1184000E+00
        -11   -1    0    0    0    0  0.00000000000E+00  0.00000000000E+00  0.45593999997E+02  0.45594000000E+02  0.51100000000E-03 0. -1.
         11   -1    0    0    0    0 -0.00000000000E+00 -0.00000000000E+00 -0.45593999997E+02  0.45594000000E+02  0.51100000000E-03 0.  1.
         23    2    1    2    0    0  0.35527136788E-14  0.27755575616E-16  0.00000000000E+00  0.91188000000E+02  0.91188000000E+02 0.  0.
    9900012    2    3    3    0    0 -0.26592694121E+02 -0.15359680088E+00 -0.36358200284E+02  0.46142315406E+02  0.99999785268E+01 0.  0.
         12    1    3    3    0    0  0.26592694121E+02  0.15359680088E+00  0.36358200284E+02  0.45045684594E+02  0.00000000000E+00 0. -1.
         11    1    4    4    0    0 -0.13900668673E+01 -0.21007227839E+00 -0.41614597595E+01  0.43925122480E+01  0.51100000000E-03 0. -1.
        -11    1    4    4    0    0 -0.18841177067E+02 -0.31976785643E+01 -0.20363033789E+02  0.27926121228E+02  0.51100000000E-03 0.  1.
        -12    1    4    4    0    0 -0.63614501870E+01  0.32541540418E+01 -0.11833706736E+02  0.13823681931E+02  0.00000000000E+00 0.  1.
</event>
<event>
 8    1  0.7489580E-009  0.9118800E+02  0.7816164E-02  0.1184000E+00
        -11   -1    0    0    0    0  0.00000000000E+00  0.00000000000E+00  0.45593999997E+02  0.45594000000E+02  0.51100000000E-03 0.  1.
         11   -1    0    0    0    0 -0.00000000000E+00 -0.00000000000E+00 -0.45593999997E+02  0.45594000000E+02  0.51100000000E-03 0. -1.
         23    2    1    2    0    0  0.00000000000E+00 -0.35527136788E-14  0.00000000000E+00  0.91188000000E+02  0.91188000000E+02 0.  0.
    9900012    2    3    3    0    0  0.13648915644E+02  0.21832056487E+02 -0.36961898084E+02  0.46142317647E+02  0.99999989574E+01 0.  0.
         12    1    3    3    0    0 -0.13648915644E+02 -0.21832056487E+02  0.36961898084E+02  0.45045682353E+02  0.00000000000E+00 0. -1.
         11    1    4    4    0    0  0.13904493172E+01  0.17334563847E+01 -0.32913026939E+01  0.39712584939E+01  0.51100000000E-03 0. -1.
        -11    1    4    4    0    0  0.10602534603E+02  0.84006773630E+01 -0.16662519229E+02  0.21462168285E+02  0.51100000000E-03 0.  1.
         12    1    4    4    0    0  0.16559317236E+01  0.11697922739E+02 -0.17008076161E+02  0.20708890868E+02  0.00000000000E+00 0. -1.
</event>
<event>
 8    1  0.7489580E-009  0.9118800E+02  0.7816164E-02  0.1184000E+00
        -11   -1    0    0    0    0  0.00000000000E+00  0.00000000000E+00  0.45593999997E+02  0.45594000000E+02  0.51100000000E-03 0. -1.
         11   -1    0    0    0    0 -0.00000000000E+00 -0.00000000000E+00 -0.45593999997E+02  0.45594000000E+02  0.51100000000E-03 0.  1.
         23    2    1    2    0    0 -0.11102230246E-15 -0.35527136788E-14  0.71054273576E-14  0.91188000000E+02  0.91188000000E+02 0.  0.
    9900012    2    3    3    0    0  0.56952611839E+00  0.20555676099E+02 -0.40078090346E+02  0.46142317569E+02  0.99999982492E+01 0.  0.
         12    1    3    3    0    0 -0.56952611839E+00 -0.20555676099E+02  0.40078090346E+02  0.45045682431E+02  0.00000000000E+00 0. -1.
         11    1    4    4    0    0 -0.16446327687E+01  0.58954176044E+01 -0.83952367633E+01  0.10389454569E+02  0.51100000000E-03 0. -1.
        -11    1    4    4    0    0  0.22706232884E+01  0.11913756148E+02 -0.30382108452E+02  0.32713389153E+02  0.51100000000E-03 0.  1.
         12    1    4    4    0    0 -0.56464401334E-01  0.27465023465E+01 -0.13007451313E+01  0.30394738466E+01  0.00000000000E+00 0. -1.
</event>
<event>
 8    1  0.7489580E-009  0.9118800E+02  0.7816164E-02  0.1184000E+00
        -11   -1    0    0    0    0  0.00000000000E+00  0.00000000000E+00  0.45593999997E+02  0.45594000000E+02  0.51100000000E-03 0. -1.
         11   -1    0    0    0    0 -0.00000000000E+00 -0.00000000000E+00 -0.45593999997E+02  0.45594000000E+02  0.51100000000E-03 0.  1.
         23    2    1    2    0    0  0.22204460493E-15  0.00000000000E+00 -0.71054273576E-14  0.91188000000E+02  0.91188000000E+02 0.  0.
    9900012    2    3    3    0    0 -0.56337435167E+00 -0.27594847501E+02  0.35599442835E+02  0.46142319525E+02  0.10000016088E+02 0.  0.
        -12    1    3    3    0    0  0.56337435167E+00  0.27594847501E+02 -0.35599442835E+02  0.45045680475E+02  0.00000000000E+00 0.  1.
         11    1    4    4    0    0  0.10381047961E+01 -0.20832806858E+00  0.43997127003E+01  0.45253214536E+01  0.51100000000E-03 0.  1.
        -11    1    4    4    0    0 -0.15288256702E+01 -0.74801318033E+01  0.87640213126E+01  0.11623155748E+02  0.51100000000E-03 0. -1.
         12    1    4    4    0    0 -0.72653477632E-01 -0.19906387629E+02  0.22435708822E+02  0.29993842323E+02  0.00000000000E+00 0. -1.
</event>
<event>
 8    1  0.7489580E-009  0.9118800E+02  0.7816164E-02  0.1184000E+00
        -11   -1    0    0    0    0  0.00000000000E+00  0.00000000000E+00  0.45593999997E+02  0.45594000000E+02  0.51100000000E-03 0. -1.
         11   -1    0    0    0    0 -0.00000000000E+00 -0.00000000000E+00 -0.45593999997E+02  0.45594000000E+02  0.51100000000E-03 0.  1.
         23    2    1    2    0    0  0.00000000000E+00  0.35527136788E-14  0.00000000000E+00  0.91188000000E+02  0.91188000000E+02 0.  0.
    9900012    2    3    3    0    0 -0.32407938172E+02 -0.25767028071E+02 -0.17745403046E+02  0.46142317394E+02  0.99999966493E+01 0.  0.
         12    1    3    3    0    0  0.32407938172E+02  0.25767028071E+02  0.17745403046E+02  0.45045682606E+02  0.00000000000E+00 0. -1.
         11    1    4    4    0    0 -0.10839240490E+02 -0.48944293734E+01 -0.26907562046E+01  0.12193635328E+02  0.51100000000E-03 0. -1.
        -11    1    4    4    0    0 -0.74370935128E+01 -0.99264797579E+01 -0.45268560098E+01  0.13203703492E+02  0.51100000000E-03 0.  1.
        -12    1    4    4    0    0 -0.14131604169E+02 -0.10946118940E+02 -0.10527790832E+02  0.20744978574E+02  0.00000000000E+00 0.  1.
</event>
<event>
 8    1  0.7489580E-009  0.9118800E+02  0.7816164E-02  0.1184000E+00
        -11   -1    0    0    0    0  0.00000000000E+00  0.00000000000E+00  0.45593999997E+02  0.45594000000E+02  0.51100000000E-03 0. -1.
         11   -1    0    0    0    0 -0.00000000000E+00 -0.00000000000E+00 -0.45593999997E+02  0.45594000000E+02  0.51100000000E-03 0.  1.
         23    2    1    2    0    0  0.00000000000E+00 -0.71054273576E-14  0.00000000000E+00  0.91188000000E+02  0.91188000000E+02 0.  0.
    9900012    2    3    3    0    0  0.23981800413E+02  0.38069550223E+02  0.21670485311E+01  0.46142317581E+02  0.99999983591E+01 0.  0.
        -12    1    3    3    0    0 -0.23981800413E+02 -0.38069550223E+02 -0.21670485311E+01  0.45045682419E+02  0.00000000000E+00 0.  1.
         11    1    4    4    0    0  0.50975205760E+01  0.48728451052E+01 -0.11868426051E+01  0.71510790145E+01  0.51100000000E-03 0. -1.
        -11    1    4    4    0    0  0.10685416021E+02  0.24307104951E+02  0.41380507594E+01  0.26872605586E+02  0.51100000000E-03 0.  1.
        -12    1    4    4    0    0  0.81988638156E+01  0.88896001670E+01 -0.78415962322E+00  0.12118632980E+02  0.00000000000E+00 0.  1.
</event>
<event>
 8    1  0.7489580E-009  0.9118800E+02  0.7816164E-02  0.1184000E+00
        -11   -1    0    0    0    0  0.00000000000E+00  0.00000000000E+00  0.45593999997E+02  0.45594000000E+02  0.51100000000E-03 0. -1.
         11   -1    0    0    0    0 -0.00000000000E+00 -0.00000000000E+00 -0.45593999997E+02  0.45594000000E+02  0.51100000000E-03 0.  1.
         23    2    1    2    0    0  0.00000000000E+00  0.00000000000E+00  0.00000000000E+00  0.91188000000E+02  0.91188000000E+02 0.  0.
    9900012    2    3    3    0    0 -0.29229647749E+02 -0.21368681022E+02 -0.26797780966E+02  0.46142313183E+02  0.99999582516E+01 0.  0.
         12    1    3    3    0    0  0.29229647749E+02  0.21368681022E+02  0.26797780966E+02  0.45045686817E+02  0.00000000000E+00 0. -1.
         11    1    4    4    0    0 -0.20406245825E+01 -0.37684581008E+01 -0.36530086072E+01  0.56311541703E+01  0.51100000000E-03 0. -1.
        -11    1    4    4    0    0 -0.27552810806E+02 -0.16604590576E+02 -0.22150651676E+02  0.39057920855E+02  0.51100000000E-03 0.  1.
        -12    1    4    4    0    0  0.36378763992E+00 -0.99563234478E+00 -0.99412068215E+00  0.14532381579E+01  0.00000000000E+00 0.  1.
</event>
<event>
 8    1  0.7489580E-009  0.9118800E+02  0.7816164E-02  0.1184000E+00
        -11   -1    0    0    0    0  0.00000000000E+00  0.00000000000E+00  0.45593999997E+02  0.45594000000E+02  0.51100000000E-03 0. -1.
         11   -1    0    0    0    0 -0.00000000000E+00 -0.00000000000E+00 -0.45593999997E+02  0.45594000000E+02  0.51100000000E-03 0.  1.
         23    2    1    2    0    0  0.00000000000E+00 -0.35527136788E-14  0.00000000000E+00  0.91188000000E+02  0.91188000000E+02 0.  0.
    9900012    2    3    3    0    0  0.14713083851E+02 -0.29501290737E+02 -0.30697107933E+02  0.46142318442E+02  0.10000006207E+02 0.  0.
         12    1    3    3    0    0 -0.14713083851E+02  0.29501290737E+02  0.30697107933E+02  0.45045681558E+02  0.00000000000E+00 0. -1.
         11    1    4    4    0    0  0.87405052932E+00 -0.36542511997E+01 -0.27281050290E+01  0.46432826178E+01  0.51100000000E-03 0. -1.
        -11    1    4    4    0    0  0.12936505179E+02 -0.26355076978E+02 -0.27831747388E+02  0.40454287927E+02  0.51100000000E-03 0.  1.
         12    1    4    4    0    0  0.90252814327E+00  0.50803744078E+00 -0.13725551611E+00  0.10447478965E+01  0.00000000000E+00 0. -1.
</event>
<event>
 8    1  0.7489580E-009  0.9118800E+02  0.7816164E-02  0.1184000E+00
        -11   -1    0    0    0    0  0.00000000000E+00  0.00000000000E+00  0.45593999997E+02  0.45594000000E+02  0.51100000000E-03 0. -1.
         11   -1    0    0    0    0 -0.00000000000E+00 -0.00000000000E+00 -0.45593999997E+02  0.45594000000E+02  0.51100000000E-03 0.  1.
         23    2    1    2    0    0  0.00000000000E+00  0.00000000000E+00  0.00000000000E+00  0.91188000000E+02  0.91188000000E+02 0.  0.
    9900012    2    3    3    0    0 -0.51200635296E+01 -0.83321806578E+01  0.43971279473E+02  0.46142315372E+02  0.99999782174E+01 0.  0.
        -12    1    3    3    0    0  0.51200635296E+01  0.83321806578E+01 -0.43971279473E+02  0.45045684628E+02  0.00000000000E+00 0.  1.
         11    1    4    4    0    0 -0.17587879135E+01 -0.50583518696E+01  0.21668029088E+02  0.22320030093E+02  0.51100000000E-03 0. -1.
        -11    1    4    4    0    0 -0.21913755915E+01 -0.39529731918E+01  0.62547065464E+01  0.77168308444E+01  0.51100000000E-03 0.  1.
         12    1    4    4    0    0 -0.11699000247E+01  0.67914440364E+00  0.16048543839E+02  0.16105454435E+02  0.00000000000E+00 0. -1.
</event>
<event>
 8    1  0.7489580E-009  0.9118800E+02  0.7816164E-02  0.1184000E+00
        -11   -1    0    0    0    0  0.00000000000E+00  0.00000000000E+00  0.45593999997E+02  0.45594000000E+02  0.51100000000E-03 0. -1.
         11   -1    0    0    0    0 -0.00000000000E+00 -0.00000000000E+00 -0.45593999997E+02  0.45594000000E+02  0.51100000000E-03 0.  1.
         23    2    1    2    0    0 -0.17763568394E-14  0.00000000000E+00 -0.71054273576E-14  0.91188000000E+02  0.91188000000E+02 0.  0.
    9900012    2    3    3    0    0  0.10205192335E+02  0.37817982120E+02  0.22243374808E+02  0.46142318242E+02  0.10000004385E+02 0.  0.
        -12    1    3    3    0    0 -0.10205192335E+02 -0.37817982120E+02 -0.22243374808E+02  0.45045681758E+02  0.00000000000E+00 0.  1.
         11    1    4    4    0    0 -0.38555990902E+00  0.30953078648E+01  0.96901656198E+00  0.32662793175E+01  0.51100000000E-03 0. -1.
        -11    1    4    4    0    0  0.15363574843E+01  0.30512328471E+01 -0.40755678997E+00  0.34404242478E+01  0.51100000000E-03 0.  1.
         12    1    4    4    0    0  0.90543947593E+01  0.31671441408E+02  0.21681915036E+02  0.39435614677E+02  0.00000000000E+00 0. -1.
</event>
<event>
 8    1  0.7489580E-009  0.9118800E+02  0.7816164E-02  0.1184000E+00
        -11   -1    0    0    0    0  0.00000000000E+00  0.00000000000E+00  0.45593999997E+02  0.45594000000E+02  0.51100000000E-03 0. -1.
         11   -1    0    0    0    0 -0.00000000000E+00 -0.00000000000E+00 -0.45593999997E+02  0.45594000000E+02  0.51100000000E-03 0.  1.
         23    2    1    2    0    0  0.00000000000E+00  0.00000000000E+00 -0.71054273576E-14  0.91188000000E+02  0.91188000000E+02 0.  0.
    9900012    2    3    3    0    0  0.36365927124E+01  0.17190858760E+02 -0.41477260232E+02  0.46142317101E+02  0.99999939815E+01 0.  0.
         12    1    3    3    0    0 -0.36365927124E+01 -0.17190858760E+02  0.41477260232E+02  0.45045682899E+02  0.00000000000E+00 0. -1.
         11    1    4    4    0    0 -0.12411741865E+01 -0.34724342691E-01 -0.44932672376E+01  0.46616702876E+01  0.51100000000E-03 0. -1.
        -11    1    4    4    0    0  0.35765485969E+00  0.56183221420E+01 -0.68037338542E+01  0.88308694538E+01  0.51100000000E-03 0.  1.
        -12    1    4    4    0    0  0.45201120391E+01  0.11607260961E+02 -0.30180259140E+02  0.32649777360E+02  0.00000000000E+00 0.  1.
</event>
<event>
 8    1  0.7489580E-009  0.9118800E+02  0.7816164E-02  0.1184000E+00
        -11   -1    0    0    0    0  0.00000000000E+00  0.00000000000E+00  0.45593999997E+02  0.45594000000E+02  0.51100000000E-03 0. -1.
         11   -1    0    0    0    0 -0.00000000000E+00 -0.00000000000E+00 -0.45593999997E+02  0.45594000000E+02  0.51100000000E-03 0.  1.
         23    2    1    2    0    0  0.00000000000E+00  0.00000000000E+00 -0.71054273576E-14  0.91188000000E+02  0.91188000000E+02 0.  0.
    9900012    2    3    3    0    0 -0.19533693074E+02  0.12218710013E+02 -0.38707253733E+02  0.46142317288E+02  0.99999956837E+01 0.  0.
         12    1    3    3    0    0  0.19533693074E+02 -0.12218710013E+02  0.38707253733E+02  0.45045682712E+02  0.00000000000E+00 0. -1.
         11    1    4    4    0    0 -0.69868986572E+01  0.10243055600E+01 -0.73051472404E+01  0.10160272201E+02  0.51100000000E-03 0. -1.
        -11    1    4    4    0    0 -0.70971288867E+01  0.64919199588E+01 -0.12617526106E+02  0.15865567386E+02  0.51100000000E-03 0.  1.
        -12    1    4    4    0    0 -0.54496655299E+01  0.47024844942E+01 -0.18784580386E+02  0.20116477701E+02  0.00000000000E+00 0.  1.
</event>
<event>
 8    1  0.7489580E-009  0.9118800E+02  0.7816164E-02  0.1184000E+00
        -11   -1    0    0    0    0  0.00000000000E+00  0.00000000000E+00  0.45593999997E+02  0.45594000000E+02  0.51100000000E-03 0. -1.
         11   -1    0    0    0    0 -0.00000000000E+00 -0.00000000000E+00 -0.45593999997E+02  0.45594000000E+02  0.51100000000E-03 0.  1.
         23    2    1    2    0    0 -0.17763568394E-14  0.44408920985E-15  0.00000000000E+00  0.91188000000E+02  0.91188000000E+02 0.  0.
    9900012    2    3    3    0    0 -0.10350038162E+02  0.24379706423E+01  0.43772668301E+02  0.46142317843E+02  0.10000000748E+02 0.  0.
        -12    1    3    3    0    0  0.10350038162E+02 -0.24379706423E+01 -0.43772668301E+02  0.45045682157E+02  0.00000000000E+00 0.  1.
         11    1    4    4    0    0 -0.48793816501E+00 -0.20351615588E+01  0.41063328944E+01  0.46088975172E+01  0.51100000000E-03 0. -1.
        -11    1    4    4    0    0 -0.33093004648E+00  0.20128357688E+01  0.34963226403E+01  0.40478753432E+01  0.51100000000E-03 0.  1.
         12    1    4    4    0    0 -0.95311699506E+01  0.24602964323E+01  0.36170012766E+02  0.37485544983E+02  0.00000000000E+00 0. -1.
</event>
<event>
 8    1  0.7489580E-009  0.9118800E+02  0.7816164E-02  0.1184000E+00
        -11   -1    0    0    0    0  0.00000000000E+00  0.00000000000E+00  0.45593999997E+02  0.45594000000E+02  0.51100000000E-03 0. -1.
         11   -1    0    0    0    0 -0.00000000000E+00 -0.00000000000E+00 -0.45593999997E+02  0.45594000000E+02  0.51100000000E-03 0.  1.
         23    2    1    2    0    0  0.00000000000E+00  0.00000000000E+00  0.17763568394E-14  0.91188000000E+02  0.91188000000E+02 0.  0.
    9900012    2    3    3    0    0 -0.43449411865E+02  0.22330859769E+01  0.11673716143E+02  0.46142315268E+02  0.99999772690E+01 0.  0.
        -12    1    3    3    0    0  0.43449411865E+02 -0.22330859769E+01 -0.11673716143E+02  0.45045684732E+02  0.00000000000E+00 0.  1.
         11    1    4    4    0    0 -0.23371883748E+02  0.26102423362E+01  0.82828647800E+01  0.24933194024E+02  0.51100000000E-03 0. -1.
        -11    1    4    4    0    0 -0.14472669869E+02  0.22935763292E+01  0.15596055224E+01  0.14736045439E+02  0.51100000000E-03 0.  1.
        -12    1    4    4    0    0 -0.56048582471E+01 -0.26707326885E+01  0.18312458403E+01  0.64730758060E+01  0.00000000000E+00 0.  1.
</event>
<event>
 8    1  0.7489580E-009  0.9118800E+02  0.7816164E-02  0.1184000E+00
        -11   -1    0    0    0    0  0.00000000000E+00  0.00000000000E+00  0.45593999997E+02  0.45594000000E+02  0.51100000000E-03 0. -1.
         11   -1    0    0    0    0 -0.00000000000E+00 -0.00000000000E+00 -0.45593999997E+02  0.45594000000E+02  0.51100000000E-03 0.  1.
         23    2    1    2    0    0 -0.71054273576E-14  0.00000000000E+00  0.00000000000E+00  0.91188000000E+02  0.91188000000E+02 0.  0.
    9900012    2    3    3    0    0 -0.34904042206E+02 -0.26911689075E+02 -0.93049661553E+01  0.46142316896E+02  0.99999921072E+01 0.  0.
         12    1    3    3    0    0  0.34904042206E+02  0.26911689075E+02  0.93049661553E+01  0.45045683104E+02  0.00000000000E+00 0. -1.
         11    1    4    4    0    0 -0.15115071867E+01 -0.20554672311E+01 -0.83660994153E+00  0.26850541836E+01  0.51100000000E-03 0. -1.
        -11    1    4    4    0    0 -0.10440983975E+02 -0.62230002606E+01  0.15267211377E+01  0.12250336988E+02  0.51100000000E-03 0.  1.
        -12    1    4    4    0    0 -0.22951551044E+02 -0.18633221583E+02 -0.99950773515E+01  0.31206925724E+02  0.00000000000E+00 0.  1.
</event>
<event>
 8    1  0.7489580E-009  0.9118800E+02  0.7816164E-02  0.1184000E+00
        -11   -1    0    0    0    0  0.00000000000E+00  0.00000000000E+00  0.45593999997E+02  0.45594000000E+02  0.51100000000E-03 0. -1.
         11   -1    0    0    0    0 -0.00000000000E+00 -0.00000000000E+00 -0.45593999997E+02  0.45594000000E+02  0.51100000000E-03 0.  1.
         23    2    1    2    0    0 -0.35527136788E-14  0.00000000000E+00  0.00000000000E+00  0.91188000000E+02  0.91188000000E+02 0.  0.
    9900012    2    3    3    0    0 -0.27928494495E+02  0.25207156158E+02 -0.24773210152E+02  0.46142317992E+02  0.10000002108E+02 0.  0.
         12    1    3    3    0    0  0.27928494495E+02 -0.25207156158E+02  0.24773210152E+02  0.45045682008E+02  0.00000000000E+00 0. -1.
         11    1    4    4    0    0  0.33542422280E+00 -0.39949575707E+00 -0.18771397147E+00  0.55438530406E+00  0.51100000000E-03 0. -1.
        -11    1    4    4    0    0 -0.26625271777E+02  0.23224455813E+02 -0.21495898467E+02  0.41356427508E+02  0.51100000000E-03 0.  1.
        -12    1    4    4    0    0 -0.16386469400E+01  0.23821961019E+01 -0.30895977133E+01  0.42315051804E+01  0.00000000000E+00 0.  1.
</event>
<event>
 8    1  0.7489580E-009  0.9118800E+02  0.7816164E-02  0.1184000E+00
        -11   -1    0    0    0    0  0.00000000000E+00  0.00000000000E+00  0.45593999997E+02  0.45594000000E+02  0.51100000000E-03 0. -1.
         11   -1    0    0    0    0 -0.00000000000E+00 -0.00000000000E+00 -0.45593999997E+02  0.45594000000E+02  0.51100000000E-03 0.  1.
         23    2    1    2    0    0  0.00000000000E+00  0.00000000000E+00 -0.35527136788E-14  0.91188000000E+02  0.91188000000E+02 0.  0.
    9900012    2    3    3    0    0  0.32139712688E+02 -0.78519042300E+01 -0.30569593652E+02  0.46142316658E+02  0.99999899393E+01 0.  0.
         12    1    3    3    0    0 -0.32139712688E+02  0.78519042300E+01  0.30569593652E+02  0.45045683342E+02  0.00000000000E+00 0. -1.
         11    1    4    4    0    0  0.11658475665E+02 -0.19759115724E+01 -0.13064612302E+02  0.17621247863E+02  0.51100000000E-03 0. -1.
        -11    1    4    4    0    0  0.78624443201E+01 -0.60089792995E+01 -0.78833162168E+01  0.12651977622E+02  0.51100000000E-03 0.  1.
         12    1    4    4    0    0  0.12618792703E+02  0.13298664201E+00 -0.96216651332E+01  0.15869091173E+02  0.00000000000E+00 0. -1.
</event>
<event>
 8    1  0.7489580E-009  0.9118800E+02  0.7816164E-02  0.1184000E+00
        -11   -1    0    0    0    0  0.00000000000E+00  0.00000000000E+00  0.45593999997E+02  0.45594000000E+02  0.51100000000E-03 0. -1.
         11   -1    0    0    0    0 -0.00000000000E+00 -0.00000000000E+00 -0.45593999997E+02  0.45594000000E+02  0.51100000000E-03 0.  1.
         23    2    1    2    0    0  0.11102230246E-15  0.00000000000E+00  0.00000000000E+00  0.91188000000E+02  0.91188000000E+02 0.  0.
    9900012    2    3    3    0    0 -0.78414507329E+00  0.42807198132E+02 -0.14001510681E+02  0.46142318778E+02  0.10000009273E+02 0.  0.
         12    1    3    3    0    0  0.78414507329E+00 -0.42807198132E+02  0.14001510681E+02  0.45045681222E+02  0.00000000000E+00 0. -1.
         11    1    4    4    0    0  0.20496038524E+01  0.14804403961E+02 -0.56299808142E+01  0.15970846466E+02  0.51100000000E-03 0. -1.
        -11    1    4    4    0    0 -0.18155135803E+01  0.19509772553E+02 -0.90653612047E+01  0.21589536555E+02  0.51100000000E-03 0.  1.
         12    1    4    4    0    0 -0.10182353454E+01  0.84930216176E+01  0.69383133817E+00  0.85819357573E+01  0.00000000000E+00 0. -1.
</event>
<event>
 8    1  0.7489580E-009  0.9118800E+02  0.7816164E-02  0.1184000E+00
        -11   -1    0    0    0    0  0.00000000000E+00  0.00000000000E+00  0.45593999997E+02  0.45594000000E+02  0.51100000000E-03 0. -1.
         11   -1    0    0    0    0 -0.00000000000E+00 -0.00000000000E+00 -0.45593999997E+02  0.45594000000E+02  0.51100000000E-03 0.  1.
         23    2    1    2    0    0 -0.22204460493E-15  0.35527136788E-14  0.00000000000E+00  0.91188000000E+02  0.91188000000E+02 0.  0.
    9900012    2    3    3    0    0 -0.11654256325E+01  0.28786701344E+02 -0.34627750748E+02  0.46142317487E+02  0.99999975033E+01 0.  0.
         12    1    3    3    0    0  0.11654256325E+01 -0.28786701344E+02  0.34627750748E+02  0.45045682513E+02  0.00000000000E+00 0. -1.
         11    1    4    4    0    0  0.21314180563E+01  0.40720388556E+01 -0.74835571450E+01  0.87822588880E+01  0.51100000000E-03 0. -1.
        -11    1    4    4    0    0 -0.14129859823E+01  0.21657175877E+02 -0.20750815859E+02  0.30027090359E+02  0.51100000000E-03 0.  1.
        -12    1    4    4    0    0 -0.18838577065E+01  0.30574866117E+01 -0.63933777439E+01  0.73329682404E+01  0.00000000000E+00 0.  1.
</event>
<event>
 8    1  0.1014763E-008  0.9118800E+02  0.7816164E-02  0.1184000E+00
        -11   -1    0    0    0    0  0.00000000000E+00  0.00000000000E+00  0.45593999997E+02  0.45594000000E+02  0.51100000000E-03 0. -1.
         11   -1    0    0    0    0 -0.00000000000E+00 -0.00000000000E+00 -0.45593999997E+02  0.45594000000E+02  0.51100000000E-03 0.  1.
         23    2    1    2    0    0  0.66613381478E-15  0.00000000000E+00  0.00000000000E+00  0.91188000000E+02  0.91188000000E+02 0.  0.
    9900012    2    3    3    0    0 -0.79996096040E+00  0.11844100264E+02 -0.43453317557E+02  0.46142318128E+02  0.10000003347E+02 0.  0.
         12    1    3    3    0    0  0.79996096040E+00 -0.11844100264E+02  0.43453317557E+02  0.45045681872E+02  0.00000000000E+00 0. -1.
         11    1    4    4    0    0  0.15646283893E+01  0.88775684386E+00 -0.39138824172E+01  0.43075108876E+01  0.51100000000E-03 0. -1.
        -11    1    4    4    0    0  0.17251432172E+01  0.87890013095E+01 -0.23827514354E+02  0.25455315824E+02  0.51100000000E-03 0.  1.
         12    1    4    4    0    0 -0.40897325669E+01  0.21673421108E+01 -0.15711920786E+02  0.16379491417E+02  0.00000000000E+00 0. -1.
</event>
<event>
 8    1  0.7489580E-009  0.9118800E+02  0.7816164E-02  0.1184000E+00
        -11   -1    0    0    0    0  0.00000000000E+00  0.00000000000E+00  0.45593999997E+02  0.45594000000E+02  0.51100000000E-03 0.  1.
         11   -1    0    0    0    0 -0.00000000000E+00 -0.00000000000E+00 -0.45593999997E+02  0.45594000000E+02  0.51100000000E-03 0. -1.
         23    2    1    2    0    0  0.71054273576E-14 -0.35527136788E-14 -0.66613381478E-15  0.91188000000E+02  0.91188000000E+02 0.  0.
    9900012    2    3    3    0    0  0.41466579887E+02 -0.17588138227E+02 -0.54063420302E+00  0.46142332738E+02  0.10000136567E+02 0.  0.
        -12    1    3    3    0    0 -0.41466579887E+02  0.17588138227E+02  0.54063420302E+00  0.45045667262E+02  0.00000000000E+00 0.  1.
         11    1    4    4    0    0  0.13039014640E+02 -0.30223408557E+01  0.10913207499E+01  0.13429126118E+02  0.51100000000E-03 0. -1.
        -11    1    4    4    0    0  0.10157807449E+02 -0.34590056471E+01  0.22984624134E+01  0.10974001183E+02  0.51100000000E-03 0.  1.
        -12    1    4    4    0    0  0.18269757797E+02 -0.11106791724E+02 -0.39304173663E+01  0.21739205437E+02  0.00000000000E+00 0.  1.
</event>
<event>
 8    1  0.7489580E-009  0.9118800E+02  0.7816164E-02  0.1184000E+00
        -11   -1    0    0    0    0  0.00000000000E+00  0.00000000000E+00  0.45593999997E+02  0.45594000000E+02  0.51100000000E-03 0. -1.
         11   -1    0    0    0    0 -0.00000000000E+00 -0.00000000000E+00 -0.45593999997E+02  0.45594000000E+02  0.51100000000E-03 0.  1.
         23    2    1    2    0    0  0.71054273576E-14  0.00000000000E+00  0.00000000000E+00  0.91188000000E+02  0.91188000000E+02 0.  0.
    9900012    2    3    3    0    0  0.32087735525E+02  0.54024463324E+01  0.31149708496E+02  0.46142317222E+02  0.99999950850E+01 0.  0.
        -12    1    3    3    0    0 -0.32087735525E+02 -0.54024463324E+01 -0.31149708496E+02  0.45045682778E+02  0.00000000000E+00 0.  1.
         11    1    4    4    0    0  0.27894651585E+01  0.49178360705E+00  0.16302668427E+01  0.32681397195E+01  0.51100000000E-03 0. -1.
        -11    1    4    4    0    0  0.16288099388E+02 -0.17149216128E+01  0.13760485717E+02  0.21391449348E+02  0.51100000000E-03 0.  1.
         12    1    4    4    0    0  0.13010170979E+02  0.66255843381E+01  0.15758955937E+02  0.21482728154E+02  0.00000000000E+00 0. -1.
</event>
<event>
 8    1  0.7489580E-009  0.9118800E+02  0.7816164E-02  0.1184000E+00
        -11   -1    0    0    0    0  0.00000000000E+00  0.00000000000E+00  0.45593999997E+02  0.45594000000E+02  0.51100000000E-03 0. -1.
         11   -1    0    0    0    0 -0.00000000000E+00 -0.00000000000E+00 -0.45593999997E+02  0.45594000000E+02  0.51100000000E-03 0.  1.
         23    2    1    2    0    0  0.17763568394E-14  0.35527136788E-14 -0.35527136788E-14  0.91188000000E+02  0.91188000000E+02 0.  0.
    9900012    2    3    3    0    0 -0.14286416994E+02 -0.29075357455E+02  0.31299126359E+02  0.46142318381E+02  0.10000005650E+02 0.  0.
        -12    1    3    3    0    0  0.14286416994E+02  0.29075357455E+02 -0.31299126359E+02  0.45045681619E+02  0.00000000000E+00 0.  1.
         11    1    4    4    0    0 -0.33401036827E+01 -0.39472267255E+01  0.43741088697E+01  0.67727188114E+01  0.51100000000E-03 0. -1.
        -11    1    4    4    0    0 -0.87219967167E+01 -0.23749491502E+02  0.20956165190E+02  0.32852282007E+02  0.51100000000E-03 0.  1.
        -12    1    4    4    0    0 -0.22243165944E+01 -0.13786392276E+01  0.59688522992E+01  0.65173175618E+01  0.00000000000E+00 0.  1.
</event>
<event>
 8    1  0.7489580E-009  0.9118800E+02  0.7816164E-02  0.1184000E+00
        -11   -1    0    0    0    0  0.00000000000E+00  0.00000000000E+00  0.45593999997E+02  0.45594000000E+02  0.51100000000E-03 0. -1.
         11   -1    0    0    0    0 -0.00000000000E+00 -0.00000000000E+00 -0.45593999997E+02  0.45594000000E+02  0.51100000000E-03 0.  1.
         23    2    1    2    0    0  0.00000000000E+00 -0.17763568394E-14  0.00000000000E+00  0.91188000000E+02  0.91188000000E+02 0.  0.
    9900012    2    3    3    0    0 -0.39444388599E+02  0.81448668292E+01 -0.20172130355E+02  0.46142317736E+02  0.99999997679E+01 0.  0.
         12    1    3    3    0    0  0.39444388599E+02 -0.81448668292E+01  0.20172130355E+02  0.45045682264E+02  0.00000000000E+00 0. -1.
         11    1    4    4    0    0 -0.10974202780E+02  0.31009743387E+01 -0.72143619687E+01  0.13494302034E+02  0.51100000000E-03 0. -1.
        -11    1    4    4    0    0 -0.79610686914E+01 -0.12264876567E+01 -0.61918392194E+01  0.10159811015E+02  0.51100000000E-03 0.  1.
         12    1    4    4    0    0 -0.20509117128E+02  0.62703801473E+01 -0.67659291666E+01  0.22488204687E+02  0.00000000000E+00 0. -1.
</event>
<event>
 8    1  0.7489580E-009  0.9118800E+02  0.7816164E-02  0.1184000E+00
        -11   -1    0    0    0    0  0.00000000000E+00  0.00000000000E+00  0.45593999997E+02  0.45594000000E+02  0.51100000000E-03 0. -1.
         11   -1    0    0    0    0 -0.00000000000E+00 -0.00000000000E+00 -0.45593999997E+02  0.45594000000E+02  0.51100000000E-03 0.  1.
         23    2    1    2    0    0 -0.17763568394E-14  0.00000000000E+00  0.00000000000E+00  0.91188000000E+02  0.91188000000E+02 0.  0.
    9900012    2    3    3    0    0 -0.10037750655E+02 -0.13251541363E+02  0.41865901677E+02  0.46142317522E+02  0.99999978152E+01 0.  0.
        -12    1    3    3    0    0  0.10037750655E+02  0.13251541363E+02 -0.41865901677E+02  0.45045682478E+02  0.00000000000E+00 0.  1.
         11    1    4    4    0    0 -0.48931409430E+00 -0.49439359882E+01  0.63395487026E+01  0.80543037782E+01  0.51100000000E-03 0. -1.
        -11    1    4    4    0    0 -0.15158624640E+01 -0.16337831834E+01  0.13837869126E+02  0.14016194516E+02  0.51100000000E-03 0.  1.
         12    1    4    4    0    0 -0.80325740963E+01 -0.66738221913E+01  0.21688483848E+02  0.24071819227E+02  0.00000000000E+00 0. -1.
</event>
<event>
 8    1  0.7489580E-009  0.9118800E+02  0.7816164E-02  0.1184000E+00
        -11   -1    0    0    0    0  0.00000000000E+00  0.00000000000E+00  0.45593999997E+02  0.45594000000E+02  0.51100000000E-03 0. -1.
         11   -1    0    0    0    0 -0.00000000000E+00 -0.00000000000E+00 -0.45593999997E+02  0.45594000000E+02  0.51100000000E-03 0.  1.
         23    2    1    2    0    0  0.00000000000E+00  0.17763568394E-14  0.00000000000E+00  0.91188000000E+02  0.91188000000E+02 0.  0.
    9900012    2    3    3    0    0  0.66038946143E+01  0.13418297793E+02  0.42490603869E+02  0.46142317001E+02  0.99999930683E+01 0.  0.
        -12    1    3    3    0    0 -0.66038946143E+01 -0.13418297793E+02 -0.42490603869E+02  0.45045682999E+02  0.00000000000E+00 0.  1.
         11    1    4    4    0    0  0.29985936902E+01  0.11718514845E+02  0.24405937005E+02  0.27239032943E+02  0.51100000000E-03 0. -1.
        -11    1    4    4    0    0  0.43112902113E+00  0.44266168646E+00  0.13587053746E+00  0.63267895934E+00  0.51100000000E-03 0.  1.
         12    1    4    4    0    0  0.31741719030E+01  0.12571212617E+01  0.17948796326E+02  0.18270605099E+02  0.00000000000E+00 0. -1.
</event>
<event>
 8    1  0.7489580E-009  0.9118800E+02  0.7816164E-02  0.1184000E+00
        -11   -1    0    0    0    0  0.00000000000E+00  0.00000000000E+00  0.45593999997E+02  0.45594000000E+02  0.51100000000E-03 0. -1.
         11   -1    0    0    0    0 -0.00000000000E+00 -0.00000000000E+00 -0.45593999997E+02  0.45594000000E+02  0.51100000000E-03 0.  1.
         23    2    1    2    0    0 -0.71054273576E-14  0.00000000000E+00  0.00000000000E+00  0.91188000000E+02  0.91188000000E+02 0.  0.
    9900012    2    3    3    0    0 -0.32186838965E+02 -0.15455894975E+01 -0.31475895688E+02  0.46142318089E+02  0.10000002994E+02 0.  0.
         12    1    3    3    0    0  0.32186838965E+02  0.15455894975E+01  0.31475895688E+02  0.45045681911E+02  0.00000000000E+00 0. -1.
         11    1    4    4    0    0 -0.69316170248E+01 -0.45126041157E+00 -0.47300752064E+01  0.84038421128E+01  0.51100000000E-03 0. -1.
        -11    1    4    4    0    0 -0.82447267324E+01  0.23907058148E+01 -0.50860256251E+01  0.99779081027E+01  0.51100000000E-03 0.  1.
        -12    1    4    4    0    0 -0.17010495208E+02 -0.34850349007E+01 -0.21659794856E+02  0.27760567874E+02  0.00000000000E+00 0.  1.
</event>
<event>
 8    1  0.7489580E-009  0.9118800E+02  0.7816164E-02  0.1184000E+00
        -11   -1    0    0    0    0  0.00000000000E+00  0.00000000000E+00  0.45593999997E+02  0.45594000000E+02  0.51100000000E-03 0. -1.
         11   -1    0    0    0    0 -0.00000000000E+00 -0.00000000000E+00 -0.45593999997E+02  0.45594000000E+02  0.51100000000E-03 0.  1.
         23    2    1    2    0    0 -0.71054273576E-14  0.00000000000E+00  0.00000000000E+00  0.91188000000E+02  0.91188000000E+02 0.  0.
    9900012    2    3    3    0    0 -0.34941218475E+02 -0.38318825230E+01 -0.28169866936E+02  0.46142317905E+02  0.10000001314E+02 0.  0.
         12    1    3    3    0    0  0.34941218475E+02  0.38318825230E+01  0.28169866936E+02  0.45045682095E+02  0.00000000000E+00 0. -1.
         11    1    4    4    0    0 -0.12471261183E+02  0.13687377634E+01 -0.77561739114E+01  0.14750051951E+02  0.51100000000E-03 0.  1.
        -11    1    4    4    0    0 -0.69847344064E+01  0.38799579930E+00 -0.88168461531E+01  0.11254946993E+02  0.51100000000E-03 0. -1.
         12    1    4    4    0    0 -0.15485222886E+02 -0.55886160857E+01 -0.11596846872E+02  0.20137318961E+02  0.00000000000E+00 0. -1.
</event>
<event>
 8    1  0.7489580E-009  0.9118800E+02  0.7816164E-02  0.1184000E+00
        -11   -1    0    0    0    0  0.00000000000E+00  0.00000000000E+00  0.45593999997E+02  0.45594000000E+02  0.51100000000E-03 0. -1.
         11   -1    0    0    0    0 -0.00000000000E+00 -0.00000000000E+00 -0.45593999997E+02  0.45594000000E+02  0.51100000000E-03 0.  1.
         23    2    1    2    0    0  0.00000000000E+00  0.00000000000E+00 -0.71054273576E-14  0.91188000000E+02  0.91188000000E+02 0.  0.
    9900012    2    3    3    0    0  0.24566535792E+01 -0.14203671745E+02  0.42677090633E+02  0.46142317601E+02  0.99999985440E+01 0.  0.
        -12    1    3    3    0    0 -0.24566535792E+01  0.14203671745E+02 -0.42677090633E+02  0.45045682399E+02  0.00000000000E+00 0.  1.
         11    1    4    4    0    0  0.25007757893E+01 -0.48212446536E+01  0.58310706715E+01  0.79686677052E+01  0.51100000000E-03 0. -1.
        -11    1    4    4    0    0 -0.12569061692E+01 -0.31084153215E+01  0.16886625154E+02  0.17216276261E+02  0.51100000000E-03 0.  1.
         12    1    4    4    0    0  0.12127839592E+01 -0.62740117700E+01  0.19959394807E+02  0.20957373636E+02  0.00000000000E+00 0. -1.
</event>
<event>
 8    1  0.1163209E-008  0.9118800E+02  0.7816164E-02  0.1184000E+00
        -11   -1    0    0    0    0  0.00000000000E+00  0.00000000000E+00  0.45593999997E+02  0.45594000000E+02  0.51100000000E-03 0. -1.
         11   -1    0    0    0    0 -0.00000000000E+00 -0.00000000000E+00 -0.45593999997E+02  0.45594000000E+02  0.51100000000E-03 0.  1.
         23    2    1    2    0    0  0.27755575616E-16  0.00000000000E+00  0.00000000000E+00  0.91188000000E+02  0.91188000000E+02 0.  0.
    9900012    2    3    3    0    0 -0.13935583875E+00 -0.35476860534E+02 -0.27757637037E+02  0.46142317995E+02  0.10000002136E+02 0.  0.
         12    1    3    3    0    0  0.13935583875E+00  0.35476860534E+02  0.27757637037E+02  0.45045682005E+02  0.00000000000E+00 0. -1.
         11    1    4    4    0    0  0.13535158973E+00 -0.20950505832E+02 -0.13787041626E+02  0.25080361475E+02  0.51100000000E-03 0. -1.
        -11    1    4    4    0    0 -0.84644325233E+00 -0.14967786290E+02 -0.12942839242E+02  0.19805761296E+02  0.51100000000E-03 0.  1.
         12    1    4    4    0    0  0.57173582384E+00  0.44143158805E+00 -0.10277561686E+01  0.12561952242E+01  0.00000000000E+00 0. -1.
</event>
<event>
 8    1  0.7489580E-009  0.9118800E+02  0.7816164E-02  0.1184000E+00
        -11   -1    0    0    0    0  0.00000000000E+00  0.00000000000E+00  0.45593999997E+02  0.45594000000E+02  0.51100000000E-03 0.  1.
         11   -1    0    0    0    0 -0.00000000000E+00 -0.00000000000E+00 -0.45593999997E+02  0.45594000000E+02  0.51100000000E-03 0. -1.
         23    2    1    2    0    0  0.00000000000E+00 -0.35527136788E-14 -0.22204460493E-15  0.91188000000E+02  0.91188000000E+02 0.  0.
    9900012    2    3    3    0    0 -0.41356385527E+02  0.17823800652E+02  0.10368212020E+01  0.46142317723E+02  0.99999996568E+01 0.  0.
         12    1    3    3    0    0  0.41356385527E+02 -0.17823800652E+02 -0.10368212020E+01  0.45045682277E+02  0.00000000000E+00 0. -1.
         11    1    4    4    0    0 -0.55913424837E+01  0.34149447633E+01  0.29010886352E+00  0.65581340274E+01  0.51100000000E-03 0.  1.
        -11    1    4    4    0    0 -0.24501569023E+02  0.54492070268E+01  0.17187917575E+01  0.25158994161E+02  0.51100000000E-03 0. -1.
         12    1    4    4    0    0 -0.11263474020E+02  0.89596488617E+01 -0.97207941898E+00  0.14425189535E+02  0.00000000000E+00 0. -1.
</event>
<event>
 8    1  0.7489580E-009  0.9118800E+02  0.7816164E-02  0.1184000E+00
        -11   -1    0    0    0    0  0.00000000000E+00  0.00000000000E+00  0.45593999997E+02  0.45594000000E+02  0.51100000000E-03 0. -1.
         11   -1    0    0    0    0 -0.00000000000E+00 -0.00000000000E+00 -0.45593999997E+02  0.45594000000E+02  0.51100000000E-03 0.  1.
         23    2    1    2    0    0 -0.71054273576E-14  0.00000000000E+00  0.00000000000E+00  0.91188000000E+02  0.91188000000E+02 0.  0.
    9900012    2    3    3    0    0  0.27650670581E+02  0.34883645640E+02  0.69054124046E+01  0.46142322769E+02  0.10000045666E+02 0.  0.
        -12    1    3    3    0    0 -0.27650670581E+02 -0.34883645640E+02 -0.69054124046E+01  0.45045677231E+02  0.00000000000E+00 0.  1.
         11    1    4    4    0    0  0.16475585604E+02  0.22018241513E+02  0.46690973825E+01  0.27893518082E+02  0.51100000000E-03 0. -1.
        -11    1    4    4    0    0  0.24559443919E+01  0.40862306921E+01  0.33481181038E+01  0.58257050408E+01  0.51100000000E-03 0.  1.
        -12    1    4    4    0    0  0.87191405846E+01  0.87791734346E+01 -0.11118030817E+01  0.12423099646E+02  0.00000000000E+00 0.  1.
</event>
<event>
 8    1  0.7489580E-009  0.9118800E+02  0.7816164E-02  0.1184000E+00
        -11   -1    0    0    0    0  0.00000000000E+00  0.00000000000E+00  0.45593999997E+02  0.45594000000E+02  0.51100000000E-03 0.  1.
         11   -1    0    0    0    0 -0.00000000000E+00 -0.00000000000E+00 -0.45593999997E+02  0.45594000000E+02  0.51100000000E-03 0. -1.
         23    2    1    2    0    0  0.71054273576E-14 -0.71054273576E-14  0.00000000000E+00  0.91188000000E+02  0.91188000000E+02 0.  0.
    9900012    2    3    3    0    0 -0.37223945108E+02  0.24336356507E+02  0.71577241321E+01  0.46142319272E+02  0.10000013780E+02 0.  0.
        -12    1    3    3    0    0  0.37223945108E+02 -0.24336356507E+02 -0.71577241321E+01  0.45045680728E+02  0.00000000000E+00 0.  1.
         11    1    4    4    0    0 -0.33221407008E+02  0.19255292909E+02  0.38791908849E+01  0.38593734088E+02  0.51100000000E-03 0. -1.
        -11    1    4    4    0    0 -0.37479194086E+01  0.36566335031E+01  0.19602275344E+01  0.55910965577E+01  0.51100000000E-03 0.  1.
        -12    1    4    4    0    0 -0.25461869131E+00  0.14244300946E+01  0.13183057128E+01  0.19574886270E+01  0.00000000000E+00 0.  1.
</event>
<event>
 8    1  0.7489580E-009  0.9118800E+02  0.7816164E-02  0.1184000E+00
        -11   -1    0    0    0    0  0.00000000000E+00  0.00000000000E+00  0.45593999997E+02  0.45594000000E+02  0.51100000000E-03 0.  1.
         11   -1    0    0    0    0 -0.00000000000E+00 -0.00000000000E+00 -0.45593999997E+02  0.45594000000E+02  0.51100000000E-03 0. -1.
         23    2    1    2    0    0  0.35527136788E-14  0.00000000000E+00  0.00000000000E+00  0.91188000000E+02  0.91188000000E+02 0.  0.
    9900012    2    3    3    0    0 -0.22182571804E+02 -0.30618332316E+02  0.24486009503E+02  0.46142318442E+02  0.10000006210E+02 0.  0.
        -12    1    3    3    0    0  0.22182571804E+02  0.30618332316E+02 -0.24486009503E+02  0.45045681558E+02  0.00000000000E+00 0.  1.
         11    1    4    4    0    0 -0.55103501472E+01 -0.75447529356E+01  0.50316047521E+01  0.10611517434E+02  0.51100000000E-03 0. -1.
        -11    1    4    4    0    0 -0.99943881416E+01 -0.19665030692E+02  0.16141511979E+02  0.27334038041E+02  0.51100000000E-03 0.  1.
         12    1    4    4    0    0 -0.66778335150E+01 -0.34085486887E+01  0.33128927718E+01  0.81967629669E+01  0.00000000000E+00 0. -1.
</event>
<event>
 8    1  0.7489580E-009  0.9118800E+02  0.7816164E-02  0.1184000E+00
        -11   -1    0    0    0    0  0.00000000000E+00  0.00000000000E+00  0.45593999997E+02  0.45594000000E+02  0.51100000000E-03 0. -1.
         11   -1    0    0    0    0 -0.00000000000E+00 -0.00000000000E+00 -0.45593999997E+02  0.45594000000E+02  0.51100000000E-03 0.  1.
         23    2    1    2    0    0  0.22204460493E-15  0.00000000000E+00  0.00000000000E+00  0.91188000000E+02  0.91188000000E+02 0.  0.
    9900012    2    3    3    0    0 -0.17237606873E+01  0.44784530029E+02 -0.45263670590E+01  0.46142317858E+02  0.10000000886E+02 0.  0.
         12    1    3    3    0    0  0.17237606873E+01 -0.44784530029E+02  0.45263670590E+01  0.45045682142E+02  0.00000000000E+00 0. -1.
         11    1    4    4    0    0 -0.26635358918E+01  0.85982247745E+01  0.16511608659E+01  0.91515149120E+01  0.51100000000E-03 0. -1.
        -11    1    4    4    0    0  0.25155365502E+01  0.20832617078E+02 -0.25725111372E+01  0.21141042364E+02  0.51100000000E-03 0.  1.
        -12    1    4    4    0    0 -0.15757613456E+01  0.15353688177E+02 -0.36050167877E+01  0.15849760582E+02  0.00000000000E+00 0.  1.
</event>
<event>
 8    1  0.7489580E-009  0.9118800E+02  0.7816164E-02  0.1184000E+00
        -11   -1    0    0    0    0  0.00000000000E+00  0.00000000000E+00  0.45593999997E+02  0.45594000000E+02  0.51100000000E-03 0.  1.
         11   -1    0    0    0    0 -0.00000000000E+00 -0.00000000000E+00 -0.45593999997E+02  0.45594000000E+02  0.51100000000E-03 0. -1.
         23    2    1    2    0    0 -0.71054273576E-14 -0.35527136788E-14  0.17763568394E-14  0.91188000000E+02  0.91188000000E+02 0.  0.
    9900012    2    3    3    0    0  0.39740886979E+02  0.19559612537E+02 -0.81974640002E+01  0.46142301465E+02  0.99998513940E+01 0.  0.
        -12    1    3    3    0    0 -0.39740886979E+02 -0.19559612537E+02  0.81974640002E+01  0.45045698535E+02  0.00000000000E+00 0.  1.
         11    1    4    4    0    0  0.12500362741E+02  0.10674554004E+02 -0.38926731937E+01  0.16892545004E+02  0.51100000000E-03 0. -1.
        -11    1    4    4    0    0  0.16793770446E+02  0.48507394550E+01 -0.73446387136E+00  0.17495709088E+02  0.51100000000E-03 0.  1.
        -12    1    4    4    0    0  0.10446753793E+02  0.40343190780E+01 -0.35703269350E+01  0.11754047373E+02  0.00000000000E+00 0.  1.
</event>
<event>
 8    1  0.7489580E-009  0.9118800E+02  0.7816164E-02  0.1184000E+00
        -11   -1    0    0    0    0  0.00000000000E+00  0.00000000000E+00  0.45593999997E+02  0.45594000000E+02  0.51100000000E-03 0. -1.
         11   -1    0    0    0    0 -0.00000000000E+00 -0.00000000000E+00 -0.45593999997E+02  0.45594000000E+02  0.51100000000E-03 0.  1.
         23    2    1    2    0    0  0.00000000000E+00 -0.88817841970E-15  0.71054273576E-14  0.91188000000E+02  0.91188000000E+02 0.  0.
    9900012    2    3    3    0    0 -0.16365460049E+02  0.77884999650E+01 -0.41238628957E+02  0.46142317270E+02  0.99999955260E+01 0.  0.
         12    1    3    3    0    0  0.16365460049E+02 -0.77884999650E+01  0.41238628957E+02  0.45045682730E+02  0.00000000000E+00 0. -1.
         11    1    4    4    0    0 -0.10549656360E+02  0.50900556987E+01 -0.32866595232E+02  0.34891503245E+02  0.51100000000E-03 0. -1.
        -11    1    4    4    0    0 -0.21305166245E+01  0.17319944809E+01 -0.63927537781E+01  0.69574569418E+01  0.51100000000E-03 0.  1.
         12    1    4    4    0    0 -0.36852870648E+01  0.96644978540E+00 -0.19792799474E+01  0.42933570836E+01  0.00000000000E+00 0. -1.
</event>
<event>
 8    1  0.7489580E-009  0.9118800E+02  0.7816164E-02  0.1184000E+00
        -11   -1    0    0    0    0  0.00000000000E+00  0.00000000000E+00  0.45593999997E+02  0.45594000000E+02  0.51100000000E-03 0. -1.
         11   -1    0    0    0    0 -0.00000000000E+00 -0.00000000000E+00 -0.45593999997E+02  0.45594000000E+02  0.51100000000E-03 0.  1.
         23    2    1    2    0    0  0.00000000000E+00  0.00000000000E+00  0.00000000000E+00  0.91188000000E+02  0.91188000000E+02 0.  0.
    9900012    2    3    3    0    0  0.17559861671E+02  0.24709121257E+02  0.33320028164E+02  0.46142315500E+02  0.99999793819E+01 0.  0.
        -12    1    3    3    0    0 -0.17559861671E+02 -0.24709121257E+02 -0.33320028164E+02  0.45045684500E+02  0.00000000000E+00 0.  1.
         11    1    4    4    0    0  0.11135691667E+02  0.13722997794E+02  0.15994569650E+02  0.23835908959E+02  0.51100000000E-03 0. -1.
        -11    1    4    4    0    0  0.23427692196E+01  0.82237526350E+01  0.77652633156E+01  0.11550670528E+02  0.51100000000E-03 0.  1.
        -12    1    4    4    0    0  0.40814007840E+01  0.27623708288E+01  0.95601951984E+01  0.10755736013E+02  0.00000000000E+00 0.  1.
</event>
<event>
 8    1  0.7489580E-009  0.9118800E+02  0.7816164E-02  0.1184000E+00
        -11   -1    0    0    0    0  0.00000000000E+00  0.00000000000E+00  0.45593999997E+02  0.45594000000E+02  0.51100000000E-03 0. -1.
         11   -1    0    0    0    0 -0.00000000000E+00 -0.00000000000E+00 -0.45593999997E+02  0.45594000000E+02  0.51100000000E-03 0.  1.
         23    2    1    2    0    0  0.17763568394E-14  0.00000000000E+00  0.00000000000E+00  0.91188000000E+02  0.91188000000E+02 0.  0.
    9900012    2    3    3    0    0  0.14682113299E+02  0.12068097740E+02 -0.40840055357E+02  0.46142317016E+02  0.99999932042E+01 0.  0.
         12    1    3    3    0    0 -0.14682113299E+02 -0.12068097740E+02  0.40840055357E+02  0.45045682984E+02  0.00000000000E+00 0. -1.
         11    1    4    4    0    0  0.56398857442E+01  0.64382538706E+00 -0.68613785343E+01  0.89051298693E+01  0.51100000000E-03 0. -1.
        -11    1    4    4    0    0  0.36333586315E+01  0.53978209840E+01 -0.20553769321E+02  0.21559109441E+02  0.51100000000E-03 0.  1.
         12    1    4    4    0    0  0.54088689228E+01  0.60264513689E+01 -0.13424907501E+02  0.15678077706E+02  0.00000000000E+00 0. -1.
</event>
<event>
 8    1  0.7489580E-009  0.9118800E+02  0.7816164E-02  0.1184000E+00
        -11   -1    0    0    0    0  0.00000000000E+00  0.00000000000E+00  0.45593999997E+02  0.45594000000E+02  0.51100000000E-03 0. -1.
         11   -1    0    0    0    0 -0.00000000000E+00 -0.00000000000E+00 -0.45593999997E+02  0.45594000000E+02  0.51100000000E-03 0.  1.
         23    2    1    2    0    0  0.71054273576E-14  0.00000000000E+00  0.00000000000E+00  0.91188000000E+02  0.91188000000E+02 0.  0.
    9900012    2    3    3    0    0 -0.40691440285E+02 -0.18886907380E+01 -0.19228963530E+02  0.46142317592E+02  0.99999984581E+01 0.  0.
         12    1    3    3    0    0  0.40691440285E+02  0.18886907380E+01  0.19228963530E+02  0.45045682408E+02  0.00000000000E+00 0. -1.
         11    1    4    4    0    0 -0.24663108686E+02 -0.14693905805E+01 -0.14976835781E+02  0.28891757458E+02  0.51100000000E-03 0. -1.
        -11    1    4    4    0    0 -0.15404832979E+02 -0.12464087880E+01 -0.46522202584E+01  0.16140184868E+02  0.51100000000E-03 0.  1.
         12    1    4    4    0    0 -0.62349861946E+00  0.82710863048E+00  0.40009250917E+00  0.11103752658E+01  0.00000000000E+00 0. -1.
</event>
<event>
 8    1  0.7489580E-009  0.9118800E+02  0.7816164E-02  0.1184000E+00
        -11   -1    0    0    0    0  0.00000000000E+00  0.00000000000E+00  0.45593999997E+02  0.45594000000E+02  0.51100000000E-03 0.  1.
         11   -1    0    0    0    0 -0.00000000000E+00 -0.00000000000E+00 -0.45593999997E+02  0.45594000000E+02  0.51100000000E-03 0. -1.
         23    2    1    2    0    0  0.00000000000E+00  0.00000000000E+00  0.00000000000E+00  0.91188000000E+02  0.91188000000E+02 0.  0.
    9900012    2    3    3    0    0 -0.44899067345E+02  0.32980498952E+01 -0.15196177862E+01  0.46142327402E+02  0.10000087912E+02 0.  0.
         12    1    3    3    0    0  0.44899067345E+02 -0.32980498952E+01  0.15196177862E+01  0.45045672598E+02  0.00000000000E+00 0. -1.
         11    1    4    4    0    0 -0.75673096806E+01  0.33482517102E+01  0.31664626234E+00  0.82810162682E+01  0.51100000000E-03 0. -1.
        -11    1    4    4    0    0 -0.30031675625E+02  0.19759200615E+01 -0.13642625891E+00  0.30096917007E+02  0.51100000000E-03 0.  1.
        -12    1    4    4    0    0 -0.73000820397E+01 -0.20261218765E+01 -0.16998377896E+01  0.77643941268E+01  0.00000000000E+00 0.  1.
</event>
<event>
 8    1  0.7489580E-009  0.9118800E+02  0.7816164E-02  0.1184000E+00
        -11   -1    0    0    0    0  0.00000000000E+00  0.00000000000E+00  0.45593999997E+02  0.45594000000E+02  0.51100000000E-03 0. -1.
         11   -1    0    0    0    0 -0.00000000000E+00 -0.00000000000E+00 -0.45593999997E+02  0.45594000000E+02  0.51100000000E-03 0.  1.
         23    2    1    2    0    0  0.00000000000E+00  0.17763568394E-14  0.00000000000E+00  0.91188000000E+02  0.91188000000E+02 0.  0.
    9900012    2    3    3    0    0 -0.16348593968E+02  0.11222677898E+02 -0.40446118406E+02  0.46142317432E+02  0.99999969949E+01 0.  0.
         12    1    3    3    0    0  0.16348593968E+02 -0.11222677898E+02  0.40446118406E+02  0.45045682568E+02  0.00000000000E+00 0. -1.
         11    1    4    4    0    0  0.51508962671E+00 -0.40601526244E+00 -0.30933739692E+00  0.72515901920E+00  0.51100000000E-03 0. -1.
        -11    1    4    4    0    0 -0.10326583924E+02  0.10125524670E+02 -0.25479493519E+02  0.29297938078E+02  0.51100000000E-03 0.  1.
         12    1    4    4    0    0 -0.65370996706E+01  0.15031684906E+01 -0.14657287490E+02  0.16119220334E+02  0.00000000000E+00 0. -1.
</event>
