<event>
 7    1  0.1698110E-015  0.9000751E+02  0.7816164E-02  0.1186340E+00
        -11   -1    0    0    0    0  0.00000000000E+00  0.00000000000E+00  0.45593999997E+02  0.45594000000E+02  0.51100000000E-03 0.  1.
         11   -1    0    0    0    0 -0.00000000000E+00 -0.00000000000E+00 -0.45593999997E+02  0.45594000000E+02  0.51100000000E-03 0. -1.
    9900012    2    1    2    0    0 -0.31583826925E+00 -0.11216612889E+01 -0.18890958231E+00  0.90007506591E+02  0.89999764877E+02 0.  0.
         12    1    1    2    0    0  0.31583826925E+00  0.11216612889E+01  0.18890958231E+00  0.11804934094E+01  0.00000000000E+00 0. -1.
         11    1    3    3    0    0  0.25659316918E+02 -0.24657842800E+02 -0.15241314703E+02  0.38713142864E+02  0.51100000000E-03 0. -1.
        -11    1    3    3    0    0 -0.49468542795E+01 -0.65709370773E+01 -0.48255894452E+01  0.95359789792E+01  0.51100000000E-03 0.  1.
        -12    1    3    3    0    0 -0.21028300908E+02  0.30107118589E+02  0.19877994566E+02  0.41758384748E+02  0.00000000000E+00 0.  1.
</event>
<event>
 7    1  0.1698110E-015  0.9000782E+02  0.7816164E-02  0.1186339E+00
        -11   -1    0    0    0    0  0.00000000000E+00  0.00000000000E+00  0.45593999997E+02  0.45594000000E+02  0.51100000000E-03 0.  1.
         11   -1    0    0    0    0 -0.00000000000E+00 -0.00000000000E+00 -0.45593999997E+02  0.45594000000E+02  0.51100000000E-03 0. -1.
    9900012    2    1    2    0    0  0.62262903579E+00  0.91633061567E+00  0.40680456381E+00  0.90007822612E+02  0.90000085071E+02 0.  0.
         12    1    1    2    0    0 -0.62262903579E+00 -0.91633061567E+00 -0.40680456381E+00  0.11801773877E+01  0.00000000000E+00 0. -1.
         11    1    3    3    0    0 -0.20541281749E+02  0.41968606371E+01 -0.30958004975E+02  0.37389249356E+02  0.51100000000E-03 0. -1.
        -11    1    3    3    0    0  0.13564448960E+00  0.90506668473E+01 -0.38112707119E+01  0.98213417876E+01  0.51100000000E-03 0.  1.
        -12    1    3    3    0    0  0.21028266295E+02 -0.12331196869E+02  0.35176080251E+02  0.42797231469E+02  0.00000000000E+00 0.  1.
</event>
<event>
 7    1  0.1698110E-015  0.9000738E+02  0.7816164E-02  0.1186340E+00
        -11   -1    0    0    0    0  0.00000000000E+00  0.00000000000E+00  0.45593999997E+02  0.45594000000E+02  0.51100000000E-03 0.  1.
         11   -1    0    0    0    0 -0.00000000000E+00 -0.00000000000E+00 -0.45593999997E+02  0.45594000000E+02  0.51100000000E-03 0. -1.
    9900012    2    1    2    0    0 -0.22675304576E+00 -0.50107493571E+00  0.10446914443E+01  0.90007375907E+02  0.89999632468E+02 0.  0.
         12    1    1    2    0    0  0.22675304576E+00  0.50107493571E+00 -0.10446914443E+01  0.11806240929E+01  0.00000000000E+00 0. -1.
         11    1    3    3    0    0  0.70695900234E+01 -0.42449094320E+01  0.17203522611E+01  0.84236554623E+01  0.51100000000E-03 0. -1.
        -11    1    3    3    0    0 -0.34620594227E+02 -0.35013215050E+00  0.25907659304E+02  0.43242513202E+02  0.51100000000E-03 0.  1.
         12    1    3    3    0    0  0.27324251158E+02  0.40939666468E+01 -0.26583320120E+02  0.38341207243E+02  0.00000000000E+00 0. -1.
</event>
<event>
 7    1  0.1698110E-015  0.9000836E+02  0.7816164E-02  0.1186338E+00
        -11   -1    0    0    0    0  0.00000000000E+00  0.00000000000E+00  0.45593999997E+02  0.45594000000E+02  0.51100000000E-03 0. -1.
         11   -1    0    0    0    0 -0.00000000000E+00 -0.00000000000E+00 -0.45593999997E+02  0.45594000000E+02  0.51100000000E-03 0.  1.
    9900012    2    1    2    0    0  0.10238022281E+01 -0.10637469698E+00  0.57624272762E+00  0.90008363505E+02  0.90000633101E+02 0.  0.
         12    1    1    2    0    0 -0.10238022281E+01  0.10637469698E+00 -0.57624272762E+00  0.11796364947E+01  0.00000000000E+00 0. -1.
         11    1    3    3    0    0  0.36820363263E+02  0.23297133243E+01 -0.64346642230E+01  0.37450922804E+02  0.51100000000E-03 0. -1.
        -11    1    3    3    0    0  0.74843094075E+01 -0.37312011940E+01 -0.13104077185E+01  0.84648637501E+01  0.51100000000E-03 0.  1.
        -12    1    3    3    0    0 -0.43280870442E+02  0.12951131727E+01  0.83213146692E+01  0.44092576951E+02  0.00000000000E+00 0.  1.
</event>
<event>
 7    1  0.1698110E-015  0.9000778E+02  0.7816164E-02  0.1186339E+00
        -11   -1    0    0    0    0  0.00000000000E+00  0.00000000000E+00  0.45593999997E+02  0.45594000000E+02  0.51100000000E-03 0.  1.
         11   -1    0    0    0    0 -0.00000000000E+00 -0.00000000000E+00 -0.45593999997E+02  0.45594000000E+02  0.51100000000E-03 0. -1.
    9900012    2    1    2    0    0  0.17762527229E+00  0.78962980328E+00  0.85898924844E+00  0.90007776084E+02  0.90000037928E+02 0.  0.
         12    1    1    2    0    0 -0.17762527229E+00 -0.78962980328E+00 -0.85898924844E+00  0.11802239163E+01  0.00000000000E+00 0. -1.
         11    1    3    3    0    0 -0.21761923262E+01 -0.22675334423E+02 -0.30062312589E+02  0.37718022784E+02  0.51100000000E-03 0. -1.
        -11    1    3    3    0    0  0.11805313460E+02 -0.22612491250E+01  0.15539066566E+01  0.12119954606E+02  0.51100000000E-03 0.  1.
        -12    1    3    3    0    0 -0.94514958613E+01  0.25726213351E+02  0.29367395181E+02  0.40169798694E+02  0.00000000000E+00 0.  1.
</event>
<event>
 7    1  0.1698110E-015  0.9000800E+02  0.7816164E-02  0.1186339E+00
        -11   -1    0    0    0    0  0.00000000000E+00  0.00000000000E+00  0.45593999997E+02  0.45594000000E+02  0.51100000000E-03 0.  1.
         11   -1    0    0    0    0 -0.00000000000E+00 -0.00000000000E+00 -0.45593999997E+02  0.45594000000E+02  0.51100000000E-03 0. -1.
    9900012    2    1    2    0    0  0.48701567361E+00 -0.22740785202E+00  0.10504815333E+01  0.90007995742E+02  0.90000260485E+02 0.  0.
         12    1    1    2    0    0 -0.48701567361E+00  0.22740785202E+00 -0.10504815333E+01  0.11800042582E+01  0.00000000000E+00 0. -1.
         11    1    3    3    0    0 -0.58018632286E+01 -0.86445020904E+01  0.28873806098E+01  0.10803980765E+02  0.51100000000E-03 0. -1.
        -11    1    3    3    0    0  0.20988659681E+02 -0.18513821782E+02  0.25685340780E+02  0.37987131551E+02  0.51100000000E-03 0.  1.
         12    1    3    3    0    0 -0.14699780779E+02  0.26930916020E+02 -0.27522239857E+02  0.41216883426E+02  0.00000000000E+00 0. -1.
</event>
<event>
 7    1  0.1698110E-015  0.9000777E+02  0.7816164E-02  0.1186339E+00
        -11   -1    0    0    0    0  0.00000000000E+00  0.00000000000E+00  0.45593999997E+02  0.45594000000E+02  0.51100000000E-03 0.  1.
         11   -1    0    0    0    0 -0.00000000000E+00 -0.00000000000E+00 -0.45593999997E+02  0.45594000000E+02  0.51100000000E-03 0. -1.
    9900012    2    1    2    0    0 -0.52855817902E+00 -0.71673658795E+00 -0.77449855262E+00  0.90007774135E+02  0.90000035953E+02 0.  0.
         12    1    1    2    0    0  0.52855817902E+00  0.71673658795E+00  0.77449855262E+00  0.11802258653E+01  0.00000000000E+00 0. -1.
         11    1    3    3    0    0 -0.76294099586E+01  0.22005389258E+01 -0.14655037685E+01  0.80745259574E+01  0.51100000000E-03 0. -1.
        -11    1    3    3    0    0 -0.36718345589E+02  0.58445824149E+01 -0.12874767845E+01  0.37202871436E+02  0.51100000000E-03 0.  1.
         12    1    3    3    0    0  0.43819197368E+02 -0.87618579286E+01  0.19784820004E+01  0.44730376741E+02  0.00000000000E+00 0. -1.
</event>
<event>
 7    1  0.1698110E-015  0.9000774E+02  0.7816164E-02  0.1186339E+00
        -11   -1    0    0    0    0  0.00000000000E+00  0.00000000000E+00  0.45593999997E+02  0.45594000000E+02  0.51100000000E-03 0.  1.
         11   -1    0    0    0    0 -0.00000000000E+00 -0.00000000000E+00 -0.45593999997E+02  0.45594000000E+02  0.51100000000E-03 0. -1.
    9900012    2    1    2    0    0 -0.50277414046E+00  0.17514343708E-01  0.10676758699E+01  0.90007737168E+02  0.89999998499E+02 0.  0.
         12    1    1    2    0    0  0.50277414046E+00 -0.17514343708E-01 -0.10676758699E+01  0.11802628316E+01  0.00000000000E+00 0. -1.
         11    1    3    3    0    0 -0.57768572091E+01  0.39758840614E+01  0.70830806526E+01  0.99674352306E+01  0.51100000000E-03 0. -1.
        -11    1    3    3    0    0 -0.21233400614E+02 -0.59063185568E+00  0.29029240333E+02  0.35970862405E+02  0.51100000000E-03 0.  1.
         12    1    3    3    0    0  0.26507483682E+02 -0.33677378621E+01 -0.35044645115E+02  0.44069439533E+02  0.00000000000E+00 0. -1.
</event>
<event>
 7    1  0.1698110E-015  0.9000770E+02  0.7816164E-02  0.1186339E+00
        -11   -1    0    0    0    0  0.00000000000E+00  0.00000000000E+00  0.45593999997E+02  0.45594000000E+02  0.51100000000E-03 0. -1.
         11   -1    0    0    0    0 -0.00000000000E+00 -0.00000000000E+00 -0.45593999997E+02  0.45594000000E+02  0.51100000000E-03 0.  1.
    9900012    2    1    2    0    0  0.67329513779E+00  0.58748795114E+00 -0.77112181763E+00  0.90007704574E+02  0.89999965474E+02 0.  0.
         12    1    1    2    0    0 -0.67329513779E+00 -0.58748795114E+00  0.77112181763E+00  0.11802954261E+01  0.00000000000E+00 0. -1.
         11    1    3    3    0    0 -0.12457553097E+02 -0.38213251676E+00 -0.77064832133E+01  0.14653550362E+02  0.51100000000E-03 0. -1.
        -11    1    3    3    0    0 -0.18951135989E+02 -0.55113747088E+01 -0.23480439744E+02  0.30673308548E+02  0.51100000000E-03 0.  1.
         12    1    3    3    0    0  0.32081984224E+02  0.64809951767E+01  0.30415801140E+02  0.44680845664E+02  0.00000000000E+00 0. -1.
</event>
<event>
 7    1  0.1698110E-015  0.9000766E+02  0.7816164E-02  0.1186339E+00
        -11   -1    0    0    0    0  0.00000000000E+00  0.00000000000E+00  0.45593999997E+02  0.45594000000E+02  0.51100000000E-03 0.  1.
         11   -1    0    0    0    0 -0.00000000000E+00 -0.00000000000E+00 -0.45593999997E+02  0.45594000000E+02  0.51100000000E-03 0. -1.
    9900012    2    1    2    0    0 -0.75150971664E+00  0.77922638219E+00 -0.47036588474E+00  0.90007659086E+02  0.89999919385E+02 0.  0.
         12    1    1    2    0    0  0.75150971664E+00 -0.77922638219E+00  0.47036588474E+00  0.11803409145E+01  0.00000000000E+00 0. -1.
         11    1    3    3    0    0  0.32105204557E+02  0.17756544855E+01 -0.52917619119E+01  0.32586804889E+02  0.51100000000E-03 0. -1.
        -11    1    3    3    0    0  0.11983325629E+02  0.12383559458E+01 -0.12696198513E+01  0.12113857908E+02  0.51100000000E-03 0.  1.
        -12    1    3    3    0    0 -0.44840039903E+02 -0.22347840491E+01  0.60910158784E+01  0.45306996288E+02  0.00000000000E+00 0.  1.
</event>
<event>
 7    1  0.1698110E-015  0.9000768E+02  0.7816164E-02  0.1186339E+00
        -11   -1    0    0    0    0  0.00000000000E+00  0.00000000000E+00  0.45593999997E+02  0.45594000000E+02  0.51100000000E-03 0.  1.
         11   -1    0    0    0    0 -0.00000000000E+00 -0.00000000000E+00 -0.45593999997E+02  0.45594000000E+02  0.51100000000E-03 0. -1.
    9900012    2    1    2    0    0  0.91614186139E+00  0.52493196917E+00  0.52753173315E+00  0.90007678344E+02  0.89999938898E+02 0.  0.
         12    1    1    2    0    0 -0.91614186139E+00 -0.52493196917E+00 -0.52753173315E+00  0.11803216561E+01  0.00000000000E+00 0. -1.
         11    1    3    3    0    0 -0.33355893003E+02 -0.17655524561E+02 -0.11165050774E+02  0.39357229382E+02  0.51100000000E-03 0. -1.
        -11    1    3    3    0    0 -0.48226686007E+01  0.36615523158E+01  0.60624814423E+01  0.85684759026E+01  0.51100000000E-03 0.  1.
        -12    1    3    3    0    0  0.39094703465E+02  0.14518904215E+02  0.56301010650E+01  0.42081973060E+02  0.00000000000E+00 0.  1.
</event>
<event>
 7    1  0.1698110E-015  0.9000773E+02  0.7816164E-02  0.1186339E+00
        -11   -1    0    0    0    0  0.00000000000E+00  0.00000000000E+00  0.45593999997E+02  0.45594000000E+02  0.51100000000E-03 0.  1.
         11   -1    0    0    0    0 -0.00000000000E+00 -0.00000000000E+00 -0.45593999997E+02  0.45594000000E+02  0.51100000000E-03 0. -1.
    9900012    2    1    2    0    0  0.10394703038E+01 -0.53730419398E+00 -0.15439735599E+00  0.90007731872E+02  0.89999993133E+02 0.  0.
         12    1    1    2    0    0 -0.10394703038E+01  0.53730419398E+00  0.15439735599E+00  0.11802681275E+01  0.00000000000E+00 0. -1.
         11    1    3    3    0    0  0.82522104228E+01 -0.20074021250E+01  0.52932770443E+01  0.10007368399E+02  0.51100000000E-03 0. -1.
        -11    1    3    3    0    0 -0.16264147998E+02 -0.32802493703E+02  0.14436500466E+02  0.39356557893E+02  0.51100000000E-03 0.  1.
         12    1    3    3    0    0  0.90514078794E+01  0.34272591634E+02 -0.19884174866E+02  0.40643805580E+02  0.00000000000E+00 0. -1.
</event>
<event>
 7    1  0.2408860E-015  0.9000773E+02  0.7816164E-02  0.1186339E+00
        -11   -1    0    0    0    0  0.00000000000E+00  0.00000000000E+00  0.45593999997E+02  0.45594000000E+02  0.51100000000E-03 0.  1.
         11   -1    0    0    0    0 -0.00000000000E+00 -0.00000000000E+00 -0.45593999997E+02  0.45594000000E+02  0.51100000000E-03 0. -1.
    9900012    2    1    2    0    0 -0.41113316310E+00  0.11051889595E+01  0.50650309544E-01  0.90007729451E+02  0.89999990680E+02 0.  0.
         12    1    1    2    0    0  0.41113316310E+00 -0.11051889595E+01 -0.50650309544E-01  0.11802705486E+01  0.00000000000E+00 0. -1.
         11    1    3    3    0    0  0.58272800005E+01  0.53361190533E+01 -0.51512809901E+01  0.94322348813E+01  0.51100000000E-03 0. -1.
        -11    1    3    3    0    0  0.25928751108E+02  0.98827127050E+01  0.27420768329E+02  0.39011109705E+02  0.51100000000E-03 0.  1.
         12    1    3    3    0    0 -0.32167164271E+02 -0.14113642799E+02 -0.22218837029E+02  0.41564384865E+02  0.00000000000E+00 0. -1.
</event>
<event>
 7    1  0.1698110E-015  0.9000746E+02  0.7816164E-02  0.1186340E+00
        -11   -1    0    0    0    0  0.00000000000E+00  0.00000000000E+00  0.45593999997E+02  0.45594000000E+02  0.51100000000E-03 0.  1.
         11   -1    0    0    0    0 -0.00000000000E+00 -0.00000000000E+00 -0.45593999997E+02  0.45594000000E+02  0.51100000000E-03 0. -1.
    9900012    2    1    2    0    0  0.32993813736E+00 -0.91331896400E+00  0.67130947481E+00  0.90007463209E+02  0.89999720923E+02 0.  0.
         12    1    1    2    0    0 -0.32993813736E+00  0.91331896400E+00 -0.67130947481E+00  0.11805367912E+01  0.00000000000E+00 0. -1.
         11    1    3    3    0    0  0.34375332829E+02 -0.10225193773E+02  0.17361306241E+02  0.39845113244E+02  0.51100000000E-03 0. -1.
        -11    1    3    3    0    0  0.16873744378E+01  0.65810101793E+01 -0.12307845556E+02  0.14058449060E+02  0.51100000000E-03 0.  1.
        -12    1    3    3    0    0 -0.35732769130E+02  0.27308646299E+01 -0.43821512097E+01  0.36103900905E+02  0.00000000000E+00 0.  1.
</event>
<event>
 7    1  0.1698110E-015  0.9000770E+02  0.7816164E-02  0.1186339E+00
        -11   -1    0    0    0    0  0.00000000000E+00  0.00000000000E+00  0.45593999997E+02  0.45594000000E+02  0.51100000000E-03 0.  1.
         11   -1    0    0    0    0 -0.00000000000E+00 -0.00000000000E+00 -0.45593999997E+02  0.45594000000E+02  0.51100000000E-03 0. -1.
    9900012    2    1    2    0    0  0.40452361466E+00  0.10707968554E+01  0.28785389458E+00  0.90007701256E+02  0.89999962113E+02 0.  0.
         12    1    1    2    0    0 -0.40452361466E+00 -0.10707968554E+01 -0.28785389458E+00  0.11802987439E+01  0.00000000000E+00 0. -1.
         11    1    3    3    0    0  0.77219062723E+01 -0.87561593923E+01 -0.54163966728E+01  0.12869946269E+02  0.51100000000E-03 0. -1.
        -11    1    3    3    0    0  0.31724755232E+01  0.27434102221E+02  0.32982619557E+02  0.43017993430E+02  0.51100000000E-03 0.  1.
         12    1    3    3    0    0 -0.10489858181E+02 -0.17607145973E+02 -0.27278368990E+02  0.34119761557E+02  0.00000000000E+00 0. -1.
</event>
<event>
 7    1  0.1698110E-015  0.9000837E+02  0.7816164E-02  0.1186338E+00
        -11   -1    0    0    0    0  0.00000000000E+00  0.00000000000E+00  0.45593999997E+02  0.45594000000E+02  0.51100000000E-03 0. -1.
         11   -1    0    0    0    0 -0.00000000000E+00 -0.00000000000E+00 -0.45593999997E+02  0.45594000000E+02  0.51100000000E-03 0.  1.
    9900012    2    1    2    0    0 -0.10526224341E+01  0.52749519534E+00  0.72482862682E-01  0.90008373392E+02  0.90000643118E+02 0.  0.
         12    1    1    2    0    0  0.10526224341E+01 -0.52749519534E+00 -0.72482862682E-01  0.11796266084E+01  0.00000000000E+00 0. -1.
         11    1    3    3    0    0  0.12475435033E+02  0.80641107863E+01  0.28027378049E+02  0.31720660185E+02  0.51100000000E-03 0. -1.
        -11    1    3    3    0    0 -0.41450647580E+01  0.19577599022E+02 -0.29477843757E+01  0.20227540095E+02  0.51100000000E-03 0.  1.
        -12    1    3    3    0    0 -0.93829927087E+01 -0.27114214613E+02 -0.25007110810E+02  0.38060173112E+02  0.00000000000E+00 0.  1.
</event>
<event>
 7    1  0.2066938E-015  0.9000810E+02  0.7816164E-02  0.1186338E+00
        -11   -1    0    0    0    0  0.00000000000E+00  0.00000000000E+00  0.45593999997E+02  0.45594000000E+02  0.51100000000E-03 0. -1.
         11   -1    0    0    0    0 -0.00000000000E+00 -0.00000000000E+00 -0.45593999997E+02  0.45594000000E+02  0.51100000000E-03 0.  1.
    9900012    2    1    2    0    0 -0.11420940355E+01  0.24758085404E+00  0.16277976874E+00  0.90008096479E+02  0.90000362552E+02 0.  0.
         12    1    1    2    0    0  0.11420940355E+01 -0.24758085404E+00 -0.16277976874E+00  0.11799035208E+01  0.00000000000E+00 0. -1.
         11    1    3    3    0    0  0.21546135913E+01  0.63471535129E+01  0.71505543298E+01  0.98009767334E+01  0.51100000000E-03 0. -1.
        -11    1    3    3    0    0  0.48695770209E+01  0.36174200955E+02  0.50885943139E+00  0.36504034480E+02  0.51100000000E-03 0.  1.
         12    1    3    3    0    0 -0.81662846478E+01 -0.42273773614E+02 -0.74966339924E+01  0.43703085266E+02  0.00000000000E+00 0. -1.
</event>
<event>
 7    1  0.1698110E-015  0.9000764E+02  0.7816164E-02  0.1186339E+00
        -11   -1    0    0    0    0  0.00000000000E+00  0.00000000000E+00  0.45593999997E+02  0.45594000000E+02  0.51100000000E-03 0. -1.
         11   -1    0    0    0    0 -0.00000000000E+00 -0.00000000000E+00 -0.45593999997E+02  0.45594000000E+02  0.51100000000E-03 0.  1.
    9900012    2    1    2    0    0  0.30686805869E+00  0.13334755710E+00 -0.11319431309E+01  0.90007642076E+02  0.89999902152E+02 0.  0.
         12    1    1    2    0    0 -0.30686805869E+00 -0.13334755710E+00  0.11319431309E+01  0.11803579237E+01  0.00000000000E+00 0. -1.
         11    1    3    3    0    0  0.22173515881E+02 -0.29237106861E+02  0.53610518974E+00  0.36698237467E+02  0.51100000000E-03 0. -1.
        -11    1    3    3    0    0  0.94021773445E-01 -0.35980519349E+00 -0.14257682982E+02  0.14262532179E+02  0.51100000000E-03 0.  1.
        -12    1    3    3    0    0 -0.21960669596E+02  0.29730259612E+02  0.12589634661E+02  0.39046872430E+02  0.00000000000E+00 0.  1.
</event>
<event>
 7    1  0.1698110E-015  0.9000780E+02  0.7816164E-02  0.1186339E+00
        -11   -1    0    0    0    0  0.00000000000E+00  0.00000000000E+00  0.45593999997E+02  0.45594000000E+02  0.51100000000E-03 0.  1.
         11   -1    0    0    0    0 -0.00000000000E+00 -0.00000000000E+00 -0.45593999997E+02  0.45594000000E+02  0.51100000000E-03 0. -1.
    9900012    2    1    2    0    0 -0.26757330379E+00 -0.69227635133E+00  0.91761697525E+00  0.90007803858E+02  0.90000066069E+02 0.  0.
         12    1    1    2    0    0  0.26757330379E+00  0.69227635133E+00 -0.91761697525E+00  0.11801961417E+01  0.00000000000E+00 0. -1.
         11    1    3    3    0    0 -0.58831056513E+01 -0.26783933215E+01  0.57753461752E+01  0.86682954837E+01  0.51100000000E-03 0. -1.
        -11    1    3    3    0    0 -0.61294469146E+01  0.30491877436E+02  0.23864820142E+02  0.39202733957E+02  0.51100000000E-03 0.  1.
         12    1    3    3    0    0  0.11744979262E+02 -0.28505760466E+02 -0.28722549342E+02  0.42136774417E+02  0.00000000000E+00 0. -1.
</event>
<event>
 7    1  0.1698110E-015  0.9000769E+02  0.7816164E-02  0.1186339E+00
        -11   -1    0    0    0    0  0.00000000000E+00  0.00000000000E+00  0.45593999997E+02  0.45594000000E+02  0.51100000000E-03 0. -1.
         11   -1    0    0    0    0 -0.00000000000E+00 -0.00000000000E+00 -0.45593999997E+02  0.45594000000E+02  0.51100000000E-03 0.  1.
    9900012    2    1    2    0    0 -0.79282942217E-01 -0.11639373074E+01 -0.17912826894E+00  0.90007693778E+02  0.89999954536E+02 0.  0.
         12    1    1    2    0    0  0.79282942217E-01  0.11639373074E+01  0.17912826894E+00  0.11803062218E+01  0.00000000000E+00 0. -1.
         11    1    3    3    0    0  0.90066830302E+01 -0.31406604547E+02  0.20767396964E+02  0.38714079161E+02  0.51100000000E-03 0. -1.
        -11    1    3    3    0    0 -0.71352201915E+01 -0.47948487475E+01  0.26621378509E+01  0.89993844173E+01  0.51100000000E-03 0.  1.
        -12    1    3    3    0    0 -0.19507457810E+01  0.35037515987E+02 -0.23608663084E+02  0.42294230200E+02  0.00000000000E+00 0.  1.
</event>
<event>
 7    1  0.1952982E-015  0.9000769E+02  0.7816164E-02  0.1186339E+00
        -11   -1    0    0    0    0  0.00000000000E+00  0.00000000000E+00  0.45593999997E+02  0.45594000000E+02  0.51100000000E-03 0. -1.
         11   -1    0    0    0    0 -0.00000000000E+00 -0.00000000000E+00 -0.45593999997E+02  0.45594000000E+02  0.51100000000E-03 0.  1.
    9900012    2    1    2    0    0  0.10338839492E+01 -0.38591869481E+00 -0.41867988482E+00  0.90007685590E+02  0.89999946240E+02 0.  0.
         12    1    1    2    0    0 -0.10338839492E+01  0.38591869481E+00  0.41867988482E+00  0.11803144096E+01  0.00000000000E+00 0. -1.
         11    1    3    3    0    0  0.48605093839E+01 -0.76511831272E+01  0.27855567740E+01  0.94828519719E+01  0.51100000000E-03 0. -1.
        -11    1    3    3    0    0 -0.19003297196E+01 -0.23220546844E+02 -0.31302064677E+02  0.39020818829E+02  0.51100000000E-03 0.  1.
         12    1    3    3    0    0 -0.19262957151E+01  0.30485811276E+02  0.28097828018E+02  0.41504014790E+02  0.00000000000E+00 0. -1.
</event>
<event>
 7    1  0.1698110E-015  0.9000769E+02  0.7816164E-02  0.1186339E+00
        -11   -1    0    0    0    0  0.00000000000E+00  0.00000000000E+00  0.45593999997E+02  0.45594000000E+02  0.51100000000E-03 0.  1.
         11   -1    0    0    0    0 -0.00000000000E+00 -0.00000000000E+00 -0.45593999997E+02  0.45594000000E+02  0.51100000000E-03 0. -1.
    9900012    2    1    2    0    0 -0.11599759583E+01 -0.17316412683E+00  0.13267245649E+00  0.90007689863E+02  0.89999950569E+02 0.  0.
         12    1    1    2    0    0  0.11599759583E+01  0.17316412683E+00 -0.13267245649E+00  0.11803101370E+01  0.00000000000E+00 0. -1.
         11    1    3    3    0    0  0.35373533059E+00  0.25380348197E+01  0.56062359709E+01  0.61641407716E+01  0.51100000000E-03 0. -1.
        -11    1    3    3    0    0  0.38722947153E+02  0.10834401107E+02 -0.91211455872E+01  0.41231616275E+02  0.51100000000E-03 0.  1.
         12    1    3    3    0    0 -0.40236658442E+02 -0.13545600053E+02  0.36475820728E+01  0.42611932816E+02  0.00000000000E+00 0. -1.
</event>
<event>
 7    1  0.1754516E-015  0.9000779E+02  0.7816164E-02  0.1186339E+00
        -11   -1    0    0    0    0  0.00000000000E+00  0.00000000000E+00  0.45593999997E+02  0.45594000000E+02  0.51100000000E-03 0. -1.
         11   -1    0    0    0    0 -0.00000000000E+00 -0.00000000000E+00 -0.45593999997E+02  0.45594000000E+02  0.51100000000E-03 0.  1.
    9900012    2    1    2    0    0 -0.40995199802E+00  0.83857213203E-01 -0.11035398802E+01  0.90007791146E+02  0.90000053189E+02 0.  0.
         12    1    1    2    0    0  0.40995199802E+00 -0.83857213203E-01  0.11035398802E+01  0.11802088544E+01  0.00000000000E+00 0. -1.
         11    1    3    3    0    0  0.52061879923E+00 -0.34786168097E+01  0.78855107915E+01  0.86344136771E+01  0.51100000000E-03 0. -1.
        -11    1    3    3    0    0  0.59105133373E+01 -0.38121099934E+02 -0.58241770548E+01  0.39013759966E+02  0.51100000000E-03 0.  1.
         12    1    3    3    0    0 -0.68410841345E+01  0.41683573957E+02 -0.31648736169E+01  0.42359617502E+02  0.00000000000E+00 0. -1.
</event>
<event>
 7    1  0.1698110E-015  0.9000756E+02  0.7816164E-02  0.1186339E+00
        -11   -1    0    0    0    0  0.00000000000E+00  0.00000000000E+00  0.45593999997E+02  0.45594000000E+02  0.51100000000E-03 0. -1.
         11   -1    0    0    0    0 -0.00000000000E+00 -0.00000000000E+00 -0.45593999997E+02  0.45594000000E+02  0.51100000000E-03 0.  1.
    9900012    2    1    2    0    0  0.10216905094E+00  0.11686452788E+01 -0.13143949155E+00  0.90007556591E+02  0.89999815538E+02 0.  0.
         12    1    1    2    0    0 -0.10216905094E+00 -0.11686452788E+01  0.13143949155E+00  0.11804434093E+01  0.00000000000E+00 0. -1.
         11    1    3    3    0    0  0.18312381563E+01  0.76988968167E+01  0.54068059542E+01  0.95843620688E+01  0.51100000000E-03 0. -1.
        -11    1    3    3    0    0  0.25087188454E+02  0.26974443744E+02 -0.69409387164E+01  0.37485520809E+02  0.51100000000E-03 0.  1.
         12    1    3    3    0    0 -0.26816257559E+02 -0.33504695282E+02  0.14026932707E+01  0.42937673713E+02  0.00000000000E+00 0. -1.
</event>
<event>
 7    1  0.1698110E-015  0.9000777E+02  0.7816164E-02  0.1186339E+00
        -11   -1    0    0    0    0  0.00000000000E+00  0.00000000000E+00  0.45593999997E+02  0.45594000000E+02  0.51100000000E-03 0.  1.
         11   -1    0    0    0    0 -0.00000000000E+00 -0.00000000000E+00 -0.45593999997E+02  0.45594000000E+02  0.51100000000E-03 0. -1.
    9900012    2    1    2    0    0  0.93382390566E+00  0.23830016220E+00  0.68126638760E+00  0.90007772079E+02  0.90000033871E+02 0.  0.
         12    1    1    2    0    0 -0.93382390566E+00 -0.23830016220E+00 -0.68126638760E+00  0.11802279208E+01  0.00000000000E+00 0. -1.
         11    1    3    3    0    0  0.38661328162E+01  0.61948913559E+01  0.53078029363E+01  0.90275375455E+01  0.51100000000E-03 0. -1.
        -11    1    3    3    0    0  0.33095793915E+02  0.13699633383E+02 -0.14704034641E+02  0.38719764522E+02  0.51100000000E-03 0.  1.
         12    1    3    3    0    0 -0.36028102825E+02 -0.19656224576E+02  0.10077498092E+02  0.42260470012E+02  0.00000000000E+00 0. -1.
</event>
<event>
 7    1  0.1698110E-015  0.9000761E+02  0.7816164E-02  0.1186339E+00
        -11   -1    0    0    0    0  0.00000000000E+00  0.00000000000E+00  0.45593999997E+02  0.45594000000E+02  0.51100000000E-03 0.  1.
         11   -1    0    0    0    0 -0.00000000000E+00 -0.00000000000E+00 -0.45593999997E+02  0.45594000000E+02  0.51100000000E-03 0. -1.
    9900012    2    1    2    0    0  0.10229741999E+01  0.50296355842E+00  0.30639865523E+00  0.90007606553E+02  0.89999866159E+02 0.  0.
         12    1    1    2    0    0 -0.10229741999E+01 -0.50296355842E+00 -0.30639865523E+00  0.11803934474E+01  0.00000000000E+00 0. -1.
         11    1    3    3    0    0  0.23571361178E+01  0.83090228842E+01 -0.55853169895E+01  0.10285510104E+02  0.51100000000E-03 0. -1.
        -11    1    3    3    0    0  0.34789796999E+02 -0.72100125992E+01 -0.14340366940E+02  0.38313971096E+02  0.51100000000E-03 0.  1.
         12    1    3    3    0    0 -0.36123958917E+02 -0.59604672657E+00  0.20232082585E+02  0.41408125353E+02  0.00000000000E+00 0. -1.
</event>
<event>
 7    1  0.1698110E-015  0.9000773E+02  0.7816164E-02  0.1186339E+00
        -11   -1    0    0    0    0  0.00000000000E+00  0.00000000000E+00  0.45593999997E+02  0.45594000000E+02  0.51100000000E-03 0. -1.
         11   -1    0    0    0    0 -0.00000000000E+00 -0.00000000000E+00 -0.45593999997E+02  0.45594000000E+02  0.51100000000E-03 0.  1.
    9900012    2    1    2    0    0 -0.72278459481E+00 -0.91309779744E+00  0.19200735931E+00  0.90007732240E+02  0.89999993506E+02 0.  0.
         12    1    1    2    0    0  0.72278459481E+00  0.91309779744E+00 -0.19200735931E+00  0.11802677595E+01  0.00000000000E+00 0. -1.
         11    1    3    3    0    0 -0.34638186744E+01  0.66513378886E+01 -0.10182398159E+02  0.12645930889E+02  0.51100000000E-03 0. -1.
        -11    1    3    3    0    0 -0.23831919056E+02 -0.11593468505E+02 -0.22594120580E+02  0.34826185018E+02  0.51100000000E-03 0.  1.
         12    1    3    3    0    0  0.26572953136E+02  0.40290328190E+01  0.32968526098E+02  0.42535616334E+02  0.00000000000E+00 0. -1.
</event>
<event>
 7    1  0.1698110E-015  0.9000779E+02  0.7816164E-02  0.1186339E+00
        -11   -1    0    0    0    0  0.00000000000E+00  0.00000000000E+00  0.45593999997E+02  0.45594000000E+02  0.51100000000E-03 0. -1.
         11   -1    0    0    0    0 -0.00000000000E+00 -0.00000000000E+00 -0.45593999997E+02  0.45594000000E+02  0.51100000000E-03 0.  1.
    9900012    2    1    2    0    0  0.28064427716E+00 -0.62106514624E+00 -0.96353731460E+00  0.90007793542E+02  0.90000055617E+02 0.  0.
         12    1    1    2    0    0 -0.28064427716E+00  0.62106514624E+00  0.96353731460E+00  0.11802064577E+01  0.00000000000E+00 0. -1.
         11    1    3    3    0    0 -0.32834684423E+02  0.99538337399E+01  0.60443709751E+01  0.34838624083E+02  0.51100000000E-03 0. -1.
        -11    1    3    3    0    0 -0.10051747352E+02 -0.11412170046E+01  0.13303863292E+01  0.10203427323E+02  0.51100000000E-03 0.  1.
        -12    1    3    3    0    0  0.43167076052E+02 -0.94336818815E+01 -0.83382946189E+01  0.44965742136E+02  0.00000000000E+00 0.  1.
</event>
<event>
 7    1  0.1698110E-015  0.9000779E+02  0.7816164E-02  0.1186339E+00
        -11   -1    0    0    0    0  0.00000000000E+00  0.00000000000E+00  0.45593999997E+02  0.45594000000E+02  0.51100000000E-03 0.  1.
         11   -1    0    0    0    0 -0.00000000000E+00 -0.00000000000E+00 -0.45593999997E+02  0.45594000000E+02  0.51100000000E-03 0. -1.
    9900012    2    1    2    0    0  0.16983456805E+00 -0.63029506601E+00  0.98325030407E+00  0.90007789506E+02  0.90000051527E+02 0.  0.
         12    1    1    2    0    0 -0.16983456805E+00  0.63029506601E+00 -0.98325030407E+00  0.11802104944E+01  0.00000000000E+00 0. -1.
         11    1    3    3    0    0  0.58525294742E+01  0.25925136984E+02 -0.15653902580E+02  0.30844926571E+02  0.51100000000E-03 0. -1.
        -11    1    3    3    0    0 -0.18762838423E+01  0.11854331430E+02 -0.70080559452E+01  0.13898146031E+02  0.51100000000E-03 0.  1.
        -12    1    3    3    0    0 -0.38064110639E+01 -0.38409763480E+02  0.23645208830E+02  0.45264716904E+02  0.00000000000E+00 0.  1.
</event>
<event>
 7    1  0.1698110E-015  0.9000773E+02  0.7816164E-02  0.1186339E+00
        -11   -1    0    0    0    0  0.00000000000E+00  0.00000000000E+00  0.45593999997E+02  0.45594000000E+02  0.51100000000E-03 0.  1.
         11   -1    0    0    0    0 -0.00000000000E+00 -0.00000000000E+00 -0.45593999997E+02  0.45594000000E+02  0.51100000000E-03 0. -1.
    9900012    2    1    2    0    0  0.10744299190E+01 -0.24819102283E+00  0.42076387176E+00  0.90007728561E+02  0.89999989778E+02 0.  0.
         12    1    1    2    0    0 -0.10744299190E+01  0.24819102283E+00 -0.42076387176E+00  0.11802714393E+01  0.00000000000E+00 0. -1.
         11    1    3    3    0    0  0.86814739781E+01 -0.26127139390E+02 -0.21795142584E+02  0.35114436399E+02  0.51100000000E-03 0. -1.
        -11    1    3    3    0    0  0.90352987711E-01 -0.93037154059E+01 -0.42210475174E+01  0.10216874592E+02  0.51100000000E-03 0.  1.
        -12    1    3    3    0    0 -0.76973970468E+01  0.35182663773E+02  0.26436953973E+02  0.44676417569E+02  0.00000000000E+00 0.  1.
</event>
<event>
 7    1  0.1698110E-015  0.9000771E+02  0.7816164E-02  0.1186339E+00
        -11   -1    0    0    0    0  0.00000000000E+00  0.00000000000E+00  0.45593999997E+02  0.45594000000E+02  0.51100000000E-03 0.  1.
         11   -1    0    0    0    0 -0.00000000000E+00 -0.00000000000E+00 -0.45593999997E+02  0.45594000000E+02  0.51100000000E-03 0. -1.
    9900012    2    1    2    0    0  0.95651546491E+00 -0.50552468338E+00  0.47181258064E+00  0.90007710141E+02  0.89999971115E+02 0.  0.
         12    1    1    2    0    0 -0.95651546491E+00  0.50552468338E+00 -0.47181258064E+00  0.11802898590E+01  0.00000000000E+00 0. -1.
         11    1    3    3    0    0 -0.57332387165E+01 -0.39917918775E+01  0.33247381713E+01  0.77368154134E+01  0.51100000000E-03 0. -1.
        -11    1    3    3    0    0  0.18331925072E+02  0.27945792122E+02  0.26260113516E+02  0.42504356674E+02  0.51100000000E-03 0.  1.
         12    1    3    3    0    0 -0.11642170891E+02 -0.24459524928E+02 -0.29113039106E+02  0.39766538053E+02  0.00000000000E+00 0. -1.
</event>
<event>
 7    1  0.1698110E-015  0.9000780E+02  0.7816164E-02  0.1186339E+00
        -11   -1    0    0    0    0  0.00000000000E+00  0.00000000000E+00  0.45593999997E+02  0.45594000000E+02  0.51100000000E-03 0. -1.
         11   -1    0    0    0    0 -0.00000000000E+00 -0.00000000000E+00 -0.45593999997E+02  0.45594000000E+02  0.51100000000E-03 0.  1.
    9900012    2    1    2    0    0  0.84538535104E+00 -0.11572308167E+00 -0.81536101660E+00  0.90007795861E+02  0.90000057966E+02 0.  0.
         12    1    1    2    0    0 -0.84538535104E+00  0.11572308167E+00  0.81536101660E+00  0.11802041394E+01  0.00000000000E+00 0. -1.
         11    1    3    3    0    0  0.71675636807E+01  0.28237119985E+02  0.24274763451E+02  0.37920615172E+02  0.51100000000E-03 0. -1.
        -11    1    3    3    0    0 -0.67097312154E+01  0.56832172995E+01  0.14667066108E+01  0.89146329369E+01  0.51100000000E-03 0.  1.
        -12    1    3    3    0    0  0.38755288576E+00 -0.34036060366E+02 -0.26556831078E+02  0.43172547752E+02  0.00000000000E+00 0.  1.
</event>
<event>
 7    1  0.1698110E-015  0.9000796E+02  0.7816164E-02  0.1186339E+00
        -11   -1    0    0    0    0  0.00000000000E+00  0.00000000000E+00  0.45593999997E+02  0.45594000000E+02  0.51100000000E-03 0.  1.
         11   -1    0    0    0    0 -0.00000000000E+00 -0.00000000000E+00 -0.45593999997E+02  0.45594000000E+02  0.51100000000E-03 0. -1.
    9900012    2    1    2    0    0 -0.69080565092E+00 -0.40122610142E+00  0.86850658424E+00  0.90007958256E+02  0.90000222504E+02 0.  0.
         12    1    1    2    0    0  0.69080565092E+00  0.40122610142E+00 -0.86850658424E+00  0.11800417445E+01  0.00000000000E+00 0. -1.
         11    1    3    3    0    0 -0.13263698214E+02 -0.29436254713E+02 -0.19316061189E+02  0.37623516608E+02  0.51100000000E-03 0. -1.
        -11    1    3    3    0    0  0.78904849559E+01 -0.73618214042E+01  0.64728779258E+00  0.10810881045E+02  0.51100000000E-03 0.  1.
        -12    1    3    3    0    0  0.46824076068E+01  0.36396850016E+02  0.19537279981E+02  0.41573560602E+02  0.00000000000E+00 0.  1.
</event>
<event>
 7    1  0.1698110E-015  0.9000772E+02  0.7816164E-02  0.1186339E+00
        -11   -1    0    0    0    0  0.00000000000E+00  0.00000000000E+00  0.45593999997E+02  0.45594000000E+02  0.51100000000E-03 0.  1.
         11   -1    0    0    0    0 -0.00000000000E+00 -0.00000000000E+00 -0.45593999997E+02  0.45594000000E+02  0.51100000000E-03 0. -1.
    9900012    2    1    2    0    0  0.55550783163E+00 -0.10273787028E+01  0.17022482132E+00  0.90007715102E+02  0.89999976142E+02 0.  0.
         12    1    1    2    0    0 -0.55550783163E+00  0.10273787028E+01 -0.17022482132E+00  0.11802848978E+01  0.00000000000E+00 0. -1.
         11    1    3    3    0    0  0.39663090524E+01 -0.10193951035E+02  0.15207609212E+01  0.11043593584E+02  0.51100000000E-03 0. -1.
        -11    1    3    3    0    0 -0.27208022863E+02 -0.24133577603E+02  0.73892818270E+01  0.37112094554E+02  0.51100000000E-03 0.  1.
         12    1    3    3    0    0  0.23797221642E+02  0.33300149935E+02 -0.87398179270E+01  0.41852026964E+02  0.00000000000E+00 0. -1.
</event>
<event>
 7    1  0.1698110E-015  0.9000774E+02  0.7816164E-02  0.1186339E+00
        -11   -1    0    0    0    0  0.00000000000E+00  0.00000000000E+00  0.45593999997E+02  0.45594000000E+02  0.51100000000E-03 0. -1.
         11   -1    0    0    0    0 -0.00000000000E+00 -0.00000000000E+00 -0.45593999997E+02  0.45594000000E+02  0.51100000000E-03 0.  1.
    9900012    2    1    2    0    0 -0.72182176288E+00 -0.89437454271E+00  0.26849113970E+00  0.90007737329E+02  0.89999998662E+02 0.  0.
         12    1    1    2    0    0  0.72182176288E+00  0.89437454271E+00 -0.26849113970E+00  0.11802626708E+01  0.00000000000E+00 0. -1.
         11    1    3    3    0    0  0.75991539519E+01  0.49156556174E+01  0.30785435094E+00  0.90556935403E+01  0.51100000000E-03 0. -1.
        -11    1    3    3    0    0  0.15405934346E+02 -0.14094919891E+02 -0.33275072653E+02  0.39284093984E+02  0.51100000000E-03 0.  1.
         12    1    3    3    0    0 -0.23726910061E+02  0.82848897307E+01  0.33235709442E+02  0.41667949805E+02  0.00000000000E+00 0. -1.
</event>
<event>
 7    1  0.2058064E-015  0.9000655E+02  0.7816164E-02  0.1186341E+00
        -11   -1    0    0    0    0  0.00000000000E+00  0.00000000000E+00  0.45593999997E+02  0.45594000000E+02  0.51100000000E-03 0.  1.
         11   -1    0    0    0    0 -0.00000000000E+00 -0.00000000000E+00 -0.45593999997E+02  0.45594000000E+02  0.51100000000E-03 0. -1.
    9900012    2    1    2    0    0  0.39683874969E-01 -0.50468583988E+00  0.10674936212E+01  0.90006549519E+02  0.89998795165E+02 0.  0.
         12    1    1    2    0    0 -0.39683874969E-01  0.50468583988E+00 -0.10674936212E+01  0.11814504807E+01  0.00000000000E+00 0. -1.
         11    1    3    3    0    0  0.22191048969E+01 -0.91325609408E+01  0.75433199843E+00  0.94285265501E+01  0.51100000000E-03 0. -1.
        -11    1    3    3    0    0  0.31669606640E+02 -0.15578630720E+01  0.22467360010E+02  0.38860946826E+02  0.51100000000E-03 0.  1.
         12    1    3    3    0    0 -0.33849027662E+02  0.10185738173E+02 -0.22154198387E+02  0.41717076144E+02  0.00000000000E+00 0. -1.
</event>
<event>
 7    1  0.1698110E-015  0.9000767E+02  0.7816164E-02  0.1186339E+00
        -11   -1    0    0    0    0  0.00000000000E+00  0.00000000000E+00  0.45593999997E+02  0.45594000000E+02  0.51100000000E-03 0. -1.
         11   -1    0    0    0    0 -0.00000000000E+00 -0.00000000000E+00 -0.45593999997E+02  0.45594000000E+02  0.51100000000E-03 0.  1.
    9900012    2    1    2    0    0 -0.72663025260E+00 -0.91537832698E+00 -0.16516162579E+00  0.90007666417E+02  0.89999926813E+02 0.  0.
         12    1    1    2    0    0  0.72663025260E+00  0.91537832698E+00  0.16516162579E+00  0.11803335834E+01  0.00000000000E+00 0. -1.
         11    1    3    3    0    0 -0.91524182209E+01  0.17970841024E+01  0.99921892621E+01  0.13668947182E+02  0.51100000000E-03 0. -1.
        -11    1    3    3    0    0  0.28560110230E+02  0.22341761370E+02  0.10959429024E+02  0.37880645219E+02  0.51100000000E-03 0.  1.
         12    1    3    3    0    0 -0.20134322261E+02 -0.25054223799E+02 -0.21116779912E+02  0.38458074015E+02  0.00000000000E+00 0. -1.
</event>
<event>
 7    1  0.1698110E-015  0.9000766E+02  0.7816164E-02  0.1186339E+00
        -11   -1    0    0    0    0  0.00000000000E+00  0.00000000000E+00  0.45593999997E+02  0.45594000000E+02  0.51100000000E-03 0.  1.
         11   -1    0    0    0    0 -0.00000000000E+00 -0.00000000000E+00 -0.45593999997E+02  0.45594000000E+02  0.51100000000E-03 0. -1.
    9900012    2    1    2    0    0  0.24795839209E+00  0.24405855200E+00  0.11279034189E+01  0.90007655108E+02  0.89999915356E+02 0.  0.
         12    1    1    2    0    0 -0.24795839209E+00 -0.24405855200E+00 -0.11279034189E+01  0.11803448917E+01  0.00000000000E+00 0. -1.
         11    1    3    3    0    0  0.70866180476E+00 -0.74118130080E+01 -0.52952511552E+01  0.91365671166E+01  0.51100000000E-03 0. -1.
        -11    1    3    3    0    0  0.30110148081E+01 -0.23615874311E+02  0.32305170288E+02  0.40129786409E+02  0.51100000000E-03 0.  1.
         12    1    3    3    0    0 -0.34717182207E+01  0.31271745871E+02 -0.25882015714E+02  0.40741301583E+02  0.00000000000E+00 0. -1.
</event>
<event>
 7    1  0.1698110E-015  0.9000784E+02  0.7816164E-02  0.1186339E+00
        -11   -1    0    0    0    0  0.00000000000E+00  0.00000000000E+00  0.45593999997E+02  0.45594000000E+02  0.51100000000E-03 0. -1.
         11   -1    0    0    0    0 -0.00000000000E+00 -0.00000000000E+00 -0.45593999997E+02  0.45594000000E+02  0.51100000000E-03 0.  1.
    9900012    2    1    2    0    0 -0.79765529243E-01  0.81495584451E+00 -0.84985408593E+00  0.90007844275E+02  0.90000107019E+02 0.  0.
         12    1    1    2    0    0  0.79765529243E-01 -0.81495584451E+00  0.84985408593E+00  0.11801557251E+01  0.00000000000E+00 0. -1.
         11    1    3    3    0    0 -0.40600321225E+01 -0.24090243610E+02 -0.27074038005E+01  0.24579538922E+02  0.51100000000E-03 0. -1.
        -11    1    3    3    0    0 -0.18757993647E+02 -0.54347623887E+01 -0.14309142540E+02  0.24210545809E+02  0.51100000000E-03 0.  1.
        -12    1    3    3    0    0  0.22738260240E+02  0.30339961843E+02  0.16166692255E+02  0.41217759544E+02  0.00000000000E+00 0.  1.
</event>
<event>
 7    1  0.1698110E-015  0.9000784E+02  0.7816164E-02  0.1186339E+00
        -11   -1    0    0    0    0  0.00000000000E+00  0.00000000000E+00  0.45593999997E+02  0.45594000000E+02  0.51100000000E-03 0.  1.
         11   -1    0    0    0    0 -0.00000000000E+00 -0.00000000000E+00 -0.45593999997E+02  0.45594000000E+02  0.51100000000E-03 0. -1.
    9900012    2    1    2    0    0 -0.11048875970E+01 -0.38782623830E+00  0.14694681430E+00  0.90007839350E+02  0.90000102030E+02 0.  0.
         12    1    1    2    0    0  0.11048875970E+01  0.38782623830E+00 -0.14694681430E+00  0.11801606498E+01  0.00000000000E+00 0. -1.
         11    1    3    3    0    0 -0.62598805501E+01 -0.27295101339E+01  0.83353895316E+00  0.68797614435E+01  0.51100000000E-03 0. -1.
        -11    1    3    3    0    0 -0.35691100609E+02 -0.95447104011E+01 -0.12457701191E+02  0.38989107178E+02  0.51100000000E-03 0.  1.
         12    1    3    3    0    0  0.40846093562E+02  0.11886394297E+02  0.11771109053E+02  0.44138970729E+02  0.00000000000E+00 0. -1.
</event>
<event>
 7    1  0.1698110E-015  0.9000774E+02  0.7816164E-02  0.1186339E+00
        -11   -1    0    0    0    0  0.00000000000E+00  0.00000000000E+00  0.45593999997E+02  0.45594000000E+02  0.51100000000E-03 0.  1.
         11   -1    0    0    0    0 -0.00000000000E+00 -0.00000000000E+00 -0.45593999997E+02  0.45594000000E+02  0.51100000000E-03 0. -1.
    9900012    2    1    2    0    0 -0.14237877932E+00  0.11706162045E+01 -0.48956487147E-01  0.90007741235E+02  0.90000002619E+02 0.  0.
         12    1    1    2    0    0  0.14237877932E+00 -0.11706162045E+01  0.48956487147E-01  0.11802587651E+01  0.00000000000E+00 0. -1.
         11    1    3    3    0    0 -0.36685738949E+02 -0.27773193430E+01 -0.23401331255E+02  0.43602514259E+02  0.51100000000E-03 0. -1.
        -11    1    3    3    0    0  0.50056798275E+01  0.29298438178E+01  0.11160515838E+02  0.12577675833E+02  0.51100000000E-03 0.  1.
        -12    1    3    3    0    0  0.31537680342E+02  0.10180917296E+01  0.12191858929E+02  0.33827551142E+02  0.00000000000E+00 0.  1.
</event>
<event>
 7    1  0.1698110E-015  0.9000779E+02  0.7816164E-02  0.1186339E+00
        -11   -1    0    0    0    0  0.00000000000E+00  0.00000000000E+00  0.45593999997E+02  0.45594000000E+02  0.51100000000E-03 0. -1.
         11   -1    0    0    0    0 -0.00000000000E+00 -0.00000000000E+00 -0.45593999997E+02  0.45594000000E+02  0.51100000000E-03 0.  1.
    9900012    2    1    2    0    0  0.90815214742E+00  0.74376737521E+00  0.12232196192E+00  0.90007791165E+02  0.90000053209E+02 0.  0.
         12    1    1    2    0    0 -0.90815214742E+00 -0.74376737521E+00 -0.12232196192E+00  0.11802088348E+01  0.00000000000E+00 0. -1.
         11    1    3    3    0    0  0.23043356544E+02 -0.26547054740E+02  0.11005501293E+02  0.36835627524E+02  0.51100000000E-03 0. -1.
        -11    1    3    3    0    0  0.40132824445E+01 -0.11998604894E+01  0.88249100442E+01  0.97685791558E+01  0.51100000000E-03 0.  1.
        -12    1    3    3    0    0 -0.26148486841E+02  0.28490682604E+02 -0.19708089375E+02  0.43403584485E+02  0.00000000000E+00 0.  1.
</event>
<event>
 7    1  0.1698110E-015  0.9000756E+02  0.7816164E-02  0.1186339E+00
        -11   -1    0    0    0    0  0.00000000000E+00  0.00000000000E+00  0.45593999997E+02  0.45594000000E+02  0.51100000000E-03 0.  1.
         11   -1    0    0    0    0 -0.00000000000E+00 -0.00000000000E+00 -0.45593999997E+02  0.45594000000E+02  0.51100000000E-03 0. -1.
    9900012    2    1    2    0    0  0.11368672086E+01  0.30258238444E+00 -0.97022560532E-01  0.90007560876E+02  0.89999819879E+02 0.  0.
         12    1    1    2    0    0 -0.11368672086E+01 -0.30258238444E+00  0.97022560532E-01  0.11804391245E+01  0.00000000000E+00 0. -1.
         11    1    3    3    0    0  0.57387284237E+00  0.14045812004E+01  0.93298600190E+01  0.94524317836E+01  0.51100000000E-03 0. -1.
        -11    1    3    3    0    0 -0.13946637332E+01  0.13385454029E+02  0.33022187086E+02  0.35659224706E+02  0.51100000000E-03 0.  1.
         12    1    3    3    0    0  0.19576580995E+01 -0.14487452845E+02 -0.42449069665E+02  0.44895904386E+02  0.00000000000E+00 0. -1.
</event>
<event>
 7    1  0.1698110E-015  0.9000777E+02  0.7816164E-02  0.1186339E+00
        -11   -1    0    0    0    0  0.00000000000E+00  0.00000000000E+00  0.45593999997E+02  0.45594000000E+02  0.51100000000E-03 0.  1.
         11   -1    0    0    0    0 -0.00000000000E+00 -0.00000000000E+00 -0.45593999997E+02  0.45594000000E+02  0.51100000000E-03 0. -1.
    9900012    2    1    2    0    0 -0.92937015642E+00  0.72602600246E+00 -0.45819589223E-01  0.90007770328E+02  0.90000032096E+02 0.  0.
         12    1    1    2    0    0  0.92937015642E+00 -0.72602600246E+00  0.45819589223E-01  0.11802296720E+01  0.00000000000E+00 0. -1.
         11    1    3    3    0    0  0.24691839845E+01 -0.87099046629E+01 -0.41744871690E+02  0.42715262161E+02  0.51100000000E-03 0. -1.
        -11    1    3    3    0    0 -0.33812775038E+01  0.67090234717E+01  0.23827101144E+01  0.78817092849E+01  0.51100000000E-03 0.  1.
        -12    1    3    3    0    0 -0.17276637132E-01  0.27269071937E+01  0.39316341987E+02  0.39410798882E+02  0.00000000000E+00 0.  1.
</event>
<event>
 7    1  0.1698110E-015  0.9000770E+02  0.7816164E-02  0.1186339E+00
        -11   -1    0    0    0    0  0.00000000000E+00  0.00000000000E+00  0.45593999997E+02  0.45594000000E+02  0.51100000000E-03 0.  1.
         11   -1    0    0    0    0 -0.00000000000E+00 -0.00000000000E+00 -0.45593999997E+02  0.45594000000E+02  0.51100000000E-03 0. -1.
    9900012    2    1    2    0    0 -0.67267313784E+00  0.23193612385E+00  0.94171657247E+00  0.90007697658E+02  0.89999958467E+02 0.  0.
         12    1    1    2    0    0  0.67267313784E+00 -0.23193612385E+00 -0.94171657247E+00  0.11803023421E+01  0.00000000000E+00 0. -1.
         11    1    3    3    0    0  0.28975904814E+01 -0.86036097467E+01 -0.43314847281E+01  0.10058821575E+02  0.51100000000E-03 0. -1.
        -11    1    3    3    0    0  0.88853707927E+01  0.24804613051E+02  0.35104565482E+02  0.43892472711E+02  0.51100000000E-03 0.  1.
         12    1    3    3    0    0 -0.12455634412E+02 -0.15969067180E+02 -0.29831364181E+02  0.36056403372E+02  0.00000000000E+00 0. -1.
</event>
<event>
 7    1  0.1698110E-015  0.9000773E+02  0.7816164E-02  0.1186339E+00
        -11   -1    0    0    0    0  0.00000000000E+00  0.00000000000E+00  0.45593999997E+02  0.45594000000E+02  0.51100000000E-03 0.  1.
         11   -1    0    0    0    0 -0.00000000000E+00 -0.00000000000E+00 -0.45593999997E+02  0.45594000000E+02  0.51100000000E-03 0. -1.
    9900012    2    1    2    0    0  0.83537156574E+00 -0.61563348000E+00  0.56231365334E+00  0.90007725930E+02  0.89999987113E+02 0.  0.
         12    1    1    2    0    0 -0.83537156574E+00  0.61563348000E+00 -0.56231365334E+00  0.11802740696E+01  0.00000000000E+00 0. -1.
         11    1    3    3    0    0 -0.29871487936E+01 -0.11722055607E+01 -0.67905145661E+01  0.75105400688E+01  0.51100000000E-03 0. -1.
        -11    1    3    3    0    0 -0.23865860755E+02 -0.29756701347E+02  0.14531096562E+02  0.40819031740E+02  0.51100000000E-03 0.  1.
         12    1    3    3    0    0  0.27688381114E+02  0.30313273428E+02 -0.71782683427E+01  0.41678154122E+02  0.00000000000E+00 0. -1.
</event>
<event>
 7    1  0.1698110E-015  0.9000772E+02  0.7816164E-02  0.1186339E+00
        -11   -1    0    0    0    0  0.00000000000E+00  0.00000000000E+00  0.45593999997E+02  0.45594000000E+02  0.51100000000E-03 0. -1.
         11   -1    0    0    0    0 -0.00000000000E+00 -0.00000000000E+00 -0.45593999997E+02  0.45594000000E+02  0.51100000000E-03 0.  1.
    9900012    2    1    2    0    0  0.68299260484E+00 -0.39938267368E+00 -0.87583273748E+00  0.90007716813E+02  0.89999977875E+02 0.  0.
         12    1    1    2    0    0 -0.68299260484E+00  0.39938267368E+00  0.87583273748E+00  0.11802831873E+01  0.00000000000E+00 0. -1.
         11    1    3    3    0    0 -0.47407491361E+01  0.17517529228E+01  0.85450374940E+01  0.99277896185E+01  0.51100000000E-03 0. -1.
        -11    1    3    3    0    0 -0.25339824693E+02  0.23440801302E+02  0.95185083513E+01  0.35807539467E+02  0.51100000000E-03 0.  1.
         12    1    3    3    0    0  0.30763566434E+02 -0.25591936899E+02 -0.18939378583E+02  0.44272387727E+02  0.00000000000E+00 0. -1.
</event>
<event>
 7    1  0.1698110E-015  0.9000708E+02  0.7816164E-02  0.1186340E+00
        -11   -1    0    0    0    0  0.00000000000E+00  0.00000000000E+00  0.45593999997E+02  0.45594000000E+02  0.51100000000E-03 0.  1.
         11   -1    0    0    0    0 -0.00000000000E+00 -0.00000000000E+00 -0.45593999997E+02  0.45594000000E+02  0.51100000000E-03 0. -1.
    9900012    2    1    2    0    0 -0.37826967118E+00  0.91653125084E+00 -0.64144832362E+00  0.90007079414E+02  0.89999332060E+02 0.  0.
         12    1    1    2    0    0  0.37826967118E+00 -0.91653125084E+00  0.64144832362E+00  0.11809205857E+01  0.00000000000E+00 0. -1.
         11    1    3    3    0    0 -0.93011979598E+01  0.55268685540E+00 -0.41713360732E+01  0.10208711532E+02  0.51100000000E-03 0. -1.
        -11    1    3    3    0    0 -0.34606750844E+02 -0.54025677692E+01 -0.39782796842E+01  0.35251122705E+02  0.51100000000E-03 0.  1.
         12    1    3    3    0    0  0.43529679133E+02  0.57664121646E+01  0.75081674338E+01  0.44547245177E+02  0.00000000000E+00 0. -1.
</event>
<event>
 7    1  0.1826239E-015  0.9000779E+02  0.7816164E-02  0.1186339E+00
        -11   -1    0    0    0    0  0.00000000000E+00  0.00000000000E+00  0.45593999997E+02  0.45594000000E+02  0.51100000000E-03 0. -1.
         11   -1    0    0    0    0 -0.00000000000E+00 -0.00000000000E+00 -0.45593999997E+02  0.45594000000E+02  0.51100000000E-03 0.  1.
    9900012    2    1    2    0    0 -0.23088682502E+00 -0.10710480511E+01 -0.43867024760E+00  0.90007794831E+02  0.90000056923E+02 0.  0.
         12    1    1    2    0    0  0.23088682502E+00  0.10710480511E+01  0.43867024760E+00  0.11802051686E+01  0.00000000000E+00 0. -1.
         11    1    3    3    0    0  0.47917474160E+01  0.80125987794E+01 -0.24200018038E+01  0.96446353736E+01  0.51100000000E-03 0. -1.
        -11    1    3    3    0    0 -0.17441489513E+02  0.12939469596E+02 -0.31590702250E+02  0.38335465287E+02  0.51100000000E-03 0.  1.
         12    1    3    3    0    0  0.12418855272E+02 -0.22023116426E+02  0.33572033807E+02  0.42027694171E+02  0.00000000000E+00 0. -1.
</event>
<event>
 7    1  0.1698110E-015  0.9000763E+02  0.7816164E-02  0.1186339E+00
        -11   -1    0    0    0    0  0.00000000000E+00  0.00000000000E+00  0.45593999997E+02  0.45594000000E+02  0.51100000000E-03 0.  1.
         11   -1    0    0    0    0 -0.00000000000E+00 -0.00000000000E+00 -0.45593999997E+02  0.45594000000E+02  0.51100000000E-03 0. -1.
    9900012    2    1    2    0    0  0.24690888702E+00  0.10342600095E+01 -0.51247099388E+00  0.90007625362E+02  0.89999885217E+02 0.  0.
         12    1    1    2    0    0 -0.24690888702E+00 -0.10342600095E+01  0.51247099388E+00  0.11803746377E+01  0.00000000000E+00 0. -1.
         11    1    3    3    0    0  0.13218978310E+02 -0.81206883783E+01  0.74083217957E+01  0.17192155170E+02  0.51100000000E-03 0. -1.
        -11    1    3    3    0    0  0.92769542486E+01  0.10992647076E+02  0.27448966563E+02  0.30989448777E+02  0.51100000000E-03 0.  1.
         12    1    3    3    0    0 -0.22249023672E+02 -0.18376986883E+01 -0.35369759352E+02  0.41826021415E+02  0.00000000000E+00 0. -1.
</event>
<event>
 7    1  0.1698110E-015  0.9000773E+02  0.7816164E-02  0.1186339E+00
        -11   -1    0    0    0    0  0.00000000000E+00  0.00000000000E+00  0.45593999997E+02  0.45594000000E+02  0.51100000000E-03 0. -1.
         11   -1    0    0    0    0 -0.00000000000E+00 -0.00000000000E+00 -0.45593999997E+02  0.45594000000E+02  0.51100000000E-03 0.  1.
    9900012    2    1    2    0    0  0.74319836205E+00 -0.90765481780E+00 -0.12986223082E+00  0.90007726611E+02  0.89999987802E+02 0.  0.
         12    1    1    2    0    0 -0.74319836205E+00  0.90765481780E+00  0.12986223082E+00  0.11802733889E+01  0.00000000000E+00 0. -1.
         11    1    3    3    0    0  0.14422297651E+01  0.34968199067E+02 -0.14698277565E+02  0.37959114009E+02  0.51100000000E-03 0. -1.
        -11    1    3    3    0    0 -0.50718581407E+01  0.53195295549E+01 -0.16966269756E+01  0.75431878566E+01  0.51100000000E-03 0.  1.
        -12    1    3    3    0    0  0.43728267377E+01 -0.41195383440E+02  0.16265042310E+02  0.44505424746E+02  0.00000000000E+00 0.  1.
</event>
<event>
 7    1  0.1698110E-015  0.9000755E+02  0.7816164E-02  0.1186339E+00
        -11   -1    0    0    0    0  0.00000000000E+00  0.00000000000E+00  0.45593999997E+02  0.45594000000E+02  0.51100000000E-03 0.  1.
         11   -1    0    0    0    0 -0.00000000000E+00 -0.00000000000E+00 -0.45593999997E+02  0.45594000000E+02  0.51100000000E-03 0. -1.
    9900012    2    1    2    0    0 -0.11067275384E+01  0.40691944998E-01  0.40860703340E+00  0.90007550346E+02  0.89999809210E+02 0.  0.
         12    1    1    2    0    0  0.11067275384E+01 -0.40691944998E-01 -0.40860703340E+00  0.11804496543E+01  0.00000000000E+00 0. -1.
         11    1    3    3    0    0 -0.33615662512E+01 -0.14264374995E+01 -0.40086512822E+02  0.40252495104E+02  0.51100000000E-03 0. -1.
        -11    1    3    3    0    0  0.11767032600E+01  0.65252251808E+01 -0.20162508259E+01  0.69302569849E+01  0.51100000000E-03 0.  1.
        -12    1    3    3    0    0  0.10781354529E+01 -0.50580957364E+01  0.42511370681E+02  0.42824798257E+02  0.00000000000E+00 0.  1.
</event>
<event>
 7    1  0.1698110E-015  0.9000769E+02  0.7816164E-02  0.1186339E+00
        -11   -1    0    0    0    0  0.00000000000E+00  0.00000000000E+00  0.45593999997E+02  0.45594000000E+02  0.51100000000E-03 0.  1.
         11   -1    0    0    0    0 -0.00000000000E+00 -0.00000000000E+00 -0.45593999997E+02  0.45594000000E+02  0.51100000000E-03 0. -1.
    9900012    2    1    2    0    0 -0.47170005319E+00  0.74241461783E+00  0.78705396501E+00  0.90007688876E+02  0.89999949569E+02 0.  0.
         12    1    1    2    0    0  0.47170005319E+00 -0.74241461783E+00 -0.78705396501E+00  0.11803111237E+01  0.00000000000E+00 0. -1.
         11    1    3    3    0    0  0.31351291365E+01  0.25395062894E+01 -0.10397614041E+02  0.11152959468E+02  0.51100000000E-03 0. -1.
        -11    1    3    3    0    0 -0.18605677256E+02  0.31379526613E+02  0.19703758042E+02  0.41461837849E+02  0.51100000000E-03 0.  1.
         12    1    3    3    0    0  0.14998848067E+02 -0.33176618284E+02 -0.85190900358E+01  0.37392891559E+02  0.00000000000E+00 0. -1.
</event>
<event>
 7    1  0.1698110E-015  0.9000770E+02  0.7816164E-02  0.1186339E+00
        -11   -1    0    0    0    0  0.00000000000E+00  0.00000000000E+00  0.45593999997E+02  0.45594000000E+02  0.51100000000E-03 0. -1.
         11   -1    0    0    0    0 -0.00000000000E+00 -0.00000000000E+00 -0.45593999997E+02  0.45594000000E+02  0.51100000000E-03 0.  1.
    9900012    2    1    2    0    0  0.77818532002E+00 -0.63023227624E+00 -0.62477732884E+00  0.90007698418E+02  0.89999959237E+02 0.  0.
         12    1    1    2    0    0 -0.77818532002E+00  0.63023227624E+00  0.62477732884E+00  0.11803015822E+01  0.00000000000E+00 0. -1.
         11    1    3    3    0    0 -0.21331443963E+02  0.34140106558E+02 -0.36029276476E+01  0.40417304032E+02  0.51100000000E-03 0. -1.
        -11    1    3    3    0    0  0.46603252629E+01  0.23600372315E+01  0.65857238259E+01  0.84059601392E+01  0.51100000000E-03 0.  1.
        -12    1    3    3    0    0  0.17449304020E+02 -0.37130376066E+02 -0.36075735071E+01  0.41184434246E+02  0.00000000000E+00 0.  1.
</event>
<event>
 7    1  0.1698110E-015  0.9000789E+02  0.7816164E-02  0.1186339E+00
        -11   -1    0    0    0    0  0.00000000000E+00  0.00000000000E+00  0.45593999997E+02  0.45594000000E+02  0.51100000000E-03 0.  1.
         11   -1    0    0    0    0 -0.00000000000E+00 -0.00000000000E+00 -0.45593999997E+02  0.45594000000E+02  0.51100000000E-03 0. -1.
    9900012    2    1    2    0    0  0.19965715448E+00  0.12792345141E+00  0.11560377008E+01  0.90007893838E+02  0.90000157236E+02 0.  0.
         12    1    1    2    0    0 -0.19965715448E+00 -0.12792345141E+00 -0.11560377008E+01  0.11801061623E+01  0.00000000000E+00 0. -1.
         11    1    3    3    0    0 -0.73210087838E+01  0.46686960869E+01 -0.78928720852E+01  0.11734194594E+02  0.51100000000E-03 0. -1.
        -11    1    3    3    0    0 -0.16833150660E+02  0.13881497537E+02 -0.24568113583E+02  0.32857923554E+02  0.51100000000E-03 0.  1.
         12    1    3    3    0    0  0.24353816598E+02 -0.18422270173E+02  0.33617023369E+02  0.45415775689E+02  0.00000000000E+00 0. -1.
</event>
<event>
 7    1  0.1698110E-015  0.9000773E+02  0.7816164E-02  0.1186339E+00
        -11   -1    0    0    0    0  0.00000000000E+00  0.00000000000E+00  0.45593999997E+02  0.45594000000E+02  0.51100000000E-03 0. -1.
         11   -1    0    0    0    0 -0.00000000000E+00 -0.00000000000E+00 -0.45593999997E+02  0.45594000000E+02  0.51100000000E-03 0.  1.
    9900012    2    1    2    0    0  0.13692732154E+00 -0.93513544532E+00 -0.70696475830E+00  0.90007734538E+02  0.89999995833E+02 0.  0.
         12    1    1    2    0    0 -0.13692732154E+00  0.93513544532E+00  0.70696475830E+00  0.11802654625E+01  0.00000000000E+00 0. -1.
         11    1    3    3    0    0 -0.37827664606E+02  0.62730114675E+01  0.74308700326E+01  0.39057658815E+02  0.51100000000E-03 0. -1.
        -11    1    3    3    0    0  0.11199493269E+01  0.69221655007E+01  0.57996200230E+01  0.90997941947E+01  0.51100000000E-03 0.  1.
        -12    1    3    3    0    0  0.36844642601E+02 -0.14130312414E+02 -0.13937454814E+02  0.41850281528E+02  0.00000000000E+00 0.  1.
</event>
<event>
 7    1  0.1698110E-015  0.9000783E+02  0.7816164E-02  0.1186339E+00
        -11   -1    0    0    0    0  0.00000000000E+00  0.00000000000E+00  0.45593999997E+02  0.45594000000E+02  0.51100000000E-03 0. -1.
         11   -1    0    0    0    0 -0.00000000000E+00 -0.00000000000E+00 -0.45593999997E+02  0.45594000000E+02  0.51100000000E-03 0.  1.
    9900012    2    1    2    0    0  0.66795403534E+00  0.78142935280E+00 -0.57965109499E+00  0.90007834834E+02  0.90000097454E+02 0.  0.
         12    1    1    2    0    0 -0.66795403534E+00 -0.78142935280E+00  0.57965109499E+00  0.11801651658E+01  0.00000000000E+00 0. -1.
         11    1    3    3    0    0  0.65816580998E+01  0.19362684010E+01  0.49995583468E+01  0.84889894916E+01  0.51100000000E-03 0. -1.
        -11    1    3    3    0    0  0.50175582680E+00  0.38201385692E+02  0.86657204068E+01  0.39175149497E+02  0.51100000000E-03 0.  1.
         12    1    3    3    0    0 -0.64154598913E+01 -0.39356224740E+02 -0.14244929849E+02  0.42343695845E+02  0.00000000000E+00 0. -1.
</event>
<event>
 7    1  0.1698110E-015  0.9000768E+02  0.7816164E-02  0.1186339E+00
        -11   -1    0    0    0    0  0.00000000000E+00  0.00000000000E+00  0.45593999997E+02  0.45594000000E+02  0.51100000000E-03 0. -1.
         11   -1    0    0    0    0 -0.00000000000E+00 -0.00000000000E+00 -0.45593999997E+02  0.45594000000E+02  0.51100000000E-03 0.  1.
    9900012    2    1    2    0    0  0.59752615238E+00  0.46680709132E+00 -0.90455196542E+00  0.90007677747E+02  0.89999938293E+02 0.  0.
         12    1    1    2    0    0 -0.59752615238E+00 -0.46680709132E+00  0.90455196542E+00  0.11803222532E+01  0.00000000000E+00 0. -1.
         11    1    3    3    0    0  0.32158213204E+02 -0.99235599071E+01 -0.22701542056E+02  0.40595415132E+02  0.51100000000E-03 0. -1.
        -11    1    3    3    0    0  0.20060383252E+01  0.91709169313E+01  0.31304329320E-01  0.93878052464E+01  0.51100000000E-03 0.  1.
        -12    1    3    3    0    0 -0.33566725377E+02  0.12194500671E+01  0.21765685761E+02  0.40024457369E+02  0.00000000000E+00 0.  1.
</event>
<event>
 7    1  0.1698110E-015  0.9000760E+02  0.7816164E-02  0.1186339E+00
        -11   -1    0    0    0    0  0.00000000000E+00  0.00000000000E+00  0.45593999997E+02  0.45594000000E+02  0.51100000000E-03 0.  1.
         11   -1    0    0    0    0 -0.00000000000E+00 -0.00000000000E+00 -0.45593999997E+02  0.45594000000E+02  0.51100000000E-03 0. -1.
    9900012    2    1    2    0    0  0.74931916877E+00 -0.54346417098E-01  0.91044595221E+00  0.90007599821E+02  0.89999859339E+02 0.  0.
         12    1    1    2    0    0 -0.74931916877E+00  0.54346417098E-01 -0.91044595221E+00  0.11804001786E+01  0.00000000000E+00 0. -1.
         11    1    3    3    0    0 -0.32929267029E+02 -0.87400535023E+01 -0.48478079165E+01  0.34412590780E+02  0.51100000000E-03 0. -1.
        -11    1    3    3    0    0 -0.94085871603E+01 -0.41664256892E+01  0.19294873324E+01  0.10469170789E+02  0.51100000000E-03 0.  1.
        -12    1    3    3    0    0  0.43087173358E+02  0.12852132774E+02  0.38287665363E+01  0.45125838253E+02  0.00000000000E+00 0.  1.
</event>
<event>
 7    1  0.1698110E-015  0.9000778E+02  0.7816164E-02  0.1186339E+00
        -11   -1    0    0    0    0  0.00000000000E+00  0.00000000000E+00  0.45593999997E+02  0.45594000000E+02  0.51100000000E-03 0. -1.
         11   -1    0    0    0    0 -0.00000000000E+00 -0.00000000000E+00 -0.45593999997E+02  0.45594000000E+02  0.51100000000E-03 0.  1.
    9900012    2    1    2    0    0 -0.70888810621E+00  0.88603750535E+00 -0.32454907249E+00  0.90007780991E+02  0.90000042900E+02 0.  0.
         12    1    1    2    0    0  0.70888810621E+00 -0.88603750535E+00  0.32454907249E+00  0.11802190087E+01  0.00000000000E+00 0. -1.
         11    1    3    3    0    0 -0.31908901801E+01 -0.93558731143E+01  0.23236397611E+01  0.10154479005E+02  0.51100000000E-03 0. -1.
        -11    1    3    3    0    0 -0.12000719759E+02 -0.27983608006E+02  0.16590831598E+02  0.34674995100E+02  0.51100000000E-03 0.  1.
         12    1    3    3    0    0  0.14482721833E+02  0.38225518626E+02 -0.19239020432E+02  0.45178306886E+02  0.00000000000E+00 0. -1.
</event>
<event>
 7    1  0.1698110E-015  0.9000774E+02  0.7816164E-02  0.1186339E+00
        -11   -1    0    0    0    0  0.00000000000E+00  0.00000000000E+00  0.45593999997E+02  0.45594000000E+02  0.51100000000E-03 0.  1.
         11   -1    0    0    0    0 -0.00000000000E+00 -0.00000000000E+00 -0.45593999997E+02  0.45594000000E+02  0.51100000000E-03 0. -1.
    9900012    2    1    2    0    0 -0.45382539010E+00  0.54070038158E+00  0.94588600476E+00  0.90007739554E+02  0.90000000916E+02 0.  0.
         12    1    1    2    0    0  0.45382539010E+00 -0.54070038158E+00 -0.94588600476E+00  0.11802604464E+01  0.00000000000E+00 0. -1.
         11    1    3    3    0    0 -0.38789151662E+02  0.18304725648E+01 -0.65571638553E+01  0.39382043047E+02  0.51100000000E-03 0. -1.
        -11    1    3    3    0    0  0.30079857901E+00 -0.15158829936E+01  0.12203666469E+02  0.12301132329E+02  0.51100000000E-03 0.  1.
        -12    1    3    3    0    0  0.38034527693E+02  0.22611081034E+00 -0.47006166089E+01  0.38324564178E+02  0.00000000000E+00 0.  1.
</event>
<event>
 7    1  0.1698110E-015  0.9000776E+02  0.7816164E-02  0.1186339E+00
        -11   -1    0    0    0    0  0.00000000000E+00  0.00000000000E+00  0.45593999997E+02  0.45594000000E+02  0.51100000000E-03 0.  1.
         11   -1    0    0    0    0 -0.00000000000E+00 -0.00000000000E+00 -0.45593999997E+02  0.45594000000E+02  0.51100000000E-03 0. -1.
    9900012    2    1    2    0    0  0.17062064519E-01  0.98797756103E+00  0.64543585925E+00  0.90007755015E+02  0.90000016582E+02 0.  0.
         12    1    1    2    0    0 -0.17062064519E-01 -0.98797756103E+00 -0.64543585925E+00  0.11802449846E+01  0.00000000000E+00 0. -1.
         11    1    3    3    0    0  0.35233617798E+02 -0.78102082922E+01 -0.12209765930E+02  0.38098366907E+02  0.51100000000E-03 0. -1.
        -11    1    3    3    0    0  0.38436534119E+01 -0.39286136104E+01 -0.47025554830E+01  0.72333743704E+01  0.51100000000E-03 0.  1.
        -12    1    3    3    0    0 -0.39060209145E+02  0.12726799464E+02  0.17557757272E+02  0.44676013738E+02  0.00000000000E+00 0.  1.
</event>
<event>
 7    1  0.1698110E-015  0.9000773E+02  0.7816164E-02  0.1186339E+00
        -11   -1    0    0    0    0  0.00000000000E+00  0.00000000000E+00  0.45593999997E+02  0.45594000000E+02  0.51100000000E-03 0. -1.
         11   -1    0    0    0    0 -0.00000000000E+00 -0.00000000000E+00 -0.45593999997E+02  0.45594000000E+02  0.51100000000E-03 0.  1.
    9900012    2    1    2    0    0  0.32345147626E+00  0.94152667441E+00  0.63399558546E+00  0.90007727261E+02  0.89999988461E+02 0.  0.
         12    1    1    2    0    0 -0.32345147626E+00 -0.94152667441E+00 -0.63399558546E+00  0.11802727390E+01  0.00000000000E+00 0. -1.
         11    1    3    3    0    0  0.30163945585E+02  0.53994561714E+01 -0.15019679722E+02  0.34126361064E+02  0.51100000000E-03 0. -1.
        -11    1    3    3    0    0  0.98711444970E+01  0.65249516269E+01  0.77462157693E-01  0.11833025313E+02  0.51100000000E-03 0.  1.
        -12    1    3    3    0    0 -0.39711638606E+02 -0.10982881124E+02  0.15576213150E+02  0.44048340884E+02  0.00000000000E+00 0.  1.
</event>
<event>
 7    1  0.1698110E-015  0.9000775E+02  0.7816164E-02  0.1186339E+00
        -11   -1    0    0    0    0  0.00000000000E+00  0.00000000000E+00  0.45593999997E+02  0.45594000000E+02  0.51100000000E-03 0.  1.
         11   -1    0    0    0    0 -0.00000000000E+00 -0.00000000000E+00 -0.45593999997E+02  0.45594000000E+02  0.51100000000E-03 0. -1.
    9900012    2    1    2    0    0  0.75634199012E+00  0.19066693598E+00 -0.88576745453E+00  0.90007749573E+02  0.90000011068E+02 0.  0.
         12    1    1    2    0    0 -0.75634199012E+00 -0.19066693598E+00  0.88576745453E+00  0.11802504268E+01  0.00000000000E+00 0. -1.
         11    1    3    3    0    0  0.17523529521E+01 -0.51278847980E+01 -0.94172915751E+01  0.10865142624E+02  0.51100000000E-03 0. -1.
        -11    1    3    3    0    0 -0.14740936409E+02  0.39325715610E+02  0.41619937114E+01  0.42203427661E+02  0.51100000000E-03 0.  1.
         12    1    3    3    0    0  0.13744925447E+02 -0.34007163876E+02  0.43695304092E+01  0.36939179288E+02  0.00000000000E+00 0. -1.
</event>
<event>
 7    1  0.1698110E-015  0.9000771E+02  0.7816164E-02  0.1186339E+00
        -11   -1    0    0    0    0  0.00000000000E+00  0.00000000000E+00  0.45593999997E+02  0.45594000000E+02  0.51100000000E-03 0. -1.
         11   -1    0    0    0    0 -0.00000000000E+00 -0.00000000000E+00 -0.45593999997E+02  0.45594000000E+02  0.51100000000E-03 0.  1.
    9900012    2    1    2    0    0 -0.37633175228E+00 -0.22242978805E+00  0.10963519202E+01  0.90007708455E+02  0.89999969407E+02 0.  0.
         12    1    1    2    0    0  0.37633175228E+00  0.22242978805E+00 -0.10963519202E+01  0.11802915450E+01  0.00000000000E+00 0. -1.
         11    1    3    3    0    0  0.38577573794E+01 -0.12248551975E+02  0.38810331610E+02  0.40879715721E+02  0.51100000000E-03 0. -1.
        -11    1    3    3    0    0 -0.45636502388E+01 -0.76529170131E+01 -0.33354713230E+01  0.95141689873E+01  0.51100000000E-03 0.  1.
        -12    1    3    3    0    0  0.32956110709E+00  0.19679039200E+02 -0.34378508367E+02  0.39613823747E+02  0.00000000000E+00 0.  1.
</event>
<event>
 7    1  0.1698110E-015  0.9000777E+02  0.7816164E-02  0.1186339E+00
        -11   -1    0    0    0    0  0.00000000000E+00  0.00000000000E+00  0.45593999997E+02  0.45594000000E+02  0.51100000000E-03 0.  1.
         11   -1    0    0    0    0 -0.00000000000E+00 -0.00000000000E+00 -0.45593999997E+02  0.45594000000E+02  0.51100000000E-03 0. -1.
    9900012    2    1    2    0    0  0.98367421912E+00 -0.42628372885E+00  0.49356805700E+00  0.90007770271E+02  0.90000032038E+02 0.  0.
         12    1    1    2    0    0 -0.98367421912E+00  0.42628372885E+00 -0.49356805700E+00  0.11802297292E+01  0.00000000000E+00 0. -1.
         11    1    3    3    0    0 -0.51986203950E+01 -0.64566269938E+01 -0.89708223053E+01  0.12214308791E+02  0.51100000000E-03 0. -1.
        -11    1    3    3    0    0  0.22856184712E+02 -0.17104730620E+02 -0.21469701574E+02  0.35720093436E+02  0.51100000000E-03 0.  1.
         12    1    3    3    0    0 -0.16673890098E+02  0.23135073885E+02  0.30934091936E+02  0.42073368044E+02  0.00000000000E+00 0. -1.
</event>
<event>
 7    1  0.1698110E-015  0.9000771E+02  0.7816164E-02  0.1186339E+00
        -11   -1    0    0    0    0  0.00000000000E+00  0.00000000000E+00  0.45593999997E+02  0.45594000000E+02  0.51100000000E-03 0.  1.
         11   -1    0    0    0    0 -0.00000000000E+00 -0.00000000000E+00 -0.45593999997E+02  0.45594000000E+02  0.51100000000E-03 0. -1.
    9900012    2    1    2    0    0 -0.26158715513E+00  0.66839550166E+00 -0.93696199703E+00  0.90007712675E+02  0.89999973682E+02 0.  0.
         12    1    1    2    0    0  0.26158715513E+00 -0.66839550166E+00  0.93696199703E+00  0.11802873253E+01  0.00000000000E+00 0. -1.
         11    1    3    3    0    0 -0.16897158848E+02 -0.25756219399E+02 -0.24986244138E+02  0.39663701431E+02  0.51100000000E-03 0. -1.
        -11    1    3    3    0    0 -0.38393445899E+01  0.74432557491E+01 -0.52401776241E+01  0.98793767425E+01  0.51100000000E-03 0.  1.
        -12    1    3    3    0    0  0.20474916282E+02  0.18981359151E+02  0.29289459765E+02  0.40464634501E+02  0.00000000000E+00 0.  1.
</event>
<event>
 7    1  0.1698110E-015  0.9000764E+02  0.7816164E-02  0.1186339E+00
        -11   -1    0    0    0    0  0.00000000000E+00  0.00000000000E+00  0.45593999997E+02  0.45594000000E+02  0.51100000000E-03 0. -1.
         11   -1    0    0    0    0 -0.00000000000E+00 -0.00000000000E+00 -0.45593999997E+02  0.45594000000E+02  0.51100000000E-03 0.  1.
    9900012    2    1    2    0    0  0.10814294350E+00  0.11566731924E+01 -0.20895729435E+00  0.90007639495E+02  0.89999899537E+02 0.  0.
         12    1    1    2    0    0 -0.10814294350E+00 -0.11566731924E+01  0.20895729435E+00  0.11803605048E+01  0.00000000000E+00 0. -1.
         11    1    3    3    0    0 -0.14273834705E+02 -0.85771800154E+01  0.35040540488E+02  0.38796260801E+02  0.51100000000E-03 0. -1.
        -11    1    3    3    0    0  0.17704280435E+01  0.69268106195E+01  0.51402034170E+01  0.88054989776E+01  0.51100000000E-03 0.  1.
        -12    1    3    3    0    0  0.12611549605E+02  0.28070425883E+01 -0.40389701199E+02  0.42405879716E+02  0.00000000000E+00 0.  1.
</event>
<event>
 7    1  0.1698110E-015  0.9000778E+02  0.7816164E-02  0.1186339E+00
        -11   -1    0    0    0    0  0.00000000000E+00  0.00000000000E+00  0.45593999997E+02  0.45594000000E+02  0.51100000000E-03 0.  1.
         11   -1    0    0    0    0 -0.00000000000E+00 -0.00000000000E+00 -0.45593999997E+02  0.45594000000E+02  0.51100000000E-03 0. -1.
    9900012    2    1    2    0    0 -0.63328068285E+00  0.71935539660E+00 -0.68877291434E+00  0.90007777675E+02  0.90000039540E+02 0.  0.
         12    1    1    2    0    0  0.63328068285E+00 -0.71935539660E+00  0.68877291434E+00  0.11802223254E+01  0.00000000000E+00 0. -1.
         11    1    3    3    0    0 -0.30122079289E+01 -0.78695011199E+01  0.48667059932E+01  0.97307385110E+01  0.51100000000E-03 0. -1.
        -11    1    3    3    0    0 -0.28835038781E+02  0.39608281069E+01  0.23479976476E+02  0.37395947860E+02  0.51100000000E-03 0.  1.
         12    1    3    3    0    0  0.31213966027E+02  0.46280284097E+01 -0.29035455383E+02  0.42881091304E+02  0.00000000000E+00 0. -1.
</event>
<event>
 7    1  0.2100693E-015  0.9000775E+02  0.7816164E-02  0.1186339E+00
        -11   -1    0    0    0    0  0.00000000000E+00  0.00000000000E+00  0.45593999997E+02  0.45594000000E+02  0.51100000000E-03 0.  1.
         11   -1    0    0    0    0 -0.00000000000E+00 -0.00000000000E+00 -0.45593999997E+02  0.45594000000E+02  0.51100000000E-03 0. -1.
    9900012    2    1    2    0    0 -0.67037281855E+00  0.65517024352E+00  0.71717331584E+00  0.90007752005E+02  0.90000013532E+02 0.  0.
         12    1    1    2    0    0  0.67037281855E+00 -0.65517024352E+00 -0.71717331584E+00  0.11802479946E+01  0.00000000000E+00 0. -1.
         11    1    3    3    0    0  0.60789704946E+01  0.66616212006E+01 -0.34258870979E+01  0.96471644520E+01  0.51100000000E-03 0. -1.
        -11    1    3    3    0    0 -0.14392976792E+02  0.21507091042E+02  0.31532916351E+02  0.40792616487E+02  0.51100000000E-03 0.  1.
         12    1    3    3    0    0  0.76436334793E+01 -0.27513541999E+02 -0.27389855937E+02  0.39567971066E+02  0.00000000000E+00 0. -1.
</event>
<event>
 7    1  0.1728957E-015  0.9000770E+02  0.7816164E-02  0.1186339E+00
        -11   -1    0    0    0    0  0.00000000000E+00  0.00000000000E+00  0.45593999997E+02  0.45594000000E+02  0.51100000000E-03 0.  1.
         11   -1    0    0    0    0 -0.00000000000E+00 -0.00000000000E+00 -0.45593999997E+02  0.45594000000E+02  0.51100000000E-03 0. -1.
    9900012    2    1    2    0    0  0.91726380546E+00  0.35862165318E+00  0.65047466649E+00  0.90007703567E+02  0.89999964454E+02 0.  0.
         12    1    1    2    0    0 -0.91726380546E+00 -0.35862165318E+00 -0.65047466649E+00  0.11802964334E+01  0.00000000000E+00 0. -1.
         11    1    3    3    0    0  0.96920081836E+01 -0.11613559583E+01  0.11154902442E+01  0.98248709426E+01  0.51100000000E-03 0. -1.
        -11    1    3    3    0    0 -0.55052680312E+01 -0.35711169257E+02  0.15782611321E+02  0.39429511869E+02  0.51100000000E-03 0.  1.
         12    1    3    3    0    0 -0.32694763469E+01  0.37231146869E+02 -0.16247626899E+02  0.40753320755E+02  0.00000000000E+00 0. -1.
</event>
<event>
 7    1  0.1698110E-015  0.9000774E+02  0.7816164E-02  0.1186339E+00
        -11   -1    0    0    0    0  0.00000000000E+00  0.00000000000E+00  0.45593999997E+02  0.45594000000E+02  0.51100000000E-03 0.  1.
         11   -1    0    0    0    0 -0.00000000000E+00 -0.00000000000E+00 -0.45593999997E+02  0.45594000000E+02  0.51100000000E-03 0. -1.
    9900012    2    1    2    0    0 -0.97172060996E+00 -0.64865761628E+00 -0.16738332885E+00  0.90007739509E+02  0.90000000871E+02 0.  0.
         12    1    1    2    0    0  0.97172060996E+00  0.64865761628E+00  0.16738332885E+00  0.11802604906E+01  0.00000000000E+00 0. -1.
         11    1    3    3    0    0  0.10514526615E+02  0.63018528411E+01  0.12809595846E+01  0.12325156262E+02  0.51100000000E-03 0. -1.
        -11    1    3    3    0    0  0.87755183835E+01  0.19752409080E+02  0.26388979988E+02  0.34110784987E+02  0.51100000000E-03 0.  1.
         12    1    3    3    0    0 -0.20261765608E+02 -0.26702919537E+02 -0.27837322902E+02  0.43571798261E+02  0.00000000000E+00 0. -1.
</event>
<event>
 7    1  0.1698110E-015  0.9000769E+02  0.7816164E-02  0.1186339E+00
        -11   -1    0    0    0    0  0.00000000000E+00  0.00000000000E+00  0.45593999997E+02  0.45594000000E+02  0.51100000000E-03 0.  1.
         11   -1    0    0    0    0 -0.00000000000E+00 -0.00000000000E+00 -0.45593999997E+02  0.45594000000E+02  0.51100000000E-03 0. -1.
    9900012    2    1    2    0    0 -0.71486926723E+00 -0.60773842643E+00  0.71606199383E+00  0.90007691209E+02  0.89999951932E+02 0.  0.
         12    1    1    2    0    0  0.71486926723E+00  0.60773842643E+00 -0.71606199383E+00  0.11803087915E+01  0.00000000000E+00 0. -1.
         11    1    3    3    0    0 -0.13311527218E+02  0.33663827786E+02 -0.18894586763E+02  0.40834488699E+02  0.51100000000E-03 0. -1.
        -11    1    3    3    0    0 -0.40907269163E+01  0.97545363559E+00  0.70383438468E+01  0.81990146277E+01  0.51100000000E-03 0.  1.
        -12    1    3    3    0    0  0.16687384867E+02 -0.35247019848E+02  0.12572304910E+02  0.40974187882E+02  0.00000000000E+00 0.  1.
</event>
<event>
 7    1  0.1698110E-015  0.9000782E+02  0.7816164E-02  0.1186339E+00
        -11   -1    0    0    0    0  0.00000000000E+00  0.00000000000E+00  0.45593999997E+02  0.45594000000E+02  0.51100000000E-03 0.  1.
         11   -1    0    0    0    0 -0.00000000000E+00 -0.00000000000E+00 -0.45593999997E+02  0.45594000000E+02  0.51100000000E-03 0. -1.
    9900012    2    1    2    0    0  0.56196612509E+00 -0.24391997284E+00 -0.10087212374E+01  0.90007821448E+02  0.90000083891E+02 0.  0.
         12    1    1    2    0    0 -0.56196612509E+00  0.24391997284E+00  0.10087212374E+01  0.11801785516E+01  0.00000000000E+00 0. -1.
         11    1    3    3    0    0 -0.26874891367E+02 -0.25101720268E+02 -0.17338737262E+02  0.40656954590E+02  0.51100000000E-03 0. -1.
        -11    1    3    3    0    0  0.78707782178E+01 -0.44729493386E+01 -0.24835349212E+01  0.93874582026E+01  0.51100000000E-03 0.  1.
        -12    1    3    3    0    0  0.19566079274E+02  0.29330749633E+02  0.18813550946E+02  0.39963408656E+02  0.00000000000E+00 0.  1.
</event>
<event>
 7    1  0.1698110E-015  0.9000771E+02  0.7816164E-02  0.1186339E+00
        -11   -1    0    0    0    0  0.00000000000E+00  0.00000000000E+00  0.45593999997E+02  0.45594000000E+02  0.51100000000E-03 0.  1.
         11   -1    0    0    0    0 -0.00000000000E+00 -0.00000000000E+00 -0.45593999997E+02  0.45594000000E+02  0.51100000000E-03 0. -1.
    9900012    2    1    2    0    0 -0.11020446877E+01 -0.12147821473E+00  0.40475348827E+00  0.90007709851E+02  0.89999970821E+02 0.  0.
         12    1    1    2    0    0  0.11020446877E+01  0.12147821473E+00 -0.40475348827E+00  0.11802901493E+01  0.00000000000E+00 0. -1.
         11    1    3    3    0    0  0.33217464787E+01 -0.82877732083E+01 -0.33801215087E+02  0.34960596763E+02  0.51100000000E-03 0. -1.
        -11    1    3    3    0    0 -0.21017059610E+01 -0.11039021337E+02 -0.42382457033E+01  0.12009991129E+02  0.51100000000E-03 0.  1.
         12    1    3    3    0    0 -0.23220852053E+01  0.19205316330E+02  0.38444214278E+02  0.43037121959E+02  0.00000000000E+00 0. -1.
</event>
<event>
 7    1  0.1698110E-015  0.9000775E+02  0.7816164E-02  0.1186339E+00
        -11   -1    0    0    0    0  0.00000000000E+00  0.00000000000E+00  0.45593999997E+02  0.45594000000E+02  0.51100000000E-03 0. -1.
         11   -1    0    0    0    0 -0.00000000000E+00 -0.00000000000E+00 -0.45593999997E+02  0.45594000000E+02  0.51100000000E-03 0.  1.
    9900012    2    1    2    0    0 -0.71136002041E+00 -0.92413104612E+00 -0.18148478873E+00  0.90007750875E+02  0.90000012386E+02 0.  0.
         12    1    1    2    0    0  0.71136002041E+00  0.92413104612E+00  0.18148478873E+00  0.11802491252E+01  0.00000000000E+00 0. -1.
         11    1    3    3    0    0 -0.11108004546E-02 -0.38422268542E+02 -0.34489842619E+01  0.38576757430E+02  0.51100000000E-03 0. -1.
        -11    1    3    3    0    0  0.19535114921E+01 -0.18093949789E+01 -0.96178971590E+01  0.99796825281E+01  0.51100000000E-03 0.  1.
        -12    1    3    3    0    0 -0.26637607120E+01  0.39307532474E+02  0.12885396632E+02  0.41451310917E+02  0.00000000000E+00 0.  1.
</event>
<event>
 7    1  0.1698110E-015  0.9000784E+02  0.7816164E-02  0.1186339E+00
        -11   -1    0    0    0    0  0.00000000000E+00  0.00000000000E+00  0.45593999997E+02  0.45594000000E+02  0.51100000000E-03 0.  1.
         11   -1    0    0    0    0 -0.00000000000E+00 -0.00000000000E+00 -0.45593999997E+02  0.45594000000E+02  0.51100000000E-03 0. -1.
    9900012    2    1    2    0    0 -0.10929595691E+01  0.35272663351E+00  0.27166697381E+00  0.90007839146E+02  0.90000101822E+02 0.  0.
         12    1    1    2    0    0  0.10929595691E+01 -0.35272663351E+00 -0.27166697381E+00  0.11801608544E+01  0.00000000000E+00 0. -1.
         11    1    3    3    0    0  0.84810389398E+01 -0.38034822621E+02 -0.65388333976E+01  0.39513695041E+02  0.51100000000E-03 0. -1.
        -11    1    3    3    0    0  0.51994675957E+01 -0.42963754472E+00  0.72819401012E+01  0.89579966285E+01  0.51100000000E-03 0.  1.
        -12    1    3    3    0    0 -0.14773466105E+02  0.38817186799E+02 -0.47143972978E+00  0.41536147476E+02  0.00000000000E+00 0.  1.
</event>
<event>
 7    1  0.1698110E-015  0.9000777E+02  0.7816164E-02  0.1186339E+00
        -11   -1    0    0    0    0  0.00000000000E+00  0.00000000000E+00  0.45593999997E+02  0.45594000000E+02  0.51100000000E-03 0. -1.
         11   -1    0    0    0    0 -0.00000000000E+00 -0.00000000000E+00 -0.45593999997E+02  0.45594000000E+02  0.51100000000E-03 0.  1.
    9900012    2    1    2    0    0  0.12231080313E+00 -0.15585736159E+00 -0.11634861274E+01  0.90007766371E+02  0.90000028087E+02 0.  0.
         12    1    1    2    0    0 -0.12231080313E+00  0.15585736159E+00  0.11634861274E+01  0.11802336287E+01  0.00000000000E+00 0. -1.
         11    1    3    3    0    0 -0.14109726007E+02 -0.48537972159E+01  0.38796499295E+01  0.15417373293E+02  0.51100000000E-03 0. -1.
        -11    1    3    3    0    0 -0.27711507923E+02 -0.51930494093E+01 -0.12526629046E+02  0.30851448410E+02  0.51100000000E-03 0.  1.
         12    1    3    3    0    0  0.41943544733E+02  0.98909892636E+01  0.74834929887E+01  0.43738944668E+02  0.00000000000E+00 0. -1.
</event>
<event>
 7    1  0.1698110E-015  0.9000774E+02  0.7816164E-02  0.1186339E+00
        -11   -1    0    0    0    0  0.00000000000E+00  0.00000000000E+00  0.45593999997E+02  0.45594000000E+02  0.51100000000E-03 0. -1.
         11   -1    0    0    0    0 -0.00000000000E+00 -0.00000000000E+00 -0.45593999997E+02  0.45594000000E+02  0.51100000000E-03 0.  1.
    9900012    2    1    2    0    0  0.69187203848E+00  0.11144257691E+00 -0.94969276675E+00  0.90007736166E+02  0.89999997484E+02 0.  0.
         12    1    1    2    0    0 -0.69187203848E+00 -0.11144257691E+00  0.94969276675E+00  0.11802638336E+01  0.00000000000E+00 0. -1.
         11    1    3    3    0    0  0.35122022361E+02  0.10952717877E+02  0.17231151595E+02  0.40625497772E+02  0.51100000000E-03 0. -1.
        -11    1    3    3    0    0 -0.24882799760E+01  0.81855905528E+01 -0.51475920934E+01  0.99846449390E+01  0.51100000000E-03 0.  1.
        -12    1    3    3    0    0 -0.31941870347E+02 -0.19026865853E+02 -0.13033252268E+02  0.39397593456E+02  0.00000000000E+00 0.  1.
</event>
<event>
 7    1  0.1698110E-015  0.9000780E+02  0.7816164E-02  0.1186339E+00
        -11   -1    0    0    0    0  0.00000000000E+00  0.00000000000E+00  0.45593999997E+02  0.45594000000E+02  0.51100000000E-03 0. -1.
         11   -1    0    0    0    0 -0.00000000000E+00 -0.00000000000E+00 -0.45593999997E+02  0.45594000000E+02  0.51100000000E-03 0.  1.
    9900012    2    1    2    0    0 -0.73009662703E+00  0.37593698503E+00 -0.84764537645E+00  0.90007799854E+02  0.90000062012E+02 0.  0.
         12    1    1    2    0    0  0.73009662703E+00 -0.37593698503E+00  0.84764537645E+00  0.11802001465E+01  0.00000000000E+00 0. -1.
         11    1    3    3    0    0  0.56065401477E+01 -0.37411454034E+02  0.45420516606E+01  0.38100924121E+02  0.51100000000E-03 0. -1.
        -11    1    3    3    0    0 -0.33960115747E+01 -0.47919590412E+01  0.52963751530E+01  0.79086886454E+01  0.51100000000E-03 0.  1.
        -12    1    3    3    0    0 -0.29406252001E+01  0.42579350060E+02 -0.10686072190E+02  0.43998187087E+02  0.00000000000E+00 0.  1.
</event>
<event>
 7    1  0.1698110E-015  0.9000780E+02  0.7816164E-02  0.1186339E+00
        -11   -1    0    0    0    0  0.00000000000E+00  0.00000000000E+00  0.45593999997E+02  0.45594000000E+02  0.51100000000E-03 0. -1.
         11   -1    0    0    0    0 -0.00000000000E+00 -0.00000000000E+00 -0.45593999997E+02  0.45594000000E+02  0.51100000000E-03 0.  1.
    9900012    2    1    2    0    0  0.52151925767E-01 -0.18430005640E+00 -0.11645501398E+01  0.90007803676E+02  0.90000065885E+02 0.  0.
         12    1    1    2    0    0 -0.52151925767E-01  0.18430005640E+00  0.11645501398E+01  0.11801963236E+01  0.00000000000E+00 0. -1.
         11    1    3    3    0    0  0.35731142205E+02 -0.72224955067E+01  0.12781923462E+02  0.38629736373E+02  0.51100000000E-03 0. -1.
        -11    1    3    3    0    0 -0.13307372050E+01  0.12411198068E+02  0.27946000427E+01  0.12791344286E+02  0.51100000000E-03 0.  1.
        -12    1    3    3    0    0 -0.34348253075E+02 -0.53730026177E+01 -0.16741073644E+02  0.38586723017E+02  0.00000000000E+00 0.  1.
</event>
<event>
 7    1  0.1698110E-015  0.9000773E+02  0.7816164E-02  0.1186339E+00
        -11   -1    0    0    0    0  0.00000000000E+00  0.00000000000E+00  0.45593999997E+02  0.45594000000E+02  0.51100000000E-03 0.  1.
         11   -1    0    0    0    0 -0.00000000000E+00 -0.00000000000E+00 -0.45593999997E+02  0.45594000000E+02  0.51100000000E-03 0. -1.
    9900012    2    1    2    0    0  0.46878076546E+00 -0.65331544556E+00  0.86398420788E+00  0.90007726647E+02  0.89999987838E+02 0.  0.
         12    1    1    2    0    0 -0.46878076546E+00  0.65331544556E+00 -0.86398420788E+00  0.11802733535E+01  0.00000000000E+00 0. -1.
         11    1    3    3    0    0 -0.25496153927E+02  0.12654889849E+02 -0.29805963292E+02  0.41214021281E+02  0.51100000000E-03 0. -1.
        -11    1    3    3    0    0  0.65440444123E+01 -0.58000592068E+01 -0.29667435489E+01  0.92340008457E+01  0.51100000000E-03 0.  1.
        -12    1    3    3    0    0  0.19420890280E+02 -0.75081460876E+01  0.33636691049E+02  0.39559704519E+02  0.00000000000E+00 0.  1.
</event>
<event>
 7    1  0.1698110E-015  0.9000773E+02  0.7816164E-02  0.1186339E+00
        -11   -1    0    0    0    0  0.00000000000E+00  0.00000000000E+00  0.45593999997E+02  0.45594000000E+02  0.51100000000E-03 0. -1.
         11   -1    0    0    0    0 -0.00000000000E+00 -0.00000000000E+00 -0.45593999997E+02  0.45594000000E+02  0.51100000000E-03 0.  1.
    9900012    2    1    2    0    0 -0.35332285064E+00  0.10297117773E+01 -0.45595950912E+00  0.90007727805E+02  0.89999989012E+02 0.  0.
         12    1    1    2    0    0  0.35332285064E+00 -0.10297117773E+01  0.45595950912E+00  0.11802721954E+01  0.00000000000E+00 0. -1.
         11    1    3    3    0    0  0.69242767894E+01 -0.54632417691E+00 -0.52976732179E+01  0.87355263692E+01  0.51100000000E-03 0. -1.
        -11    1    3    3    0    0  0.17651632867E+02 -0.33128882592E+02 -0.36191359169E+01  0.37712082277E+02  0.51100000000E-03 0.  1.
         12    1    3    3    0    0 -0.24929232507E+02  0.34704918546E+02  0.84608496257E+01  0.43560119158E+02  0.00000000000E+00 0. -1.
</event>
<event>
 7    1  0.1698110E-015  0.9000776E+02  0.7816164E-02  0.1186339E+00
        -11   -1    0    0    0    0  0.00000000000E+00  0.00000000000E+00  0.45593999997E+02  0.45594000000E+02  0.51100000000E-03 0. -1.
         11   -1    0    0    0    0 -0.00000000000E+00 -0.00000000000E+00 -0.45593999997E+02  0.45594000000E+02  0.51100000000E-03 0.  1.
    9900012    2    1    2    0    0 -0.48451559210E+00 -0.74552070401E+00  0.77614341603E+00  0.90007764819E+02  0.90000026515E+02 0.  0.
         12    1    1    2    0    0  0.48451559210E+00  0.74552070401E+00 -0.77614341603E+00  0.11802351805E+01  0.00000000000E+00 0. -1.
         11    1    3    3    0    0 -0.11161102885E+02  0.11613492333E+01  0.44801105657E+01  0.12082646258E+02  0.51100000000E-03 0. -1.
        -11    1    3    3    0    0 -0.25308836705E+02 -0.11912008327E+02  0.19368439282E+02  0.34023074497E+02  0.51100000000E-03 0.  1.
         12    1    3    3    0    0  0.35985423998E+02  0.10005138390E+02 -0.23072406432E+02  0.43902044065E+02  0.00000000000E+00 0. -1.
</event>
<event>
 7    1  0.1698110E-015  0.9000771E+02  0.7816164E-02  0.1186339E+00
        -11   -1    0    0    0    0  0.00000000000E+00  0.00000000000E+00  0.45593999997E+02  0.45594000000E+02  0.51100000000E-03 0. -1.
         11   -1    0    0    0    0 -0.00000000000E+00 -0.00000000000E+00 -0.45593999997E+02  0.45594000000E+02  0.51100000000E-03 0.  1.
    9900012    2    1    2    0    0 -0.32271806526E+00  0.27527371190E+00 -0.11014406876E+01  0.90007705903E+02  0.89999966821E+02 0.  0.
         12    1    1    2    0    0  0.32271806526E+00 -0.27527371190E+00  0.11014406876E+01  0.11802940966E+01  0.00000000000E+00 0. -1.
         11    1    3    3    0    0  0.36473316229E+01  0.96838224739E+01  0.36137341446E+02  0.37589717912E+02  0.51100000000E-03 0. -1.
        -11    1    3    3    0    0 -0.27508285228E+01 -0.10281503903E+02  0.38378831748E+01  0.11313961623E+02  0.51100000000E-03 0.  1.
        -12    1    3    3    0    0 -0.12192211654E+01  0.87295514119E+00 -0.41076665308E+02  0.41104026369E+02  0.00000000000E+00 0.  1.
</event>
<event>
 7    1  0.1698110E-015  0.9000772E+02  0.7816164E-02  0.1186339E+00
        -11   -1    0    0    0    0  0.00000000000E+00  0.00000000000E+00  0.45593999997E+02  0.45594000000E+02  0.51100000000E-03 0.  1.
         11   -1    0    0    0    0 -0.00000000000E+00 -0.00000000000E+00 -0.45593999997E+02  0.45594000000E+02  0.51100000000E-03 0. -1.
    9900012    2    1    2    0    0  0.19425634825E+00 -0.11396316246E+01 -0.23785065538E+00  0.90007716685E+02  0.89999977746E+02 0.  0.
         12    1    1    2    0    0 -0.19425634825E+00  0.11396316246E+01  0.23785065538E+00  0.11802833146E+01  0.00000000000E+00 0. -1.
         11    1    3    3    0    0 -0.18375118933E+02  0.30627509249E+02  0.19536643823E+02  0.40710806560E+02  0.51100000000E-03 0. -1.
        -11    1    3    3    0    0  0.41803007947E+00  0.28763814130E+01 -0.79086454467E+01  0.84258526122E+01  0.51100000000E-03 0.  1.
        -12    1    3    3    0    0  0.18151345202E+02 -0.34643522286E+02 -0.11865849032E+02  0.40871057514E+02  0.00000000000E+00 0.  1.
</event>
<event>
 7    1  0.1698110E-015  0.9000776E+02  0.7816164E-02  0.1186339E+00
        -11   -1    0    0    0    0  0.00000000000E+00  0.00000000000E+00  0.45593999997E+02  0.45594000000E+02  0.51100000000E-03 0.  1.
         11   -1    0    0    0    0 -0.00000000000E+00 -0.00000000000E+00 -0.45593999997E+02  0.45594000000E+02  0.51100000000E-03 0. -1.
    9900012    2    1    2    0    0 -0.44366915757E+00  0.98862602308E+00  0.46771116994E+00  0.90007755333E+02  0.90000016904E+02 0.  0.
         12    1    1    2    0    0  0.44366915757E+00 -0.98862602308E+00 -0.46771116994E+00  0.11802446667E+01  0.00000000000E+00 0. -1.
         11    1    3    3    0    0  0.75622711007E+01  0.21393883036E+02 -0.29165881026E+02  0.36953143192E+02  0.51100000000E-03 0. -1.
        -11    1    3    3    0    0  0.72551331734E+01  0.76544467409E+01  0.18230970842E+01  0.10702859221E+02  0.51100000000E-03 0.  1.
        -12    1    3    3    0    0 -0.15261073432E+02 -0.28059703753E+02  0.27810495111E+02  0.42351752919E+02  0.00000000000E+00 0.  1.
</event>
<event>
 7    1  0.1698110E-015  0.9000761E+02  0.7816164E-02  0.1186339E+00
        -11   -1    0    0    0    0  0.00000000000E+00  0.00000000000E+00  0.45593999997E+02  0.45594000000E+02  0.51100000000E-03 0. -1.
         11   -1    0    0    0    0 -0.00000000000E+00 -0.00000000000E+00 -0.45593999997E+02  0.45594000000E+02  0.51100000000E-03 0.  1.
    9900012    2    1    2    0    0 -0.60084020487E+00  0.79310243901E+00 -0.63505562127E+00  0.90007611897E+02  0.89999871574E+02 0.  0.
         12    1    1    2    0    0  0.60084020487E+00 -0.79310243901E+00  0.63505562127E+00  0.11803881026E+01  0.00000000000E+00 0. -1.
         11    1    3    3    0    0  0.90095128156E+01 -0.10059282873E+01  0.53736083632E+00  0.90814079208E+01  0.51100000000E-03 0. -1.
        -11    1    3    3    0    0 -0.21090903353E+02  0.15762782571E+02 -0.34267867036E+02  0.43215485998E+02  0.51100000000E-03 0.  1.
         12    1    3    3    0    0  0.11480550333E+02 -0.13963751844E+02  0.33095450578E+02  0.37710717979E+02  0.00000000000E+00 0. -1.
</event>
<event>
 7    1  0.1698110E-015  0.9000770E+02  0.7816164E-02  0.1186339E+00
        -11   -1    0    0    0    0  0.00000000000E+00  0.00000000000E+00  0.45593999997E+02  0.45594000000E+02  0.51100000000E-03 0.  1.
         11   -1    0    0    0    0 -0.00000000000E+00 -0.00000000000E+00 -0.45593999997E+02  0.45594000000E+02  0.51100000000E-03 0. -1.
    9900012    2    1    2    0    0  0.52320796644E+00  0.43990670091E+00 -0.96220847742E+00  0.90007699345E+02  0.89999960177E+02 0.  0.
         12    1    1    2    0    0 -0.52320796644E+00 -0.43990670091E+00  0.96220847742E+00  0.11803006548E+01  0.00000000000E+00 0. -1.
         11    1    3    3    0    0 -0.68561930774E+01  0.43576446672E+01 -0.59353568550E+01  0.10061059180E+02  0.51100000000E-03 0. -1.
        -11    1    3    3    0    0  0.31761099878E+02  0.23512524259E+02 -0.92527698981E+01  0.40585958330E+02  0.51100000000E-03 0.  1.
         12    1    3    3    0    0 -0.24381698835E+02 -0.27430262225E+02  0.14225918276E+02  0.39360681836E+02  0.00000000000E+00 0. -1.
</event>
<event>
 7    1  0.1698110E-015  0.9000772E+02  0.7816164E-02  0.1186339E+00
        -11   -1    0    0    0    0  0.00000000000E+00  0.00000000000E+00  0.45593999997E+02  0.45594000000E+02  0.51100000000E-03 0.  1.
         11   -1    0    0    0    0 -0.00000000000E+00 -0.00000000000E+00 -0.45593999997E+02  0.45594000000E+02  0.51100000000E-03 0. -1.
    9900012    2    1    2    0    0  0.63400488253E+00  0.86106014535E+00  0.49967491592E+00  0.90007719615E+02  0.89999980714E+02 0.  0.
         12    1    1    2    0    0 -0.63400488253E+00 -0.86106014535E+00 -0.49967491592E+00  0.11802803847E+01  0.00000000000E+00 0. -1.
         11    1    3    3    0    0 -0.87305379124E+01  0.35835765298E+01 -0.22955599398E+01  0.97125644752E+01  0.51100000000E-03 0. -1.
        -11    1    3    3    0    0  0.13629636511E+02 -0.39792782735E+02  0.73629056892E+01  0.42701814126E+02  0.51100000000E-03 0.  1.
         12    1    3    3    0    0 -0.42650937164E+01  0.37070266351E+02 -0.45676708334E+01  0.37593341014E+02  0.00000000000E+00 0. -1.
</event>
<event>
 7    1  0.1698110E-015  0.9000769E+02  0.7816164E-02  0.1186339E+00
        -11   -1    0    0    0    0  0.00000000000E+00  0.00000000000E+00  0.45593999997E+02  0.45594000000E+02  0.51100000000E-03 0. -1.
         11   -1    0    0    0    0 -0.00000000000E+00 -0.00000000000E+00 -0.45593999997E+02  0.45594000000E+02  0.51100000000E-03 0.  1.
    9900012    2    1    2    0    0 -0.61180464026E+00  0.98148636852E+00 -0.23561647728E+00  0.90007688374E+02  0.89999949061E+02 0.  0.
         12    1    1    2    0    0  0.61180464026E+00 -0.98148636852E+00  0.23561647728E+00  0.11803116257E+01  0.00000000000E+00 0. -1.
         11    1    3    3    0    0 -0.20053415586E+02  0.30796315336E+02  0.52704411570E+01  0.37125867871E+02  0.51100000000E-03 0. -1.
        -11    1    3    3    0    0 -0.50801465966E+01  0.39975397938E+01  0.67562905096E+01  0.93507045487E+01  0.51100000000E-03 0.  1.
        -12    1    3    3    0    0  0.24521757542E+02 -0.33812368761E+02 -0.12262348144E+02  0.43531115954E+02  0.00000000000E+00 0.  1.
</event>
<event>
 7    1  0.2290947E-015  0.9000788E+02  0.7816164E-02  0.1186339E+00
        -11   -1    0    0    0    0  0.00000000000E+00  0.00000000000E+00  0.45593999997E+02  0.45594000000E+02  0.51100000000E-03 0. -1.
         11   -1    0    0    0    0 -0.00000000000E+00 -0.00000000000E+00 -0.45593999997E+02  0.45594000000E+02  0.51100000000E-03 0.  1.
    9900012    2    1    2    0    0  0.10656975311E+01  0.50549565079E+00 -0.37934286509E-01  0.90007883018E+02  0.90000146274E+02 0.  0.
         12    1    1    2    0    0 -0.10656975311E+01 -0.50549565079E+00  0.37934286509E-01  0.11801169819E+01  0.00000000000E+00 0. -1.
         11    1    3    3    0    0 -0.38803899252E+01 -0.64106253232E+01 -0.55965455714E+01  0.93527998803E+01  0.51100000000E-03 0. -1.
        -11    1    3    3    0    0  0.12425951194E+02  0.10022712927E+02 -0.35437053300E+02  0.38867001226E+02  0.51100000000E-03 0.  1.
         12    1    3    3    0    0 -0.74798637376E+01 -0.31065919534E+01  0.40995664585E+02  0.41788081911E+02  0.00000000000E+00 0. -1.
</event>
<event>
 7    1  0.1698110E-015  0.9000765E+02  0.7816164E-02  0.1186339E+00
        -11   -1    0    0    0    0  0.00000000000E+00  0.00000000000E+00  0.45593999997E+02  0.45594000000E+02  0.51100000000E-03 0. -1.
         11   -1    0    0    0    0 -0.00000000000E+00 -0.00000000000E+00 -0.45593999997E+02  0.45594000000E+02  0.51100000000E-03 0.  1.
    9900012    2    1    2    0    0  0.88993280352E-01  0.29675288138E+00 -0.11389611528E+01  0.90007654888E+02  0.89999915132E+02 0.  0.
         12    1    1    2    0    0 -0.88993280352E-01 -0.29675288138E+00  0.11389611528E+01  0.11803451123E+01  0.00000000000E+00 0. -1.
         11    1    3    3    0    0 -0.23415063702E+01  0.35276970985E+02  0.86248408958E+01  0.36391416772E+02  0.51100000000E-03 0. -1.
        -11    1    3    3    0    0 -0.37080867819E+01  0.78471910397E+01  0.17311327445E+01  0.88501489047E+01  0.51100000000E-03 0.  1.
        -12    1    3    3    0    0  0.61385864325E+01 -0.42827409143E+02 -0.11494934793E+02  0.44766089211E+02  0.00000000000E+00 0.  1.
</event>
<event>
 7    1  0.1698110E-015  0.9000770E+02  0.7816164E-02  0.1186339E+00
        -11   -1    0    0    0    0  0.00000000000E+00  0.00000000000E+00  0.45593999997E+02  0.45594000000E+02  0.51100000000E-03 0.  1.
         11   -1    0    0    0    0 -0.00000000000E+00 -0.00000000000E+00 -0.45593999997E+02  0.45594000000E+02  0.51100000000E-03 0. -1.
    9900012    2    1    2    0    0 -0.87271216005E+00 -0.23414929295E-02  0.79465150106E+00  0.90007702154E+02  0.89999963023E+02 0.  0.
         12    1    1    2    0    0  0.87271216005E+00  0.23414929295E-02 -0.79465150106E+00  0.11802978459E+01  0.00000000000E+00 0. -1.
         11    1    3    3    0    0  0.26766972475E+01  0.33060494143E+02 -0.17218303310E+02  0.37371525929E+02  0.51100000000E-03 0. -1.
        -11    1    3    3    0    0 -0.69053859731E+01  0.26887153324E+01 -0.59182868449E+01  0.94836525145E+01  0.51100000000E-03 0.  1.
        -12    1    3    3    0    0  0.33559765656E+01 -0.35751550968E+02  0.23931241656E+02  0.43152523710E+02  0.00000000000E+00 0.  1.
</event>
<event>
 7    1  0.1698110E-015  0.9000775E+02  0.7816164E-02  0.1186339E+00
        -11   -1    0    0    0    0  0.00000000000E+00  0.00000000000E+00  0.45593999997E+02  0.45594000000E+02  0.51100000000E-03 0.  1.
         11   -1    0    0    0    0 -0.00000000000E+00 -0.00000000000E+00 -0.45593999997E+02  0.45594000000E+02  0.51100000000E-03 0. -1.
    9900012    2    1    2    0    0 -0.94805320204E+00  0.61056693814E+00  0.34840007167E+00  0.90007754487E+02  0.90000016047E+02 0.  0.
         12    1    1    2    0    0  0.94805320204E+00 -0.61056693814E+00 -0.34840007167E+00  0.11802455125E+01  0.00000000000E+00 0. -1.
         11    1    3    3    0    0 -0.56626530837E+01  0.73611725634E+01 -0.22474615939E+01  0.95552909601E+01  0.51100000000E-03 0. -1.
        -11    1    3    3    0    0 -0.27308592736E+02  0.18669588501E+02 -0.14522056310E+02  0.36127591834E+02  0.51100000000E-03 0.  1.
         12    1    3    3    0    0  0.32023192618E+02 -0.25420194126E+02  0.17117917975E+02  0.44324871693E+02  0.00000000000E+00 0. -1.
</event>
<event>
 7    1  0.1698110E-015  0.9000789E+02  0.7816164E-02  0.1186339E+00
        -11   -1    0    0    0    0  0.00000000000E+00  0.00000000000E+00  0.45593999997E+02  0.45594000000E+02  0.51100000000E-03 0. -1.
         11   -1    0    0    0    0 -0.00000000000E+00 -0.00000000000E+00 -0.45593999997E+02  0.45594000000E+02  0.51100000000E-03 0.  1.
    9900012    2    1    2    0    0  0.70254892869E+00 -0.67547413823E+00  0.66545448074E+00  0.90007885610E+02  0.90000148899E+02 0.  0.
         12    1    1    2    0    0 -0.70254892869E+00  0.67547413823E+00 -0.66545448074E+00  0.11801143905E+01  0.00000000000E+00 0. -1.
         11    1    3    3    0    0  0.75080992318E+01 -0.76782693362E+01 -0.57940643411E+01  0.12202399597E+02  0.51100000000E-03 0. -1.
        -11    1    3    3    0    0  0.22045146948E+01  0.38931655723E+02  0.17637252583E+02  0.42797270723E+02  0.51100000000E-03 0.  1.
         12    1    3    3    0    0 -0.90100649979E+01 -0.31928860525E+02 -0.11177733761E+02  0.35008215289E+02  0.00000000000E+00 0. -1.
</event>
<event>
 7    1  0.1698110E-015  0.9000778E+02  0.7816164E-02  0.1186339E+00
        -11   -1    0    0    0    0  0.00000000000E+00  0.00000000000E+00  0.45593999997E+02  0.45594000000E+02  0.51100000000E-03 0. -1.
         11   -1    0    0    0    0 -0.00000000000E+00 -0.00000000000E+00 -0.45593999997E+02  0.45594000000E+02  0.51100000000E-03 0.  1.
    9900012    2    1    2    0    0 -0.16930958606E+00 -0.11654927731E+01  0.76628771498E-01  0.90007783448E+02  0.90000045390E+02 0.  0.
         12    1    1    2    0    0  0.16930958606E+00  0.11654927731E+01 -0.76628771498E-01  0.11802165516E+01  0.00000000000E+00 0. -1.
         11    1    3    3    0    0 -0.33778165838E+02  0.48718983089E+01 -0.78573974042E+01  0.35020545037E+02  0.51100000000E-03 0. -1.
        -11    1    3    3    0    0 -0.59569438621E+01  0.64803348460E+00 -0.95040286468E+01  0.11235287640E+02  0.51100000000E-03 0.  1.
        -12    1    3    3    0    0  0.39565800114E+02 -0.66854245667E+01  0.17438054822E+02  0.43751950771E+02  0.00000000000E+00 0.  1.
</event>
<event>
 7    1  0.1698110E-015  0.9000890E+02  0.7816164E-02  0.1186337E+00
        -11   -1    0    0    0    0  0.00000000000E+00  0.00000000000E+00  0.45593999997E+02  0.45594000000E+02  0.51100000000E-03 0.  1.
         11   -1    0    0    0    0 -0.00000000000E+00 -0.00000000000E+00 -0.45593999997E+02  0.45594000000E+02  0.51100000000E-03 0. -1.
    9900012    2    1    2    0    0  0.70484635737E+00 -0.71243314898E+00  0.62121931832E+00  0.90008897451E+02  0.90001174090E+02 0.  0.
         12    1    1    2    0    0 -0.70484635737E+00  0.71243314898E+00 -0.62121931832E+00  0.11791025489E+01  0.00000000000E+00 0. -1.
         11    1    3    3    0    0  0.13561868592E+01 -0.10637416192E+02  0.33694965426E+00  0.10728811741E+02  0.51100000000E-03 0. -1.
        -11    1    3    3    0    0 -0.31480547714E+01 -0.30830868128E+02  0.16779235949E+02  0.35241955645E+02  0.51100000000E-03 0.  1.
         12    1    3    3    0    0  0.24967142695E+01  0.40755851172E+02 -0.16494966285E+02  0.44038130065E+02  0.00000000000E+00 0. -1.
</event>
<event>
 7    1  0.1698110E-015  0.9000783E+02  0.7816164E-02  0.1186339E+00
        -11   -1    0    0    0    0  0.00000000000E+00  0.00000000000E+00  0.45593999997E+02  0.45594000000E+02  0.51100000000E-03 0. -1.
         11   -1    0    0    0    0 -0.00000000000E+00 -0.00000000000E+00 -0.45593999997E+02  0.45594000000E+02  0.51100000000E-03 0.  1.
    9900012    2    1    2    0    0  0.10488695115E+01 -0.33786266244E-01 -0.53994564303E+00  0.90007826258E+02  0.90000088765E+02 0.  0.
         12    1    1    2    0    0 -0.10488695115E+01  0.33786266244E-01  0.53994564303E+00  0.11801737420E+01  0.00000000000E+00 0. -1.
         11    1    3    3    0    0  0.11533630120E+02  0.52786212971E+01 -0.87393699582E+01  0.15403410469E+02  0.51100000000E-03 0. -1.
        -11    1    3    3    0    0 -0.21254275992E+02  0.29953174869E+02  0.86316520713E+01  0.37728534963E+02  0.51100000000E-03 0.  1.
         12    1    3    3    0    0  0.10769515384E+02 -0.35265582433E+02 -0.43222775612E+00  0.36875880827E+02  0.00000000000E+00 0. -1.
</event>
<event>
 7    1  0.1698110E-015  0.9000770E+02  0.7816164E-02  0.1186339E+00
        -11   -1    0    0    0    0  0.00000000000E+00  0.00000000000E+00  0.45593999997E+02  0.45594000000E+02  0.51100000000E-03 0.  1.
         11   -1    0    0    0    0 -0.00000000000E+00 -0.00000000000E+00 -0.45593999997E+02  0.45594000000E+02  0.51100000000E-03 0. -1.
    9900012    2    1    2    0    0 -0.85487684506E-03 -0.10674413382E+01 -0.50365174970E+00  0.90007704772E+02  0.89999965675E+02 0.  0.
         12    1    1    2    0    0  0.85487684506E-03  0.10674413382E+01  0.50365174970E+00  0.11802952284E+01  0.00000000000E+00 0. -1.
         11    1    3    3    0    0  0.14099922862E+02 -0.15766927811E+02 -0.30711765860E+02  0.37290969414E+02  0.51100000000E-03 0. -1.
        -11    1    3    3    0    0  0.88343697464E+01  0.43538501155E+01 -0.36760143623E+01  0.10512620106E+02  0.51100000000E-03 0.  1.
        -12    1    3    3    0    0 -0.22935147485E+02  0.10345636357E+02  0.33884128473E+02  0.42204115252E+02  0.00000000000E+00 0.  1.
</event>
<event>
 7    1  0.1698110E-015  0.9000772E+02  0.7816164E-02  0.1186339E+00
        -11   -1    0    0    0    0  0.00000000000E+00  0.00000000000E+00  0.45593999997E+02  0.45594000000E+02  0.51100000000E-03 0. -1.
         11   -1    0    0    0    0 -0.00000000000E+00 -0.00000000000E+00 -0.45593999997E+02  0.45594000000E+02  0.51100000000E-03 0.  1.
    9900012    2    1    2    0    0 -0.66799348060E+00 -0.95815129433E+00 -0.16966000154E+00  0.90007723037E+02  0.89999984181E+02 0.  0.
         12    1    1    2    0    0  0.66799348060E+00  0.95815129433E+00  0.16966000154E+00  0.11802769629E+01  0.00000000000E+00 0. -1.
         11    1    3    3    0    0 -0.15698145991E+02  0.71922171470E+01  0.37071549488E+02  0.40895715628E+02  0.51100000000E-03 0. -1.
        -11    1    3    3    0    0 -0.34407180572E+01  0.72065907747E+01 -0.87652379098E+01  0.11857608832E+02  0.51100000000E-03 0.  1.
        -12    1    3    3    0    0  0.18470870568E+02 -0.15356959216E+02 -0.28475971580E+02  0.37254398577E+02  0.00000000000E+00 0.  1.
</event>
<event>
 7    1  0.1698110E-015  0.9000771E+02  0.7816164E-02  0.1186339E+00
        -11   -1    0    0    0    0  0.00000000000E+00  0.00000000000E+00  0.45593999997E+02  0.45594000000E+02  0.51100000000E-03 0.  1.
         11   -1    0    0    0    0 -0.00000000000E+00 -0.00000000000E+00 -0.45593999997E+02  0.45594000000E+02  0.51100000000E-03 0. -1.
    9900012    2    1    2    0    0  0.64247362023E+00  0.91933312195E+00 -0.36759816056E+00  0.90007714378E+02  0.89999975408E+02 0.  0.
         12    1    1    2    0    0 -0.64247362023E+00 -0.91933312195E+00  0.36759816056E+00  0.11802856220E+01  0.00000000000E+00 0. -1.
         11    1    3    3    0    0  0.86382441862E+01  0.83622615816E-01 -0.34063064624E+01  0.92859667961E+01  0.51100000000E-03 0. -1.
        -11    1    3    3    0    0 -0.10700462360E+02  0.37533542174E+02  0.15321275828E+02  0.41928608087E+02  0.51100000000E-03 0.  1.
         12    1    3    3    0    0  0.27046917944E+01 -0.36697831668E+02 -0.12282567526E+02  0.38793139495E+02  0.00000000000E+00 0. -1.
</event>
<event>
 7    1  0.1698110E-015  0.9000770E+02  0.7816164E-02  0.1186339E+00
        -11   -1    0    0    0    0  0.00000000000E+00  0.00000000000E+00  0.45593999997E+02  0.45594000000E+02  0.51100000000E-03 0.  1.
         11   -1    0    0    0    0 -0.00000000000E+00 -0.00000000000E+00 -0.45593999997E+02  0.45594000000E+02  0.51100000000E-03 0. -1.
    9900012    2    1    2    0    0 -0.84348520619E+00 -0.67934639165E+00 -0.46917037849E+00  0.90007703572E+02  0.89999964460E+02 0.  0.
         12    1    1    2    0    0  0.84348520619E+00  0.67934639165E+00  0.46917037849E+00  0.11802964276E+01  0.00000000000E+00 0. -1.
         11    1    3    3    0    0 -0.87404481663E+01  0.47940329635E+01  0.17812026703E+01  0.10126740315E+02  0.51100000000E-03 0. -1.
        -11    1    3    3    0    0  0.86708983405E+01  0.14858324950E+02  0.34116956178E+02  0.38208912539E+02  0.51100000000E-03 0.  1.
         12    1    3    3    0    0 -0.77393538036E+00 -0.20331704305E+02 -0.36367329226E+02  0.41672050717E+02  0.00000000000E+00 0. -1.
</event>
<event>
 7    1  0.1698110E-015  0.9000764E+02  0.7816164E-02  0.1186339E+00
        -11   -1    0    0    0    0  0.00000000000E+00  0.00000000000E+00  0.45593999997E+02  0.45594000000E+02  0.51100000000E-03 0.  1.
         11   -1    0    0    0    0 -0.00000000000E+00 -0.00000000000E+00 -0.45593999997E+02  0.45594000000E+02  0.51100000000E-03 0. -1.
    9900012    2    1    2    0    0  0.68828030227E+00  0.89257688399E+00  0.35045296964E+00  0.90007643888E+02  0.89999903987E+02 0.  0.
         12    1    1    2    0    0 -0.68828030227E+00 -0.89257688399E+00 -0.35045296964E+00  0.11803561125E+01  0.00000000000E+00 0. -1.
         11    1    3    3    0    0 -0.32603490717E+02  0.40105900526E+01 -0.15197717093E+02  0.36194516776E+02  0.51100000000E-03 0. -1.
        -11    1    3    3    0    0  0.21858514458E+01  0.74491783577E+01 -0.96681751115E+01  0.12399266712E+02  0.51100000000E-03 0.  1.
        -12    1    3    3    0    0  0.31105919574E+02 -0.10567191526E+02  0.25216345174E+02  0.41413860400E+02  0.00000000000E+00 0.  1.
</event>
<event>
 7    1  0.1698110E-015  0.9000777E+02  0.7816164E-02  0.1186339E+00
        -11   -1    0    0    0    0  0.00000000000E+00  0.00000000000E+00  0.45593999997E+02  0.45594000000E+02  0.51100000000E-03 0.  1.
         11   -1    0    0    0    0 -0.00000000000E+00 -0.00000000000E+00 -0.45593999997E+02  0.45594000000E+02  0.51100000000E-03 0. -1.
    9900012    2    1    2    0    0  0.69500377413E+00  0.94650818701E+00 -0.11850616552E+00  0.90007766250E+02  0.90000027964E+02 0.  0.
         12    1    1    2    0    0 -0.69500377413E+00 -0.94650818701E+00  0.11850616552E+00  0.11802337503E+01  0.00000000000E+00 0. -1.
         11    1    3    3    0    0  0.19356666902E+01  0.23365347855E+02 -0.24455294937E+02  0.33878425829E+02  0.51100000000E-03 0. -1.
        -11    1    3    3    0    0  0.56962544954E+01  0.67708772737E+01 -0.80634440211E+01  0.11971266603E+02  0.51100000000E-03 0.  1.
        -12    1    3    3    0    0 -0.69369174115E+01 -0.29189716941E+02  0.32400232793E+02  0.44158073818E+02  0.00000000000E+00 0.  1.
</event>
<event>
 7    1  0.1698110E-015  0.9000756E+02  0.7816164E-02  0.1186339E+00
        -11   -1    0    0    0    0  0.00000000000E+00  0.00000000000E+00  0.45593999997E+02  0.45594000000E+02  0.51100000000E-03 0. -1.
         11   -1    0    0    0    0 -0.00000000000E+00 -0.00000000000E+00 -0.45593999997E+02  0.45594000000E+02  0.51100000000E-03 0.  1.
    9900012    2    1    2    0    0  0.56602253713E+00 -0.10247319756E+01  0.15156452087E+00  0.90007564090E+02  0.89999823135E+02 0.  0.
         12    1    1    2    0    0 -0.56602253713E+00  0.10247319756E+01 -0.15156452087E+00  0.11804359103E+01  0.00000000000E+00 0. -1.
         11    1    3    3    0    0 -0.25039682415E+01  0.27990503839E+01 -0.21364755706E+01  0.43207717055E+01  0.51100000000E-03 0. -1.
        -11    1    3    3    0    0 -0.32325998057E+02  0.23727891705E+02  0.65448447001E+01  0.40630259507E+02  0.51100000000E-03 0.  1.
         12    1    3    3    0    0  0.35395988836E+02 -0.27551674065E+02 -0.42568046086E+01  0.45056532877E+02  0.00000000000E+00 0. -1.
</event>
<event>
 7    1  0.1698110E-015  0.9000770E+02  0.7816164E-02  0.1186339E+00
        -11   -1    0    0    0    0  0.00000000000E+00  0.00000000000E+00  0.45593999997E+02  0.45594000000E+02  0.51100000000E-03 0.  1.
         11   -1    0    0    0    0 -0.00000000000E+00 -0.00000000000E+00 -0.45593999997E+02  0.45594000000E+02  0.51100000000E-03 0. -1.
    9900012    2    1    2    0    0 -0.11771079631E+01 -0.70529889139E-01  0.50430929782E-01  0.90007703046E+02  0.89999963926E+02 0.  0.
         12    1    1    2    0    0  0.11771079631E+01  0.70529889139E-01 -0.50430929782E-01  0.11802969545E+01  0.00000000000E+00 0. -1.
         11    1    3    3    0    0 -0.17596565011E+02 -0.32081872250E+02 -0.96817554712E+01  0.37849993613E+02  0.51100000000E-03 0. -1.
        -11    1    3    3    0    0 -0.26558714117E+01 -0.67565732843E+01 -0.17163876903E+01  0.74599545887E+01  0.51100000000E-03 0.  1.
        -12    1    3    3    0    0  0.19075328459E+02  0.38767915645E+02  0.11448574091E+02  0.44697754843E+02  0.00000000000E+00 0.  1.
</event>
<event>
 7    1  0.1698110E-015  0.9000773E+02  0.7816164E-02  0.1186339E+00
        -11   -1    0    0    0    0  0.00000000000E+00  0.00000000000E+00  0.45593999997E+02  0.45594000000E+02  0.51100000000E-03 0.  1.
         11   -1    0    0    0    0 -0.00000000000E+00 -0.00000000000E+00 -0.45593999997E+02  0.45594000000E+02  0.51100000000E-03 0. -1.
    9900012    2    1    2    0    0 -0.51896562487E+00  0.94269777663E+00  0.48480045041E+00  0.90007730584E+02  0.89999991828E+02 0.  0.
         12    1    1    2    0    0  0.51896562487E+00 -0.94269777663E+00 -0.48480045041E+00  0.11802694161E+01  0.00000000000E+00 0. -1.
         11    1    3    3    0    0  0.26010503772E+02  0.21076956041E+01 -0.23645954488E+02  0.35215335454E+02  0.51100000000E-03 0. -1.
        -11    1    3    3    0    0  0.81783670446E+01 -0.10764159517E+01 -0.48560133682E+01  0.95721066078E+01  0.51100000000E-03 0.  1.
        -12    1    3    3    0    0 -0.34707836441E+02 -0.88581875790E-01  0.28986768306E+02  0.45220288522E+02  0.00000000000E+00 0.  1.
</event>
<event>
 7    1  0.1698110E-015  0.9000767E+02  0.7816164E-02  0.1186339E+00
        -11   -1    0    0    0    0  0.00000000000E+00  0.00000000000E+00  0.45593999997E+02  0.45594000000E+02  0.51100000000E-03 0.  1.
         11   -1    0    0    0    0 -0.00000000000E+00 -0.00000000000E+00 -0.45593999997E+02  0.45594000000E+02  0.51100000000E-03 0. -1.
    9900012    2    1    2    0    0 -0.43981520635E+00 -0.10316459746E+01  0.36804186088E+00  0.90007667147E+02  0.89999927553E+02 0.  0.
         12    1    1    2    0    0  0.43981520635E+00  0.10316459746E+01 -0.36804186088E+00  0.11803328531E+01  0.00000000000E+00 0. -1.
         11    1    3    3    0    0 -0.28510990943E+02  0.14693161476E+02 -0.20894479815E+02  0.38279823481E+02  0.51100000000E-03 0. -1.
        -11    1    3    3    0    0  0.23916465495E+01  0.67353324624E+00 -0.86682033732E+01  0.90172817540E+01  0.51100000000E-03 0.  1.
        -12    1    3    3    0    0  0.25679529187E+02 -0.16398340696E+02  0.29930725049E+02  0.42710561912E+02  0.00000000000E+00 0.  1.
</event>
<event>
 7    1  0.1698110E-015  0.9000772E+02  0.7816164E-02  0.1186339E+00
        -11   -1    0    0    0    0  0.00000000000E+00  0.00000000000E+00  0.45593999997E+02  0.45594000000E+02  0.51100000000E-03 0. -1.
         11   -1    0    0    0    0 -0.00000000000E+00 -0.00000000000E+00 -0.45593999997E+02  0.45594000000E+02  0.51100000000E-03 0.  1.
    9900012    2    1    2    0    0  0.96105153310E+00  0.32524675783E+00 -0.60303065656E+00  0.90007723983E+02  0.89999985140E+02 0.  0.
         12    1    1    2    0    0 -0.96105153310E+00 -0.32524675783E+00  0.60303065656E+00  0.11802760167E+01  0.00000000000E+00 0. -1.
         11    1    3    3    0    0 -0.24587110179E+01 -0.16002545376E+02 -0.16785304672E+01  0.16277106106E+02  0.51100000000E-03 0. -1.
        -11    1    3    3    0    0 -0.58236896844E+00 -0.28397937155E+02 -0.33863558662E+01  0.28605058898E+02  0.51100000000E-03 0.  1.
         12    1    3    3    0    0  0.40021315195E+01  0.44725729289E+02  0.44618556769E+01  0.45125558979E+02  0.00000000000E+00 0. -1.
</event>
<event>
 7    1  0.1698110E-015  0.9000768E+02  0.7816164E-02  0.1186339E+00
        -11   -1    0    0    0    0  0.00000000000E+00  0.00000000000E+00  0.45593999997E+02  0.45594000000E+02  0.51100000000E-03 0.  1.
         11   -1    0    0    0    0 -0.00000000000E+00 -0.00000000000E+00 -0.45593999997E+02  0.45594000000E+02  0.51100000000E-03 0. -1.
    9900012    2    1    2    0    0  0.98874409871E+00 -0.49578395039E+00 -0.41199781249E+00  0.90007678512E+02  0.89999939068E+02 0.  0.
         12    1    1    2    0    0 -0.98874409871E+00  0.49578395039E+00  0.41199781249E+00  0.11803214883E+01  0.00000000000E+00 0. -1.
         11    1    3    3    0    0  0.15132383578E+01  0.79361111076E+01 -0.67339460943E+01  0.10517498757E+02  0.51100000000E-03 0. -1.
        -11    1    3    3    0    0 -0.35203781581E+02  0.10596734610E+02  0.13732679804E+02  0.39245171892E+02  0.51100000000E-03 0.  1.
         12    1    3    3    0    0  0.34679287322E+02 -0.19028629668E+02 -0.74107315223E+01  0.40245007863E+02  0.00000000000E+00 0. -1.
</event>
<event>
 7    1  0.1698110E-015  0.9000800E+02  0.7816164E-02  0.1186339E+00
        -11   -1    0    0    0    0  0.00000000000E+00  0.00000000000E+00  0.45593999997E+02  0.45594000000E+02  0.51100000000E-03 0. -1.
         11   -1    0    0    0    0 -0.00000000000E+00 -0.00000000000E+00 -0.45593999997E+02  0.45594000000E+02  0.51100000000E-03 0.  1.
    9900012    2    1    2    0    0  0.94212064900E+00  0.30360246345E+00 -0.64237044971E+00  0.90007997641E+02  0.90000262409E+02 0.  0.
         12    1    1    2    0    0 -0.94212064900E+00 -0.30360246345E+00  0.64237044971E+00  0.11800023592E+01  0.00000000000E+00 0. -1.
         11    1    3    3    0    0  0.18855521216E+02 -0.27337839008E+02  0.22662232296E+02  0.40205284414E+02  0.51100000000E-03 0.  1.
        -11    1    3    3    0    0  0.20266541281E+01  0.13078120788E+02  0.31616102485E+01  0.13606628897E+02  0.51100000000E-03 0. -1.
        -12    1    3    3    0    0 -0.19940054695E+02  0.14563320683E+02 -0.26466212994E+02  0.36196084330E+02  0.00000000000E+00 0.  1.
</event>
<event>
 7    1  0.1698110E-015  0.9000784E+02  0.7816164E-02  0.1186339E+00
        -11   -1    0    0    0    0  0.00000000000E+00  0.00000000000E+00  0.45593999997E+02  0.45594000000E+02  0.51100000000E-03 0. -1.
         11   -1    0    0    0    0 -0.00000000000E+00 -0.00000000000E+00 -0.45593999997E+02  0.45594000000E+02  0.51100000000E-03 0.  1.
    9900012    2    1    2    0    0 -0.48782456414E+00  0.55411116715E+00 -0.92074274282E+00  0.90007839337E+02  0.90000102017E+02 0.  0.
         12    1    1    2    0    0  0.48782456414E+00 -0.55411116715E+00  0.92074274282E+00  0.11801606625E+01  0.00000000000E+00 0. -1.
         11    1    3    3    0    0  0.51355312644E+01  0.17753779539E+02  0.79822813220E+01  0.20131745693E+02  0.51100000000E-03 0. -1.
        -11    1    3    3    0    0  0.20495061412E+02 -0.45653070099E+01  0.19945910835E+02  0.28960817145E+02  0.51100000000E-03 0.  1.
         12    1    3    3    0    0 -0.26118417241E+02 -0.12634361362E+02 -0.28848934900E+02  0.40915276500E+02  0.00000000000E+00 0. -1.
</event>
<event>
 7    1  0.1698110E-015  0.9000779E+02  0.7816164E-02  0.1186339E+00
        -11   -1    0    0    0    0  0.00000000000E+00  0.00000000000E+00  0.45593999997E+02  0.45594000000E+02  0.51100000000E-03 0.  1.
         11   -1    0    0    0    0 -0.00000000000E+00 -0.00000000000E+00 -0.45593999997E+02  0.45594000000E+02  0.51100000000E-03 0. -1.
    9900012    2    1    2    0    0 -0.39020564887E+00 -0.18168300905E+00 -0.10989155179E+01  0.90007794730E+02  0.90000056820E+02 0.  0.
         12    1    1    2    0    0  0.39020564887E+00  0.18168300905E+00  0.10989155179E+01  0.11802052702E+01  0.00000000000E+00 0. -1.
         11    1    3    3    0    0 -0.77369327265E+00 -0.14470475743E+01 -0.11669933190E+02  0.11784731176E+02  0.51100000000E-03 0. -1.
        -11    1    3    3    0    0  0.35894690311E+02 -0.12384337852E+02  0.12913463119E+02  0.40106834163E+02  0.51100000000E-03 0.  1.
         12    1    3    3    0    0 -0.35511202687E+02  0.13649702417E+02 -0.23424454472E+01  0.38116229392E+02  0.00000000000E+00 0. -1.
</event>
<event>
 7    1  0.1967260E-015  0.9000791E+02  0.7816164E-02  0.1186339E+00
        -11   -1    0    0    0    0  0.00000000000E+00  0.00000000000E+00  0.45593999997E+02  0.45594000000E+02  0.51100000000E-03 0.  1.
         11   -1    0    0    0    0 -0.00000000000E+00 -0.00000000000E+00 -0.45593999997E+02  0.45594000000E+02  0.51100000000E-03 0. -1.
    9900012    2    1    2    0    0 -0.92723586662E+00 -0.57386523226E+00  0.45114510646E+00  0.90007906968E+02  0.90000170540E+02 0.  0.
         12    1    1    2    0    0  0.92723586662E+00  0.57386523226E+00 -0.45114510646E+00  0.11800930320E+01  0.00000000000E+00 0. -1.
         11    1    3    3    0    0  0.37490756883E+01 -0.92166958758E+01 -0.43611452366E+00  0.99595806901E+01  0.51100000000E-03 0. -1.
        -11    1    3    3    0    0  0.33310929342E+02  0.43272261053E+01  0.18058894080E+02  0.38137469174E+02  0.51100000000E-03 0.  1.
         12    1    3    3    0    0 -0.37987240897E+02  0.43156045383E+01 -0.17171634450E+02  0.41910857103E+02  0.00000000000E+00 0. -1.
</event>
<event>
 7    1  0.1698110E-015  0.9000769E+02  0.7816164E-02  0.1186339E+00
        -11   -1    0    0    0    0  0.00000000000E+00  0.00000000000E+00  0.45593999997E+02  0.45594000000E+02  0.51100000000E-03 0. -1.
         11   -1    0    0    0    0 -0.00000000000E+00 -0.00000000000E+00 -0.45593999997E+02  0.45594000000E+02  0.51100000000E-03 0.  1.
    9900012    2    1    2    0    0  0.86968188980E+00 -0.63855227021E+00 -0.47856981050E+00  0.90007692983E+02  0.89999953730E+02 0.  0.
         12    1    1    2    0    0 -0.86968188980E+00  0.63855227021E+00  0.47856981050E+00  0.11803070172E+01  0.00000000000E+00 0. -1.
         11    1    3    3    0    0  0.26266739195E+02 -0.18049941344E+02  0.12210707769E+02  0.34129801566E+02  0.51100000000E-03 0. -1.
        -11    1    3    3    0    0  0.32883174673E+01 -0.26295019323E+00  0.13061163651E+02  0.13471309170E+02  0.51100000000E-03 0.  1.
        -12    1    3    3    0    0 -0.28685374772E+02  0.17674339267E+02 -0.25750441231E+02  0.42406582247E+02  0.00000000000E+00 0.  1.
</event>
<event>
 7    1  0.1698110E-015  0.9000769E+02  0.7816164E-02  0.1186339E+00
        -11   -1    0    0    0    0  0.00000000000E+00  0.00000000000E+00  0.45593999997E+02  0.45594000000E+02  0.51100000000E-03 0. -1.
         11   -1    0    0    0    0 -0.00000000000E+00 -0.00000000000E+00 -0.45593999997E+02  0.45594000000E+02  0.51100000000E-03 0.  1.
    9900012    2    1    2    0    0  0.46442637449E-01 -0.69023947526E+00 -0.95632227568E+00  0.90007686590E+02  0.89999947253E+02 0.  0.
         12    1    1    2    0    0 -0.46442637449E-01  0.69023947526E+00  0.95632227568E+00  0.11803134104E+01  0.00000000000E+00 0. -1.
         11    1    3    3    0    0  0.55213712099E+01  0.19370973203E+01 -0.66655238909E+01  0.88694472808E+01  0.51100000000E-03 0. -1.
        -11    1    3    3    0    0  0.29571884512E+02  0.58215548352E+01 -0.20601241961E+02  0.36507506418E+02  0.51100000000E-03 0.  1.
         12    1    3    3    0    0 -0.35046813085E+02 -0.84488916307E+01  0.26310443576E+02  0.44630732890E+02  0.00000000000E+00 0. -1.
</event>
<event>
 7    1  0.1698110E-015  0.9000773E+02  0.7816164E-02  0.1186339E+00
        -11   -1    0    0    0    0  0.00000000000E+00  0.00000000000E+00  0.45593999997E+02  0.45594000000E+02  0.51100000000E-03 0.  1.
         11   -1    0    0    0    0 -0.00000000000E+00 -0.00000000000E+00 -0.45593999997E+02  0.45594000000E+02  0.51100000000E-03 0. -1.
    9900012    2    1    2    0    0 -0.61427589359E+00 -0.11707171968E+00 -0.10009956986E+01  0.90007731789E+02  0.89999993049E+02 0.  0.
         12    1    1    2    0    0  0.61427589359E+00  0.11707171968E+00  0.10009956986E+01  0.11802682109E+01  0.00000000000E+00 0. -1.
         11    1    3    3    0    0  0.12752884065E+02 -0.16568384290E+02 -0.26550745683E+02  0.33794814788E+02  0.51100000000E-03 0. -1.
        -11    1    3    3    0    0  0.25632833346E+01 -0.11383895834E+01 -0.11707975056E+02  0.12039228899E+02  0.51100000000E-03 0.  1.
        -12    1    3    3    0    0 -0.15930443293E+02  0.17589702153E+02  0.37257725041E+02  0.44173688103E+02  0.00000000000E+00 0.  1.
</event>
<event>
 7    1  0.1758911E-015  0.9000777E+02  0.7816164E-02  0.1186339E+00
        -11   -1    0    0    0    0  0.00000000000E+00  0.00000000000E+00  0.45593999997E+02  0.45594000000E+02  0.51100000000E-03 0. -1.
         11   -1    0    0    0    0 -0.00000000000E+00 -0.00000000000E+00 -0.45593999997E+02  0.45594000000E+02  0.51100000000E-03 0.  1.
    9900012    2    1    2    0    0 -0.10033433735E+01 -0.50560859274E+00  0.36138955656E+00  0.90007771045E+02  0.90000032823E+02 0.  0.
         12    1    1    2    0    0  0.10033433735E+01  0.50560859274E+00 -0.36138955656E+00  0.11802289548E+01  0.00000000000E+00 0. -1.
         11    1    3    3    0    0 -0.53039773865E+01 -0.18324978048E+01 -0.74478151678E+01  0.93252439837E+01  0.51100000000E-03 0. -1.
        -11    1    3    3    0    0  0.90678156002E+01  0.23018431329E+02 -0.28735565804E+02  0.37918415090E+02  0.51100000000E-03 0.  1.
         12    1    3    3    0    0 -0.47671815873E+01 -0.21691542117E+02  0.36544770528E+02  0.42764111971E+02  0.00000000000E+00 0. -1.
</event>
<event>
 7    1  0.1698110E-015  0.9000773E+02  0.7816164E-02  0.1186339E+00
        -11   -1    0    0    0    0  0.00000000000E+00  0.00000000000E+00  0.45593999997E+02  0.45594000000E+02  0.51100000000E-03 0.  1.
         11   -1    0    0    0    0 -0.00000000000E+00 -0.00000000000E+00 -0.45593999997E+02  0.45594000000E+02  0.51100000000E-03 0. -1.
    9900012    2    1    2    0    0  0.32812975810E+00 -0.10425157943E+01  0.44555722841E+00  0.90007733266E+02  0.89999994545E+02 0.  0.
         12    1    1    2    0    0 -0.32812975810E+00  0.10425157943E+01 -0.44555722841E+00  0.11802667339E+01  0.00000000000E+00 0. -1.
         11    1    3    3    0    0 -0.39658993925E+01 -0.69926679749E+01 -0.45798009210E+01  0.92520451866E+01  0.51100000000E-03 0. -1.
        -11    1    3    3    0    0 -0.13716584632E+02 -0.11090144655E+02  0.36588619085E+02  0.40618506241E+02  0.51100000000E-03 0.  1.
         12    1    3    3    0    0  0.18010613783E+02  0.17040296836E+02 -0.31563260935E+02  0.40137181839E+02  0.00000000000E+00 0. -1.
</event>
<event>
 7    1  0.1698110E-015  0.9000773E+02  0.7816164E-02  0.1186339E+00
        -11   -1    0    0    0    0  0.00000000000E+00  0.00000000000E+00  0.45593999997E+02  0.45594000000E+02  0.51100000000E-03 0.  1.
         11   -1    0    0    0    0 -0.00000000000E+00 -0.00000000000E+00 -0.45593999997E+02  0.45594000000E+02  0.51100000000E-03 0. -1.
    9900012    2    1    2    0    0  0.30568165183E+00  0.74352965670E+00  0.86414892533E+00  0.90007732663E+02  0.89999993934E+02 0.  0.
         12    1    1    2    0    0 -0.30568165183E+00 -0.74352965670E+00 -0.86414892533E+00  0.11802673374E+01  0.00000000000E+00 0. -1.
         11    1    3    3    0    0  0.66874760465E+01  0.18801131857E+02 -0.31470029272E+02  0.37263489338E+02  0.51100000000E-03 0. -1.
        -11    1    3    3    0    0  0.70260337229E+01 -0.55607104294E+00 -0.55101039144E+01  0.89462623642E+01  0.51100000000E-03 0.  1.
        -12    1    3    3    0    0 -0.13407828118E+02 -0.17501531157E+02  0.37844282112E+02  0.43797980961E+02  0.00000000000E+00 0.  1.
</event>
<event>
 7    1  0.1698110E-015  0.9000820E+02  0.7816164E-02  0.1186338E+00
        -11   -1    0    0    0    0  0.00000000000E+00  0.00000000000E+00  0.45593999997E+02  0.45594000000E+02  0.51100000000E-03 0.  1.
         11   -1    0    0    0    0 -0.00000000000E+00 -0.00000000000E+00 -0.45593999997E+02  0.45594000000E+02  0.51100000000E-03 0. -1.
    9900012    2    1    2    0    0  0.47347209535E+00  0.10749288912E+01  0.11085455009E+00  0.90008196339E+02  0.90000463730E+02 0.  0.
         12    1    1    2    0    0 -0.47347209535E+00 -0.10749288912E+01 -0.11085455009E+00  0.11798036605E+01  0.00000000000E+00 0. -1.
         11    1    3    3    0    0 -0.23917134546E+02  0.13633460601E+02 -0.23472109696E+02  0.36177900806E+02  0.51100000000E-03 0. -1.
        -11    1    3    3    0    0 -0.87385271013E+01  0.59247869676E-01 -0.32982464927E+01  0.93404387691E+01  0.51100000000E-03 0.  1.
        -12    1    3    3    0    0  0.33129133743E+02 -0.12617779580E+02  0.26881210739E+02  0.44489856764E+02  0.00000000000E+00 0.  1.
</event>
<event>
 7    1  0.1729020E-015  0.9000761E+02  0.7816164E-02  0.1186339E+00
        -11   -1    0    0    0    0  0.00000000000E+00  0.00000000000E+00  0.45593999997E+02  0.45594000000E+02  0.51100000000E-03 0.  1.
         11   -1    0    0    0    0 -0.00000000000E+00 -0.00000000000E+00 -0.45593999997E+02  0.45594000000E+02  0.51100000000E-03 0. -1.
    9900012    2    1    2    0    0 -0.64701221707E+00 -0.51741832859E+00  0.84081988628E+00  0.90007608278E+02  0.89999867907E+02 0.  0.
         12    1    1    2    0    0  0.64701221707E+00  0.51741832859E+00 -0.84081988628E+00  0.11803917218E+01  0.00000000000E+00 0. -1.
         11    1    3    3    0    0 -0.88185234155E+01 -0.30669047758E+01  0.19321706222E+01  0.95344398738E+01  0.51100000000E-03 0. -1.
        -11    1    3    3    0    0 -0.42095119913E+01 -0.37821267765E+02  0.22009131395E+01  0.38118398516E+02  0.51100000000E-03 0.  1.
         12    1    3    3    0    0  0.12381023190E+02  0.40370754212E+02 -0.32922638754E+01  0.42354769888E+02  0.00000000000E+00 0. -1.
</event>
<event>
 7    1  0.1698110E-015  0.9000759E+02  0.7816164E-02  0.1186339E+00
        -11   -1    0    0    0    0  0.00000000000E+00  0.00000000000E+00  0.45593999997E+02  0.45594000000E+02  0.51100000000E-03 0.  1.
         11   -1    0    0    0    0 -0.00000000000E+00 -0.00000000000E+00 -0.45593999997E+02  0.45594000000E+02  0.51100000000E-03 0. -1.
    9900012    2    1    2    0    0 -0.10286146657E+01 -0.68714004536E-01 -0.57497474702E+00  0.90007590874E+02  0.89999850273E+02 0.  0.
         12    1    1    2    0    0  0.10286146657E+01  0.68714004536E-01  0.57497474702E+00  0.11804091259E+01  0.00000000000E+00 0. -1.
         11    1    3    3    0    0 -0.34112511063E+02  0.23279099965E+02 -0.12670402884E+02  0.43198599696E+02  0.51100000000E-03 0. -1.
        -11    1    3    3    0    0  0.42745317310E+01 -0.10380607100E+02 -0.32485793584E+01  0.11686825633E+02  0.51100000000E-03 0.  1.
        -12    1    3    3    0    0  0.28809364667E+02 -0.12967206870E+02  0.15344007496E+02  0.35122165544E+02  0.00000000000E+00 0.  1.
</event>
<event>
 7    1  0.1698110E-015  0.9000773E+02  0.7816164E-02  0.1186339E+00
        -11   -1    0    0    0    0  0.00000000000E+00  0.00000000000E+00  0.45593999997E+02  0.45594000000E+02  0.51100000000E-03 0.  1.
         11   -1    0    0    0    0 -0.00000000000E+00 -0.00000000000E+00 -0.45593999997E+02  0.45594000000E+02  0.51100000000E-03 0. -1.
    9900012    2    1    2    0    0 -0.11798694830E+01  0.26849031085E-01 -0.15345750754E-01  0.90007725303E+02  0.89999986477E+02 0.  0.
         12    1    1    2    0    0  0.11798694830E+01 -0.26849031085E-01  0.15345750754E-01  0.11802746966E+01  0.00000000000E+00 0. -1.
         11    1    3    3    0    0  0.13884819208E+02  0.34401059680E+02  0.11498548459E+01  0.37115270146E+02  0.51100000000E-03 0. -1.
        -11    1    3    3    0    0  0.32204982939E+01 -0.27370763824E+01 -0.13640606765E+02  0.14280383383E+02  0.51100000000E-03 0.  1.
        -12    1    3    3    0    0 -0.18285186985E+02 -0.31637134266E+02  0.12475406168E+02  0.38612071775E+02  0.00000000000E+00 0.  1.
</event>
<event>
 7    1  0.1698110E-015  0.9000775E+02  0.7816164E-02  0.1186339E+00
        -11   -1    0    0    0    0  0.00000000000E+00  0.00000000000E+00  0.45593999997E+02  0.45594000000E+02  0.51100000000E-03 0. -1.
         11   -1    0    0    0    0 -0.00000000000E+00 -0.00000000000E+00 -0.45593999997E+02  0.45594000000E+02  0.51100000000E-03 0.  1.
    9900012    2    1    2    0    0 -0.97312798567E-01  0.99914285276E+00 -0.62067483468E+00  0.90007748556E+02  0.90000010037E+02 0.  0.
         12    1    1    2    0    0  0.97312798567E-01 -0.99914285276E+00  0.62067483468E+00  0.11802514441E+01  0.00000000000E+00 0. -1.
         11    1    3    3    0    0 -0.33988905492E+02 -0.11622023606E+02  0.24624359098E+02  0.43550846037E+02  0.51100000000E-03 0. -1.
        -11    1    3    3    0    0  0.12891114015E+02  0.12358443200E+01 -0.19600558578E+01  0.13097707851E+02  0.51100000000E-03 0.  1.
        -12    1    3    3    0    0  0.21000478679E+02  0.11385322139E+02 -0.23284978075E+02  0.33359194668E+02  0.00000000000E+00 0.  1.
</event>
<event>
 7    1  0.1826821E-015  0.9000780E+02  0.7816164E-02  0.1186339E+00
        -11   -1    0    0    0    0  0.00000000000E+00  0.00000000000E+00  0.45593999997E+02  0.45594000000E+02  0.51100000000E-03 0. -1.
         11   -1    0    0    0    0 -0.00000000000E+00 -0.00000000000E+00 -0.45593999997E+02  0.45594000000E+02  0.51100000000E-03 0.  1.
    9900012    2    1    2    0    0  0.19934144691E+00  0.95843034840E+00 -0.65920739732E+00  0.90007796569E+02  0.90000058684E+02 0.  0.
         12    1    1    2    0    0 -0.19934144691E+00 -0.95843034840E+00  0.65920739732E+00  0.11802034307E+01  0.00000000000E+00 0. -1.
         11    1    3    3    0    0  0.40808040126E+01 -0.66152912931E+01 -0.56966711573E+01  0.96367578997E+01  0.51100000000E-03 0. -1.
        -11    1    3    3    0    0  0.92289237882E+01  0.34156455675E+02 -0.20807048946E+02  0.41045947238E+02  0.51100000000E-03 0.  1.
         12    1    3    3    0    0 -0.13110386354E+02 -0.26582734034E+02  0.25844512706E+02  0.39325091431E+02  0.00000000000E+00 0. -1.
</event>
<event>
 7    1  0.1698110E-015  0.9000772E+02  0.7816164E-02  0.1186339E+00
        -11   -1    0    0    0    0  0.00000000000E+00  0.00000000000E+00  0.45593999997E+02  0.45594000000E+02  0.51100000000E-03 0.  1.
         11   -1    0    0    0    0 -0.00000000000E+00 -0.00000000000E+00 -0.45593999997E+02  0.45594000000E+02  0.51100000000E-03 0. -1.
    9900012    2    1    2    0    0 -0.77086115297E+00  0.88869903713E+00 -0.95180212016E-01  0.90007715217E+02  0.89999976258E+02 0.  0.
         12    1    1    2    0    0  0.77086115297E+00 -0.88869903713E+00  0.95180212016E-01  0.11802847828E+01  0.00000000000E+00 0. -1.
         11    1    3    3    0    0  0.12554116558E+02  0.11203562623E+02 -0.48104201821E+01  0.17500451440E+02  0.51100000000E-03 0. -1.
        -11    1    3    3    0    0  0.21255993600E+02 -0.17053124024E+02  0.20301703584E+02  0.33982134594E+02  0.51100000000E-03 0.  1.
         12    1    3    3    0    0 -0.34580971312E+02  0.67382604374E+01 -0.15586463614E+02  0.38525129183E+02  0.00000000000E+00 0. -1.
</event>
<event>
 7    1  0.1698110E-015  0.9000769E+02  0.7816164E-02  0.1186339E+00
        -11   -1    0    0    0    0  0.00000000000E+00  0.00000000000E+00  0.45593999997E+02  0.45594000000E+02  0.51100000000E-03 0.  1.
         11   -1    0    0    0    0 -0.00000000000E+00 -0.00000000000E+00 -0.45593999997E+02  0.45594000000E+02  0.51100000000E-03 0. -1.
    9900012    2    1    2    0    0  0.84451270932E+00  0.63596922761E+00  0.52485244677E+00  0.90007691284E+02  0.89999952009E+02 0.  0.
         12    1    1    2    0    0 -0.84451270932E+00 -0.63596922761E+00 -0.52485244677E+00  0.11803087162E+01  0.00000000000E+00 0. -1.
         11    1    3    3    0    0  0.66164409168E+01 -0.42685519456E+01  0.43691045484E+01  0.90048265355E+01  0.51100000000E-03 0. -1.
        -11    1    3    3    0    0  0.35225616399E+02  0.51955796755E+01 -0.14808806540E+02  0.38563439295E+02  0.51100000000E-03 0.  1.
         12    1    3    3    0    0 -0.40997544606E+02 -0.29105850231E+00  0.10964554438E+02  0.42439425454E+02  0.00000000000E+00 0. -1.
</event>
<event>
 7    1  0.1698110E-015  0.9000777E+02  0.7816164E-02  0.1186339E+00
        -11   -1    0    0    0    0  0.00000000000E+00  0.00000000000E+00  0.45593999997E+02  0.45594000000E+02  0.51100000000E-03 0. -1.
         11   -1    0    0    0    0 -0.00000000000E+00 -0.00000000000E+00 -0.45593999997E+02  0.45594000000E+02  0.51100000000E-03 0.  1.
    9900012    2    1    2    0    0  0.73924799121E+00  0.86195096154E+00  0.32169874421E+00  0.90007772423E+02  0.90000034219E+02 0.  0.
         12    1    1    2    0    0 -0.73924799121E+00 -0.86195096154E+00 -0.32169874421E+00  0.11802275775E+01  0.00000000000E+00 0. -1.
         11    1    3    3    0    0 -0.35502332873E+02  0.15402005029E+01  0.25081262141E+02  0.43495489052E+02  0.51100000000E-03 0. -1.
        -11    1    3    3    0    0  0.51557523268E+01 -0.55856615574E+01 -0.72203308315E+01  0.10484015198E+02  0.51100000000E-03 0.  1.
        -12    1    3    3    0    0  0.31085828537E+02  0.49074120161E+01 -0.17539232566E+02  0.36028268173E+02  0.00000000000E+00 0.  1.
</event>
<event>
 7    1  0.1780754E-015  0.9000768E+02  0.7816164E-02  0.1186339E+00
        -11   -1    0    0    0    0  0.00000000000E+00  0.00000000000E+00  0.45593999997E+02  0.45594000000E+02  0.51100000000E-03 0.  1.
         11   -1    0    0    0    0 -0.00000000000E+00 -0.00000000000E+00 -0.45593999997E+02  0.45594000000E+02  0.51100000000E-03 0. -1.
    9900012    2    1    2    0    0  0.98267400475E+00  0.64853324377E-01  0.65060827672E+00  0.90007684244E+02  0.89999944876E+02 0.  0.
         12    1    1    2    0    0 -0.98267400475E+00 -0.64853324377E-01 -0.65060827672E+00  0.11803157556E+01  0.00000000000E+00 0. -1.
         11    1    3    3    0    0 -0.37213776601E+01  0.92118661422E+01 -0.47206915194E+00  0.99463550638E+01  0.51100000000E-03 0. -1.
        -11    1    3    3    0    0 -0.64270991640E+01 -0.35250984017E+02  0.24405722421E+02  0.43354108975E+02  0.51100000000E-03 0.  1.
         12    1    3    3    0    0  0.11131150829E+02  0.26103971199E+02 -0.23283044992E+02  0.36707220206E+02  0.00000000000E+00 0. -1.
</event>
<event>
 7    1  0.1698110E-015  0.9000772E+02  0.7816164E-02  0.1186339E+00
        -11   -1    0    0    0    0  0.00000000000E+00  0.00000000000E+00  0.45593999997E+02  0.45594000000E+02  0.51100000000E-03 0. -1.
         11   -1    0    0    0    0 -0.00000000000E+00 -0.00000000000E+00 -0.45593999997E+02  0.45594000000E+02  0.51100000000E-03 0.  1.
    9900012    2    1    2    0    0  0.34900278640E+00 -0.92280432379E+00 -0.64783101781E+00  0.90007722155E+02  0.89999983287E+02 0.  0.
         12    1    1    2    0    0 -0.34900278640E+00  0.92280432379E+00  0.64783101781E+00  0.11802778455E+01  0.00000000000E+00 0. -1.
         11    1    3    3    0    0  0.12810565749E+01 -0.10976859202E+02  0.82651158541E+01  0.13800169717E+02  0.51100000000E-03 0. -1.
        -11    1    3    3    0    0 -0.15454233292E+02 -0.60889595322E+01 -0.37087052255E+02  0.40636906872E+02  0.51100000000E-03 0.  1.
         12    1    3    3    0    0  0.14522179503E+02  0.16143014410E+02  0.28174105384E+02  0.35570645566E+02  0.00000000000E+00 0. -1.
</event>
<event>
 7    1  0.1833837E-015  0.9000780E+02  0.7816164E-02  0.1186339E+00
        -11   -1    0    0    0    0  0.00000000000E+00  0.00000000000E+00  0.45593999997E+02  0.45594000000E+02  0.51100000000E-03 0. -1.
         11   -1    0    0    0    0 -0.00000000000E+00 -0.00000000000E+00 -0.45593999997E+02  0.45594000000E+02  0.51100000000E-03 0.  1.
    9900012    2    1    2    0    0 -0.10579136881E+01 -0.36833577539E+00 -0.37149744008E+00  0.90007803846E+02  0.90000066056E+02 0.  0.
         12    1    1    2    0    0  0.10579136881E+01  0.36833577539E+00  0.37149744008E+00  0.11801961544E+01  0.00000000000E+00 0. -1.
         11    1    3    3    0    0  0.52419941589E+01  0.54394956744E+01  0.56567866049E+01  0.94374705779E+01  0.51100000000E-03 0. -1.
        -11    1    3    3    0    0 -0.68323283396E+01 -0.12313705926E+02 -0.41851538451E+02  0.44157211587E+02  0.51100000000E-03 0.  1.
         12    1    3    3    0    0  0.53242049260E+00  0.65058744762E+01  0.35823254406E+02  0.36413121681E+02  0.00000000000E+00 0. -1.
</event>
<event>
 7    1  0.1698110E-015  0.9000774E+02  0.7816164E-02  0.1186339E+00
        -11   -1    0    0    0    0  0.00000000000E+00  0.00000000000E+00  0.45593999997E+02  0.45594000000E+02  0.51100000000E-03 0.  1.
         11   -1    0    0    0    0 -0.00000000000E+00 -0.00000000000E+00 -0.45593999997E+02  0.45594000000E+02  0.51100000000E-03 0. -1.
    9900012    2    1    2    0    0 -0.54034015985E+00  0.94651813271E+00  0.45294024645E+00  0.90007737770E+02  0.89999999109E+02 0.  0.
         12    1    1    2    0    0  0.54034015985E+00 -0.94651813271E+00 -0.45294024645E+00  0.11802622297E+01  0.00000000000E+00 0. -1.
         11    1    3    3    0    0  0.16828010558E+02 -0.29267177600E+02  0.12948544163E+02  0.36158186075E+02  0.51100000000E-03 0. -1.
        -11    1    3    3    0    0  0.92627164685E+01 -0.29551146768E+01 -0.37635230125E+01  0.10425676230E+02  0.51100000000E-03 0.  1.
        -12    1    3    3    0    0 -0.26631067186E+02  0.33168810410E+02 -0.87320809040E+01  0.43423875465E+02  0.00000000000E+00 0.  1.
</event>
<event>
 7    1  0.1698110E-015  0.9000776E+02  0.7816164E-02  0.1186339E+00
        -11   -1    0    0    0    0  0.00000000000E+00  0.00000000000E+00  0.45593999997E+02  0.45594000000E+02  0.51100000000E-03 0. -1.
         11   -1    0    0    0    0 -0.00000000000E+00 -0.00000000000E+00 -0.45593999997E+02  0.45594000000E+02  0.51100000000E-03 0.  1.
    9900012    2    1    2    0    0 -0.62960208247E+00  0.76807854467E+00 -0.63767068206E+00  0.90007759630E+02  0.90000021257E+02 0.  0.
         12    1    1    2    0    0  0.62960208247E+00 -0.76807854467E+00  0.63767068206E+00  0.11802403703E+01  0.00000000000E+00 0. -1.
         11    1    3    3    0    0  0.31469263112E+02  0.19359896763E+02 -0.24386463737E+01  0.37027923516E+02  0.51100000000E-03 0. -1.
        -11    1    3    3    0    0 -0.33373730899E+01  0.98611088309E+01 -0.56457908135E+01  0.11842908456E+02  0.51100000000E-03 0.  1.
        -12    1    3    3    0    0 -0.28761492105E+02 -0.28452927049E+02  0.74467665051E+01  0.41136927658E+02  0.00000000000E+00 0.  1.
</event>
<event>
 7    1  0.1698110E-015  0.9000778E+02  0.7816164E-02  0.1186339E+00
        -11   -1    0    0    0    0  0.00000000000E+00  0.00000000000E+00  0.45593999997E+02  0.45594000000E+02  0.51100000000E-03 0. -1.
         11   -1    0    0    0    0 -0.00000000000E+00 -0.00000000000E+00 -0.45593999997E+02  0.45594000000E+02  0.51100000000E-03 0.  1.
    9900012    2    1    2    0    0  0.11583911220E+01 -0.65834409619E-01 -0.21615029198E+00  0.90007777517E+02  0.90000039380E+02 0.  0.
         12    1    1    2    0    0 -0.11583911220E+01  0.65834409619E-01  0.21615029198E+00  0.11802224831E+01  0.00000000000E+00 0. -1.
         11    1    3    3    0    0 -0.30629530795E+01 -0.63304144312E+01 -0.52977187706E+01  0.88046381454E+01  0.51100000000E-03 0. -1.
        -11    1    3    3    0    0 -0.19657354549E+02  0.21798315742E+02 -0.25878560608E+02  0.39131548096E+02  0.51100000000E-03 0.  1.
         12    1    3    3    0    0  0.23878698750E+02 -0.15533735720E+02  0.30960129086E+02  0.42071591275E+02  0.00000000000E+00 0. -1.
</event>
<event>
 7    1  0.1698110E-015  0.9000780E+02  0.7816164E-02  0.1186339E+00
        -11   -1    0    0    0    0  0.00000000000E+00  0.00000000000E+00  0.45593999997E+02  0.45594000000E+02  0.51100000000E-03 0.  1.
         11   -1    0    0    0    0 -0.00000000000E+00 -0.00000000000E+00 -0.45593999997E+02  0.45594000000E+02  0.51100000000E-03 0. -1.
    9900012    2    1    2    0    0 -0.62629225077E+00  0.62181208117E+00  0.78357486229E+00  0.90007795860E+02  0.90000057965E+02 0.  0.
         12    1    1    2    0    0  0.62629225077E+00 -0.62181208117E+00 -0.78357486229E+00  0.11802041402E+01  0.00000000000E+00 0. -1.
         11    1    3    3    0    0  0.10346823290E+02 -0.71736892503E+01 -0.89624987143E+01  0.15454609446E+02  0.51100000000E-03 0. -1.
        -11    1    3    3    0    0  0.27217058108E+02  0.19895269156E+02  0.67313489811E+01  0.34378787736E+02  0.51100000000E-03 0.  1.
         12    1    3    3    0    0 -0.38190173649E+02 -0.12099767824E+02  0.30147245955E+01  0.40174398678E+02  0.00000000000E+00 0. -1.
</event>
<event>
 7    1  0.1698110E-015  0.9000756E+02  0.7816164E-02  0.1186339E+00
        -11   -1    0    0    0    0  0.00000000000E+00  0.00000000000E+00  0.45593999997E+02  0.45594000000E+02  0.51100000000E-03 0.  1.
         11   -1    0    0    0    0 -0.00000000000E+00 -0.00000000000E+00 -0.45593999997E+02  0.45594000000E+02  0.51100000000E-03 0. -1.
    9900012    2    1    2    0    0  0.54930321764E+00  0.16559021690E+00  0.10316395958E+01  0.90007561776E+02  0.89999820791E+02 0.  0.
         12    1    1    2    0    0 -0.54930321764E+00 -0.16559021690E+00 -0.10316395958E+01  0.11804382239E+01  0.00000000000E+00 0. -1.
         11    1    3    3    0    0 -0.35707023600E+02 -0.73947441568E+01 -0.10516685392E+02  0.37950947912E+02  0.51100000000E-03 0. -1.
        -11    1    3    3    0    0  0.54385333109E+01  0.78983157583E+01 -0.10456186845E+02  0.14187772199E+02  0.51100000000E-03 0.  1.
        -12    1    3    3    0    0  0.30817793507E+02 -0.33798138458E+00  0.22004511832E+02  0.37868841665E+02  0.00000000000E+00 0.  1.
</event>
<event>
 7    1  0.1698110E-015  0.9000753E+02  0.7816164E-02  0.1186339E+00
        -11   -1    0    0    0    0  0.00000000000E+00  0.00000000000E+00  0.45593999997E+02  0.45594000000E+02  0.51100000000E-03 0.  1.
         11   -1    0    0    0    0 -0.00000000000E+00 -0.00000000000E+00 -0.45593999997E+02  0.45594000000E+02  0.51100000000E-03 0. -1.
    9900012    2    1    2    0    0  0.58195474642E+00  0.67775032278E+00 -0.77167910757E+00  0.90007531673E+02  0.89999790290E+02 0.  0.
         12    1    1    2    0    0 -0.58195474642E+00 -0.67775032278E+00  0.77167910757E+00  0.11804683274E+01  0.00000000000E+00 0. -1.
         11    1    3    3    0    0  0.22649917114E+00  0.20582935216E+00  0.10612939054E+02  0.10617351045E+02  0.51100000000E-03 0. -1.
        -11    1    3    3    0    0  0.18747913834E+02  0.33787086449E+02  0.28854761281E+01  0.38747612270E+02  0.51100000000E-03 0.  1.
         12    1    3    3    0    0 -0.18392458259E+02 -0.33315165479E+02 -0.14270094290E+02  0.40642568358E+02  0.00000000000E+00 0. -1.
</event>
<event>
 7    1  0.1698110E-015  0.9000776E+02  0.7816164E-02  0.1186339E+00
        -11   -1    0    0    0    0  0.00000000000E+00  0.00000000000E+00  0.45593999997E+02  0.45594000000E+02  0.51100000000E-03 0. -1.
         11   -1    0    0    0    0 -0.00000000000E+00 -0.00000000000E+00 -0.45593999997E+02  0.45594000000E+02  0.51100000000E-03 0.  1.
    9900012    2    1    2    0    0 -0.96272163679E+00 -0.66455535383E+00 -0.15652806827E+00  0.90007759429E+02  0.90000021054E+02 0.  0.
         12    1    1    2    0    0  0.96272163679E+00  0.66455535383E+00  0.15652806827E+00  0.11802405706E+01  0.00000000000E+00 0. -1.
         11    1    3    3    0    0  0.52938334074E-01  0.27050945993E+02 -0.12948166709E+02  0.29990190112E+02  0.51100000000E-03 0. -1.
        -11    1    3    3    0    0 -0.14182433817E+02  0.59580433058E+01 -0.89800469509E+01  0.17812382000E+02  0.51100000000E-03 0.  1.
        -12    1    3    3    0    0  0.13166773846E+02 -0.33673544653E+02  0.21771685592E+02  0.42205187317E+02  0.00000000000E+00 0.  1.
</event>
<event>
 7    1  0.1880892E-015  0.9000756E+02  0.7816164E-02  0.1186339E+00
        -11   -1    0    0    0    0  0.00000000000E+00  0.00000000000E+00  0.45593999997E+02  0.45594000000E+02  0.51100000000E-03 0.  1.
         11   -1    0    0    0    0 -0.00000000000E+00 -0.00000000000E+00 -0.45593999997E+02  0.45594000000E+02  0.51100000000E-03 0. -1.
    9900012    2    1    2    0    0  0.96569987932E+00 -0.31937992003E+00  0.59905749999E+00  0.90007555305E+02  0.89999814235E+02 0.  0.
         12    1    1    2    0    0 -0.96569987932E+00  0.31937992003E+00 -0.59905749999E+00  0.11804446952E+01  0.00000000000E+00 0. -1.
         11    1    3    3    0    0  0.17898332419E+00  0.61852406133E+01  0.80840284660E+01  0.10180410256E+02  0.51100000000E-03 0. -1.
        -11    1    3    3    0    0  0.86210007820E+01  0.28302914827E+02  0.19202509847E+02  0.35271986432E+02  0.51100000000E-03 0.  1.
         12    1    3    3    0    0 -0.78342842269E+01 -0.34807535360E+02 -0.26687480813E+02  0.44555158617E+02  0.00000000000E+00 0. -1.
</event>
<event>
 7    1  0.1698110E-015  0.9000775E+02  0.7816164E-02  0.1186339E+00
        -11   -1    0    0    0    0  0.00000000000E+00  0.00000000000E+00  0.45593999997E+02  0.45594000000E+02  0.51100000000E-03 0. -1.
         11   -1    0    0    0    0 -0.00000000000E+00 -0.00000000000E+00 -0.45593999997E+02  0.45594000000E+02  0.51100000000E-03 0.  1.
    9900012    2    1    2    0    0  0.44990855071E+00 -0.10895235099E+01  0.59208548737E-01  0.90007752215E+02  0.90000013744E+02 0.  0.
         12    1    1    2    0    0 -0.44990855071E+00  0.10895235099E+01 -0.59208548737E-01  0.11802477853E+01  0.00000000000E+00 0. -1.
         11    1    3    3    0    0  0.30985035992E+01  0.49607094381E+01 -0.71288362512E+01  0.92211533574E+01  0.51100000000E-03 0. -1.
        -11    1    3    3    0    0  0.24573985382E+02  0.70787524763E+01 -0.25606320700E+02  0.36189406658E+02  0.51100000000E-03 0.  1.
         12    1    3    3    0    0 -0.27222580430E+02 -0.13128985424E+02  0.32794365500E+02  0.44597192200E+02  0.00000000000E+00 0. -1.
</event>
<event>
 7    1  0.1698110E-015  0.9000767E+02  0.7816164E-02  0.1186339E+00
        -11   -1    0    0    0    0  0.00000000000E+00  0.00000000000E+00  0.45593999997E+02  0.45594000000E+02  0.51100000000E-03 0. -1.
         11   -1    0    0    0    0 -0.00000000000E+00 -0.00000000000E+00 -0.45593999997E+02  0.45594000000E+02  0.51100000000E-03 0.  1.
    9900012    2    1    2    0    0  0.40548590731E+00 -0.44512369666E+00 -0.10151955778E+01  0.90007671237E+02  0.89999931698E+02 0.  0.
         12    1    1    2    0    0 -0.40548590731E+00  0.44512369666E+00  0.10151955778E+01  0.11803287625E+01  0.00000000000E+00 0. -1.
         11    1    3    3    0    0 -0.35885671280E+01 -0.66262328405E+01  0.20751114022E+01  0.78160644369E+01  0.51100000000E-03 0. -1.
        -11    1    3    3    0    0  0.17609412006E+02 -0.23718330723E+02 -0.28201112307E+02  0.40840584462E+02  0.51100000000E-03 0.  1.
         12    1    3    3    0    0 -0.13615358971E+02  0.29899439867E+02  0.25110805327E+02  0.41351022339E+02  0.00000000000E+00 0. -1.
</event>
<event>
 7    1  0.1698110E-015  0.9000776E+02  0.7816164E-02  0.1186339E+00
        -11   -1    0    0    0    0  0.00000000000E+00  0.00000000000E+00  0.45593999997E+02  0.45594000000E+02  0.51100000000E-03 0. -1.
         11   -1    0    0    0    0 -0.00000000000E+00 -0.00000000000E+00 -0.45593999997E+02  0.45594000000E+02  0.51100000000E-03 0.  1.
    9900012    2    1    2    0    0  0.10149231201E+01 -0.32813288955E+00 -0.50520415712E+00  0.90007757918E+02  0.90000019522E+02 0.  0.
         12    1    1    2    0    0 -0.10149231201E+01  0.32813288955E+00  0.50520415712E+00  0.11802420825E+01  0.00000000000E+00 0. -1.
         11    1    3    3    0    0 -0.15080180611E+02  0.15792501968E+02  0.83927980996E+01  0.23393461178E+02  0.51100000000E-03 0. -1.
        -11    1    3    3    0    0  0.13769183368E+02  0.21295561214E+02  0.63521653357E+01  0.26142711082E+02  0.51100000000E-03 0.  1.
        -12    1    3    3    0    0  0.23259203633E+01 -0.37416196071E+02 -0.15250167592E+02  0.40471585657E+02  0.00000000000E+00 0.  1.
</event>
<event>
 7    1  0.1698110E-015  0.9000780E+02  0.7816164E-02  0.1186339E+00
        -11   -1    0    0    0    0  0.00000000000E+00  0.00000000000E+00  0.45593999997E+02  0.45594000000E+02  0.51100000000E-03 0. -1.
         11   -1    0    0    0    0 -0.00000000000E+00 -0.00000000000E+00 -0.45593999997E+02  0.45594000000E+02  0.51100000000E-03 0.  1.
    9900012    2    1    2    0    0 -0.89863110884E+00 -0.70421353949E+00 -0.29902635933E+00  0.90007800295E+02  0.90000062459E+02 0.  0.
         12    1    1    2    0    0  0.89863110884E+00  0.70421353949E+00  0.29902635933E+00  0.11801997045E+01  0.00000000000E+00 0. -1.
         11    1    3    3    0    0 -0.35995579502E+02  0.10390290549E+02 -0.10878217327E+02  0.39012504327E+02  0.51100000000E-03 0. -1.
        -11    1    3    3    0    0  0.64124284105E+00 -0.34161323453E+01 -0.96862408449E+01  0.10290987054E+02  0.51100000000E-03 0.  1.
        -12    1    3    3    0    0  0.34455705552E+02 -0.76783717436E+01  0.20265431812E+02  0.40704308915E+02  0.00000000000E+00 0.  1.
</event>
<event>
 7    1  0.1698110E-015  0.9000782E+02  0.7816164E-02  0.1186339E+00
        -11   -1    0    0    0    0  0.00000000000E+00  0.00000000000E+00  0.45593999997E+02  0.45594000000E+02  0.51100000000E-03 0.  1.
         11   -1    0    0    0    0 -0.00000000000E+00 -0.00000000000E+00 -0.45593999997E+02  0.45594000000E+02  0.51100000000E-03 0. -1.
    9900012    2    1    2    0    0 -0.68345784325E+00 -0.17327222497E+00  0.94641205641E+00  0.90007816257E+02  0.90000078631E+02 0.  0.
         12    1    1    2    0    0  0.68345784325E+00  0.17327222497E+00 -0.94641205641E+00  0.11801837433E+01  0.00000000000E+00 0. -1.
         11    1    3    3    0    0  0.81339972731E+01 -0.62412224133E+01 -0.83300196065E+00  0.10286333719E+02  0.51100000000E-03 0. -1.
        -11    1    3    3    0    0  0.11952980828E+02 -0.15696723448E+01  0.36560511856E+02  0.38496865449E+02  0.51100000000E-03 0.  1.
         12    1    3    3    0    0 -0.20770435944E+02  0.76376225331E+01 -0.34781097839E+02  0.41224617089E+02  0.00000000000E+00 0. -1.
</event>
<event>
 7    1  0.1698110E-015  0.9000777E+02  0.7816164E-02  0.1186339E+00
        -11   -1    0    0    0    0  0.00000000000E+00  0.00000000000E+00  0.45593999997E+02  0.45594000000E+02  0.51100000000E-03 0. -1.
         11   -1    0    0    0    0 -0.00000000000E+00 -0.00000000000E+00 -0.45593999997E+02  0.45594000000E+02  0.51100000000E-03 0.  1.
    9900012    2    1    2    0    0  0.54109383964E+00 -0.10347255417E+01 -0.17173507909E+00  0.90007774417E+02  0.90000036239E+02 0.  0.
         12    1    1    2    0    0 -0.54109383964E+00  0.10347255417E+01  0.17173507909E+00  0.11802255832E+01  0.00000000000E+00 0. -1.
         11    1    3    3    0    0  0.91389383377E+01 -0.25351638800E+02  0.28335139316E+02  0.39103783757E+02  0.51100000000E-03 0. -1.
        -11    1    3    3    0    0  0.18996284972E+01 -0.79252478557E+01 -0.70614297060E+01  0.10783410024E+02  0.51100000000E-03 0.  1.
        -12    1    3    3    0    0 -0.10497472995E+02  0.32242161114E+02 -0.21445444689E+02  0.40120580635E+02  0.00000000000E+00 0.  1.
</event>
<event>
 7    1  0.1698110E-015  0.9000773E+02  0.7816164E-02  0.1186339E+00
        -11   -1    0    0    0    0  0.00000000000E+00  0.00000000000E+00  0.45593999997E+02  0.45594000000E+02  0.51100000000E-03 0.  1.
         11   -1    0    0    0    0 -0.00000000000E+00 -0.00000000000E+00 -0.45593999997E+02  0.45594000000E+02  0.51100000000E-03 0. -1.
    9900012    2    1    2    0    0  0.11050625052E+01  0.11400309159E+00  0.39859996070E+00  0.90007728093E+02  0.89999989304E+02 0.  0.
         12    1    1    2    0    0 -0.11050625052E+01 -0.11400309159E+00 -0.39859996070E+00  0.11802719068E+01  0.00000000000E+00 0. -1.
         11    1    3    3    0    0 -0.19597172724E+02 -0.19170650793E+02 -0.19430587511E+02  0.33602243405E+02  0.51100000000E-03 0. -1.
        -11    1    3    3    0    0 -0.10066138255E+02 -0.30964764175E+01 -0.42739743843E+01  0.11365833136E+02  0.51100000000E-03 0.  1.
        -12    1    3    3    0    0  0.30768373484E+02  0.22381130302E+02  0.24103161856E+02  0.45039651552E+02  0.00000000000E+00 0.  1.
</event>
<event>
 7    1  0.1698110E-015  0.9000774E+02  0.7816164E-02  0.1186339E+00
        -11   -1    0    0    0    0  0.00000000000E+00  0.00000000000E+00  0.45593999997E+02  0.45594000000E+02  0.51100000000E-03 0.  1.
         11   -1    0    0    0    0 -0.00000000000E+00 -0.00000000000E+00 -0.45593999997E+02  0.45594000000E+02  0.51100000000E-03 0. -1.
    9900012    2    1    2    0    0  0.10539285933E+01  0.44320274120E+00 -0.29294135059E+00  0.90007742069E+02  0.90000003464E+02 0.  0.
         12    1    1    2    0    0 -0.10539285933E+01 -0.44320274120E+00  0.29294135059E+00  0.11802579313E+01  0.00000000000E+00 0. -1.
         11    1    3    3    0    0  0.47732838944E+01  0.33320057109E+01 -0.59954611143E+01  0.83565576303E+01  0.51100000000E-03 0. -1.
        -11    1    3    3    0    0  0.10147437866E+02 -0.34274466670E+02 -0.17927829530E+02  0.39988956384E+02  0.51100000000E-03 0.  1.
         12    1    3    3    0    0 -0.13866793167E+02  0.31385663701E+02  0.23630349294E+02  0.41662228054E+02  0.00000000000E+00 0. -1.
</event>
<event>
 7    1  0.1698110E-015  0.9000752E+02  0.7816164E-02  0.1186339E+00
        -11   -1    0    0    0    0  0.00000000000E+00  0.00000000000E+00  0.45593999997E+02  0.45594000000E+02  0.51100000000E-03 0.  1.
         11   -1    0    0    0    0 -0.00000000000E+00 -0.00000000000E+00 -0.45593999997E+02  0.45594000000E+02  0.51100000000E-03 0. -1.
    9900012    2    1    2    0    0  0.55389171008E+00  0.93424548025E+00  0.46250675336E+00  0.90007524189E+02  0.89999782708E+02 0.  0.
         12    1    1    2    0    0 -0.55389171008E+00 -0.93424548025E+00 -0.46250675336E+00  0.11804758112E+01  0.00000000000E+00 0. -1.
         11    1    3    3    0    0  0.88920960852E+01 -0.12317571772E+00 -0.15859317933E+01  0.90332566088E+01  0.51100000000E-03 0. -1.
        -11    1    3    3    0    0  0.18857338625E+02  0.11714488779E+02  0.32124509986E+02  0.39048849016E+02  0.51100000000E-03 0.  1.
         12    1    3    3    0    0 -0.27195543000E+02 -0.10657067581E+02 -0.30076071440E+02  0.41925418564E+02  0.00000000000E+00 0. -1.
</event>
<event>
 7    1  0.1698110E-015  0.9000785E+02  0.7816164E-02  0.1186339E+00
        -11   -1    0    0    0    0  0.00000000000E+00  0.00000000000E+00  0.45593999997E+02  0.45594000000E+02  0.51100000000E-03 0.  1.
         11   -1    0    0    0    0 -0.00000000000E+00 -0.00000000000E+00 -0.45593999997E+02  0.45594000000E+02  0.51100000000E-03 0. -1.
    9900012    2    1    2    0    0  0.10599694049E+01 -0.33233172042E+00  0.39847279185E+00  0.90007847435E+02  0.90000110221E+02 0.  0.
         12    1    1    2    0    0 -0.10599694049E+01  0.33233172042E+00 -0.39847279185E+00  0.11801525654E+01  0.00000000000E+00 0. -1.
         11    1    3    3    0    0 -0.20712749184E+02  0.17899534273E+02 -0.22689386083E+02  0.35555865157E+02  0.51100000000E-03 0. -1.
        -11    1    3    3    0    0  0.20823840754E+01  0.44706549365E+01 -0.91406265251E+01  0.10386247279E+02  0.51100000000E-03 0.  1.
        -12    1    3    3    0    0  0.19690334513E+02 -0.22702520930E+02  0.32228485400E+02  0.44065734999E+02  0.00000000000E+00 0.  1.
</event>
<event>
 7    1  0.1698110E-015  0.9000773E+02  0.7816164E-02  0.1186339E+00
        -11   -1    0    0    0    0  0.00000000000E+00  0.00000000000E+00  0.45593999997E+02  0.45594000000E+02  0.51100000000E-03 0.  1.
         11   -1    0    0    0    0 -0.00000000000E+00 -0.00000000000E+00 -0.45593999997E+02  0.45594000000E+02  0.51100000000E-03 0. -1.
    9900012    2    1    2    0    0 -0.69134031626E+00 -0.68256190608E+00  0.67022485558E+00  0.90007727343E+02  0.89999988544E+02 0.  0.
         12    1    1    2    0    0  0.69134031626E+00  0.68256190608E+00 -0.67022485558E+00  0.11802726573E+01  0.00000000000E+00 0. -1.
         11    1    3    3    0    0  0.33778738483E+01  0.43842027391E+01  0.86718650130E+01  0.10287492817E+02  0.51100000000E-03 0. -1.
        -11    1    3    3    0    0  0.11831448097E+01 -0.21444395008E+02  0.30643605551E+02  0.37420481962E+02  0.51100000000E-03 0.  1.
         12    1    3    3    0    0 -0.52523589743E+01  0.16377630362E+02 -0.38645245708E+02  0.42299752563E+02  0.00000000000E+00 0. -1.
</event>
<event>
 7    1  0.1698110E-015  0.9000772E+02  0.7816164E-02  0.1186339E+00
        -11   -1    0    0    0    0  0.00000000000E+00  0.00000000000E+00  0.45593999997E+02  0.45594000000E+02  0.51100000000E-03 0. -1.
         11   -1    0    0    0    0 -0.00000000000E+00 -0.00000000000E+00 -0.45593999997E+02  0.45594000000E+02  0.51100000000E-03 0.  1.
    9900012    2    1    2    0    0 -0.98950883078E+00 -0.52067610062E+00 -0.37793266817E+00  0.90007718496E+02  0.89999979580E+02 0.  0.
         12    1    1    2    0    0  0.98950883078E+00  0.52067610062E+00  0.37793266817E+00  0.11802815044E+01  0.00000000000E+00 0. -1.
         11    1    3    3    0    0  0.64397652029E+01  0.17223155631E+02 -0.65482944768E+01  0.19518909462E+02  0.51100000000E-03 0. -1.
        -11    1    3    3    0    0 -0.58812602598E+01  0.75715471197E+00 -0.29599628203E+02  0.30187754066E+02  0.51100000000E-03 0.  1.
         12    1    3    3    0    0 -0.15480137739E+01 -0.18500986444E+02  0.35769990012E+02  0.40301054968E+02  0.00000000000E+00 0. -1.
</event>
<event>
 7    1  0.1698110E-015  0.9000772E+02  0.7816164E-02  0.1186339E+00
        -11   -1    0    0    0    0  0.00000000000E+00  0.00000000000E+00  0.45593999997E+02  0.45594000000E+02  0.51100000000E-03 0. -1.
         11   -1    0    0    0    0 -0.00000000000E+00 -0.00000000000E+00 -0.45593999997E+02  0.45594000000E+02  0.51100000000E-03 0.  1.
    9900012    2    1    2    0    0  0.45306865471E+00 -0.93194357343E+00  0.56504898949E+00  0.90007715970E+02  0.89999977021E+02 0.  0.
         12    1    1    2    0    0 -0.45306865471E+00  0.93194357343E+00 -0.56504898949E+00  0.11802840296E+01  0.00000000000E+00 0. -1.
         11    1    3    3    0    0  0.20959612541E+01  0.97961586394E+01 -0.64429465210E+01  0.11910891562E+02  0.51100000000E-03 0. -1.
        -11    1    3    3    0    0  0.12033223315E+02  0.11909602290E+02 -0.28903543630E+02  0.33497043522E+02  0.51100000000E-03 0.  1.
         12    1    3    3    0    0 -0.13676115914E+02 -0.22637704503E+02  0.35911539141E+02  0.44599780887E+02  0.00000000000E+00 0. -1.
</event>
<event>
 7    1  0.1698110E-015  0.9000775E+02  0.7816164E-02  0.1186339E+00
        -11   -1    0    0    0    0  0.00000000000E+00  0.00000000000E+00  0.45593999997E+02  0.45594000000E+02  0.51100000000E-03 0. -1.
         11   -1    0    0    0    0 -0.00000000000E+00 -0.00000000000E+00 -0.45593999997E+02  0.45594000000E+02  0.51100000000E-03 0.  1.
    9900012    2    1    2    0    0 -0.11698440196E+01  0.11710724897E+00  0.10361356454E+00  0.90007752183E+02  0.90000013712E+02 0.  0.
         12    1    1    2    0    0  0.11698440196E+01 -0.11710724897E+00 -0.10361356454E+00  0.11802478166E+01  0.00000000000E+00 0. -1.
         11    1    3    3    0    0 -0.21774212373E+02 -0.28564548246E+01 -0.64796708689E+01  0.22896763821E+02  0.51100000000E-03 0. -1.
        -11    1    3    3    0    0 -0.12445198312E+01 -0.23439914723E+02 -0.13800604154E+02  0.27229306034E+02  0.51100000000E-03 0.  1.
        -12    1    3    3    0    0  0.21848888184E+02  0.26413476797E+02  0.20383888588E+02  0.39881682328E+02  0.00000000000E+00 0.  1.
</event>
<event>
 7    1  0.1698110E-015  0.9000774E+02  0.7816164E-02  0.1186339E+00
        -11   -1    0    0    0    0  0.00000000000E+00  0.00000000000E+00  0.45593999997E+02  0.45594000000E+02  0.51100000000E-03 0.  1.
         11   -1    0    0    0    0 -0.00000000000E+00 -0.00000000000E+00 -0.45593999997E+02  0.45594000000E+02  0.51100000000E-03 0. -1.
    9900012    2    1    2    0    0  0.22402135770E+00 -0.50516649022E+00  0.10429028168E+01  0.90007735184E+02  0.89999996488E+02 0.  0.
         12    1    1    2    0    0 -0.22402135770E+00  0.50516649022E+00 -0.10429028168E+01  0.11802648164E+01  0.00000000000E+00 0. -1.
         11    1    3    3    0    0  0.60828674286E+01  0.73862544705E+01  0.25005717153E+01  0.98899388483E+01  0.51100000000E-03 0. -1.
        -11    1    3    3    0    0 -0.17313482720E+02  0.27123773098E+02  0.19605288990E+02  0.37680540171E+02  0.51100000000E-03 0.  1.
         12    1    3    3    0    0  0.11454636649E+02 -0.35015194058E+02 -0.21062957889E+02  0.42437256164E+02  0.00000000000E+00 0. -1.
</event>
<event>
 7    1  0.1698110E-015  0.9000775E+02  0.7816164E-02  0.1186339E+00
        -11   -1    0    0    0    0  0.00000000000E+00  0.00000000000E+00  0.45593999997E+02  0.45594000000E+02  0.51100000000E-03 0. -1.
         11   -1    0    0    0    0 -0.00000000000E+00 -0.00000000000E+00 -0.45593999997E+02  0.45594000000E+02  0.51100000000E-03 0.  1.
    9900012    2    1    2    0    0  0.45687332550E+00  0.74902939649E+00 -0.78943659222E+00  0.90007750702E+02  0.90000012211E+02 0.  0.
         12    1    1    2    0    0 -0.45687332550E+00 -0.74902939649E+00  0.78943659222E+00  0.11802492980E+01  0.00000000000E+00 0. -1.
         11    1    3    3    0    0  0.15796060939E+01  0.39682727725E+02  0.11629356549E+02  0.41381831389E+02  0.51100000000E-03 0. -1.
        -11    1    3    3    0    0  0.81419495426E+01 -0.20952931902E+01  0.70601815118E+00  0.84368274724E+01  0.51100000000E-03 0.  1.
        -12    1    3    3    0    0 -0.92646823110E+01 -0.36838405139E+02 -0.13124811293E+02  0.40189091840E+02  0.00000000000E+00 0.  1.
</event>
<event>
 7    1  0.1698110E-015  0.9000773E+02  0.7816164E-02  0.1186339E+00
        -11   -1    0    0    0    0  0.00000000000E+00  0.00000000000E+00  0.45593999997E+02  0.45594000000E+02  0.51100000000E-03 0. -1.
         11   -1    0    0    0    0 -0.00000000000E+00 -0.00000000000E+00 -0.45593999997E+02  0.45594000000E+02  0.51100000000E-03 0.  1.
    9900012    2    1    2    0    0  0.39143958238E+00  0.10783872993E+01 -0.27731674071E+00  0.90007725164E+02  0.89999986336E+02 0.  0.
         12    1    1    2    0    0 -0.39143958238E+00 -0.10783872993E+01  0.27731674071E+00  0.11802748360E+01  0.00000000000E+00 0. -1.
         11    1    3    3    0    0  0.33529821255E+01 -0.88523113370E+01 -0.22881755531E+01  0.97386679153E+01  0.51100000000E-03 0. -1.
        -11    1    3    3    0    0  0.22237872209E+02 -0.24303356557E+02 -0.12673210913E+02  0.35295699107E+02  0.51100000000E-03 0.  1.
         12    1    3    3    0    0 -0.25199414752E+02  0.34234055194E+02  0.14684069726E+02  0.44973358142E+02  0.00000000000E+00 0. -1.
</event>
<event>
 7    1  0.1698110E-015  0.9000817E+02  0.7816164E-02  0.1186338E+00
        -11   -1    0    0    0    0  0.00000000000E+00  0.00000000000E+00  0.45593999997E+02  0.45594000000E+02  0.51100000000E-03 0. -1.
         11   -1    0    0    0    0 -0.00000000000E+00 -0.00000000000E+00 -0.45593999997E+02  0.45594000000E+02  0.51100000000E-03 0.  1.
    9900012    2    1    2    0    0 -0.85727931657E+00  0.70786957713E+00 -0.39496154574E+00  0.90008168746E+02  0.90000435773E+02 0.  0.
         12    1    1    2    0    0  0.85727931657E+00 -0.70786957713E+00  0.39496154574E+00  0.11798312538E+01  0.00000000000E+00 0. -1.
         11    1    3    3    0    0  0.30161469897E+02  0.16385190550E+02 -0.11901306078E+02  0.36329462180E+02  0.51100000000E-03 0. -1.
        -11    1    3    3    0    0  0.59079252291E+01  0.47277427653E+01 -0.42076014776E+01  0.86578890396E+01  0.51100000000E-03 0.  1.
        -12    1    3    3    0    0 -0.36926674443E+02 -0.20405063738E+02  0.15713946009E+02  0.45020817526E+02  0.00000000000E+00 0.  1.
</event>
<event>
 7    1  0.1698110E-015  0.9000777E+02  0.7816164E-02  0.1186339E+00
        -11   -1    0    0    0    0  0.00000000000E+00  0.00000000000E+00  0.45593999997E+02  0.45594000000E+02  0.51100000000E-03 0.  1.
         11   -1    0    0    0    0 -0.00000000000E+00 -0.00000000000E+00 -0.45593999997E+02  0.45594000000E+02  0.51100000000E-03 0. -1.
    9900012    2    1    2    0    0  0.58479806899E-01  0.11520815776E+01 -0.24945615715E+00  0.90007771114E+02  0.90000032893E+02 0.  0.
         12    1    1    2    0    0 -0.58479806899E-01 -0.11520815776E+01  0.24945615715E+00  0.11802288861E+01  0.00000000000E+00 0. -1.
         11    1    3    3    0    0 -0.53543639553E+01  0.76741648110E+01 -0.16455034841E+01  0.95010368324E+01  0.51100000000E-03 0. -1.
        -11    1    3    3    0    0  0.26805432251E+02  0.16859846718E+02  0.25526471586E+02  0.40674148809E+02  0.51100000000E-03 0.  1.
         12    1    3    3    0    0 -0.21392588489E+02 -0.23381929951E+02 -0.24130424259E+02  0.39832585472E+02  0.00000000000E+00 0. -1.
</event>
<event>
 7    1  0.1698110E-015  0.9000782E+02  0.7816164E-02  0.1186339E+00
        -11   -1    0    0    0    0  0.00000000000E+00  0.00000000000E+00  0.45593999997E+02  0.45594000000E+02  0.51100000000E-03 0.  1.
         11   -1    0    0    0    0 -0.00000000000E+00 -0.00000000000E+00 -0.45593999997E+02  0.45594000000E+02  0.51100000000E-03 0. -1.
    9900012    2    1    2    0    0 -0.96807040078E+00  0.63831003289E+00  0.21957800678E+00  0.90007824377E+02  0.90000086859E+02 0.  0.
         12    1    1    2    0    0  0.96807040078E+00 -0.63831003289E+00 -0.21957800678E+00  0.11801756225E+01  0.00000000000E+00 0. -1.
         11    1    3    3    0    0 -0.15181656831E+01  0.71762498851E+01 -0.51617423236E+01  0.89692236860E+01  0.51100000000E-03 0. -1.
        -11    1    3    3    0    0 -0.39157532934E+02 -0.11569343140E+02  0.31055328832E+01  0.40948826857E+02  0.51100000000E-03 0.  1.
         12    1    3    3    0    0  0.39707628217E+02  0.50314032876E+01  0.22757874471E+01  0.40089773835E+02  0.00000000000E+00 0. -1.
</event>
<event>
 7    1  0.1698110E-015  0.9000776E+02  0.7816164E-02  0.1186339E+00
        -11   -1    0    0    0    0  0.00000000000E+00  0.00000000000E+00  0.45593999997E+02  0.45594000000E+02  0.51100000000E-03 0.  1.
         11   -1    0    0    0    0 -0.00000000000E+00 -0.00000000000E+00 -0.45593999997E+02  0.45594000000E+02  0.51100000000E-03 0. -1.
    9900012    2    1    2    0    0 -0.56474167410E+00  0.89002126945E+00 -0.53093864404E+00  0.90007759829E+02  0.90000021458E+02 0.  0.
         12    1    1    2    0    0  0.56474167410E+00 -0.89002126945E+00  0.53093864404E+00  0.11802401714E+01  0.00000000000E+00 0. -1.
         11    1    3    3    0    0 -0.49104879787E+01  0.20882990954E+01 -0.28697851166E+02  0.29189733591E+02  0.51100000000E-03 0. -1.
        -11    1    3    3    0    0 -0.23263304876E+01 -0.90287375649E+00 -0.15977537613E+02  0.16171230720E+02  0.51100000000E-03 0.  1.
        -12    1    3    3    0    0  0.66720767922E+01 -0.29540406947E+00  0.44144450135E+02  0.44646795518E+02  0.00000000000E+00 0.  1.
</event>
<event>
 7    1  0.1698110E-015  0.9000785E+02  0.7816164E-02  0.1186339E+00
        -11   -1    0    0    0    0  0.00000000000E+00  0.00000000000E+00  0.45593999997E+02  0.45594000000E+02  0.51100000000E-03 0. -1.
         11   -1    0    0    0    0 -0.00000000000E+00 -0.00000000000E+00 -0.45593999997E+02  0.45594000000E+02  0.51100000000E-03 0.  1.
    9900012    2    1    2    0    0  0.13988456472E+00  0.23836350544E+00 -0.11473282735E+01  0.90007852967E+02  0.90000115826E+02 0.  0.
         12    1    1    2    0    0 -0.13988456472E+00 -0.23836350544E+00  0.11473282735E+01  0.11801470330E+01  0.00000000000E+00 0. -1.
         11    1    3    3    0    0  0.28201688813E+02 -0.33157366405E+01  0.26288155229E+02  0.38696207398E+02  0.51100000000E-03 0. -1.
        -11    1    3    3    0    0  0.92145457529E+00 -0.77682956513E+01  0.24203278546E+01  0.81886191171E+01  0.51100000000E-03 0.  1.
        -12    1    3    3    0    0 -0.28983258824E+02  0.11322395797E+02 -0.29855811357E+02  0.43123026452E+02  0.00000000000E+00 0.  1.
</event>
<event>
 7    1  0.1698110E-015  0.9000777E+02  0.7816164E-02  0.1186339E+00
        -11   -1    0    0    0    0  0.00000000000E+00  0.00000000000E+00  0.45593999997E+02  0.45594000000E+02  0.51100000000E-03 0.  1.
         11   -1    0    0    0    0 -0.00000000000E+00 -0.00000000000E+00 -0.45593999997E+02  0.45594000000E+02  0.51100000000E-03 0. -1.
    9900012    2    1    2    0    0  0.52319899049E+00  0.28373753320E+00  0.10191693529E+01  0.90007766828E+02  0.90000028550E+02 0.  0.
         12    1    1    2    0    0 -0.52319899049E+00 -0.28373753320E+00 -0.10191693529E+01  0.11802331724E+01  0.00000000000E+00 0. -1.
         11    1    3    3    0    0 -0.82422967603E+01  0.53707745178E+01 -0.45916615110E+00  0.98484267079E+01  0.51100000000E-03 0. -1.
        -11    1    3    3    0    0  0.17688579341E+02 -0.38740064744E+02  0.11154398637E+02  0.44023846545E+02  0.51100000000E-03 0.  1.
         12    1    3    3    0    0 -0.89230835904E+01  0.33653027759E+02 -0.96760631328E+01  0.36135493574E+02  0.00000000000E+00 0. -1.
</event>
<event>
 7    1  0.1698110E-015  0.9000771E+02  0.7816164E-02  0.1186339E+00
        -11   -1    0    0    0    0  0.00000000000E+00  0.00000000000E+00  0.45593999997E+02  0.45594000000E+02  0.51100000000E-03 0.  1.
         11   -1    0    0    0    0 -0.00000000000E+00 -0.00000000000E+00 -0.45593999997E+02  0.45594000000E+02  0.51100000000E-03 0. -1.
    9900012    2    1    2    0    0  0.10943108933E+01 -0.19257576930E+00 -0.39809433754E+00  0.90007711535E+02  0.89999972528E+02 0.  0.
         12    1    1    2    0    0 -0.10943108933E+01  0.19257576930E+00  0.39809433754E+00  0.11802884646E+01  0.00000000000E+00 0. -1.
         11    1    3    3    0    0 -0.39296540848E+01 -0.76818481508E+01 -0.37640936353E+02  0.38617263782E+02  0.51100000000E-03 0. -1.
        -11    1    3    3    0    0  0.87819185951E+01 -0.58926612712E+00 -0.36571583447E+01  0.95312190300E+01  0.51100000000E-03 0.  1.
        -12    1    3    3    0    0 -0.37579536169E+01  0.80785385086E+01  0.40900000360E+02  0.41859228723E+02  0.00000000000E+00 0.  1.
</event>
<event>
 7    1  0.1698110E-015  0.9000775E+02  0.7816164E-02  0.1186339E+00
        -11   -1    0    0    0    0  0.00000000000E+00  0.00000000000E+00  0.45593999997E+02  0.45594000000E+02  0.51100000000E-03 0. -1.
         11   -1    0    0    0    0 -0.00000000000E+00 -0.00000000000E+00 -0.45593999997E+02  0.45594000000E+02  0.51100000000E-03 0.  1.
    9900012    2    1    2    0    0  0.90181376260E+00  0.34294687036E+00  0.67978575554E+00  0.90007750327E+02  0.90000011831E+02 0.  0.
         12    1    1    2    0    0 -0.90181376260E+00 -0.34294687036E+00 -0.67978575554E+00  0.11802496735E+01  0.00000000000E+00 0. -1.
         11    1    3    3    0    0 -0.31381323486E+02  0.11888093549E+02  0.13413973019E+02  0.36139298615E+02  0.51100000000E-03 0. -1.
        -11    1    3    3    0    0 -0.35468875530E+01 -0.78790675678E+01  0.84480456311E+01  0.12084270450E+02  0.51100000000E-03 0.  1.
        -12    1    3    3    0    0  0.35830024802E+02 -0.36660791107E+01 -0.21182232895E+02  0.41784181262E+02  0.00000000000E+00 0.  1.
</event>
<event>
 7    1  0.1698110E-015  0.9000764E+02  0.7816164E-02  0.1186339E+00
        -11   -1    0    0    0    0  0.00000000000E+00  0.00000000000E+00  0.45593999997E+02  0.45594000000E+02  0.51100000000E-03 0. -1.
         11   -1    0    0    0    0 -0.00000000000E+00 -0.00000000000E+00 -0.45593999997E+02  0.45594000000E+02  0.51100000000E-03 0.  1.
    9900012    2    1    2    0    0 -0.10039015571E+01 -0.42132118472E+00  0.45597644656E+00  0.90007642259E+02  0.89999902337E+02 0.  0.
         12    1    1    2    0    0  0.10039015571E+01  0.42132118472E+00 -0.45597644656E+00  0.11803577410E+01  0.00000000000E+00 0. -1.
         11    1    3    3    0    0  0.27639275586E+01 -0.33232696187E+02  0.15064685179E+02  0.36592296064E+02  0.51100000000E-03 0. -1.
        -11    1    3    3    0    0  0.71080438532E+01 -0.61994738420E+01  0.20033642537E+01  0.96421590907E+01  0.51100000000E-03 0.  1.
        -12    1    3    3    0    0 -0.10875872969E+02  0.39010848844E+02 -0.16612072986E+02  0.43773187105E+02  0.00000000000E+00 0.  1.
</event>
<event>
 7    1  0.1698110E-015  0.9000773E+02  0.7816164E-02  0.1186339E+00
        -11   -1    0    0    0    0  0.00000000000E+00  0.00000000000E+00  0.45593999997E+02  0.45594000000E+02  0.51100000000E-03 0. -1.
         11   -1    0    0    0    0 -0.00000000000E+00 -0.00000000000E+00 -0.45593999997E+02  0.45594000000E+02  0.51100000000E-03 0.  1.
    9900012    2    1    2    0    0  0.96252487390E+00  0.67699914140E+00 -0.90901100221E-01  0.90007726735E+02  0.89999987928E+02 0.  0.
         12    1    1    2    0    0 -0.96252487390E+00 -0.67699914140E+00  0.90901100221E-01  0.11802732651E+01  0.00000000000E+00 0. -1.
         11    1    3    3    0    0  0.83310651460E+01  0.17218145598E+02  0.20392663034E+02  0.27959468703E+02  0.51100000000E-03 0. -1.
        -11    1    3    3    0    0 -0.84291224589E+01  0.20100333874E+02 -0.57549840796E+01  0.22543144618E+02  0.51100000000E-03 0.  1.
         12    1    3    3    0    0  0.10605821868E+01 -0.36641480331E+02 -0.14728580054E+02  0.39505113413E+02  0.00000000000E+00 0. -1.
</event>
<event>
 7    1  0.1698110E-015  0.9000784E+02  0.7816164E-02  0.1186339E+00
        -11   -1    0    0    0    0  0.00000000000E+00  0.00000000000E+00  0.45593999997E+02  0.45594000000E+02  0.51100000000E-03 0.  1.
         11   -1    0    0    0    0 -0.00000000000E+00 -0.00000000000E+00 -0.45593999997E+02  0.45594000000E+02  0.51100000000E-03 0. -1.
    9900012    2    1    2    0    0  0.10911278927E+01  0.26573658973E+00 -0.36277690233E+00  0.90007837683E+02  0.90000100340E+02 0.  0.
         12    1    1    2    0    0 -0.10911278927E+01 -0.26573658973E+00  0.36277690233E+00  0.11801623169E+01  0.00000000000E+00 0. -1.
         11    1    3    3    0    0 -0.26488883063E+02  0.27299704080E+02 -0.12776098048E+02  0.40126842018E+02  0.51100000000E-03 0. -1.
        -11    1    3    3    0    0  0.46144359862E+01  0.56652828457E+01 -0.17030264935E+01  0.75025828014E+01  0.51100000000E-03 0.  1.
        -12    1    3    3    0    0  0.22965574969E+02 -0.32699250336E+02  0.14116347639E+02  0.42378412864E+02  0.00000000000E+00 0.  1.
</event>
<event>
 7    1  0.1698110E-015  0.9000776E+02  0.7816164E-02  0.1186339E+00
        -11   -1    0    0    0    0  0.00000000000E+00  0.00000000000E+00  0.45593999997E+02  0.45594000000E+02  0.51100000000E-03 0. -1.
         11   -1    0    0    0    0 -0.00000000000E+00 -0.00000000000E+00 -0.45593999997E+02  0.45594000000E+02  0.51100000000E-03 0.  1.
    9900012    2    1    2    0    0  0.75312333879E+00  0.67552783699E+00  0.60780764814E+00  0.90007761567E+02  0.90000023220E+02 0.  0.
         12    1    1    2    0    0 -0.75312333879E+00 -0.67552783699E+00 -0.60780764814E+00  0.11802384332E+01  0.00000000000E+00 0. -1.
         11    1    3    3    0    0  0.24089022667E+02 -0.19377927976E+02 -0.14701554409E+02  0.34233328906E+02  0.51100000000E-03 0. -1.
        -11    1    3    3    0    0 -0.62342792928E+01 -0.11600903248E+02  0.14773887371E+02  0.19791789782E+02  0.51100000000E-03 0.  1.
        -12    1    3    3    0    0 -0.17101620035E+02  0.31654359061E+02  0.53547468528E+00  0.35982642879E+02  0.00000000000E+00 0.  1.
</event>
<event>
 7    1  0.1698110E-015  0.9000774E+02  0.7816164E-02  0.1186339E+00
        -11   -1    0    0    0    0  0.00000000000E+00  0.00000000000E+00  0.45593999997E+02  0.45594000000E+02  0.51100000000E-03 0. -1.
         11   -1    0    0    0    0 -0.00000000000E+00 -0.00000000000E+00 -0.45593999997E+02  0.45594000000E+02  0.51100000000E-03 0.  1.
    9900012    2    1    2    0    0 -0.11569113559E+01  0.12363162086E+00 -0.19819478898E+00  0.90007741623E+02  0.90000003012E+02 0.  0.
         12    1    1    2    0    0  0.11569113559E+01 -0.12363162086E+00  0.19819478898E+00  0.11802583774E+01  0.00000000000E+00 0. -1.
         11    1    3    3    0    0  0.69820148763E+01  0.42505538191E+01 -0.37375308451E+01  0.89880407532E+01  0.51100000000E-03 0. -1.
        -11    1    3    3    0    0  0.32734365286E+02  0.61870629664E+01 -0.12967156805E+02  0.35748644376E+02  0.51100000000E-03 0.  1.
         12    1    3    3    0    0 -0.40873291518E+02 -0.10313985165E+02  0.16506492861E+02  0.45271056494E+02  0.00000000000E+00 0. -1.
</event>
<event>
 7    1  0.1698110E-015  0.9000778E+02  0.7816164E-02  0.1186339E+00
        -11   -1    0    0    0    0  0.00000000000E+00  0.00000000000E+00  0.45593999997E+02  0.45594000000E+02  0.51100000000E-03 0.  1.
         11   -1    0    0    0    0 -0.00000000000E+00 -0.00000000000E+00 -0.45593999997E+02  0.45594000000E+02  0.51100000000E-03 0. -1.
    9900012    2    1    2    0    0  0.62566996727E-01 -0.10271294593E+01  0.57793930042E+00  0.90007778245E+02  0.90000040118E+02 0.  0.
         12    1    1    2    0    0 -0.62566996727E-01  0.10271294593E+01 -0.57793930042E+00  0.11802217547E+01  0.00000000000E+00 0. -1.
         11    1    3    3    0    0  0.11806689278E+02  0.33211739743E+02 -0.12337924066E+02  0.37344905128E+02  0.51100000000E-03 0. -1.
        -11    1    3    3    0    0  0.79180154291E+01  0.33725599036E+01  0.18441667332E+01  0.88017089159E+01  0.51100000000E-03 0.  1.
        -12    1    3    3    0    0 -0.19662137710E+02 -0.37611429106E+02  0.11071696634E+02  0.43861164201E+02  0.00000000000E+00 0.  1.
</event>
<event>
 7    1  0.1698110E-015  0.9000736E+02  0.7816164E-02  0.1186340E+00
        -11   -1    0    0    0    0  0.00000000000E+00  0.00000000000E+00  0.45593999997E+02  0.45594000000E+02  0.51100000000E-03 0.  1.
         11   -1    0    0    0    0 -0.00000000000E+00 -0.00000000000E+00 -0.45593999997E+02  0.45594000000E+02  0.51100000000E-03 0. -1.
    9900012    2    1    2    0    0  0.91231776915E-01  0.44995417068E+00  0.10877194015E+01  0.90007358018E+02  0.89999614343E+02 0.  0.
         12    1    1    2    0    0 -0.91231776915E-01 -0.44995417068E+00 -0.10877194015E+01  0.11806419818E+01  0.00000000000E+00 0. -1.
         11    1    3    3    0    0  0.66617692658E+01 -0.17224426275E+02 -0.26162866110E+02  0.32024296926E+02  0.51100000000E-03 0. -1.
        -11    1    3    3    0    0 -0.29679757441E+01 -0.10468855727E+02 -0.74291390991E+01  0.13175656654E+02  0.51100000000E-03 0.  1.
        -12    1    3    3    0    0 -0.36025617448E+01  0.28143236172E+02  0.34679724611E+02  0.44807404438E+02  0.00000000000E+00 0.  1.
</event>
<event>
 7    1  0.1698110E-015  0.9000776E+02  0.7816164E-02  0.1186339E+00
        -11   -1    0    0    0    0  0.00000000000E+00  0.00000000000E+00  0.45593999997E+02  0.45594000000E+02  0.51100000000E-03 0.  1.
         11   -1    0    0    0    0 -0.00000000000E+00 -0.00000000000E+00 -0.45593999997E+02  0.45594000000E+02  0.51100000000E-03 0. -1.
    9900012    2    1    2    0    0 -0.10734499024E+01 -0.42456376476E+00 -0.24577673714E+00  0.90007764732E+02  0.90000026426E+02 0.  0.
         12    1    1    2    0    0  0.10734499024E+01  0.42456376476E+00  0.24577673714E+00  0.11802352680E+01  0.00000000000E+00 0. -1.
         11    1    3    3    0    0  0.34320876825E+01 -0.33296342823E+02 -0.13710686588E+02  0.36171931082E+02  0.51100000000E-03 0. -1.
        -11    1    3    3    0    0 -0.92104627579E+01 -0.68087056948E+01 -0.61229884097E+00  0.11470222648E+02  0.51100000000E-03 0.  1.
        -12    1    3    3    0    0  0.47049251730E+01  0.39680484753E+02  0.14077208692E+02  0.42365611003E+02  0.00000000000E+00 0.  1.
</event>
<event>
 7    1  0.1698110E-015  0.9000772E+02  0.7816164E-02  0.1186339E+00
        -11   -1    0    0    0    0  0.00000000000E+00  0.00000000000E+00  0.45593999997E+02  0.45594000000E+02  0.51100000000E-03 0.  1.
         11   -1    0    0    0    0 -0.00000000000E+00 -0.00000000000E+00 -0.45593999997E+02  0.45594000000E+02  0.51100000000E-03 0. -1.
    9900012    2    1    2    0    0  0.48515788760E+00 -0.67645255133E+00 -0.83671809744E+00  0.90007718930E+02  0.89999980020E+02 0.  0.
         12    1    1    2    0    0 -0.48515788760E+00  0.67645255133E+00  0.83671809744E+00  0.11802810702E+01  0.00000000000E+00 0. -1.
         11    1    3    3    0    0  0.33344113717E+02  0.47264812840E+01  0.10603286239E+02  0.35307212071E+02  0.51100000000E-03 0. -1.
        -11    1    3    3    0    0  0.72325382787E+01  0.50681471397E+01  0.49689507985E+01  0.10133419841E+02  0.51100000000E-03 0.  1.
        -12    1    3    3    0    0 -0.40091494108E+02 -0.10471080975E+02 -0.16408955135E+02  0.44567087017E+02  0.00000000000E+00 0.  1.
</event>
<event>
 7    1  0.1698110E-015  0.9000760E+02  0.7816164E-02  0.1186339E+00
        -11   -1    0    0    0    0  0.00000000000E+00  0.00000000000E+00  0.45593999997E+02  0.45594000000E+02  0.51100000000E-03 0.  1.
         11   -1    0    0    0    0 -0.00000000000E+00 -0.00000000000E+00 -0.45593999997E+02  0.45594000000E+02  0.51100000000E-03 0. -1.
    9900012    2    1    2    0    0 -0.12386326978E+00 -0.10468005286E+01  0.53122813282E+00  0.90007603124E+02  0.89999862685E+02 0.  0.
         12    1    1    2    0    0  0.12386326978E+00  0.10468005286E+01 -0.53122813282E+00  0.11803968762E+01  0.00000000000E+00 0. -1.
         11    1    3    3    0    0  0.30491423333E+02 -0.21996682932E+02 -0.38236696290E+01  0.37791552053E+02  0.51100000000E-03 0. -1.
        -11    1    3    3    0    0 -0.16329385339E+01 -0.95050873046E+01  0.31909610832E+01  0.10158513957E+02  0.51100000000E-03 0.  1.
        -12    1    3    3    0    0 -0.28982348069E+02  0.30454969707E+02  0.11639366786E+01  0.42057537114E+02  0.00000000000E+00 0.  1.
</event>
<event>
 7    1  0.1698110E-015  0.9000780E+02  0.7816164E-02  0.1186339E+00
        -11   -1    0    0    0    0  0.00000000000E+00  0.00000000000E+00  0.45593999997E+02  0.45594000000E+02  0.51100000000E-03 0.  1.
         11   -1    0    0    0    0 -0.00000000000E+00 -0.00000000000E+00 -0.45593999997E+02  0.45594000000E+02  0.51100000000E-03 0. -1.
    9900012    2    1    2    0    0  0.59357955104E+00 -0.93823774029E+00  0.40031925973E+00  0.90007795674E+02  0.90000057777E+02 0.  0.
         12    1    1    2    0    0 -0.59357955104E+00  0.93823774029E+00 -0.40031925973E+00  0.11802043257E+01  0.00000000000E+00 0. -1.
         11    1    3    3    0    0  0.34795928377E+02 -0.18746677594E+02 -0.62495030534E+01  0.40015632459E+02  0.51100000000E-03 0. -1.
        -11    1    3    3    0    0  0.11901365873E+01  0.19619194003E+01 -0.81643698419E+01  0.84807127063E+01  0.51100000000E-03 0.  1.
        -12    1    3    3    0    0 -0.35392485413E+02  0.15846520453E+02  0.14814192155E+02  0.41511450509E+02  0.00000000000E+00 0.  1.
</event>
<event>
 7    1  0.1698110E-015  0.9000763E+02  0.7816164E-02  0.1186339E+00
        -11   -1    0    0    0    0  0.00000000000E+00  0.00000000000E+00  0.45593999997E+02  0.45594000000E+02  0.51100000000E-03 0.  1.
         11   -1    0    0    0    0 -0.00000000000E+00 -0.00000000000E+00 -0.45593999997E+02  0.45594000000E+02  0.51100000000E-03 0. -1.
    9900012    2    1    2    0    0  0.75966485150E+00  0.47933844239E+00  0.76577308843E+00  0.90007633764E+02  0.89999893729E+02 0.  0.
         12    1    1    2    0    0 -0.75966485150E+00 -0.47933844239E+00 -0.76577308843E+00  0.11803662364E+01  0.00000000000E+00 0. -1.
         11    1    3    3    0    0  0.12501165780E+01  0.26011538535E+01 -0.37522849747E+02  0.37633669051E+02  0.51100000000E-03 0. -1.
        -11    1    3    3    0    0  0.66738407861E+01  0.38136645931E+01 -0.42818112476E+01  0.87987553829E+01  0.51100000000E-03 0.  1.
        -12    1    3    3    0    0 -0.71642925126E+01 -0.59354800042E+01  0.42570434083E+02  0.43575209330E+02  0.00000000000E+00 0.  1.
</event>
<event>
 7    1  0.1698110E-015  0.9000791E+02  0.7816164E-02  0.1186339E+00
        -11   -1    0    0    0    0  0.00000000000E+00  0.00000000000E+00  0.45593999997E+02  0.45594000000E+02  0.51100000000E-03 0. -1.
         11   -1    0    0    0    0 -0.00000000000E+00 -0.00000000000E+00 -0.45593999997E+02  0.45594000000E+02  0.51100000000E-03 0.  1.
    9900012    2    1    2    0    0  0.70144637517E+00 -0.59655773853E+00 -0.73804840489E+00  0.90007905258E+02  0.90000168807E+02 0.  0.
         12    1    1    2    0    0 -0.70144637517E+00  0.59655773853E+00  0.73804840489E+00  0.11800947422E+01  0.00000000000E+00 0. -1.
         11    1    3    3    0    0  0.48445942011E+01 -0.13623926371E+02 -0.62705454023E+01  0.15760748797E+02  0.51100000000E-03 0. -1.
        -11    1    3    3    0    0 -0.36646598371E+02  0.10677319655E+02  0.13864844615E+02  0.40610494255E+02  0.51100000000E-03 0.  1.
         12    1    3    3    0    0  0.32503450545E+02  0.23500489773E+01 -0.83323476176E+01  0.33636662206E+02  0.00000000000E+00 0. -1.
</event>
<event>
 7    1  0.1698110E-015  0.9000771E+02  0.7816164E-02  0.1186339E+00
        -11   -1    0    0    0    0  0.00000000000E+00  0.00000000000E+00  0.45593999997E+02  0.45594000000E+02  0.51100000000E-03 0.  1.
         11   -1    0    0    0    0 -0.00000000000E+00 -0.00000000000E+00 -0.45593999997E+02  0.45594000000E+02  0.51100000000E-03 0. -1.
    9900012    2    1    2    0    0 -0.41606565236E+00 -0.80233840481E+00  0.75909161099E+00  0.90007712909E+02  0.89999973920E+02 0.  0.
         12    1    1    2    0    0  0.41606565236E+00  0.80233840481E+00 -0.75909161099E+00  0.11802870908E+01  0.00000000000E+00 0. -1.
         11    1    3    3    0    0 -0.23421341596E+01  0.81521340900E+01 -0.28196955639E+02  0.29445053748E+02  0.51100000000E-03 0. -1.
        -11    1    3    3    0    0  0.13641225278E+02 -0.56919170200E+00 -0.11352850154E+02  0.17756525931E+02  0.51100000000E-03 0.  1.
        -12    1    3    3    0    0 -0.11715156770E+02 -0.83852807929E+01  0.40308897404E+02  0.42806133230E+02  0.00000000000E+00 0.  1.
</event>
<event>
 7    1  0.1698110E-015  0.9000762E+02  0.7816164E-02  0.1186339E+00
        -11   -1    0    0    0    0  0.00000000000E+00  0.00000000000E+00  0.45593999997E+02  0.45594000000E+02  0.51100000000E-03 0.  1.
         11   -1    0    0    0    0 -0.00000000000E+00 -0.00000000000E+00 -0.45593999997E+02  0.45594000000E+02  0.51100000000E-03 0. -1.
    9900012    2    1    2    0    0  0.81741157687E+00 -0.57380866983E+00  0.62918403399E+00  0.90007622677E+02  0.89999882496E+02 0.  0.
         12    1    1    2    0    0 -0.81741157687E+00  0.57380866983E+00 -0.62918403399E+00  0.11803773228E+01  0.00000000000E+00 0. -1.
         11    1    3    3    0    0 -0.86319584273E+01 -0.19032108718E+01  0.15997940789E+01  0.89828870230E+01  0.51100000000E-03 0. -1.
        -11    1    3    3    0    0 -0.34430429239E+02 -0.19165062401E+01 -0.10416291977E+02  0.36022584479E+02  0.51100000000E-03 0.  1.
         12    1    3    3    0    0  0.43879799243E+02  0.32459084420E+01  0.94456819318E+01  0.45002151175E+02  0.00000000000E+00 0. -1.
</event>
<event>
 7    1  0.1698110E-015  0.9000739E+02  0.7816164E-02  0.1186340E+00
        -11   -1    0    0    0    0  0.00000000000E+00  0.00000000000E+00  0.45593999997E+02  0.45594000000E+02  0.51100000000E-03 0.  1.
         11   -1    0    0    0    0 -0.00000000000E+00 -0.00000000000E+00 -0.45593999997E+02  0.45594000000E+02  0.51100000000E-03 0. -1.
    9900012    2    1    2    0    0  0.71895907703E+00  0.17409977119E+00  0.92012406026E+00  0.90007389492E+02  0.89999646233E+02 0.  0.
         12    1    1    2    0    0 -0.71895907703E+00 -0.17409977119E+00 -0.92012406026E+00  0.11806105078E+01  0.00000000000E+00 0. -1.
         11    1    3    3    0    0  0.67400917734E+01 -0.37674151375E+02  0.66647243973E+01  0.38848282723E+02  0.51100000000E-03 0. -1.
        -11    1    3    3    0    0 -0.66215580730E+01 -0.47385083716E+01 -0.21218559158E+01  0.84143190866E+01  0.51100000000E-03 0.  1.
        -12    1    3    3    0    0  0.60042537663E+00  0.42586759518E+02 -0.36227444213E+01  0.42744787683E+02  0.00000000000E+00 0.  1.
</event>
<event>
 7    1  0.1698110E-015  0.9000782E+02  0.7816164E-02  0.1186339E+00
        -11   -1    0    0    0    0  0.00000000000E+00  0.00000000000E+00  0.45593999997E+02  0.45594000000E+02  0.51100000000E-03 0.  1.
         11   -1    0    0    0    0 -0.00000000000E+00 -0.00000000000E+00 -0.45593999997E+02  0.45594000000E+02  0.51100000000E-03 0. -1.
    9900012    2    1    2    0    0 -0.59627376247E+00  0.56732797289E+00  0.84581906508E+00  0.90007824878E+02  0.90000087366E+02 0.  0.
         12    1    1    2    0    0  0.59627376247E+00 -0.56732797289E+00 -0.84581906508E+00  0.11801751224E+01  0.00000000000E+00 0. -1.
         11    1    3    3    0    0  0.34425614730E+02 -0.27116363584E+02  0.40952015021E+01  0.44013529729E+02  0.51100000000E-03 0. -1.
        -11    1    3    3    0    0 -0.83213403318E+01  0.14969220897E+01 -0.29490003310E-02  0.84549092023E+01  0.51100000000E-03 0.  1.
        -12    1    3    3    0    0 -0.26700548161E+02  0.26186769467E+02 -0.32464334367E+01  0.37539385947E+02  0.00000000000E+00 0.  1.
</event>
<event>
 7    1  0.1698110E-015  0.9000778E+02  0.7816164E-02  0.1186339E+00
        -11   -1    0    0    0    0  0.00000000000E+00  0.00000000000E+00  0.45593999997E+02  0.45594000000E+02  0.51100000000E-03 0.  1.
         11   -1    0    0    0    0 -0.00000000000E+00 -0.00000000000E+00 -0.45593999997E+02  0.45594000000E+02  0.51100000000E-03 0. -1.
    9900012    2    1    2    0    0 -0.32852341564E+00  0.83146297283E+00  0.77049856718E+00  0.90007776991E+02  0.90000038847E+02 0.  0.
         12    1    1    2    0    0  0.32852341564E+00 -0.83146297283E+00 -0.77049856718E+00  0.11802230094E+01  0.00000000000E+00 0. -1.
         11    1    3    3    0    0  0.81065662566E+01 -0.41432748258E+01  0.12286787539E+01  0.91865550941E+01  0.51100000000E-03 0. -1.
        -11    1    3    3    0    0  0.12510866976E+02 -0.23932900768E+02 -0.25557796308E+02  0.37182072078E+02  0.51100000000E-03 0.  1.
         12    1    3    3    0    0 -0.20945956649E+02  0.28907638566E+02  0.25099616121E+02  0.43639149818E+02  0.00000000000E+00 0. -1.
</event>
<event>
 7    1  0.1698110E-015  0.9000774E+02  0.7816164E-02  0.1186339E+00
        -11   -1    0    0    0    0  0.00000000000E+00  0.00000000000E+00  0.45593999997E+02  0.45594000000E+02  0.51100000000E-03 0. -1.
         11   -1    0    0    0    0 -0.00000000000E+00 -0.00000000000E+00 -0.45593999997E+02  0.45594000000E+02  0.51100000000E-03 0.  1.
    9900012    2    1    2    0    0  0.72199792657E+00 -0.67430131289E+00 -0.64579876306E+00  0.90007737610E+02  0.89999998947E+02 0.  0.
         12    1    1    2    0    0 -0.72199792657E+00  0.67430131289E+00  0.64579876306E+00  0.11802623899E+01  0.00000000000E+00 0. -1.
         11    1    3    3    0    0 -0.26409457640E+02  0.16713612781E+02  0.25715145569E+02  0.40473114742E+02  0.51100000000E-03 0. -1.
        -11    1    3    3    0    0 -0.13358201753E+01 -0.80948897221E+01  0.18312054363E+01  0.84062458187E+01  0.51100000000E-03 0.  1.
        -12    1    3    3    0    0  0.28467275742E+02 -0.92930243720E+01 -0.28192149768E+02  0.41128377049E+02  0.00000000000E+00 0.  1.
</event>
<event>
 7    1  0.1698110E-015  0.9000801E+02  0.7816164E-02  0.1186339E+00
        -11   -1    0    0    0    0  0.00000000000E+00  0.00000000000E+00  0.45593999997E+02  0.45594000000E+02  0.51100000000E-03 0.  1.
         11   -1    0    0    0    0 -0.00000000000E+00 -0.00000000000E+00 -0.45593999997E+02  0.45594000000E+02  0.51100000000E-03 0. -1.
    9900012    2    1    2    0    0  0.36975908945E+00  0.88154470526E+00  0.69176018053E+00  0.90008010594E+02  0.90000275533E+02 0.  0.
         12    1    1    2    0    0 -0.36975908945E+00 -0.88154470526E+00 -0.69176018053E+00  0.11799894063E+01  0.00000000000E+00 0. -1.
         11    1    3    3    0    0 -0.53165288788E+01 -0.49701438409E+01  0.57603208284E+01  0.92816542398E+01  0.51100000000E-03 0. -1.
        -11    1    3    3    0    0  0.39231521193E+02 -0.62759971225E+01  0.11549594016E+02  0.41375034951E+02  0.51100000000E-03 0.  1.
         12    1    3    3    0    0 -0.33545233224E+02  0.12127685669E+02 -0.16618154664E+02  0.39351321403E+02  0.00000000000E+00 0. -1.
</event>
<event>
 7    1  0.1698110E-015  0.9000774E+02  0.7816164E-02  0.1186339E+00
        -11   -1    0    0    0    0  0.00000000000E+00  0.00000000000E+00  0.45593999997E+02  0.45594000000E+02  0.51100000000E-03 0.  1.
         11   -1    0    0    0    0 -0.00000000000E+00 -0.00000000000E+00 -0.45593999997E+02  0.45594000000E+02  0.51100000000E-03 0. -1.
    9900012    2    1    2    0    0  0.11099380608E+01  0.23552377840E+00  0.32492174822E+00  0.90007742362E+02  0.90000003761E+02 0.  0.
         12    1    1    2    0    0 -0.11099380608E+01 -0.23552377840E+00 -0.32492174822E+00  0.11802576377E+01  0.00000000000E+00 0. -1.
         11    1    3    3    0    0 -0.60477710591E+01  0.91366167194E+01 -0.17147072351E+01  0.11090244408E+02  0.51100000000E-03 0. -1.
        -11    1    3    3    0    0 -0.24557443725E+02  0.19004874746E+02  0.15331857274E+02  0.34631187593E+02  0.51100000000E-03 0.  1.
         12    1    3    3    0    0  0.31715152845E+02 -0.27905967687E+02 -0.13292228291E+02  0.44286310361E+02  0.00000000000E+00 0. -1.
</event>
<event>
 7    1  0.1698110E-015  0.9000766E+02  0.7816164E-02  0.1186339E+00
        -11   -1    0    0    0    0  0.00000000000E+00  0.00000000000E+00  0.45593999997E+02  0.45594000000E+02  0.51100000000E-03 0.  1.
         11   -1    0    0    0    0 -0.00000000000E+00 -0.00000000000E+00 -0.45593999997E+02  0.45594000000E+02  0.51100000000E-03 0. -1.
    9900012    2    1    2    0    0  0.51762297632E+00 -0.15288921169E+00  0.10497159481E+01  0.90007655886E+02  0.89999916143E+02 0.  0.
         12    1    1    2    0    0 -0.51762297632E+00  0.15288921169E+00 -0.10497159481E+01  0.11803441144E+01  0.00000000000E+00 0. -1.
         11    1    3    3    0    0  0.15553696933E+02 -0.39229177411E+01 -0.10981252850E+02  0.19439513530E+02  0.51100000000E-03 0. -1.
        -11    1    3    3    0    0  0.26082942009E+02 -0.67283935428E+01  0.70106038137E+01  0.27834146468E+02  0.51100000000E-03 0.  1.
         12    1    3    3    0    0 -0.41119015965E+02  0.10498422072E+02  0.50203649847E+01  0.42733995887E+02  0.00000000000E+00 0. -1.
</event>
<event>
 7    1  0.1698110E-015  0.9000770E+02  0.7816164E-02  0.1186339E+00
        -11   -1    0    0    0    0  0.00000000000E+00  0.00000000000E+00  0.45593999997E+02  0.45594000000E+02  0.51100000000E-03 0.  1.
         11   -1    0    0    0    0 -0.00000000000E+00 -0.00000000000E+00 -0.45593999997E+02  0.45594000000E+02  0.51100000000E-03 0. -1.
    9900012    2    1    2    0    0  0.24862994878E-01  0.63762006928E+00  0.99294574521E+00  0.90007695474E+02  0.89999956254E+02 0.  0.
         12    1    1    2    0    0 -0.24862994878E-01 -0.63762006928E+00 -0.99294574521E+00  0.11803045260E+01  0.00000000000E+00 0. -1.
         11    1    3    3    0    0  0.26636399916E+01  0.67736158081E+01  0.50700640241E+00  0.72961568564E+01  0.51100000000E-03 0. -1.
        -11    1    3    3    0    0  0.35013166901E+01 -0.34026276118E+01  0.41178876738E+02  0.41467300164E+02  0.51100000000E-03 0.  1.
         12    1    3    3    0    0 -0.61400936868E+01 -0.27333681270E+01 -0.40692937395E+02  0.41244238454E+02  0.00000000000E+00 0. -1.
</event>
<event>
 7    1  0.1698110E-015  0.9000780E+02  0.7816164E-02  0.1186339E+00
        -11   -1    0    0    0    0  0.00000000000E+00  0.00000000000E+00  0.45593999997E+02  0.45594000000E+02  0.51100000000E-03 0.  1.
         11   -1    0    0    0    0 -0.00000000000E+00 -0.00000000000E+00 -0.45593999997E+02  0.45594000000E+02  0.51100000000E-03 0. -1.
    9900012    2    1    2    0    0 -0.77380296649E+00  0.36689161154E+00 -0.81208916710E+00  0.90007801160E+02  0.90000063336E+02 0.  0.
         12    1    1    2    0    0  0.77380296649E+00 -0.36689161154E+00  0.81208916710E+00  0.11801988396E+01  0.00000000000E+00 0. -1.
         11    1    3    3    0    0 -0.10010917097E+02 -0.36257517947E+02 -0.89418799551E+01  0.38662427319E+02  0.51100000000E-03 0. -1.
        -11    1    3    3    0    0  0.80167569091E+01 -0.42538935091E+01 -0.18194263024E+01  0.92560420082E+01  0.51100000000E-03 0.  1.
        -12    1    3    3    0    0  0.12203572210E+01  0.40878303068E+02  0.99492170903E+01  0.42089331833E+02  0.00000000000E+00 0.  1.
</event>
<event>
 7    1  0.1698110E-015  0.9000758E+02  0.7816164E-02  0.1186339E+00
        -11   -1    0    0    0    0  0.00000000000E+00  0.00000000000E+00  0.45593999997E+02  0.45594000000E+02  0.51100000000E-03 0.  1.
         11   -1    0    0    0    0 -0.00000000000E+00 -0.00000000000E+00 -0.45593999997E+02  0.45594000000E+02  0.51100000000E-03 0. -1.
    9900012    2    1    2    0    0  0.11261026547E+01 -0.20814041629E+00  0.28629473843E+00  0.90007578762E+02  0.89999838002E+02 0.  0.
         12    1    1    2    0    0 -0.11261026547E+01  0.20814041629E+00 -0.28629473843E+00  0.11804212380E+01  0.00000000000E+00 0. -1.
         11    1    3    3    0    0 -0.85833549229E+01  0.29296174506E+01 -0.58802850809E+01  0.10808995931E+02  0.51100000000E-03 0. -1.
        -11    1    3    3    0    0 -0.60002801157E+01  0.35794980456E+02 -0.23129374077E+01  0.36368030837E+02  0.51100000000E-03 0.  1.
         12    1    3    3    0    0  0.15709737693E+02 -0.38932738322E+02  0.84795172271E+01  0.42830551994E+02  0.00000000000E+00 0. -1.
</event>
<event>
 7    1  0.1698110E-015  0.9000769E+02  0.7816164E-02  0.1186339E+00
        -11   -1    0    0    0    0  0.00000000000E+00  0.00000000000E+00  0.45593999997E+02  0.45594000000E+02  0.51100000000E-03 0.  1.
         11   -1    0    0    0    0 -0.00000000000E+00 -0.00000000000E+00 -0.45593999997E+02  0.45594000000E+02  0.51100000000E-03 0. -1.
    9900012    2    1    2    0    0  0.82954447081E+00 -0.52796496817E+00 -0.65287809778E+00  0.90007686123E+02  0.89999946780E+02 0.  0.
         12    1    1    2    0    0 -0.82954447081E+00  0.52796496817E+00  0.65287809778E+00  0.11803138766E+01  0.00000000000E+00 0. -1.
         11    1    3    3    0    0 -0.86877300751E+01 -0.30258688380E+02  0.21152796721E+02  0.37927637492E+02  0.51100000000E-03 0. -1.
        -11    1    3    3    0    0 -0.50395348691E+00  0.16876335134E+01  0.90368973600E+01  0.92069316359E+01  0.51100000000E-03 0.  1.
        -12    1    3    3    0    0  0.10021228033E+02  0.28043089899E+02 -0.30842572178E+02  0.42873116996E+02  0.00000000000E+00 0.  1.
</event>
<event>
 7    1  0.1698110E-015  0.9000779E+02  0.7816164E-02  0.1186339E+00
        -11   -1    0    0    0    0  0.00000000000E+00  0.00000000000E+00  0.45593999997E+02  0.45594000000E+02  0.51100000000E-03 0.  1.
         11   -1    0    0    0    0 -0.00000000000E+00 -0.00000000000E+00 -0.45593999997E+02  0.45594000000E+02  0.51100000000E-03 0. -1.
    9900012    2    1    2    0    0 -0.25872227668E-01 -0.10271688668E+01  0.58063761476E+00  0.90007794385E+02  0.90000056471E+02 0.  0.
         12    1    1    2    0    0  0.25872227668E-01  0.10271688668E+01 -0.58063761476E+00  0.11802056146E+01  0.00000000000E+00 0. -1.
         11    1    3    3    0    0 -0.57803465531E+01 -0.35507835528E+02  0.86681915661E+01  0.37004815030E+02  0.51100000000E-03 0. -1.
        -11    1    3    3    0    0  0.30048649977E+01 -0.38559856812E+01  0.95390568219E+01  0.10718742675E+02  0.51100000000E-03 0.  1.
        -12    1    3    3    0    0  0.27496093278E+01  0.38336652342E+02 -0.17626610773E+02  0.42284236680E+02  0.00000000000E+00 0.  1.
</event>
<event>
 7    1  0.1698110E-015  0.9000771E+02  0.7816164E-02  0.1186339E+00
        -11   -1    0    0    0    0  0.00000000000E+00  0.00000000000E+00  0.45593999997E+02  0.45594000000E+02  0.51100000000E-03 0.  1.
         11   -1    0    0    0    0 -0.00000000000E+00 -0.00000000000E+00 -0.45593999997E+02  0.45594000000E+02  0.51100000000E-03 0. -1.
    9900012    2    1    2    0    0 -0.79199003070E+00  0.84945694459E+00 -0.21038174466E+00  0.90007709448E+02  0.89999970412E+02 0.  0.
         12    1    1    2    0    0  0.79199003070E+00 -0.84945694459E+00  0.21038174466E+00  0.11802905523E+01  0.00000000000E+00 0. -1.
         11    1    3    3    0    0  0.25770778472E+02  0.27747993303E+02 -0.13571355682E+02  0.40227675183E+02  0.51100000000E-03 0. -1.
        -11    1    3    3    0    0 -0.83362712459E+01  0.51277717057E+01 -0.17683015552E+01  0.99455694458E+01  0.51100000000E-03 0.  1.
        -12    1    3    3    0    0 -0.18226497257E+02 -0.32026308064E+02  0.15129275492E+02  0.39834464818E+02  0.00000000000E+00 0.  1.
</event>
<event>
 7    1  0.1698110E-015  0.9000763E+02  0.7816164E-02  0.1186339E+00
        -11   -1    0    0    0    0  0.00000000000E+00  0.00000000000E+00  0.45593999997E+02  0.45594000000E+02  0.51100000000E-03 0. -1.
         11   -1    0    0    0    0 -0.00000000000E+00 -0.00000000000E+00 -0.45593999997E+02  0.45594000000E+02  0.51100000000E-03 0.  1.
    9900012    2    1    2    0    0  0.35085254877E+00  0.11236148994E+01  0.87517214223E-01  0.90007632593E+02  0.89999892543E+02 0.  0.
         12    1    1    2    0    0 -0.35085254877E+00 -0.11236148994E+01 -0.87517214223E-01  0.11803674072E+01  0.00000000000E+00 0. -1.
         11    1    3    3    0    0 -0.70357491772E+01  0.20089083589E+02  0.21461626155E+02  0.30227048209E+02  0.51100000000E-03 0. -1.
        -11    1    3    3    0    0  0.55930697107E+00  0.17418895550E+02 -0.13217914766E+02  0.21873363195E+02  0.51100000000E-03 0.  1.
        -12    1    3    3    0    0  0.68272947549E+01 -0.36384364240E+02 -0.81561941752E+01  0.37907221189E+02  0.00000000000E+00 0.  1.
</event>
<event>
 7    1  0.1698110E-015  0.9000773E+02  0.7816164E-02  0.1186339E+00
        -11   -1    0    0    0    0  0.00000000000E+00  0.00000000000E+00  0.45593999997E+02  0.45594000000E+02  0.51100000000E-03 0. -1.
         11   -1    0    0    0    0 -0.00000000000E+00 -0.00000000000E+00 -0.45593999997E+02  0.45594000000E+02  0.51100000000E-03 0.  1.
    9900012    2    1    2    0    0 -0.34191230337E+00  0.11029494002E+01  0.24421054213E+00  0.90007728764E+02  0.89999989983E+02 0.  0.
         12    1    1    2    0    0  0.34191230337E+00 -0.11029494002E+01 -0.24421054213E+00  0.11802712364E+01  0.00000000000E+00 0. -1.
         11    1    3    3    0    0 -0.79794711416E+01  0.17124843813E+01  0.38492250691E+02  0.39347908788E+02  0.51100000000E-03 0. -1.
        -11    1    3    3    0    0 -0.10565246669E+02 -0.15624328923E+01 -0.31900883154E+01  0.11146402893E+02  0.51100000000E-03 0.  1.
        -12    1    3    3    0    0  0.18202805508E+02  0.95289791114E+00 -0.35057951834E+02  0.39513417083E+02  0.00000000000E+00 0.  1.
</event>
<event>
 7    1  0.1698110E-015  0.9000764E+02  0.7816164E-02  0.1186339E+00
        -11   -1    0    0    0    0  0.00000000000E+00  0.00000000000E+00  0.45593999997E+02  0.45594000000E+02  0.51100000000E-03 0.  1.
         11   -1    0    0    0    0 -0.00000000000E+00 -0.00000000000E+00 -0.45593999997E+02  0.45594000000E+02  0.51100000000E-03 0. -1.
    9900012    2    1    2    0    0  0.35105044653E+00 -0.25675118751E+00  0.10973156497E+01  0.90007635978E+02  0.89999895973E+02 0.  0.
         12    1    1    2    0    0 -0.35105044653E+00  0.25675118751E+00 -0.10973156497E+01  0.11803640216E+01  0.00000000000E+00 0. -1.
         11    1    3    3    0    0  0.30805980566E+01  0.69062652425E+01 -0.36245348419E+02  0.37025827016E+02  0.51100000000E-03 0. -1.
        -11    1    3    3    0    0  0.31877585317E+01 -0.51028664596E+01 -0.64049694710E+01  0.87877576632E+01  0.51100000000E-03 0.  1.
        -12    1    3    3    0    0 -0.59173061418E+01 -0.20601499704E+01  0.43747633540E+02  0.44194051299E+02  0.00000000000E+00 0.  1.
</event>
<event>
 7    1  0.1698110E-015  0.9000770E+02  0.7816164E-02  0.1186339E+00
        -11   -1    0    0    0    0  0.00000000000E+00  0.00000000000E+00  0.45593999997E+02  0.45594000000E+02  0.51100000000E-03 0. -1.
         11   -1    0    0    0    0 -0.00000000000E+00 -0.00000000000E+00 -0.45593999997E+02  0.45594000000E+02  0.51100000000E-03 0.  1.
    9900012    2    1    2    0    0  0.38484836264E-01  0.10558060945E+01 -0.52620943149E+00  0.90007701751E+02  0.89999962614E+02 0.  0.
         12    1    1    2    0    0 -0.38484836264E-01 -0.10558060945E+01  0.52620943149E+00  0.11802982495E+01  0.00000000000E+00 0. -1.
         11    1    3    3    0    0  0.24624471237E+01  0.39457563185E+02  0.84560528499E+01  0.40428551401E+02  0.51100000000E-03 0. -1.
        -11    1    3    3    0    0 -0.10847261467E+02 -0.21737965774E+01 -0.51027990451E+01  0.12183063295E+02  0.51100000000E-03 0.  1.
        -12    1    3    3    0    0  0.84232991796E+01 -0.36227960513E+02 -0.38794632363E+01  0.37396087055E+02  0.00000000000E+00 0.  1.
</event>
<event>
 7    1  0.1698110E-015  0.9000763E+02  0.7816164E-02  0.1186339E+00
        -11   -1    0    0    0    0  0.00000000000E+00  0.00000000000E+00  0.45593999997E+02  0.45594000000E+02  0.51100000000E-03 0. -1.
         11   -1    0    0    0    0 -0.00000000000E+00 -0.00000000000E+00 -0.45593999997E+02  0.45594000000E+02  0.51100000000E-03 0.  1.
    9900012    2    1    2    0    0 -0.87118232477E+00 -0.63725670171E+00  0.47771861537E+00  0.90007631489E+02  0.89999891424E+02 0.  0.
         12    1    1    2    0    0  0.87118232477E+00  0.63725670171E+00 -0.47771861537E+00  0.11803685112E+01  0.00000000000E+00 0. -1.
         11    1    3    3    0    0 -0.75649726382E+01  0.22249179526E+02  0.13405120509E+02  0.27054612485E+02  0.51100000000E-03 0. -1.
        -11    1    3    3    0    0 -0.19339486566E+01 -0.24941616903E+02  0.17973983372E+02  0.30804033659E+02  0.51100000000E-03 0.  1.
        -12    1    3    3    0    0  0.86277389701E+01  0.20551806749E+01 -0.30901385266E+02  0.32148985344E+02  0.00000000000E+00 0.  1.
</event>
<event>
 7    1  0.1698110E-015  0.9000768E+02  0.7816164E-02  0.1186339E+00
        -11   -1    0    0    0    0  0.00000000000E+00  0.00000000000E+00  0.45593999997E+02  0.45594000000E+02  0.51100000000E-03 0.  1.
         11   -1    0    0    0    0 -0.00000000000E+00 -0.00000000000E+00 -0.45593999997E+02  0.45594000000E+02  0.51100000000E-03 0. -1.
    9900012    2    1    2    0    0  0.25060145799E+00 -0.41975830882E+00  0.10743173287E+01  0.90007679767E+02  0.89999940340E+02 0.  0.
         12    1    1    2    0    0 -0.25060145799E+00  0.41975830882E+00 -0.10743173287E+01  0.11803202326E+01  0.00000000000E+00 0. -1.
         11    1    3    3    0    0  0.10246688033E+01  0.77648370639E+01  0.56295823311E+01  0.96454568720E+01  0.51100000000E-03 0. -1.
        -11    1    3    3    0    0  0.13995536049E+02 -0.10456154439E+02  0.34431346712E+02  0.38609892924E+02  0.51100000000E-03 0.  1.
         12    1    3    3    0    0 -0.14769603394E+02  0.22715590667E+01 -0.38986611715E+02  0.41752329971E+02  0.00000000000E+00 0. -1.
</event>
<event>
 7    1  0.1698110E-015  0.9000778E+02  0.7816164E-02  0.1186339E+00
        -11   -1    0    0    0    0  0.00000000000E+00  0.00000000000E+00  0.45593999997E+02  0.45594000000E+02  0.51100000000E-03 0.  1.
         11   -1    0    0    0    0 -0.00000000000E+00 -0.00000000000E+00 -0.45593999997E+02  0.45594000000E+02  0.51100000000E-03 0. -1.
    9900012    2    1    2    0    0  0.41456681945E+00 -0.45300458254E+00  0.10078886117E+01  0.90007780422E+02  0.90000042323E+02 0.  0.
         12    1    1    2    0    0 -0.41456681945E+00  0.45300458254E+00 -0.10078886117E+01  0.11802195784E+01  0.00000000000E+00 0. -1.
         11    1    3    3    0    0 -0.90424765869E+01  0.33288011175E+02 -0.14669472451E+02  0.37484016501E+02  0.51100000000E-03 0. -1.
        -11    1    3    3    0    0 -0.29481290257E+01  0.60909830071E+01  0.73334454155E+01  0.99785249746E+01  0.51100000000E-03 0.  1.
        -12    1    3    3    0    0  0.12405172432E+02 -0.39831998765E+02  0.83439156472E+01  0.42545238946E+02  0.00000000000E+00 0.  1.
</event>
<event>
 7    1  0.1698110E-015  0.9000767E+02  0.7816164E-02  0.1186339E+00
        -11   -1    0    0    0    0  0.00000000000E+00  0.00000000000E+00  0.45593999997E+02  0.45594000000E+02  0.51100000000E-03 0. -1.
         11   -1    0    0    0    0 -0.00000000000E+00 -0.00000000000E+00 -0.45593999997E+02  0.45594000000E+02  0.51100000000E-03 0.  1.
    9900012    2    1    2    0    0 -0.36308875683E-01 -0.10971594732E+01 -0.43370689588E+00  0.90007669997E+02  0.89999930441E+02 0.  0.
         12    1    1    2    0    0  0.36308875683E-01  0.10971594732E+01  0.43370689588E+00  0.11803300029E+01  0.00000000000E+00 0. -1.
         11    1    3    3    0    0 -0.13847582772E+02 -0.31676936446E+01  0.68294818971E-01  0.14205438962E+02  0.51100000000E-03 0. -1.
        -11    1    3    3    0    0 -0.32204062992E+01  0.33867135283E+02  0.14181360841E+02  0.36857358350E+02  0.51100000000E-03 0.  1.
         12    1    3    3    0    0  0.17031680195E+02 -0.31796601112E+02 -0.14683362555E+02  0.38944872685E+02  0.00000000000E+00 0. -1.
</event>
<event>
 7    1  0.1698110E-015  0.9000772E+02  0.7816164E-02  0.1186339E+00
        -11   -1    0    0    0    0  0.00000000000E+00  0.00000000000E+00  0.45593999997E+02  0.45594000000E+02  0.51100000000E-03 0.  1.
         11   -1    0    0    0    0 -0.00000000000E+00 -0.00000000000E+00 -0.45593999997E+02  0.45594000000E+02  0.51100000000E-03 0. -1.
    9900012    2    1    2    0    0 -0.13442192218E-01  0.30908209424E-01  0.11797991366E+01  0.90007719520E+02  0.89999980617E+02 0.  0.
         12    1    1    2    0    0  0.13442192218E-01 -0.30908209424E-01 -0.11797991366E+01  0.11802804805E+01  0.00000000000E+00 0. -1.
         11    1    3    3    0    0 -0.87463394535E+00  0.93908133418E+01  0.11560078870E+01  0.95020373739E+01  0.51100000000E-03 0. -1.
        -11    1    3    3    0    0  0.85214080942E+01 -0.19701120010E+02  0.36212808597E+02  0.42096508552E+02  0.51100000000E-03 0.  1.
         12    1    3    3    0    0 -0.76602163411E+01  0.10341214877E+02 -0.36189017348E+02  0.38409173593E+02  0.00000000000E+00 0. -1.
</event>
<event>
 7    1  0.1698110E-015  0.9000773E+02  0.7816164E-02  0.1186339E+00
        -11   -1    0    0    0    0  0.00000000000E+00  0.00000000000E+00  0.45593999997E+02  0.45594000000E+02  0.51100000000E-03 0.  1.
         11   -1    0    0    0    0 -0.00000000000E+00 -0.00000000000E+00 -0.45593999997E+02  0.45594000000E+02  0.51100000000E-03 0. -1.
    9900012    2    1    2    0    0 -0.51187905353E+00  0.83199024022E+00  0.66242052447E+00  0.90007733557E+02  0.89999994840E+02 0.  0.
         12    1    1    2    0    0  0.51187905353E+00 -0.83199024022E+00 -0.66242052447E+00  0.11802664430E+01  0.00000000000E+00 0. -1.
         11    1    3    3    0    0 -0.31319852638E+01 -0.14386482905E+02 -0.32458299612E+02  0.35641568933E+02  0.51100000000E-03 0. -1.
        -11    1    3    3    0    0 -0.42886020694E+01 -0.10211084963E+02 -0.11511260053E+01  0.11134785817E+02  0.51100000000E-03 0.  1.
        -12    1    3    3    0    0  0.69087082797E+01  0.25429558108E+02  0.34271846141E+02  0.43231378808E+02  0.00000000000E+00 0.  1.
</event>
<event>
 7    1  0.1698110E-015  0.9000772E+02  0.7816164E-02  0.1186339E+00
        -11   -1    0    0    0    0  0.00000000000E+00  0.00000000000E+00  0.45593999997E+02  0.45594000000E+02  0.51100000000E-03 0. -1.
         11   -1    0    0    0    0 -0.00000000000E+00 -0.00000000000E+00 -0.45593999997E+02  0.45594000000E+02  0.51100000000E-03 0.  1.
    9900012    2    1    2    0    0  0.82776761521E+00 -0.83867903298E+00 -0.66989919606E-01  0.90007716392E+02  0.89999977449E+02 0.  0.
         12    1    1    2    0    0 -0.82776761521E+00  0.83867903298E+00  0.66989919606E-01  0.11802836076E+01  0.00000000000E+00 0. -1.
         11    1    3    3    0    0 -0.61495706151E+00  0.11758631739E+00 -0.10521119229E+02  0.10539731914E+02  0.51100000000E-03 0. -1.
        -11    1    3    3    0    0  0.17383990836E+02 -0.28203055617E+02 -0.17352867657E+02  0.37399699193E+02  0.51100000000E-03 0.  1.
         12    1    3    3    0    0 -0.15941266159E+02  0.27246790267E+02  0.27806996966E+02  0.42068285286E+02  0.00000000000E+00 0. -1.
</event>
<event>
 7    1  0.1839110E-015  0.9000776E+02  0.7816164E-02  0.1186339E+00
        -11   -1    0    0    0    0  0.00000000000E+00  0.00000000000E+00  0.45593999997E+02  0.45594000000E+02  0.51100000000E-03 0. -1.
         11   -1    0    0    0    0 -0.00000000000E+00 -0.00000000000E+00 -0.45593999997E+02  0.45594000000E+02  0.51100000000E-03 0.  1.
    9900012    2    1    2    0    0 -0.67844933027E+00 -0.71383630071E+00 -0.65046945171E+00  0.90007760081E+02  0.90000021714E+02 0.  0.
         12    1    1    2    0    0  0.67844933027E+00  0.71383630071E+00  0.65046945171E+00  0.11802399186E+01  0.00000000000E+00 0. -1.
         11    1    3    3    0    0  0.99850993804E+01 -0.33649744611E+01  0.22867911633E+01  0.10782146208E+02  0.51100000000E-03 0. -1.
        -11    1    3    3    0    0 -0.16984238584E+02  0.14695223846E+01 -0.39016264540E+02  0.42578078342E+02  0.51100000000E-03 0.  1.
         12    1    3    3    0    0  0.63206898734E+01  0.11816157758E+01  0.36079003925E+02  0.36647535532E+02  0.00000000000E+00 0. -1.
</event>
<event>
 7    1  0.1698110E-015  0.9000798E+02  0.7816164E-02  0.1186339E+00
        -11   -1    0    0    0    0  0.00000000000E+00  0.00000000000E+00  0.45593999997E+02  0.45594000000E+02  0.51100000000E-03 0.  1.
         11   -1    0    0    0    0 -0.00000000000E+00 -0.00000000000E+00 -0.45593999997E+02  0.45594000000E+02  0.51100000000E-03 0. -1.
    9900012    2    1    2    0    0 -0.51841821249E+00  0.34581700901E+00  0.10020496814E+01  0.90007978640E+02  0.90000243157E+02 0.  0.
         12    1    1    2    0    0  0.51841821249E+00 -0.34581700901E+00 -0.10020496814E+01  0.11800213603E+01  0.00000000000E+00 0. -1.
         11    1    3    3    0    0 -0.30086599094E+02  0.11506918437E+02 -0.24045061268E+02  0.40196736044E+02  0.51100000000E-03 0. -1.
        -11    1    3    3    0    0 -0.53605543441E+01 -0.15344771357E+01  0.80472055258E+01  0.97901828375E+01  0.51100000000E-03 0.  1.
        -12    1    3    3    0    0  0.34928735226E+02 -0.96266242922E+01  0.16999905423E+02  0.40021059758E+02  0.00000000000E+00 0.  1.
</event>
<event>
 7    1  0.1698110E-015  0.9000771E+02  0.7816164E-02  0.1186339E+00
        -11   -1    0    0    0    0  0.00000000000E+00  0.00000000000E+00  0.45593999997E+02  0.45594000000E+02  0.51100000000E-03 0.  1.
         11   -1    0    0    0    0 -0.00000000000E+00 -0.00000000000E+00 -0.45593999997E+02  0.45594000000E+02  0.51100000000E-03 0. -1.
    9900012    2    1    2    0    0  0.20018034062E+00  0.42837381490E+00  0.10814329799E+01  0.90007714618E+02  0.89999975650E+02 0.  0.
         12    1    1    2    0    0 -0.20018034062E+00 -0.42837381490E+00 -0.10814329799E+01  0.11802853825E+01  0.00000000000E+00 0. -1.
         11    1    3    3    0    0 -0.28649523211E+02  0.23838879266E+02 -0.11347840341E+02  0.38959733386E+02  0.51100000000E-03 0. -1.
        -11    1    3    3    0    0 -0.60372479817E+00 -0.32385870190E+01 -0.88809672378E+01  0.94723021939E+01  0.51100000000E-03 0.  1.
        -12    1    3    3    0    0  0.29453428350E+02 -0.20171918432E+02  0.21310240559E+02  0.41575679038E+02  0.00000000000E+00 0.  1.
</event>
<event>
 7    1  0.1698110E-015  0.9000774E+02  0.7816164E-02  0.1186339E+00
        -11   -1    0    0    0    0  0.00000000000E+00  0.00000000000E+00  0.45593999997E+02  0.45594000000E+02  0.51100000000E-03 0. -1.
         11   -1    0    0    0    0 -0.00000000000E+00 -0.00000000000E+00 -0.45593999997E+02  0.45594000000E+02  0.51100000000E-03 0.  1.
    9900012    2    1    2    0    0 -0.75727337656E+00 -0.74888050186E+00 -0.50866369385E+00  0.90007735739E+02  0.89999997051E+02 0.  0.
         12    1    1    2    0    0  0.75727337656E+00  0.74888050186E+00  0.50866369385E+00  0.11802642612E+01  0.00000000000E+00 0. -1.
         11    1    3    3    0    0  0.75568790292E+01  0.32328951578E+01 -0.82475930404E+01  0.11643917854E+02  0.51100000000E-03 0. -1.
        -11    1    3    3    0    0  0.12068198240E+02  0.74348284264E+01 -0.30454726136E+02  0.33591791062E+02  0.51100000000E-03 0.  1.
         12    1    3    3    0    0 -0.20382350646E+02 -0.11416604086E+02  0.38193655482E+02  0.44772026823E+02  0.00000000000E+00 0. -1.
</event>
<event>
 7    1  0.1698110E-015  0.9000779E+02  0.7816164E-02  0.1186339E+00
        -11   -1    0    0    0    0  0.00000000000E+00  0.00000000000E+00  0.45593999997E+02  0.45594000000E+02  0.51100000000E-03 0.  1.
         11   -1    0    0    0    0 -0.00000000000E+00 -0.00000000000E+00 -0.45593999997E+02  0.45594000000E+02  0.51100000000E-03 0. -1.
    9900012    2    1    2    0    0  0.93518513116E-01 -0.27945238369E+00  0.11428253252E+01  0.90007792785E+02  0.90000054850E+02 0.  0.
         12    1    1    2    0    0 -0.93518513116E-01  0.27945238369E+00 -0.11428253252E+01  0.11802072152E+01  0.00000000000E+00 0. -1.
         11    1    3    3    0    0 -0.24277836509E+02 -0.22642594538E+02 -0.26396291059E+02  0.42413024119E+02  0.51100000000E-03 0. -1.
        -11    1    3    3    0    0  0.38132204555E+01  0.66542869694E+01 -0.23895294952E+01  0.80330589928E+01  0.51100000000E-03 0.  1.
        -12    1    3    3    0    0  0.20558134567E+02  0.15708855185E+02  0.29928645879E+02  0.39561709673E+02  0.00000000000E+00 0.  1.
</event>
<event>
 7    1  0.1698110E-015  0.9000771E+02  0.7816164E-02  0.1186339E+00
        -11   -1    0    0    0    0  0.00000000000E+00  0.00000000000E+00  0.45593999997E+02  0.45594000000E+02  0.51100000000E-03 0. -1.
         11   -1    0    0    0    0 -0.00000000000E+00 -0.00000000000E+00 -0.45593999997E+02  0.45594000000E+02  0.51100000000E-03 0.  1.
    9900012    2    1    2    0    0  0.62330595120E+00  0.98803753127E+00  0.16841823711E+00  0.90007706318E+02  0.89999967242E+02 0.  0.
         12    1    1    2    0    0 -0.62330595120E+00 -0.98803753127E+00 -0.16841823711E+00  0.11802936815E+01  0.00000000000E+00 0. -1.
         11    1    3    3    0    0 -0.95000803889E+01 -0.66129753165E+01  0.68630494407E+01  0.13456761045E+02  0.51100000000E-03 0. -1.
        -11    1    3    3    0    0 -0.28384566362E+02 -0.14276072004E+02 -0.55094637563E+01  0.32246612699E+02  0.51100000000E-03 0.  1.
         12    1    3    3    0    0  0.38507952702E+02  0.21877084852E+02 -0.11851674473E+01  0.44304332574E+02  0.00000000000E+00 0. -1.
</event>
<event>
 7    1  0.1698110E-015  0.9000777E+02  0.7816164E-02  0.1186339E+00
        -11   -1    0    0    0    0  0.00000000000E+00  0.00000000000E+00  0.45593999997E+02  0.45594000000E+02  0.51100000000E-03 0.  1.
         11   -1    0    0    0    0 -0.00000000000E+00 -0.00000000000E+00 -0.45593999997E+02  0.45594000000E+02  0.51100000000E-03 0. -1.
    9900012    2    1    2    0    0  0.99995541854E+00 -0.19054450022E+00  0.59725928352E+00  0.90007772608E+02  0.90000034406E+02 0.  0.
         12    1    1    2    0    0 -0.99995541854E+00  0.19054450022E+00 -0.59725928352E+00  0.11802273922E+01  0.00000000000E+00 0. -1.
         11    1    3    3    0    0 -0.56085923115E+01  0.42816077152E+01  0.35386907379E+01  0.78937193226E+01  0.51100000000E-03 0. -1.
        -11    1    3    3    0    0  0.22383070291E+02 -0.17376344371E+02  0.31328286270E+02  0.42242167324E+02  0.51100000000E-03 0.  1.
         12    1    3    3    0    0 -0.15774522561E+02  0.12904192156E+02 -0.34269717724E+02  0.39871885961E+02  0.00000000000E+00 0. -1.
</event>
<event>
 7    1  0.1698110E-015  0.9000779E+02  0.7816164E-02  0.1186339E+00
        -11   -1    0    0    0    0  0.00000000000E+00  0.00000000000E+00  0.45593999997E+02  0.45594000000E+02  0.51100000000E-03 0. -1.
         11   -1    0    0    0    0 -0.00000000000E+00 -0.00000000000E+00 -0.45593999997E+02  0.45594000000E+02  0.51100000000E-03 0.  1.
    9900012    2    1    2    0    0 -0.76878502342E+00 -0.43996545569E+00 -0.77992838610E+00  0.90007793111E+02  0.90000055180E+02 0.  0.
         12    1    1    2    0    0  0.76878502342E+00  0.43996545569E+00  0.77992838610E+00  0.11802068894E+01  0.00000000000E+00 0. -1.
         11    1    3    3    0    0  0.35180323080E+02 -0.50789101965E+01 -0.17155526341E+02  0.39468500669E+02  0.51100000000E-03 0. -1.
        -11    1    3    3    0    0  0.27286395581E+00 -0.90756518577E+01  0.32726180575E+01  0.96515252987E+01  0.51100000000E-03 0.  1.
        -12    1    3    3    0    0 -0.36221972059E+02  0.13714596599E+02  0.13102979897E+02  0.40887767143E+02  0.00000000000E+00 0.  1.
</event>
<event>
 7    1  0.1698110E-015  0.9000777E+02  0.7816164E-02  0.1186339E+00
        -11   -1    0    0    0    0  0.00000000000E+00  0.00000000000E+00  0.45593999997E+02  0.45594000000E+02  0.51100000000E-03 0.  1.
         11   -1    0    0    0    0 -0.00000000000E+00 -0.00000000000E+00 -0.45593999997E+02  0.45594000000E+02  0.51100000000E-03 0. -1.
    9900012    2    1    2    0    0  0.96903401294E-02  0.11791062527E+01 -0.50621436353E-01  0.90007767825E+02  0.90000029560E+02 0.  0.
         12    1    1    2    0    0 -0.96903401294E-02 -0.11791062527E+01  0.50621436353E-01  0.11802321753E+01  0.00000000000E+00 0. -1.
         11    1    3    3    0    0  0.54352804920E+01  0.41626172172E+02  0.13764037403E+02  0.44178379436E+02  0.51100000000E-03 0. -1.
        -11    1    3    3    0    0  0.50407667378E+01 -0.70060785747E+01 -0.21047963498E+01  0.88839537501E+01  0.51100000000E-03 0.  1.
        -12    1    3    3    0    0 -0.10466356890E+02 -0.33440987344E+02 -0.11709862490E+02  0.36945434639E+02  0.00000000000E+00 0.  1.
</event>
<event>
 7    1  0.1698110E-015  0.9000761E+02  0.7816164E-02  0.1186339E+00
        -11   -1    0    0    0    0  0.00000000000E+00  0.00000000000E+00  0.45593999997E+02  0.45594000000E+02  0.51100000000E-03 0. -1.
         11   -1    0    0    0    0 -0.00000000000E+00 -0.00000000000E+00 -0.45593999997E+02  0.45594000000E+02  0.51100000000E-03 0.  1.
    9900012    2    1    2    0    0  0.43128147315E+00  0.99194460087E+00  0.47261775059E+00  0.90007607973E+02  0.89999867598E+02 0.  0.
         12    1    1    2    0    0 -0.43128147315E+00 -0.99194460087E+00 -0.47261775059E+00  0.11803920274E+01  0.00000000000E+00 0. -1.
         11    1    3    3    0    0  0.39669993961E+01  0.22052588672E+01 -0.89889332773E+01  0.10069814924E+02  0.51100000000E-03 0. -1.
        -11    1    3    3    0    0  0.59265537607E+01  0.13567742437E+02 -0.31811562982E+02  0.35088220444E+02  0.51100000000E-03 0.  1.
         12    1    3    3    0    0 -0.94622716836E+01 -0.14781056703E+02  0.41273114010E+02  0.44849572604E+02  0.00000000000E+00 0. -1.
</event>
<event>
 7    1  0.1698110E-015  0.9000741E+02  0.7816164E-02  0.1186340E+00
        -11   -1    0    0    0    0  0.00000000000E+00  0.00000000000E+00  0.45593999997E+02  0.45594000000E+02  0.51100000000E-03 0.  1.
         11   -1    0    0    0    0 -0.00000000000E+00 -0.00000000000E+00 -0.45593999997E+02  0.45594000000E+02  0.51100000000E-03 0. -1.
    9900012    2    1    2    0    0 -0.98406294356E+00 -0.63106673253E+00 -0.16484115521E+00  0.90007407901E+02  0.89999664885E+02 0.  0.
         12    1    1    2    0    0  0.98406294356E+00  0.63106673253E+00  0.16484115521E+00  0.11805920990E+01  0.00000000000E+00 0. -1.
         11    1    3    3    0    0  0.46866764295E-01 -0.39331437556E+01 -0.12160914985E+02  0.12781223331E+02  0.51100000000E-03 0. -1.
        -11    1    3    3    0    0 -0.30256168852E+02 -0.66542549564E+01  0.28606557574E+02  0.42166930161E+02  0.51100000000E-03 0.  1.
         12    1    3    3    0    0  0.29225239145E+02  0.99563319795E+01 -0.16610483745E+02  0.35059254410E+02  0.00000000000E+00 0. -1.
</event>
<event>
 7    1  0.1698110E-015  0.9000774E+02  0.7816164E-02  0.1186339E+00
        -11   -1    0    0    0    0  0.00000000000E+00  0.00000000000E+00  0.45593999997E+02  0.45594000000E+02  0.51100000000E-03 0. -1.
         11   -1    0    0    0    0 -0.00000000000E+00 -0.00000000000E+00 -0.45593999997E+02  0.45594000000E+02  0.51100000000E-03 0.  1.
    9900012    2    1    2    0    0 -0.19016417700E+00  0.10582379822E+01 -0.48680762461E+00  0.90007740832E+02  0.90000002211E+02 0.  0.
         12    1    1    2    0    0  0.19016417700E+00 -0.10582379822E+01  0.48680762461E+00  0.11802591683E+01  0.00000000000E+00 0. -1.
         11    1    3    3    0    0  0.58929353873E+01  0.20401771986E+02  0.37309272994E+02  0.42929486827E+02  0.51100000000E-03 0. -1.
        -11    1    3    3    0    0 -0.21554642428E+01 -0.29295135770E+01  0.17832654987E+01  0.40506927803E+01  0.51100000000E-03 0.  1.
        -12    1    3    3    0    0 -0.39276353215E+01 -0.16414020426E+02 -0.39579346118E+02  0.43027561224E+02  0.00000000000E+00 0.  1.
</event>
<event>
 7    1  0.1698110E-015  0.9000818E+02  0.7816164E-02  0.1186338E+00
        -11   -1    0    0    0    0  0.00000000000E+00  0.00000000000E+00  0.45593999997E+02  0.45594000000E+02  0.51100000000E-03 0.  1.
         11   -1    0    0    0    0 -0.00000000000E+00 -0.00000000000E+00 -0.45593999997E+02  0.45594000000E+02  0.51100000000E-03 0. -1.
    9900012    2    1    2    0    0 -0.10766556964E+01 -0.14665456479E+00  0.45964424428E+00  0.90008183115E+02  0.90000450331E+02 0.  0.
         12    1    1    2    0    0  0.10766556964E+01  0.14665456479E+00 -0.45964424428E+00  0.11798168847E+01  0.00000000000E+00 0. -1.
         11    1    3    3    0    0 -0.22278437213E+02  0.61223768162E+01 -0.28544769995E+02  0.36723509594E+02  0.51100000000E-03 0. -1.
        -11    1    3    3    0    0 -0.55159608414E+01 -0.57080167498E+01 -0.54887788082E+01  0.96505944007E+01  0.51100000000E-03 0.  1.
        -12    1    3    3    0    0  0.26717742358E+02 -0.56101463119E+00  0.34493193048E+02  0.43634079121E+02  0.00000000000E+00 0.  1.
</event>
<event>
 7    1  0.1698110E-015  0.9000775E+02  0.7816164E-02  0.1186339E+00
        -11   -1    0    0    0    0  0.00000000000E+00  0.00000000000E+00  0.45593999997E+02  0.45594000000E+02  0.51100000000E-03 0. -1.
         11   -1    0    0    0    0 -0.00000000000E+00 -0.00000000000E+00 -0.45593999997E+02  0.45594000000E+02  0.51100000000E-03 0.  1.
    9900012    2    1    2    0    0 -0.49818238525E+00  0.27303801398E+00 -0.10345276319E+01  0.90007753048E+02  0.90000014588E+02 0.  0.
         12    1    1    2    0    0  0.49818238525E+00 -0.27303801398E+00  0.10345276319E+01  0.11802469518E+01  0.00000000000E+00 0. -1.
         11    1    3    3    0    0  0.19361178298E+01 -0.16128316356E+02  0.23325057642E+01  0.16410719793E+02  0.51100000000E-03 0. -1.
        -11    1    3    3    0    0  0.34580831462E+02  0.93816784107E+01 -0.23656329241E+01  0.35908857038E+02  0.51100000000E-03 0.  1.
         12    1    3    3    0    0 -0.37015131677E+02  0.70196759595E+01 -0.10014004720E+01  0.37688176217E+02  0.00000000000E+00 0. -1.
</event>
<event>
 7    1  0.1698110E-015  0.9000773E+02  0.7816164E-02  0.1186339E+00
        -11   -1    0    0    0    0  0.00000000000E+00  0.00000000000E+00  0.45593999997E+02  0.45594000000E+02  0.51100000000E-03 0.  1.
         11   -1    0    0    0    0 -0.00000000000E+00 -0.00000000000E+00 -0.45593999997E+02  0.45594000000E+02  0.51100000000E-03 0. -1.
    9900012    2    1    2    0    0 -0.66676038637E+00 -0.85772830159E+00  0.46128112167E+00  0.90007725657E+02  0.89999986835E+02 0.  0.
         12    1    1    2    0    0  0.66676038637E+00  0.85772830159E+00 -0.46128112167E+00  0.11802743433E+01  0.00000000000E+00 0. -1.
         11    1    3    3    0    0  0.77315147783E+01 -0.31283127650E+01  0.78387276550E+01  0.11445886293E+02  0.51100000000E-03 0. -1.
        -11    1    3    3    0    0 -0.26289884409E+02 -0.28334670042E+02  0.87250158412E+01  0.39624959941E+02  0.51100000000E-03 0.  1.
         12    1    3    3    0    0  0.17891609244E+02  0.30605254506E+02 -0.16102462375E+02  0.38936879423E+02  0.00000000000E+00 0. -1.
</event>
<event>
 7    1  0.1698110E-015  0.9000761E+02  0.7816164E-02  0.1186339E+00
        -11   -1    0    0    0    0  0.00000000000E+00  0.00000000000E+00  0.45593999997E+02  0.45594000000E+02  0.51100000000E-03 0.  1.
         11   -1    0    0    0    0 -0.00000000000E+00 -0.00000000000E+00 -0.45593999997E+02  0.45594000000E+02  0.51100000000E-03 0. -1.
    9900012    2    1    2    0    0  0.89837333947E+00 -0.49028535877E+00  0.58809391363E+00  0.90007614961E+02  0.89999874678E+02 0.  0.
         12    1    1    2    0    0 -0.89837333947E+00  0.49028535877E+00 -0.58809391363E+00  0.11803850394E+01  0.00000000000E+00 0. -1.
         11    1    3    3    0    0 -0.95052942202E+01 -0.53389472086E+00  0.41919207571E+01  0.10402300788E+02  0.51100000000E-03 0. -1.
        -11    1    3    3    0    0 -0.96910406467E+01  0.22023621821E+02  0.27501686470E+02  0.36541742513E+02  0.51100000000E-03 0.  1.
         12    1    3    3    0    0  0.20094708206E+02 -0.21980012459E+02 -0.31105513313E+02  0.43063571660E+02  0.00000000000E+00 0. -1.
</event>
<event>
 7    1  0.1698110E-015  0.9000771E+02  0.7816164E-02  0.1186339E+00
        -11   -1    0    0    0    0  0.00000000000E+00  0.00000000000E+00  0.45593999997E+02  0.45594000000E+02  0.51100000000E-03 0.  1.
         11   -1    0    0    0    0 -0.00000000000E+00 -0.00000000000E+00 -0.45593999997E+02  0.45594000000E+02  0.51100000000E-03 0. -1.
    9900012    2    1    2    0    0  0.38139155782E+00  0.55961880295E+00  0.96666522388E+00  0.90007714280E+02  0.89999975309E+02 0.  0.
         12    1    1    2    0    0 -0.38139155782E+00 -0.55961880295E+00 -0.96666522388E+00  0.11802857197E+01  0.00000000000E+00 0. -1.
         11    1    3    3    0    0 -0.80602020153E+01  0.85612404148E+00 -0.77493562927E+00  0.81425014825E+01  0.51100000000E-03 0. -1.
        -11    1    3    3    0    0 -0.36328540467E+02  0.53443485435E+01  0.11325530168E+01  0.36737005736E+02  0.51100000000E-03 0.  1.
         12    1    3    3    0    0  0.44770134040E+02 -0.56408537820E+01  0.60904783636E+00  0.45128207062E+02  0.00000000000E+00 0. -1.
</event>
<event>
 7    1  0.1698110E-015  0.9000782E+02  0.7816164E-02  0.1186339E+00
        -11   -1    0    0    0    0  0.00000000000E+00  0.00000000000E+00  0.45593999997E+02  0.45594000000E+02  0.51100000000E-03 0. -1.
         11   -1    0    0    0    0 -0.00000000000E+00 -0.00000000000E+00 -0.45593999997E+02  0.45594000000E+02  0.51100000000E-03 0.  1.
    9900012    2    1    2    0    0 -0.38102517799E+00  0.96956340303E+00 -0.55460121472E+00  0.90007823790E+02  0.90000086264E+02 0.  0.
         12    1    1    2    0    0  0.38102517799E+00 -0.96956340303E+00  0.55460121472E+00  0.11801762098E+01  0.00000000000E+00 0. -1.
         11    1    3    3    0    0 -0.31772866317E+01 -0.58449713500E+01  0.46169709158E+01  0.80978553408E+01  0.51100000000E-03 0. -1.
        -11    1    3    3    0    0  0.34793449650E+02  0.98612238068E+00 -0.25861315622E+02  0.43363166649E+02  0.51100000000E-03 0.  1.
         12    1    3    3    0    0 -0.31997188196E+02  0.58284123724E+01  0.20689743492E+02  0.38546801800E+02  0.00000000000E+00 0. -1.
</event>
<event>
 7    1  0.1698110E-015  0.9000771E+02  0.7816164E-02  0.1186339E+00
        -11   -1    0    0    0    0  0.00000000000E+00  0.00000000000E+00  0.45593999997E+02  0.45594000000E+02  0.51100000000E-03 0. -1.
         11   -1    0    0    0    0 -0.00000000000E+00 -0.00000000000E+00 -0.45593999997E+02  0.45594000000E+02  0.51100000000E-03 0.  1.
    9900012    2    1    2    0    0 -0.59495747255E+00 -0.86674326080E+00  0.53652500533E+00  0.90007713020E+02  0.89999974032E+02 0.  0.
         12    1    1    2    0    0  0.59495747255E+00  0.86674326080E+00 -0.53652500533E+00  0.11802869802E+01  0.00000000000E+00 0. -1.
         11    1    3    3    0    0  0.55117570166E+01  0.16426903767E+02  0.32365533947E+02  0.36711720482E+02  0.51100000000E-03 0. -1.
        -11    1    3    3    0    0 -0.23582923457E+00  0.14733507297E+01  0.83929998394E+01  0.85246011265E+01  0.51100000000E-03 0.  1.
        -12    1    3    3    0    0 -0.58708852546E+01 -0.18766997757E+02 -0.40222008782E+02  0.44771391411E+02  0.00000000000E+00 0.  1.
</event>
<event>
 7    1  0.1698110E-015  0.9000746E+02  0.7816164E-02  0.1186340E+00
        -11   -1    0    0    0    0  0.00000000000E+00  0.00000000000E+00  0.45593999997E+02  0.45594000000E+02  0.51100000000E-03 0. -1.
         11   -1    0    0    0    0 -0.00000000000E+00 -0.00000000000E+00 -0.45593999997E+02  0.45594000000E+02  0.51100000000E-03 0.  1.
    9900012    2    1    2    0    0  0.35776312482E+00 -0.11235162452E+01 -0.58179030017E-01  0.90007462832E+02  0.89999720540E+02 0.  0.
         12    1    1    2    0    0 -0.35776312482E+00  0.11235162452E+01  0.58179030017E-01  0.11805371685E+01  0.00000000000E+00 0. -1.
         11    1    3    3    0    0  0.14907994304E+02  0.13285925551E+02 -0.24327912989E+02  0.31473980724E+02  0.51100000000E-03 0. -1.
        -11    1    3    3    0    0  0.50472378749E+01  0.64237990779E+01 -0.10632547128E+02  0.13408611540E+02  0.51100000000E-03 0.  1.
        -12    1    3    3    0    0 -0.19597469054E+02 -0.20833240874E+02  0.34902281087E+02  0.45124870567E+02  0.00000000000E+00 0.  1.
</event>
<event>
 7    1  0.1698110E-015  0.9000855E+02  0.7816164E-02  0.1186337E+00
        -11   -1    0    0    0    0  0.00000000000E+00  0.00000000000E+00  0.45593999997E+02  0.45594000000E+02  0.51100000000E-03 0. -1.
         11   -1    0    0    0    0 -0.00000000000E+00 -0.00000000000E+00 -0.45593999997E+02  0.45594000000E+02  0.51100000000E-03 0.  1.
    9900012    2    1    2    0    0 -0.71314280332E+00  0.30036198953E+00 -0.89011813028E+00  0.90008550862E+02  0.90000822930E+02 0.  0.
         12    1    1    2    0    0  0.71314280332E+00 -0.30036198953E+00  0.89011813028E+00  0.11794491377E+01  0.00000000000E+00 0. -1.
         11    1    3    3    0    0  0.52499922821E+01  0.35120028507E+01  0.55828915310E+01  0.84300214171E+01  0.51100000000E-03 0. -1.
        -11    1    3    3    0    0  0.23408742304E+02 -0.32024637625E+02  0.13756833780E+01  0.39691801878E+02  0.51100000000E-03 0.  1.
         12    1    3    3    0    0 -0.29371877389E+02  0.28812996764E+02 -0.78486930393E+01  0.41886727567E+02  0.00000000000E+00 0. -1.
</event>
<event>
 7    1  0.1698110E-015  0.9000733E+02  0.7816164E-02  0.1186340E+00
        -11   -1    0    0    0    0  0.00000000000E+00  0.00000000000E+00  0.45593999997E+02  0.45594000000E+02  0.51100000000E-03 0. -1.
         11   -1    0    0    0    0 -0.00000000000E+00 -0.00000000000E+00 -0.45593999997E+02  0.45594000000E+02  0.51100000000E-03 0.  1.
    9900012    2    1    2    0    0  0.39555798016E+00 -0.70468713144E+00  0.86077019270E+00  0.90007332649E+02  0.89999588639E+02 0.  0.
         12    1    1    2    0    0 -0.39555798016E+00  0.70468713144E+00 -0.86077019270E+00  0.11806673509E+01  0.00000000000E+00 0. -1.
         11    1    3    3    0    0  0.71226902938E+01 -0.18258764758E+02  0.33067400664E+02  0.38439149242E+02  0.51100000000E-03 0. -1.
        -11    1    3    3    0    0  0.34565070695E+01 -0.83561839366E+01 -0.61059366044E-01  0.90430625128E+01  0.51100000000E-03 0.  1.
        -12    1    3    3    0    0 -0.10183639383E+02  0.25910261563E+02 -0.32145571105E+02  0.42525120894E+02  0.00000000000E+00 0.  1.
</event>
<event>
 7    1  0.1698110E-015  0.9000771E+02  0.7816164E-02  0.1186339E+00
        -11   -1    0    0    0    0  0.00000000000E+00  0.00000000000E+00  0.45593999997E+02  0.45594000000E+02  0.51100000000E-03 0.  1.
         11   -1    0    0    0    0 -0.00000000000E+00 -0.00000000000E+00 -0.45593999997E+02  0.45594000000E+02  0.51100000000E-03 0. -1.
    9900012    2    1    2    0    0  0.22229125372E+00  0.10143547907E+01 -0.56103583540E+00  0.90007707557E+02  0.89999968497E+02 0.  0.
         12    1    1    2    0    0 -0.22229125372E+00 -0.10143547907E+01  0.56103583540E+00  0.11802924432E+01  0.00000000000E+00 0. -1.
         11    1    3    3    0    0 -0.85038768116E+01 -0.29860350791E+00 -0.28507631447E+01  0.89739587502E+01  0.51100000000E-03 0. -1.
        -11    1    3    3    0    0  0.91469887095E+01 -0.38387857830E+02  0.97185741914E+01  0.40641674618E+02  0.51100000000E-03 0.  1.
         12    1    3    3    0    0 -0.42082064411E+00  0.39700816128E+02 -0.74288468821E+01  0.40392074188E+02  0.00000000000E+00 0. -1.
</event>
<event>
 7    1  0.1698110E-015  0.9000773E+02  0.7816164E-02  0.1186339E+00
        -11   -1    0    0    0    0  0.00000000000E+00  0.00000000000E+00  0.45593999997E+02  0.45594000000E+02  0.51100000000E-03 0.  1.
         11   -1    0    0    0    0 -0.00000000000E+00 -0.00000000000E+00 -0.45593999997E+02  0.45594000000E+02  0.51100000000E-03 0. -1.
    9900012    2    1    2    0    0 -0.57152762986E+00 -0.71491148123E+00  0.74517348048E+00  0.90007734871E+02  0.89999996172E+02 0.  0.
         12    1    1    2    0    0  0.57152762986E+00  0.71491148123E+00 -0.74517348048E+00  0.11802651286E+01  0.00000000000E+00 0. -1.
         11    1    3    3    0    0 -0.30392408161E+02 -0.21993985127E+02 -0.95584050038E+01  0.38714299194E+02  0.51100000000E-03 0. -1.
        -11    1    3    3    0    0 -0.46927070647E+01 -0.39338489934E+01  0.55918791619E+01  0.82925135104E+01  0.51100000000E-03 0.  1.
        -12    1    3    3    0    0  0.34513587596E+02  0.25212922639E+02  0.47116993224E+01  0.43000922167E+02  0.00000000000E+00 0.  1.
</event>
<event>
 7    1  0.1698110E-015  0.9000774E+02  0.7816164E-02  0.1186339E+00
        -11   -1    0    0    0    0  0.00000000000E+00  0.00000000000E+00  0.45593999997E+02  0.45594000000E+02  0.51100000000E-03 0. -1.
         11   -1    0    0    0    0 -0.00000000000E+00 -0.00000000000E+00 -0.45593999997E+02  0.45594000000E+02  0.51100000000E-03 0.  1.
    9900012    2    1    2    0    0 -0.53774032075E+00 -0.10105001585E+01 -0.28764249399E+00  0.90007740102E+02  0.90000001471E+02 0.  0.
         12    1    1    2    0    0  0.53774032075E+00  0.10105001585E+01  0.28764249399E+00  0.11802598982E+01  0.00000000000E+00 0. -1.
         11    1    3    3    0    0 -0.53320918738E+01  0.29537482462E+02  0.23714272334E+02  0.38252591893E+02  0.51100000000E-03 0. -1.
        -11    1    3    3    0    0  0.24010939102E+01  0.73821658028E+01 -0.52816228225E+01  0.93892046418E+01  0.51100000000E-03 0.  1.
        -12    1    3    3    0    0  0.23932576428E+01 -0.37930148424E+02 -0.18720292005E+02  0.42365943567E+02  0.00000000000E+00 0.  1.
</event>
<event>
 7    1  0.1698110E-015  0.9000774E+02  0.7816164E-02  0.1186339E+00
        -11   -1    0    0    0    0  0.00000000000E+00  0.00000000000E+00  0.45593999997E+02  0.45594000000E+02  0.51100000000E-03 0. -1.
         11   -1    0    0    0    0 -0.00000000000E+00 -0.00000000000E+00 -0.45593999997E+02  0.45594000000E+02  0.51100000000E-03 0.  1.
    9900012    2    1    2    0    0  0.10138688947E+01 -0.12695634337E-02 -0.60421326669E+00  0.90007743494E+02  0.90000004909E+02 0.  0.
         12    1    1    2    0    0 -0.10138688947E+01  0.12695634337E-02  0.60421326669E+00  0.11802565056E+01  0.00000000000E+00 0. -1.
         11    1    3    3    0    0 -0.21701546633E+01  0.77466661386E+01 -0.18964998785E+01  0.82654170842E+01  0.51100000000E-03 0. -1.
        -11    1    3    3    0    0 -0.22864992532E+02  0.28386016906E+02  0.60357515609E+01  0.36945962383E+02  0.51100000000E-03 0.  1.
         12    1    3    3    0    0  0.26049016090E+02 -0.36133952608E+02 -0.47434649491E+01  0.44796364027E+02  0.00000000000E+00 0. -1.
</event>
<event>
 7    1  0.1718774E-015  0.9000757E+02  0.7816164E-02  0.1186339E+00
        -11   -1    0    0    0    0  0.00000000000E+00  0.00000000000E+00  0.45593999997E+02  0.45594000000E+02  0.51100000000E-03 0.  1.
         11   -1    0    0    0    0 -0.00000000000E+00 -0.00000000000E+00 -0.45593999997E+02  0.45594000000E+02  0.51100000000E-03 0. -1.
    9900012    2    1    2    0    0 -0.11047553985E+01  0.19317491551E+00  0.36826977560E+00  0.90007566323E+02  0.89999825398E+02 0.  0.
         12    1    1    2    0    0  0.11047553985E+01 -0.19317491551E+00 -0.36826977560E+00  0.11804336771E+01  0.00000000000E+00 0. -1.
         11    1    3    3    0    0 -0.89675562837E+01 -0.28772182934E+01  0.14436469289E+01  0.95278312079E+01  0.51100000000E-03 0. -1.
        -11    1    3    3    0    0  0.33430121323E+02 -0.18817434488E+02  0.17357127996E+02  0.42106279162E+02  0.51100000000E-03 0.  1.
         12    1    3    3    0    0 -0.25567320437E+02  0.21887827697E+02 -0.18432505150E+02  0.38373455953E+02  0.00000000000E+00 0. -1.
</event>
<event>
 7    1  0.1698110E-015  0.9000807E+02  0.7816164E-02  0.1186338E+00
        -11   -1    0    0    0    0  0.00000000000E+00  0.00000000000E+00  0.45593999997E+02  0.45594000000E+02  0.51100000000E-03 0.  1.
         11   -1    0    0    0    0 -0.00000000000E+00 -0.00000000000E+00 -0.45593999997E+02  0.45594000000E+02  0.51100000000E-03 0. -1.
    9900012    2    1    2    0    0  0.25479221018E+00  0.10705005007E+01 -0.42583698758E+00  0.90008073082E+02  0.90000338846E+02 0.  0.
         12    1    1    2    0    0 -0.25479221018E+00 -0.10705005007E+01  0.42583698758E+00  0.11799269182E+01  0.00000000000E+00 0. -1.
         11    1    3    3    0    0 -0.31021320302E+02 -0.17521746239E+02 -0.11724039061E+02  0.37507159272E+02  0.51100000000E-03 0. -1.
        -11    1    3    3    0    0 -0.41532581779E+01  0.27408792493E+01 -0.77928854131E+01  0.92461362673E+01  0.51100000000E-03 0.  1.
        -12    1    3    3    0    0  0.35429370690E+02  0.15851367490E+02  0.19091087487E+02  0.43254777542E+02  0.00000000000E+00 0.  1.
</event>
<event>
 7    1  0.1698110E-015  0.9000773E+02  0.7816164E-02  0.1186339E+00
        -11   -1    0    0    0    0  0.00000000000E+00  0.00000000000E+00  0.45593999997E+02  0.45594000000E+02  0.51100000000E-03 0.  1.
         11   -1    0    0    0    0 -0.00000000000E+00 -0.00000000000E+00 -0.45593999997E+02  0.45594000000E+02  0.51100000000E-03 0. -1.
    9900012    2    1    2    0    0  0.18820718605E+00 -0.81484647783E+00  0.83285233370E+00  0.90007728956E+02  0.89999990178E+02 0.  0.
         12    1    1    2    0    0 -0.18820718605E+00  0.81484647783E+00 -0.83285233370E+00  0.11802710439E+01  0.00000000000E+00 0. -1.
         11    1    3    3    0    0  0.31855129609E+01  0.75694591272E+01  0.60015564915E+01  0.10171670703E+02  0.51100000000E-03 0. -1.
        -11    1    3    3    0    0 -0.32553072419E+01  0.22525085173E+02  0.26940014070E+02  0.35266710162E+02  0.51100000000E-03 0.  1.
         12    1    3    3    0    0  0.25800146698E+00 -0.30909390778E+02 -0.32108718228E+02  0.44569348091E+02  0.00000000000E+00 0. -1.
</event>
<event>
 7    1  0.1698110E-015  0.9000818E+02  0.7816164E-02  0.1186338E+00
        -11   -1    0    0    0    0  0.00000000000E+00  0.00000000000E+00  0.45593999997E+02  0.45594000000E+02  0.51100000000E-03 0. -1.
         11   -1    0    0    0    0 -0.00000000000E+00 -0.00000000000E+00 -0.45593999997E+02  0.45594000000E+02  0.51100000000E-03 0.  1.
    9900012    2    1    2    0    0 -0.77174215651E+00 -0.81539182111E+00  0.36265143452E+00  0.90008183980E+02  0.90000451207E+02 0.  0.
         12    1    1    2    0    0  0.77174215651E+00  0.81539182111E+00 -0.36265143452E+00  0.11798160200E+01  0.00000000000E+00 0. -1.
         11    1    3    3    0    0  0.97805883063E+01  0.24543322521E+00  0.39152274292E+02  0.40356173352E+02  0.51100000000E-03 0. -1.
        -11    1    3    3    0    0  0.77809954655E+01 -0.55513318178E+01 -0.46214841550E+01  0.10616934183E+02  0.51100000000E-03 0.  1.
        -12    1    3    3    0    0 -0.18333325928E+02  0.44905067714E+01 -0.34168138703E+02  0.39035076445E+02  0.00000000000E+00 0.  1.
</event>
<event>
 7    1  0.2004957E-015  0.9000772E+02  0.7816164E-02  0.1186339E+00
        -11   -1    0    0    0    0  0.00000000000E+00  0.00000000000E+00  0.45593999997E+02  0.45594000000E+02  0.51100000000E-03 0.  1.
         11   -1    0    0    0    0 -0.00000000000E+00 -0.00000000000E+00 -0.45593999997E+02  0.45594000000E+02  0.51100000000E-03 0. -1.
    9900012    2    1    2    0    0  0.78531418566E+00 -0.87609076253E+00  0.93910355193E-01  0.90007715056E+02  0.89999976095E+02 0.  0.
         12    1    1    2    0    0 -0.78531418566E+00  0.87609076253E+00 -0.93910355193E-01  0.11802849441E+01  0.00000000000E+00 0. -1.
         11    1    3    3    0    0  0.72112887589E+01 -0.54489761447E+01  0.39029738867E+01  0.98451628738E+01  0.51100000000E-03 0. -1.
        -11    1    3    3    0    0 -0.13459510176E+02 -0.34134099933E+02  0.10717987255E+02  0.38225259234E+02  0.51100000000E-03 0.  1.
         12    1    3    3    0    0  0.70335356027E+01  0.38706985316E+02 -0.14527050786E+02  0.41937292948E+02  0.00000000000E+00 0. -1.
</event>
<event>
 7    1  0.1698110E-015  0.9000780E+02  0.7816164E-02  0.1186339E+00
        -11   -1    0    0    0    0  0.00000000000E+00  0.00000000000E+00  0.45593999997E+02  0.45594000000E+02  0.51100000000E-03 0. -1.
         11   -1    0    0    0    0 -0.00000000000E+00 -0.00000000000E+00 -0.45593999997E+02  0.45594000000E+02  0.51100000000E-03 0.  1.
    9900012    2    1    2    0    0  0.56094998386E+00  0.81592218472E+00 -0.64223548926E+00  0.90007804965E+02  0.90000067191E+02 0.  0.
         12    1    1    2    0    0 -0.56094998386E+00 -0.81592218472E+00  0.64223548926E+00  0.11801950346E+01  0.00000000000E+00 0. -1.
         11    1    3    3    0    0  0.35133983864E+01  0.43598802315E+01  0.62825392117E+01  0.84156296890E+01  0.51100000000E-03 0. -1.
        -11    1    3    3    0    0 -0.31986841821E+01  0.38631901818E+02  0.49854622136E+00  0.38767305389E+02  0.51100000000E-03 0.  1.
         12    1    3    3    0    0  0.24623577954E+00 -0.42175859864E+02 -0.74233209224E+01  0.42824869887E+02  0.00000000000E+00 0. -1.
</event>
<event>
 7    1  0.1698110E-015  0.9000772E+02  0.7816164E-02  0.1186339E+00
        -11   -1    0    0    0    0  0.00000000000E+00  0.00000000000E+00  0.45593999997E+02  0.45594000000E+02  0.51100000000E-03 0. -1.
         11   -1    0    0    0    0 -0.00000000000E+00 -0.00000000000E+00 -0.45593999997E+02  0.45594000000E+02  0.51100000000E-03 0.  1.
    9900012    2    1    2    0    0  0.31511426413E+00 -0.44923892135E+00 -0.10449642420E+01  0.90007719154E+02  0.89999980247E+02 0.  0.
         12    1    1    2    0    0 -0.31511426413E+00  0.44923892135E+00  0.10449642420E+01  0.11802808458E+01  0.00000000000E+00 0. -1.
         11    1    3    3    0    0  0.12337165472E+02  0.26691521446E+02  0.21242339122E+02  0.36275059485E+02  0.51100000000E-03 0. -1.
        -11    1    3    3    0    0 -0.48561492139E+01 -0.39650556762E+01  0.10930104788E+02  0.12600438192E+02  0.51100000000E-03 0.  1.
        -12    1    3    3    0    0 -0.71659019935E+01 -0.23175704691E+02 -0.33217408152E+02  0.41132221477E+02  0.00000000000E+00 0.  1.
</event>
<event>
 7    1  0.1698110E-015  0.9000776E+02  0.7816164E-02  0.1186339E+00
        -11   -1    0    0    0    0  0.00000000000E+00  0.00000000000E+00  0.45593999997E+02  0.45594000000E+02  0.51100000000E-03 0. -1.
         11   -1    0    0    0    0 -0.00000000000E+00 -0.00000000000E+00 -0.45593999997E+02  0.45594000000E+02  0.51100000000E-03 0.  1.
    9900012    2    1    2    0    0  0.13291493240E+00  0.82501949174E+00 -0.83344619933E+00  0.90007764384E+02  0.90000026074E+02 0.  0.
         12    1    1    2    0    0 -0.13291493240E+00 -0.82501949174E+00  0.83344619933E+00  0.11802356155E+01  0.00000000000E+00 0. -1.
         11    1    3    3    0    0  0.19134292644E+02  0.36110990298E+02 -0.11375178944E+01  0.40882988180E+02  0.51100000000E-03 0. -1.
        -11    1    3    3    0    0 -0.81102235175E+01  0.26313527989E+01  0.41584780092E+01  0.94864473155E+01  0.51100000000E-03 0.  1.
        -12    1    3    3    0    0 -0.10891154194E+02 -0.37917323605E+02 -0.38544063142E+01  0.39638328889E+02  0.00000000000E+00 0.  1.
</event>
<event>
 7    1  0.1698110E-015  0.9000772E+02  0.7816164E-02  0.1186339E+00
        -11   -1    0    0    0    0  0.00000000000E+00  0.00000000000E+00  0.45593999997E+02  0.45594000000E+02  0.51100000000E-03 0.  1.
         11   -1    0    0    0    0 -0.00000000000E+00 -0.00000000000E+00 -0.45593999997E+02  0.45594000000E+02  0.51100000000E-03 0. -1.
    9900012    2    1    2    0    0  0.54867103219E+00  0.72509691530E+00  0.75249607834E+00  0.90007722157E+02  0.89999983290E+02 0.  0.
         12    1    1    2    0    0 -0.54867103219E+00 -0.72509691530E+00 -0.75249607834E+00  0.11802778427E+01  0.00000000000E+00 0. -1.
         11    1    3    3    0    0 -0.21589508094E+02  0.50560861680E+01 -0.34022329749E+02  0.40610217789E+02  0.51100000000E-03 0. -1.
        -11    1    3    3    0    0  0.47556495433E+01 -0.65684960169E+01 -0.22657480764E+01  0.84199143172E+01  0.51100000000E-03 0.  1.
        -12    1    3    3    0    0  0.17382529582E+02  0.22375067641E+01  0.37040573904E+02  0.40977590051E+02  0.00000000000E+00 0.  1.
</event>
<event>
 7    1  0.1698110E-015  0.9000783E+02  0.7816164E-02  0.1186339E+00
        -11   -1    0    0    0    0  0.00000000000E+00  0.00000000000E+00  0.45593999997E+02  0.45594000000E+02  0.51100000000E-03 0.  1.
         11   -1    0    0    0    0 -0.00000000000E+00 -0.00000000000E+00 -0.45593999997E+02  0.45594000000E+02  0.51100000000E-03 0. -1.
    9900012    2    1    2    0    0 -0.69035871619E+00 -0.61744121756E+00  0.73141820796E+00  0.90007829924E+02  0.90000092479E+02 0.  0.
         12    1    1    2    0    0  0.69035871619E+00  0.61744121756E+00 -0.73141820796E+00  0.11801700764E+01  0.00000000000E+00 0. -1.
         11    1    3    3    0    0  0.60080587136E+01 -0.36131913803E+00 -0.83088658520E+01  0.10259852486E+02  0.51100000000E-03 0. -1.
        -11    1    3    3    0    0  0.20281116254E+02 -0.15923215680E+02 -0.23342473011E+02  0.34781367435E+02  0.51100000000E-03 0.  1.
         12    1    3    3    0    0 -0.26979533684E+02  0.15667093600E+02  0.32382757071E+02  0.44966610003E+02  0.00000000000E+00 0. -1.
</event>
<event>
 7    1  0.1698110E-015  0.9000776E+02  0.7816164E-02  0.1186339E+00
        -11   -1    0    0    0    0  0.00000000000E+00  0.00000000000E+00  0.45593999997E+02  0.45594000000E+02  0.51100000000E-03 0. -1.
         11   -1    0    0    0    0 -0.00000000000E+00 -0.00000000000E+00 -0.45593999997E+02  0.45594000000E+02  0.51100000000E-03 0.  1.
    9900012    2    1    2    0    0 -0.92068512580E+00  0.72596611151E+00 -0.13516094796E+00  0.90007764270E+02  0.90000025959E+02 0.  0.
         12    1    1    2    0    0  0.92068512580E+00 -0.72596611151E+00  0.13516094796E+00  0.11802357298E+01  0.00000000000E+00 0. -1.
         11    1    3    3    0    0  0.36632479990E+02  0.11713470780E+02 -0.12430961317E+01  0.38479725521E+02  0.51100000000E-03 0. -1.
        -11    1    3    3    0    0 -0.88842821328E+00  0.94217374525E+01  0.13877399838E+01  0.95647406571E+01  0.51100000000E-03 0.  1.
        -12    1    3    3    0    0 -0.36664736902E+02 -0.20409242121E+02 -0.27980480002E+00  0.41963298092E+02  0.00000000000E+00 0.  1.
</event>
<event>
 7    1  0.1698110E-015  0.9000774E+02  0.7816164E-02  0.1186339E+00
        -11   -1    0    0    0    0  0.00000000000E+00  0.00000000000E+00  0.45593999997E+02  0.45594000000E+02  0.51100000000E-03 0. -1.
         11   -1    0    0    0    0 -0.00000000000E+00 -0.00000000000E+00 -0.45593999997E+02  0.45594000000E+02  0.51100000000E-03 0.  1.
    9900012    2    1    2    0    0  0.75589467888E+00  0.12349047372E+00 -0.89798853884E+00  0.90007741520E+02  0.90000002909E+02 0.  0.
         12    1    1    2    0    0 -0.75589467888E+00 -0.12349047372E+00  0.89798853884E+00  0.11802584795E+01  0.00000000000E+00 0. -1.
         11    1    3    3    0    0  0.40387531795E+01 -0.78411566770E+01 -0.56477569224E+01  0.10473415097E+02  0.51100000000E-03 0. -1.
        -11    1    3    3    0    0 -0.25092111733E+01 -0.26824405844E+02 -0.22686867514E+02  0.35221284012E+02  0.51100000000E-03 0.  1.
         12    1    3    3    0    0 -0.77364732731E+00  0.34789052994E+02  0.27436635897E+02  0.44313042412E+02  0.00000000000E+00 0. -1.
</event>
<event>
 7    1  0.1698110E-015  0.9000782E+02  0.7816164E-02  0.1186339E+00
        -11   -1    0    0    0    0  0.00000000000E+00  0.00000000000E+00  0.45593999997E+02  0.45594000000E+02  0.51100000000E-03 0.  1.
         11   -1    0    0    0    0 -0.00000000000E+00 -0.00000000000E+00 -0.45593999997E+02  0.45594000000E+02  0.51100000000E-03 0. -1.
    9900012    2    1    2    0    0 -0.53114638447E+00 -0.84154043998E+00  0.63444050424E+00  0.90007821392E+02  0.90000083834E+02 0.  0.
         12    1    1    2    0    0  0.53114638447E+00  0.84154043998E+00 -0.63444050424E+00  0.11801786082E+01  0.00000000000E+00 0. -1.
         11    1    3    3    0    0 -0.21926116608E+02 -0.32493184105E+02 -0.14719498949E+02  0.41871532721E+02  0.51100000000E-03 0. -1.
        -11    1    3    3    0    0  0.74146818405E+01  0.33417613189E+01 -0.59242574220E+01  0.10061893548E+02  0.51100000000E-03 0.  1.
        -12    1    3    3    0    0  0.13980288383E+02  0.28309882346E+02  0.21278196875E+02  0.38074395123E+02  0.00000000000E+00 0.  1.
</event>
<event>
 7    1  0.1698110E-015  0.9000773E+02  0.7816164E-02  0.1186339E+00
        -11   -1    0    0    0    0  0.00000000000E+00  0.00000000000E+00  0.45593999997E+02  0.45594000000E+02  0.51100000000E-03 0. -1.
         11   -1    0    0    0    0 -0.00000000000E+00 -0.00000000000E+00 -0.45593999997E+02  0.45594000000E+02  0.51100000000E-03 0.  1.
    9900012    2    1    2    0    0 -0.75194411358E+00  0.61707373409E+00 -0.66845492957E+00  0.90007732261E+02  0.89999993527E+02 0.  0.
         12    1    1    2    0    0  0.75194411358E+00 -0.61707373409E+00  0.66845492957E+00  0.11802677392E+01  0.00000000000E+00 0. -1.
         11    1    3    3    0    0  0.36196416393E+01 -0.40295603504E+01  0.73475886225E+01  0.91283197271E+01  0.51100000000E-03 0. -1.
        -11    1    3    3    0    0 -0.33679208764E+02 -0.16000233894E+02  0.12801965718E+02  0.39423177372E+02  0.51100000000E-03 0.  1.
         12    1    3    3    0    0  0.29307623011E+02  0.20646867978E+02 -0.20818009270E+02  0.41456235162E+02  0.00000000000E+00 0. -1.
</event>
<event>
 7    1  0.1698110E-015  0.9000771E+02  0.7816164E-02  0.1186339E+00
        -11   -1    0    0    0    0  0.00000000000E+00  0.00000000000E+00  0.45593999997E+02  0.45594000000E+02  0.51100000000E-03 0.  1.
         11   -1    0    0    0    0 -0.00000000000E+00 -0.00000000000E+00 -0.45593999997E+02  0.45594000000E+02  0.51100000000E-03 0. -1.
    9900012    2    1    2    0    0 -0.47585613665E+00 -0.88923603631E+00  0.61310265649E+00  0.90007714162E+02  0.89999975189E+02 0.  0.
         12    1    1    2    0    0  0.47585613665E+00  0.88923603631E+00 -0.61310265649E+00  0.11802858376E+01  0.00000000000E+00 0. -1.
         11    1    3    3    0    0  0.12742835511E+02  0.27225372682E+02  0.20168905943E+02  0.36199247806E+02  0.51100000000E-03 0. -1.
        -11    1    3    3    0    0  0.42378417379E+01  0.26422946915E+01  0.76868966021E+01  0.91667553401E+01  0.51100000000E-03 0.  1.
        -12    1    3    3    0    0 -0.17456533386E+02 -0.30756903410E+02 -0.27242699889E+02  0.44641711016E+02  0.00000000000E+00 0.  1.
</event>
<event>
 7    1  0.1698110E-015  0.9000770E+02  0.7816164E-02  0.1186339E+00
        -11   -1    0    0    0    0  0.00000000000E+00  0.00000000000E+00  0.45593999997E+02  0.45594000000E+02  0.51100000000E-03 0. -1.
         11   -1    0    0    0    0 -0.00000000000E+00 -0.00000000000E+00 -0.45593999997E+02  0.45594000000E+02  0.51100000000E-03 0.  1.
    9900012    2    1    2    0    0  0.98276294226E-01  0.10578740705E+01 -0.51414202856E+00  0.90007704357E+02  0.89999965255E+02 0.  0.
         12    1    1    2    0    0 -0.98276294226E-01 -0.10578740705E+01  0.51414202856E+00  0.11802956429E+01  0.00000000000E+00 0. -1.
         11    1    3    3    0    0  0.37531016750E+02  0.11225942237E+02 -0.14294023287E+02  0.41700336922E+02  0.51100000000E-03 0. -1.
        -11    1    3    3    0    0 -0.15883965446E+02 -0.85213671370E+01 -0.60128967052E+01  0.19001815261E+02  0.51100000000E-03 0.  1.
        -12    1    3    3    0    0 -0.21548775010E+02 -0.16467010291E+01  0.19792777964E+02  0.29305552174E+02  0.00000000000E+00 0.  1.
</event>
<event>
 7    1  0.1698110E-015  0.9000769E+02  0.7816164E-02  0.1186339E+00
        -11   -1    0    0    0    0  0.00000000000E+00  0.00000000000E+00  0.45593999997E+02  0.45594000000E+02  0.51100000000E-03 0.  1.
         11   -1    0    0    0    0 -0.00000000000E+00 -0.00000000000E+00 -0.45593999997E+02  0.45594000000E+02  0.51100000000E-03 0. -1.
    9900012    2    1    2    0    0  0.46976188928E+00 -0.93496002188E+00  0.54617223401E+00  0.90007690471E+02  0.89999951185E+02 0.  0.
         12    1    1    2    0    0 -0.46976188928E+00  0.93496002188E+00 -0.54617223401E+00  0.11803095290E+01  0.00000000000E+00 0. -1.
         11    1    3    3    0    0 -0.32241122328E+02 -0.13050832816E+02 -0.19212126797E+01  0.34835402461E+02  0.51100000000E-03 0. -1.
        -11    1    3    3    0    0 -0.27769122560E+01 -0.11832771995E+02  0.22406634197E+01  0.12359057714E+02  0.51100000000E-03 0.  1.
        -12    1    3    3    0    0  0.35487796474E+02  0.23948644788E+02  0.22672149401E+00  0.42813230296E+02  0.00000000000E+00 0.  1.
</event>
<event>
 7    1  0.1698110E-015  0.9000785E+02  0.7816164E-02  0.1186339E+00
        -11   -1    0    0    0    0  0.00000000000E+00  0.00000000000E+00  0.45593999997E+02  0.45594000000E+02  0.51100000000E-03 0. -1.
         11   -1    0    0    0    0 -0.00000000000E+00 -0.00000000000E+00 -0.45593999997E+02  0.45594000000E+02  0.51100000000E-03 0.  1.
    9900012    2    1    2    0    0 -0.96888797517E+00 -0.30155150787E+00  0.60256334563E+00  0.90007847550E+02  0.90000110337E+02 0.  0.
         12    1    1    2    0    0  0.96888797517E+00  0.30155150787E+00 -0.60256334563E+00  0.11801524502E+01  0.00000000000E+00 0. -1.
         11    1    3    3    0    0 -0.18343801688E+02 -0.31937779863E+02 -0.78725473971E+01  0.37662897469E+02  0.51100000000E-03 0. -1.
        -11    1    3    3    0    0 -0.14924553235E+01 -0.17969955574E+01 -0.96235488681E+01  0.99029949512E+01  0.51100000000E-03 0.  1.
        -12    1    3    3    0    0  0.18867369036E+02  0.33433223913E+02  0.18098659611E+02  0.42441955130E+02  0.00000000000E+00 0.  1.
</event>
<event>
 7    1  0.1698110E-015  0.9000774E+02  0.7816164E-02  0.1186339E+00
        -11   -1    0    0    0    0  0.00000000000E+00  0.00000000000E+00  0.45593999997E+02  0.45594000000E+02  0.51100000000E-03 0.  1.
         11   -1    0    0    0    0 -0.00000000000E+00 -0.00000000000E+00 -0.45593999997E+02  0.45594000000E+02  0.51100000000E-03 0. -1.
    9900012    2    1    2    0    0 -0.73608837531E+00 -0.91751973403E+00  0.96706723791E-01  0.90007737000E+02  0.89999998328E+02 0.  0.
         12    1    1    2    0    0  0.73608837531E+00  0.91751973403E+00 -0.96706723791E-01  0.11802629999E+01  0.00000000000E+00 0. -1.
         11    1    3    3    0    0 -0.49223404392E+00  0.38521627911E+01  0.69149951590E+01  0.79308644443E+01  0.51100000000E-03 0. -1.
        -11    1    3    3    0    0 -0.14008250653E+02  0.28532862426E+02  0.19646626274E+02  0.37367703285E+02  0.51100000000E-03 0.  1.
         12    1    3    3    0    0  0.13764396322E+02 -0.33302544951E+02 -0.26464914709E+02  0.44709169271E+02  0.00000000000E+00 0. -1.
</event>
<event>
 7    1  0.1698110E-015  0.9000774E+02  0.7816164E-02  0.1186339E+00
        -11   -1    0    0    0    0  0.00000000000E+00  0.00000000000E+00  0.45593999997E+02  0.45594000000E+02  0.51100000000E-03 0.  1.
         11   -1    0    0    0    0 -0.00000000000E+00 -0.00000000000E+00 -0.45593999997E+02  0.45594000000E+02  0.51100000000E-03 0. -1.
    9900012    2    1    2    0    0 -0.90454541671E+00 -0.68163630502E+00  0.33193855974E+00  0.90007739999E+02  0.90000001367E+02 0.  0.
         12    1    1    2    0    0  0.90454541671E+00  0.68163630502E+00 -0.33193855974E+00  0.11802600013E+01  0.00000000000E+00 0. -1.
         11    1    3    3    0    0  0.85655286633E+01 -0.95683966586E+01 -0.20101659287E+01  0.12998586970E+02  0.51100000000E-03 0. -1.
        -11    1    3    3    0    0 -0.24128689869E+02 -0.27870870687E+02  0.56655104803E+01  0.37297146230E+02  0.51100000000E-03 0.  1.
         12    1    3    3    0    0  0.14658615789E+02  0.36757631041E+02 -0.33234059918E+01  0.39712006798E+02  0.00000000000E+00 0. -1.
</event>
<event>
 7    1  0.1698110E-015  0.9000776E+02  0.7816164E-02  0.1186339E+00
        -11   -1    0    0    0    0  0.00000000000E+00  0.00000000000E+00  0.45593999997E+02  0.45594000000E+02  0.51100000000E-03 0. -1.
         11   -1    0    0    0    0 -0.00000000000E+00 -0.00000000000E+00 -0.45593999997E+02  0.45594000000E+02  0.51100000000E-03 0.  1.
    9900012    2    1    2    0    0 -0.73916910405E+00 -0.91675812294E+00  0.78398061708E-01  0.90007761602E+02  0.90000023255E+02 0.  0.
         12    1    1    2    0    0  0.73916910405E+00  0.91675812294E+00 -0.78398061708E-01  0.11802383981E+01  0.00000000000E+00 0. -1.
         11    1    3    3    0    0 -0.25277885780E+01  0.90294959341E+01 -0.81793590691E+01  0.12442806233E+02  0.51100000000E-03 0. -1.
        -11    1    3    3    0    0  0.21609715619E+02  0.24992397308E+02 -0.83810843098E+01  0.34085807997E+02  0.51100000000E-03 0.  1.
         12    1    3    3    0    0 -0.19821096146E+02 -0.34938651365E+02  0.16638841441E+02  0.43479147371E+02  0.00000000000E+00 0. -1.
</event>
<event>
 7    1  0.2534989E-015  0.9000745E+02  0.7816164E-02  0.1186340E+00
        -11   -1    0    0    0    0  0.00000000000E+00  0.00000000000E+00  0.45593999997E+02  0.45594000000E+02  0.51100000000E-03 0. -1.
         11   -1    0    0    0    0 -0.00000000000E+00 -0.00000000000E+00 -0.45593999997E+02  0.45594000000E+02  0.51100000000E-03 0.  1.
    9900012    2    1    2    0    0  0.11727580697E+01 -0.41438723979E-01  0.12887606050E+00  0.90007454492E+02  0.89999712091E+02 0.  0.
         12    1    1    2    0    0 -0.11727580697E+01  0.41438723979E-01 -0.12887606050E+00  0.11805455082E+01  0.00000000000E+00 0. -1.
         11    1    3    3    0    0 -0.38319387474E+01  0.81763110094E+01 -0.34884398342E+01  0.96801357957E+01  0.51100000000E-03 0. -1.
        -11    1    3    3    0    0  0.33486233795E+02  0.20922108466E+02  0.10374760144E+01  0.39498592800E+02  0.51100000000E-03 0.  1.
         12    1    3    3    0    0 -0.28481536978E+02 -0.29139858199E+02  0.25798398803E+01  0.40828725896E+02  0.00000000000E+00 0. -1.
</event>
<event>
 7    1  0.1698110E-015  0.9000776E+02  0.7816164E-02  0.1186339E+00
        -11   -1    0    0    0    0  0.00000000000E+00  0.00000000000E+00  0.45593999997E+02  0.45594000000E+02  0.51100000000E-03 0.  1.
         11   -1    0    0    0    0 -0.00000000000E+00 -0.00000000000E+00 -0.45593999997E+02  0.45594000000E+02  0.51100000000E-03 0. -1.
    9900012    2    1    2    0    0  0.59330692569E+00  0.28940211451E+00  0.97836005560E+00  0.90007764816E+02  0.90000026511E+02 0.  0.
         12    1    1    2    0    0 -0.59330692569E+00 -0.28940211451E+00 -0.97836005560E+00  0.11802351843E+01  0.00000000000E+00 0. -1.
         11    1    3    3    0    0  0.30556447779E+01  0.74295167842E+01  0.46889643416E+01  0.93016703615E+01  0.51100000000E-03 0. -1.
        -11    1    3    3    0    0 -0.39445276563E+02  0.78459930309E+01  0.26194537817E+01  0.40303237936E+02  0.51100000000E-03 0.  1.
         12    1    3    3    0    0  0.36982938711E+02 -0.14986107701E+02 -0.63300580677E+01  0.40402856518E+02  0.00000000000E+00 0. -1.
</event>
<event>
 7    1  0.1698110E-015  0.9000765E+02  0.7816164E-02  0.1186339E+00
        -11   -1    0    0    0    0  0.00000000000E+00  0.00000000000E+00  0.45593999997E+02  0.45594000000E+02  0.51100000000E-03 0. -1.
         11   -1    0    0    0    0 -0.00000000000E+00 -0.00000000000E+00 -0.45593999997E+02  0.45594000000E+02  0.51100000000E-03 0.  1.
    9900012    2    1    2    0    0 -0.91393858342E+00  0.13687663476E-01  0.74682937507E+00  0.90007650390E+02  0.89999910575E+02 0.  0.
         12    1    1    2    0    0  0.91393858342E+00 -0.13687663476E-01 -0.74682937507E+00  0.11803496100E+01  0.00000000000E+00 0. -1.
         11    1    3    3    0    0  0.96244674347E+00  0.11808124335E+02 -0.42042498868E+01  0.12571150362E+02  0.51100000000E-03 0. -1.
        -11    1    3    3    0    0 -0.15663542238E+02 -0.28482782706E+02 -0.24628577571E+02  0.40782132111E+02  0.51100000000E-03 0.  1.
         12    1    3    3    0    0  0.13787156911E+02  0.16688346034E+02  0.29579656833E+02  0.36654367917E+02  0.00000000000E+00 0. -1.
</event>
<event>
 7    1  0.1698110E-015  0.9000770E+02  0.7816164E-02  0.1186339E+00
        -11   -1    0    0    0    0  0.00000000000E+00  0.00000000000E+00  0.45593999997E+02  0.45594000000E+02  0.51100000000E-03 0.  1.
         11   -1    0    0    0    0 -0.00000000000E+00 -0.00000000000E+00 -0.45593999997E+02  0.45594000000E+02  0.51100000000E-03 0. -1.
    9900012    2    1    2    0    0  0.31106040960E-01  0.88165648549E+00  0.78410345473E+00  0.90007701745E+02  0.89999962608E+02 0.  0.
         12    1    1    2    0    0 -0.31106040960E-01 -0.88165648549E+00 -0.78410345473E+00  0.11802982555E+01  0.00000000000E+00 0. -1.
         11    1    3    3    0    0 -0.27869790316E+02  0.13034073808E+02 -0.24121374217E+02  0.39095434345E+02  0.51100000000E-03 0. -1.
        -11    1    3    3    0    0  0.74218662159E+01  0.10784048769E+01 -0.73352528297E+01  0.10490614355E+02  0.51100000000E-03 0.  1.
        -12    1    3    3    0    0  0.20479030141E+02 -0.13230822199E+02  0.32240730501E+02  0.40421653044E+02  0.00000000000E+00 0.  1.
</event>
<event>
 7    1  0.1698110E-015  0.9000776E+02  0.7816164E-02  0.1186339E+00
        -11   -1    0    0    0    0  0.00000000000E+00  0.00000000000E+00  0.45593999997E+02  0.45594000000E+02  0.51100000000E-03 0.  1.
         11   -1    0    0    0    0 -0.00000000000E+00 -0.00000000000E+00 -0.45593999997E+02  0.45594000000E+02  0.51100000000E-03 0. -1.
    9900012    2    1    2    0    0 -0.49325465599E+00  0.10087081800E+01  0.36356163312E+00  0.90007758750E+02  0.90000020365E+02 0.  0.
         12    1    1    2    0    0  0.49325465599E+00 -0.10087081800E+01 -0.36356163312E+00  0.11802412504E+01  0.00000000000E+00 0. -1.
         11    1    3    3    0    0  0.23153315124E+02 -0.75887362525E+01  0.26725827038E+02  0.36165380549E+02  0.51100000000E-03 0. -1.
        -11    1    3    3    0    0  0.76374654865E+01 -0.81315363501E+01 -0.37346373084E+01  0.11764364775E+02  0.51100000000E-03 0.  1.
        -12    1    3    3    0    0 -0.31284035267E+02  0.16728980783E+02 -0.22627628096E+02  0.42078013426E+02  0.00000000000E+00 0.  1.
</event>
<event>
 7    1  0.1698110E-015  0.9000762E+02  0.7816164E-02  0.1186339E+00
        -11   -1    0    0    0    0  0.00000000000E+00  0.00000000000E+00  0.45593999997E+02  0.45594000000E+02  0.51100000000E-03 0.  1.
         11   -1    0    0    0    0 -0.00000000000E+00 -0.00000000000E+00 -0.45593999997E+02  0.45594000000E+02  0.51100000000E-03 0. -1.
    9900012    2    1    2    0    0  0.53379239290E+00  0.73744620131E+00 -0.75136360041E+00  0.90007615114E+02  0.89999874834E+02 0.  0.
         12    1    1    2    0    0 -0.53379239290E+00 -0.73744620131E+00  0.75136360041E+00  0.11803848858E+01  0.00000000000E+00 0. -1.
         11    1    3    3    0    0  0.23886491575E+02 -0.16141842888E+02 -0.84299855858E+01  0.30036448339E+02  0.51100000000E-03 0. -1.
        -11    1    3    3    0    0 -0.93025609921E+01 -0.67223960325E+00  0.28094533373E+02  0.29602235605E+02  0.51100000000E-03 0.  1.
         12    1    3    3    0    0 -0.14050138190E+02  0.17551528692E+02 -0.20415911388E+02  0.30368931170E+02  0.00000000000E+00 0. -1.
</event>
<event>
 7    1  0.1698110E-015  0.9000778E+02  0.7816164E-02  0.1186339E+00
        -11   -1    0    0    0    0  0.00000000000E+00  0.00000000000E+00  0.45593999997E+02  0.45594000000E+02  0.51100000000E-03 0. -1.
         11   -1    0    0    0    0 -0.00000000000E+00 -0.00000000000E+00 -0.45593999997E+02  0.45594000000E+02  0.51100000000E-03 0.  1.
    9900012    2    1    2    0    0 -0.10533406191E+01 -0.52949271298E+00 -0.55060868861E-01  0.90007779388E+02  0.90000041276E+02 0.  0.
         12    1    1    2    0    0  0.10533406191E+01  0.52949271298E+00  0.55060868861E-01  0.11802206117E+01  0.00000000000E+00 0. -1.
         11    1    3    3    0    0  0.51400285243E+01  0.46210352815E+01  0.12311177481E+01  0.70206489354E+01  0.51100000000E-03 0. -1.
        -11    1    3    3    0    0  0.17846372060E+02  0.32638699187E+02  0.57798153854E+01  0.37645503669E+02  0.51100000000E-03 0.  1.
         12    1    3    3    0    0 -0.24039741204E+02 -0.37789227182E+02 -0.70659940024E+01  0.45341626784E+02  0.00000000000E+00 0. -1.
</event>
<event>
 7    1  0.1698110E-015  0.9000761E+02  0.7816164E-02  0.1186339E+00
        -11   -1    0    0    0    0  0.00000000000E+00  0.00000000000E+00  0.45593999997E+02  0.45594000000E+02  0.51100000000E-03 0. -1.
         11   -1    0    0    0    0 -0.00000000000E+00 -0.00000000000E+00 -0.45593999997E+02  0.45594000000E+02  0.51100000000E-03 0.  1.
    9900012    2    1    2    0    0  0.11874012364E+00  0.89332346076E+00 -0.76236588242E+00  0.90007606946E+02  0.89999866558E+02 0.  0.
         12    1    1    2    0    0 -0.11874012364E+00 -0.89332346076E+00  0.76236588242E+00  0.11803930537E+01  0.00000000000E+00 0. -1.
         11    1    3    3    0    0 -0.12035491580E+02 -0.28909428256E+02  0.12652040425E+02  0.33773987429E+02  0.51100000000E-03 0. -1.
        -11    1    3    3    0    0 -0.41798279596E+01 -0.96171581208E+01  0.23470426241E+01  0.10745664309E+02  0.51100000000E-03 0.  1.
        -12    1    3    3    0    0  0.16334059663E+02  0.39419909837E+02 -0.15761448931E+02  0.45487955209E+02  0.00000000000E+00 0.  1.
</event>
<event>
 7    1  0.1698110E-015  0.9000776E+02  0.7816164E-02  0.1186339E+00
        -11   -1    0    0    0    0  0.00000000000E+00  0.00000000000E+00  0.45593999997E+02  0.45594000000E+02  0.51100000000E-03 0. -1.
         11   -1    0    0    0    0 -0.00000000000E+00 -0.00000000000E+00 -0.45593999997E+02  0.45594000000E+02  0.51100000000E-03 0.  1.
    9900012    2    1    2    0    0 -0.75605414868E+00 -0.54875057303E+00  0.72125742102E+00  0.90007763865E+02  0.90000025548E+02 0.  0.
         12    1    1    2    0    0  0.75605414868E+00  0.54875057303E+00 -0.72125742102E+00  0.11802361351E+01  0.00000000000E+00 0. -1.
         11    1    3    3    0    0 -0.13796775774E+02  0.25944965822E+02  0.26623122540E+02  0.39652022991E+02  0.51100000000E-03 0. -1.
        -11    1    3    3    0    0  0.59365053494E+01  0.57252599282E+01  0.25611045659E+00  0.82514416823E+01  0.51100000000E-03 0.  1.
        -12    1    3    3    0    0  0.71042162756E+01 -0.32218976323E+02 -0.26157975575E+02  0.42104299192E+02  0.00000000000E+00 0.  1.
</event>
<event>
 7    1  0.1698110E-015  0.9000758E+02  0.7816164E-02  0.1186339E+00
        -11   -1    0    0    0    0  0.00000000000E+00  0.00000000000E+00  0.45593999997E+02  0.45594000000E+02  0.51100000000E-03 0.  1.
         11   -1    0    0    0    0 -0.00000000000E+00 -0.00000000000E+00 -0.45593999997E+02  0.45594000000E+02  0.51100000000E-03 0. -1.
    9900012    2    1    2    0    0  0.97881228966E+00 -0.39056331625E+00  0.53177299294E+00  0.90007578161E+02  0.89999837392E+02 0.  0.
         12    1    1    2    0    0 -0.97881228966E+00  0.39056331625E+00 -0.53177299294E+00  0.11804218392E+01  0.00000000000E+00 0. -1.
         11    1    3    3    0    0 -0.13143202427E+02 -0.56852196425E+01 -0.21940778289E+02  0.26200443595E+02  0.51100000000E-03 0. -1.
        -11    1    3    3    0    0 -0.63192547649E+01 -0.23532363173E+02  0.84988177582E+01  0.25805716437E+02  0.51100000000E-03 0.  1.
         12    1    3    3    0    0  0.20441269481E+02  0.28827019499E+02  0.13973733523E+02  0.38001418129E+02  0.00000000000E+00 0. -1.
</event>
<event>
 7    1  0.1698110E-015  0.9000842E+02  0.7816164E-02  0.1186338E+00
        -11   -1    0    0    0    0  0.00000000000E+00  0.00000000000E+00  0.45593999997E+02  0.45594000000E+02  0.51100000000E-03 0.  1.
         11   -1    0    0    0    0 -0.00000000000E+00 -0.00000000000E+00 -0.45593999997E+02  0.45594000000E+02  0.51100000000E-03 0. -1.
    9900012    2    1    2    0    0 -0.45544270838E+00  0.10871900831E+01  0.44727035011E-01  0.90008419208E+02  0.90000689539E+02 0.  0.
         12    1    1    2    0    0  0.45544270838E+00 -0.10871900831E+01 -0.44727035011E-01  0.11795807920E+01  0.00000000000E+00 0. -1.
         11    1    3    3    0    0  0.45216297678E+01 -0.28252607022E+01  0.86989689836E+01  0.10202906225E+02  0.51100000000E-03 0. -1.
        -11    1    3    3    0    0  0.22308141158E+02  0.28408512403E+02  0.11572042309E+02  0.37928998172E+02  0.51100000000E-03 0.  1.
         12    1    3    3    0    0 -0.27285213635E+02 -0.24496061617E+02 -0.20226284258E+02  0.41876514811E+02  0.00000000000E+00 0. -1.
</event>
<event>
 7    1  0.1698110E-015  0.9000773E+02  0.7816164E-02  0.1186339E+00
        -11   -1    0    0    0    0  0.00000000000E+00  0.00000000000E+00  0.45593999997E+02  0.45594000000E+02  0.51100000000E-03 0. -1.
         11   -1    0    0    0    0 -0.00000000000E+00 -0.00000000000E+00 -0.45593999997E+02  0.45594000000E+02  0.51100000000E-03 0.  1.
    9900012    2    1    2    0    0 -0.10566186172E+01 -0.49523306028E+00 -0.17703384192E+00  0.90007728986E+02  0.89999990208E+02 0.  0.
         12    1    1    2    0    0  0.10566186172E+01  0.49523306028E+00  0.17703384192E+00  0.11802710144E+01  0.00000000000E+00 0. -1.
         11    1    3    3    0    0  0.10275760829E+02  0.69685511020E+00 -0.97794718760E+01  0.14202638420E+02  0.51100000000E-03 0. -1.
        -11    1    3    3    0    0  0.13474014135E+02 -0.29800538265E+02 -0.85632616753E+01  0.33807552242E+02  0.51100000000E-03 0.  1.
         12    1    3    3    0    0 -0.24806393581E+02  0.28608450095E+02  0.18165699709E+02  0.41997538324E+02  0.00000000000E+00 0. -1.
</event>
<event>
 7    1  0.1698110E-015  0.9000732E+02  0.7816164E-02  0.1186340E+00
        -11   -1    0    0    0    0  0.00000000000E+00  0.00000000000E+00  0.45593999997E+02  0.45594000000E+02  0.51100000000E-03 0.  1.
         11   -1    0    0    0    0 -0.00000000000E+00 -0.00000000000E+00 -0.45593999997E+02  0.45594000000E+02  0.51100000000E-03 0. -1.
    9900012    2    1    2    0    0 -0.44876920894E+00  0.44071897457E-01  0.10911756746E+01  0.90007322022E+02  0.89999577872E+02 0.  0.
         12    1    1    2    0    0  0.44876920894E+00 -0.44071897457E-01 -0.10911756746E+01  0.11806779780E+01  0.00000000000E+00 0. -1.
         11    1    3    3    0    0  0.34932273713E+01  0.14082863232E+02  0.15268064591E+01  0.14589750255E+02  0.51100000000E-03 0. -1.
        -11    1    3    3    0    0 -0.22008217894E+02 -0.24780751791E+02 -0.26142169264E+02  0.42212087467E+02  0.51100000000E-03 0.  1.
         12    1    3    3    0    0  0.18066221314E+02  0.10741960457E+02  0.25706538479E+02  0.33205484300E+02  0.00000000000E+00 0. -1.
</event>
<event>
 7    1  0.1698110E-015  0.9000771E+02  0.7816164E-02  0.1186339E+00
        -11   -1    0    0    0    0  0.00000000000E+00  0.00000000000E+00  0.45593999997E+02  0.45594000000E+02  0.51100000000E-03 0. -1.
         11   -1    0    0    0    0 -0.00000000000E+00 -0.00000000000E+00 -0.45593999997E+02  0.45594000000E+02  0.51100000000E-03 0.  1.
    9900012    2    1    2    0    0 -0.19562298811E-01 -0.27976492061E+00 -0.11464846602E+01  0.90007712675E+02  0.89999973682E+02 0.  0.
         12    1    1    2    0    0  0.19562298811E-01  0.27976492061E+00  0.11464846602E+01  0.11802873253E+01  0.00000000000E+00 0. -1.
         11    1    3    3    0    0  0.64091154556E+00  0.13292197945E+02  0.35716717419E+02  0.38115314472E+02  0.51100000000E-03 0. -1.
        -11    1    3    3    0    0 -0.24982956901E+01  0.20081035180E+01  0.56948274071E+01  0.65349078458E+01  0.51100000000E-03 0.  1.
        -12    1    3    3    0    0  0.18378218457E+01 -0.15580066384E+02 -0.42558029487E+02  0.45357490357E+02  0.00000000000E+00 0.  1.
</event>
<event>
 7    1  0.1698110E-015  0.9000778E+02  0.7816164E-02  0.1186339E+00
        -11   -1    0    0    0    0  0.00000000000E+00  0.00000000000E+00  0.45593999997E+02  0.45594000000E+02  0.51100000000E-03 0.  1.
         11   -1    0    0    0    0 -0.00000000000E+00 -0.00000000000E+00 -0.45593999997E+02  0.45594000000E+02  0.51100000000E-03 0. -1.
    9900012    2    1    2    0    0 -0.14446162586E+00 -0.29401406647E+00  0.11338430234E+01  0.90007782463E+02  0.90000044392E+02 0.  0.
         12    1    1    2    0    0  0.14446162586E+00  0.29401406647E+00 -0.11338430234E+01  0.11802175369E+01  0.00000000000E+00 0. -1.
         11    1    3    3    0    0  0.54302984699E+01  0.59257572832E+01  0.30793556671E+01  0.86072743907E+01  0.51100000000E-03 0. -1.
        -11    1    3    3    0    0  0.28754769991E+02 -0.60209005851E+01  0.24349348157E+02  0.38157290221E+02  0.51100000000E-03 0.  1.
         12    1    3    3    0    0 -0.34329530087E+02 -0.19887076453E+00 -0.26294860801E+02  0.43243217851E+02  0.00000000000E+00 0. -1.
</event>
<event>
 7    1  0.1698110E-015  0.9000771E+02  0.7816164E-02  0.1186339E+00
        -11   -1    0    0    0    0  0.00000000000E+00  0.00000000000E+00  0.45593999997E+02  0.45594000000E+02  0.51100000000E-03 0. -1.
         11   -1    0    0    0    0 -0.00000000000E+00 -0.00000000000E+00 -0.45593999997E+02  0.45594000000E+02  0.51100000000E-03 0.  1.
    9900012    2    1    2    0    0 -0.57977554487E+00 -0.95883913597E+00  0.37092274362E+00  0.90007705184E+02  0.89999966092E+02 0.  0.
         12    1    1    2    0    0  0.57977554487E+00  0.95883913597E+00 -0.37092274362E+00  0.11802948161E+01  0.00000000000E+00 0. -1.
         11    1    3    3    0    0 -0.77346693631E+01 -0.20757551374E+01 -0.38984141746E+01  0.89068233891E+01  0.51100000000E-03 0. -1.
        -11    1    3    3    0    0 -0.14886371596E+02  0.22128935697E+02 -0.26650391497E+02  0.37703278658E+02  0.51100000000E-03 0.  1.
         12    1    3    3    0    0  0.22041265414E+02 -0.21012019696E+02  0.30919728415E+02  0.43397603137E+02  0.00000000000E+00 0. -1.
</event>
<event>
 7    1  0.1698110E-015  0.9000757E+02  0.7816164E-02  0.1186339E+00
        -11   -1    0    0    0    0  0.00000000000E+00  0.00000000000E+00  0.45593999997E+02  0.45594000000E+02  0.51100000000E-03 0.  1.
         11   -1    0    0    0    0 -0.00000000000E+00 -0.00000000000E+00 -0.45593999997E+02  0.45594000000E+02  0.51100000000E-03 0. -1.
    9900012    2    1    2    0    0  0.37171919145E+00  0.31562681862E-01  0.11199251111E+01  0.90007574816E+02  0.89999834004E+02 0.  0.
         12    1    1    2    0    0 -0.37171919145E+00 -0.31562681862E-01 -0.11199251111E+01  0.11804251839E+01  0.00000000000E+00 0. -1.
         11    1    3    3    0    0  0.30035122861E+02  0.23444273782E+02  0.10700372169E+01  0.38116762171E+02  0.51100000000E-03 0. -1.
        -11    1    3    3    0    0 -0.16948746338E+01  0.66008267737E+01  0.75662809344E+01  0.10182932856E+02  0.51100000000E-03 0.  1.
        -12    1    3    3    0    0 -0.27968529036E+02 -0.30013537874E+02 -0.75163930401E+01  0.41707879789E+02  0.00000000000E+00 0.  1.
</event>
<event>
 7    1  0.1698110E-015  0.9000776E+02  0.7816164E-02  0.1186339E+00
        -11   -1    0    0    0    0  0.00000000000E+00  0.00000000000E+00  0.45593999997E+02  0.45594000000E+02  0.51100000000E-03 0.  1.
         11   -1    0    0    0    0 -0.00000000000E+00 -0.00000000000E+00 -0.45593999997E+02  0.45594000000E+02  0.51100000000E-03 0. -1.
    9900012    2    1    2    0    0 -0.10350186611E+01 -0.10822004194E+00  0.55677216360E+00  0.90007758309E+02  0.90000019919E+02 0.  0.
         12    1    1    2    0    0  0.10350186611E+01  0.10822004194E+00 -0.55677216360E+00  0.11802416907E+01  0.00000000000E+00 0. -1.
         11    1    3    3    0    0 -0.33519971729E+01 -0.48084628075E+01  0.43269638912E+01  0.72855896395E+01  0.51100000000E-03 0. -1.
        -11    1    3    3    0    0 -0.36677109583E+01 -0.36430849058E+02  0.11597709641E+02  0.38407886377E+02  0.51100000000E-03 0.  1.
         12    1    3    3    0    0  0.59846894702E+01  0.41131091824E+02 -0.15367901369E+02  0.44314282293E+02  0.00000000000E+00 0. -1.
</event>
<event>
 7    1  0.1698110E-015  0.9000742E+02  0.7816164E-02  0.1186340E+00
        -11   -1    0    0    0    0  0.00000000000E+00  0.00000000000E+00  0.45593999997E+02  0.45594000000E+02  0.51100000000E-03 0.  1.
         11   -1    0    0    0    0 -0.00000000000E+00 -0.00000000000E+00 -0.45593999997E+02  0.45594000000E+02  0.51100000000E-03 0. -1.
    9900012    2    1    2    0    0 -0.40624294578E+00 -0.10440240457E+01  0.37250198770E+00  0.90007416555E+02  0.89999673653E+02 0.  0.
         12    1    1    2    0    0  0.40624294578E+00  0.10440240457E+01 -0.37250198770E+00  0.11805834447E+01  0.00000000000E+00 0. -1.
         11    1    3    3    0    0 -0.19809181481E+02  0.31283722974E+02  0.61564238094E+01  0.37536336375E+02  0.51100000000E-03 0. -1.
        -11    1    3    3    0    0 -0.89730768935E+01 -0.25913047665E+01  0.40943051730E+01  0.10197759776E+02  0.51100000000E-03 0.  1.
        -12    1    3    3    0    0  0.28376015428E+02 -0.29736442254E+02 -0.98782269947E+01  0.42273320405E+02  0.00000000000E+00 0.  1.
</event>
<event>
 7    1  0.1698110E-015  0.9000781E+02  0.7816164E-02  0.1186339E+00
        -11   -1    0    0    0    0  0.00000000000E+00  0.00000000000E+00  0.45593999997E+02  0.45594000000E+02  0.51100000000E-03 0.  1.
         11   -1    0    0    0    0 -0.00000000000E+00 -0.00000000000E+00 -0.45593999997E+02  0.45594000000E+02  0.51100000000E-03 0. -1.
    9900012    2    1    2    0    0 -0.91266435150E+00  0.20346156297E-02  0.74824988822E+00  0.90007814314E+02  0.90000076663E+02 0.  0.
         12    1    1    2    0    0  0.91266435150E+00 -0.20346156297E-02 -0.74824988822E+00  0.11801856860E+01  0.00000000000E+00 0. -1.
         11    1    3    3    0    0 -0.29009968142E+00  0.19768083775E+01  0.80920512352E+01  0.83350598462E+01  0.51100000000E-03 0. -1.
        -11    1    3    3    0    0 -0.10918797818E+02 -0.35899523498E+02  0.14276718349E+02  0.40147485852E+02  0.51100000000E-03 0.  1.
         12    1    3    3    0    0  0.10296233147E+02  0.33924749736E+02 -0.21620519696E+02  0.41525268616E+02  0.00000000000E+00 0. -1.
</event>
<event>
 7    1  0.1698110E-015  0.9000765E+02  0.7816164E-02  0.1186339E+00
        -11   -1    0    0    0    0  0.00000000000E+00  0.00000000000E+00  0.45593999997E+02  0.45594000000E+02  0.51100000000E-03 0. -1.
         11   -1    0    0    0    0 -0.00000000000E+00 -0.00000000000E+00 -0.45593999997E+02  0.45594000000E+02  0.51100000000E-03 0.  1.
    9900012    2    1    2    0    0 -0.52936841975E+00 -0.28836071875E+00 -0.10148159574E+01  0.90007646555E+02  0.89999906689E+02 0.  0.
         12    1    1    2    0    0  0.52936841975E+00  0.28836071875E+00  0.10148159574E+01  0.11803534451E+01  0.00000000000E+00 0. -1.
         11    1    3    3    0    0 -0.13852648542E+02 -0.34998508317E+02 -0.22243491614E+01  0.37705956897E+02  0.51100000000E-03 0. -1.
        -11    1    3    3    0    0  0.54368403302E+01 -0.38153689350E+01  0.10001795706E+02  0.12006339596E+02  0.51100000000E-03 0.  1.
        -12    1    3    3    0    0  0.78864397923E+01  0.38525516533E+02 -0.87922625018E+01  0.40295350062E+02  0.00000000000E+00 0.  1.
</event>
<event>
 7    1  0.1698110E-015  0.9000764E+02  0.7816164E-02  0.1186339E+00
        -11   -1    0    0    0    0  0.00000000000E+00  0.00000000000E+00  0.45593999997E+02  0.45594000000E+02  0.51100000000E-03 0. -1.
         11   -1    0    0    0    0 -0.00000000000E+00 -0.00000000000E+00 -0.45593999997E+02  0.45594000000E+02  0.51100000000E-03 0.  1.
    9900012    2    1    2    0    0 -0.70010645189E+00 -0.80022148338E+00 -0.51258865634E+00  0.90007639633E+02  0.89999899676E+02 0.  0.
         12    1    1    2    0    0  0.70010645189E+00  0.80022148338E+00  0.51258865634E+00  0.11803603674E+01  0.00000000000E+00 0. -1.
         11    1    3    3    0    0  0.12525703687E+01 -0.41373326587E+01 -0.54741745019E+01  0.69751731732E+01  0.51100000000E-03 0. -1.
        -11    1    3    3    0    0  0.24788727630E+02 -0.22243719047E+02 -0.19573517586E+02  0.38631420444E+02  0.51100000000E-03 0.  1.
         12    1    3    3    0    0 -0.26741404451E+02  0.25580830223E+02  0.24535103431E+02  0.44401046015E+02  0.00000000000E+00 0. -1.
</event>
<event>
 7    1  0.1698110E-015  0.9000780E+02  0.7816164E-02  0.1186339E+00
        -11   -1    0    0    0    0  0.00000000000E+00  0.00000000000E+00  0.45593999997E+02  0.45594000000E+02  0.51100000000E-03 0.  1.
         11   -1    0    0    0    0 -0.00000000000E+00 -0.00000000000E+00 -0.45593999997E+02  0.45594000000E+02  0.51100000000E-03 0. -1.
    9900012    2    1    2    0    0 -0.53265280996E+00  0.10311281168E+01  0.21433474341E+00  0.90007795106E+02  0.90000057202E+02 0.  0.
         12    1    1    2    0    0  0.53265280996E+00 -0.10311281168E+01 -0.21433474341E+00  0.11802048939E+01  0.00000000000E+00 0. -1.
         11    1    3    3    0    0 -0.69954835856E+01  0.31393953859E+01  0.43580106563E+01  0.88195720490E+01  0.51100000000E-03 0. -1.
        -11    1    3    3    0    0 -0.36721612327E+02  0.52996147227E+01  0.67998904779E+00  0.37108289013E+02  0.51100000000E-03 0.  1.
         12    1    3    3    0    0  0.43184443103E+02 -0.74078819917E+01 -0.48236649607E+01  0.44079934044E+02  0.00000000000E+00 0. -1.
</event>
<event>
 7    1  0.1698110E-015  0.9000775E+02  0.7816164E-02  0.1186339E+00
        -11   -1    0    0    0    0  0.00000000000E+00  0.00000000000E+00  0.45593999997E+02  0.45594000000E+02  0.51100000000E-03 0.  1.
         11   -1    0    0    0    0 -0.00000000000E+00 -0.00000000000E+00 -0.45593999997E+02  0.45594000000E+02  0.51100000000E-03 0. -1.
    9900012    2    1    2    0    0  0.45612191746E+00 -0.60594475484E+00  0.90431131801E+00  0.90007747820E+02  0.90000009291E+02 0.  0.
         12    1    1    2    0    0 -0.45612191746E+00  0.60594475484E+00 -0.90431131801E+00  0.11802521804E+01  0.00000000000E+00 0. -1.
         11    1    3    3    0    0 -0.30586175869E+01 -0.34139902099E+02 -0.18913640260E+02  0.39148612300E+02  0.51100000000E-03 0. -1.
        -11    1    3    3    0    0 -0.10913868130E+01 -0.31702750863E+01 -0.52101039348E+01  0.61957205046E+01  0.51100000000E-03 0.  1.
        -12    1    3    3    0    0  0.46061263173E+01  0.36704232431E+02  0.25028055513E+02  0.44663415014E+02  0.00000000000E+00 0.  1.
</event>
<event>
 7    1  0.1698110E-015  0.9000787E+02  0.7816164E-02  0.1186339E+00
        -11   -1    0    0    0    0  0.00000000000E+00  0.00000000000E+00  0.45593999997E+02  0.45594000000E+02  0.51100000000E-03 0.  1.
         11   -1    0    0    0    0 -0.00000000000E+00 -0.00000000000E+00 -0.45593999997E+02  0.45594000000E+02  0.51100000000E-03 0. -1.
    9900012    2    1    2    0    0  0.41854721132E+00 -0.49224733332E+00  0.98752849495E+00  0.90007872154E+02  0.90000135266E+02 0.  0.
         12    1    1    2    0    0 -0.41854721132E+00  0.49224733332E+00 -0.98752849495E+00  0.11801278463E+01  0.00000000000E+00 0. -1.
         11    1    3    3    0    0  0.12241617519E+02 -0.22169081696E+02 -0.29394604720E+02  0.38799074340E+02  0.51100000000E-03 0. -1.
        -11    1    3    3    0    0  0.97507398394E+01  0.78581044041E+00  0.22034078332E+01  0.10027433959E+02  0.51100000000E-03 0.  1.
        -12    1    3    3    0    0 -0.21573810147E+02  0.20891023923E+02  0.28178725382E+02  0.41181363855E+02  0.00000000000E+00 0.  1.
</event>
<event>
 7    1  0.1698110E-015  0.9000784E+02  0.7816164E-02  0.1186339E+00
        -11   -1    0    0    0    0  0.00000000000E+00  0.00000000000E+00  0.45593999997E+02  0.45594000000E+02  0.51100000000E-03 0.  1.
         11   -1    0    0    0    0 -0.00000000000E+00 -0.00000000000E+00 -0.45593999997E+02  0.45594000000E+02  0.51100000000E-03 0. -1.
    9900012    2    1    2    0    0  0.31525540447E+00 -0.13594224660E-01  0.11371899640E+01  0.90007842474E+02  0.90000105194E+02 0.  0.
         12    1    1    2    0    0 -0.31525540447E+00  0.13594224660E-01 -0.11371899640E+01  0.11801575264E+01  0.00000000000E+00 0. -1.
         11    1    3    3    0    0  0.82642289546E+01  0.80916066399E+01 -0.40049058470E+02  0.41685712934E+02  0.51100000000E-03 0. -1.
        -11    1    3    3    0    0 -0.60329648725E+01  0.72704435873E+01  0.11946977298E+02  0.15231095887E+02  0.51100000000E-03 0.  1.
        -12    1    3    3    0    0 -0.19160086777E+01 -0.15375644452E+02  0.29239271137E+02  0.33091033652E+02  0.00000000000E+00 0.  1.
</event>
<event>
 7    1  0.1698110E-015  0.9000787E+02  0.7816164E-02  0.1186339E+00
        -11   -1    0    0    0    0  0.00000000000E+00  0.00000000000E+00  0.45593999997E+02  0.45594000000E+02  0.51100000000E-03 0.  1.
         11   -1    0    0    0    0 -0.00000000000E+00 -0.00000000000E+00 -0.45593999997E+02  0.45594000000E+02  0.51100000000E-03 0. -1.
    9900012    2    1    2    0    0 -0.68188115954E+00 -0.34245093412E+00  0.90026666718E+00  0.90007866690E+02  0.90000129730E+02 0.  0.
         12    1    1    2    0    0  0.68188115954E+00  0.34245093412E+00 -0.90026666718E+00  0.11801333103E+01  0.00000000000E+00 0. -1.
         11    1    3    3    0    0 -0.44445865980E+01 -0.55106821093E+01  0.38875661103E+01  0.80768272150E+01  0.51100000000E-03 0. -1.
        -11    1    3    3    0    0  0.43774369549E+01 -0.94652244921E+01  0.37475289388E+02  0.38899225493E+02  0.51100000000E-03 0.  1.
         12    1    3    3    0    0 -0.61473151638E+00  0.14633455667E+02 -0.40462588831E+02  0.43031813982E+02  0.00000000000E+00 0. -1.
</event>
<event>
 7    1  0.1698110E-015  0.9000796E+02  0.7816164E-02  0.1186339E+00
        -11   -1    0    0    0    0  0.00000000000E+00  0.00000000000E+00  0.45593999997E+02  0.45594000000E+02  0.51100000000E-03 0. -1.
         11   -1    0    0    0    0 -0.00000000000E+00 -0.00000000000E+00 -0.45593999997E+02  0.45594000000E+02  0.51100000000E-03 0.  1.
    9900012    2    1    2    0    0  0.45040084104E-01  0.11673574126E+01  0.16655522443E+00  0.90007960772E+02  0.90000225053E+02 0.  0.
         12    1    1    2    0    0 -0.45040084104E-01 -0.11673574126E+01 -0.16655522443E+00  0.11800392285E+01  0.00000000000E+00 0. -1.
         11    1    3    3    0    0 -0.22336762140E+02 -0.14079777718E+02  0.52298438751E+01  0.26916952850E+02  0.51100000000E-03 0. -1.
        -11    1    3    3    0    0 -0.12626062461E+02 -0.12795653381E+02 -0.24206887838E+00  0.17977897439E+02  0.51100000000E-03 0.  1.
        -12    1    3    3    0    0  0.35007864686E+02  0.28042788511E+02 -0.48212197723E+01  0.45113110483E+02  0.00000000000E+00 0.  1.
</event>
<event>
 7    1  0.1698110E-015  0.9000743E+02  0.7816164E-02  0.1186340E+00
        -11   -1    0    0    0    0  0.00000000000E+00  0.00000000000E+00  0.45593999997E+02  0.45594000000E+02  0.51100000000E-03 0. -1.
         11   -1    0    0    0    0 -0.00000000000E+00 -0.00000000000E+00 -0.45593999997E+02  0.45594000000E+02  0.51100000000E-03 0.  1.
    9900012    2    1    2    0    0 -0.43109955746E+00  0.18441602149E+00 -0.10834649471E+01  0.90007427093E+02  0.89999684330E+02 0.  0.
         12    1    1    2    0    0  0.43109955746E+00 -0.18441602149E+00  0.10834649471E+01  0.11805729071E+01  0.00000000000E+00 0. -1.
         11    1    3    3    0    0 -0.17607082972E+02 -0.17647218656E+02  0.34021182142E+02  0.42176706032E+02  0.51100000000E-03 0. -1.
        -11    1    3    3    0    0 -0.39584025959E+01  0.70091880648E+01 -0.49500570195E+01  0.94499065179E+01  0.51100000000E-03 0.  1.
        -12    1    3    3    0    0  0.21134386010E+02  0.10822446612E+02 -0.30154590070E+02  0.38380814543E+02  0.00000000000E+00 0.  1.
</event>
<event>
 7    1  0.1698110E-015  0.9000765E+02  0.7816164E-02  0.1186339E+00
        -11   -1    0    0    0    0  0.00000000000E+00  0.00000000000E+00  0.45593999997E+02  0.45594000000E+02  0.51100000000E-03 0.  1.
         11   -1    0    0    0    0 -0.00000000000E+00 -0.00000000000E+00 -0.45593999997E+02  0.45594000000E+02  0.51100000000E-03 0. -1.
    9900012    2    1    2    0    0 -0.30115383950E-01 -0.29940052900E+00  0.11413508797E+01  0.90007648593E+02  0.89999908754E+02 0.  0.
         12    1    1    2    0    0  0.30115383950E-01  0.29940052900E+00 -0.11413508797E+01  0.11803514069E+01  0.00000000000E+00 0. -1.
         11    1    3    3    0    0 -0.28649163185E+01  0.11309924402E+02 -0.30138451244E+02  0.32317926591E+02  0.51100000000E-03 0. -1.
        -11    1    3    3    0    0  0.78849193127E+01 -0.60748818720E+01 -0.10951460992E+02  0.14799008090E+02  0.51100000000E-03 0.  1.
        -12    1    3    3    0    0 -0.50501183782E+01 -0.55344430591E+01  0.42231263115E+02  0.42890713912E+02  0.00000000000E+00 0.  1.
</event>
<event>
 7    1  0.1698110E-015  0.9000774E+02  0.7816164E-02  0.1186339E+00
        -11   -1    0    0    0    0  0.00000000000E+00  0.00000000000E+00  0.45593999997E+02  0.45594000000E+02  0.51100000000E-03 0. -1.
         11   -1    0    0    0    0 -0.00000000000E+00 -0.00000000000E+00 -0.45593999997E+02  0.45594000000E+02  0.51100000000E-03 0.  1.
    9900012    2    1    2    0    0  0.10094265151E+01 -0.50265599450E+00  0.34844623726E+00  0.90007737437E+02  0.89999998771E+02 0.  0.
         12    1    1    2    0    0 -0.10094265151E+01  0.50265599450E+00 -0.34844623726E+00  0.11802625634E+01  0.00000000000E+00 0. -1.
         11    1    3    3    0    0  0.50762165569E+01 -0.29448450472E+01  0.15311407559E+01  0.60650209530E+01  0.51100000000E-03 0. -1.
        -11    1    3    3    0    0  0.38752873615E+02 -0.75602352882E+01  0.39091434278E+01  0.39676488928E+02  0.51100000000E-03 0.  1.
         12    1    3    3    0    0 -0.42819663657E+02  0.10002424341E+02 -0.50918379465E+01  0.44266227556E+02  0.00000000000E+00 0. -1.
</event>
<event>
 7    1  0.1698110E-015  0.9000770E+02  0.7816164E-02  0.1186339E+00
        -11   -1    0    0    0    0  0.00000000000E+00  0.00000000000E+00  0.45593999997E+02  0.45594000000E+02  0.51100000000E-03 0. -1.
         11   -1    0    0    0    0 -0.00000000000E+00 -0.00000000000E+00 -0.45593999997E+02  0.45594000000E+02  0.51100000000E-03 0.  1.
    9900012    2    1    2    0    0  0.71295380341E+00 -0.91067400782E+00 -0.23551267378E+00  0.90007704912E+02  0.89999965817E+02 0.  0.
         12    1    1    2    0    0 -0.71295380341E+00  0.91067400782E+00  0.23551267378E+00  0.11802950876E+01  0.00000000000E+00 0. -1.
         11    1    3    3    0    0 -0.18262087023E+01  0.32228216905E+02  0.20420539268E+02  0.38196746293E+02  0.51100000000E-03 0. -1.
        -11    1    3    3    0    0 -0.83810790107E+01 -0.21909931187E+01  0.51358418125E+01  0.10070740172E+02  0.51100000000E-03 0.  1.
        -12    1    3    3    0    0  0.10920241516E+02 -0.30947897794E+02 -0.25791893754E+02  0.41740218448E+02  0.00000000000E+00 0.  1.
</event>
<event>
 7    1  0.1698110E-015  0.9000771E+02  0.7816164E-02  0.1186339E+00
        -11   -1    0    0    0    0  0.00000000000E+00  0.00000000000E+00  0.45593999997E+02  0.45594000000E+02  0.51100000000E-03 0. -1.
         11   -1    0    0    0    0 -0.00000000000E+00 -0.00000000000E+00 -0.45593999997E+02  0.45594000000E+02  0.51100000000E-03 0.  1.
    9900012    2    1    2    0    0  0.15295148704E+00 -0.36316889816E+00 -0.11125681630E+01  0.90007706086E+02  0.89999967006E+02 0.  0.
         12    1    1    2    0    0 -0.15295148704E+00  0.36316889816E+00  0.11125681630E+01  0.11802939139E+01  0.00000000000E+00 0. -1.
         11    1    3    3    0    0 -0.41183657020E+02  0.34490944371E+01 -0.12301096465E+01  0.41346136796E+02  0.51100000000E-03 0. -1.
        -11    1    3    3    0    0  0.30464689810E+01 -0.89800253397E+01 -0.28739113527E+01  0.99086424437E+01  0.51100000000E-03 0.  1.
        -12    1    3    3    0    0  0.38290139526E+02  0.51677620044E+01  0.29914528362E+01  0.38752926846E+02  0.00000000000E+00 0.  1.
</event>
<event>
 7    1  0.1698110E-015  0.9000772E+02  0.7816164E-02  0.1186339E+00
        -11   -1    0    0    0    0  0.00000000000E+00  0.00000000000E+00  0.45593999997E+02  0.45594000000E+02  0.51100000000E-03 0. -1.
         11   -1    0    0    0    0 -0.00000000000E+00 -0.00000000000E+00 -0.45593999997E+02  0.45594000000E+02  0.51100000000E-03 0.  1.
    9900012    2    1    2    0    0  0.22230245031E-01 -0.99687835184E+00 -0.63150719514E+00  0.90007719538E+02  0.89999980636E+02 0.  0.
         12    1    1    2    0    0 -0.22230245031E-01  0.99687835184E+00  0.63150719514E+00  0.11802804623E+01  0.00000000000E+00 0. -1.
         11    1    3    3    0    0 -0.12554752240E+01  0.60146377745E+01 -0.71327981604E+01  0.94142920846E+01  0.51100000000E-03 0. -1.
        -11    1    3    3    0    0  0.23770040036E+02 -0.29893244652E+02  0.22929823501E+02  0.44546578827E+02  0.51100000000E-03 0.  1.
         12    1    3    3    0    0 -0.22492334567E+02  0.22881728526E+02 -0.16428532535E+02  0.36046848626E+02  0.00000000000E+00 0. -1.
</event>
<event>
 7    1  0.1698110E-015  0.9000780E+02  0.7816164E-02  0.1186339E+00
        -11   -1    0    0    0    0  0.00000000000E+00  0.00000000000E+00  0.45593999997E+02  0.45594000000E+02  0.51100000000E-03 0. -1.
         11   -1    0    0    0    0 -0.00000000000E+00 -0.00000000000E+00 -0.45593999997E+02  0.45594000000E+02  0.51100000000E-03 0.  1.
    9900012    2    1    2    0    0 -0.78756014842E+00 -0.71296902003E+00 -0.51408609271E+00  0.90007804965E+02  0.90000067190E+02 0.  0.
         12    1    1    2    0    0  0.78756014842E+00  0.71296902003E+00  0.51408609271E+00  0.11801950354E+01  0.00000000000E+00 0. -1.
         11    1    3    3    0    0 -0.98569256417E+01 -0.39645529776E+01  0.21700715039E+02  0.24161905904E+02  0.51100000000E-03 0. -1.
        -11    1    3    3    0    0  0.45489708061E+01  0.93682249110E+01  0.20214950263E+02  0.22739854612E+02  0.51100000000E-03 0.  1.
        -12    1    3    3    0    0  0.45203946873E+01 -0.61166409534E+01 -0.42429751394E+02  0.43106044449E+02  0.00000000000E+00 0.  1.
</event>
<event>
 7    1  0.1698110E-015  0.9000766E+02  0.7816164E-02  0.1186339E+00
        -11   -1    0    0    0    0  0.00000000000E+00  0.00000000000E+00  0.45593999997E+02  0.45594000000E+02  0.51100000000E-03 0. -1.
         11   -1    0    0    0    0 -0.00000000000E+00 -0.00000000000E+00 -0.45593999997E+02  0.45594000000E+02  0.51100000000E-03 0.  1.
    9900012    2    1    2    0    0  0.49400079293E+00 -0.37881438881E+00 -0.10028257612E+01  0.90007662492E+02  0.89999922837E+02 0.  0.
         12    1    1    2    0    0 -0.49400079293E+00  0.37881438881E+00  0.10028257612E+01  0.11803375076E+01  0.00000000000E+00 0. -1.
         11    1    3    3    0    0 -0.18714233391E+02 -0.25797006406E+02  0.18751381097E+02  0.36977322297E+02  0.51100000000E-03 0. -1.
        -11    1    3    3    0    0 -0.46643791016E+01 -0.17770121709E+01  0.65921273858E+01  0.82686364288E+01  0.51100000000E-03 0.  1.
        -12    1    3    3    0    0  0.23872613286E+02  0.27195204188E+02 -0.26346334244E+02  0.44761703766E+02  0.00000000000E+00 0.  1.
</event>
<event>
 7    1  0.1698110E-015  0.9000771E+02  0.7816164E-02  0.1186339E+00
        -11   -1    0    0    0    0  0.00000000000E+00  0.00000000000E+00  0.45593999997E+02  0.45594000000E+02  0.51100000000E-03 0.  1.
         11   -1    0    0    0    0 -0.00000000000E+00 -0.00000000000E+00 -0.45593999997E+02  0.45594000000E+02  0.51100000000E-03 0. -1.
    9900012    2    1    2    0    0  0.58008848688E+00  0.85493123630E+00  0.57067272203E+00  0.90007712990E+02  0.89999974001E+02 0.  0.
         12    1    1    2    0    0 -0.58008848688E+00 -0.85493123630E+00 -0.57067272203E+00  0.11802870105E+01  0.00000000000E+00 0. -1.
         11    1    3    3    0    0  0.23456139621E+02  0.29151081498E+02 -0.19470342618E+02  0.42179026546E+02  0.51100000000E-03 0. -1.
        -11    1    3    3    0    0 -0.55379258576E+01  0.32824587935E+01  0.70139064608E+01  0.95204013905E+01  0.51100000000E-03 0.  1.
        -12    1    3    3    0    0 -0.17338125277E+02 -0.31578609055E+02  0.13027108879E+02  0.38308285053E+02  0.00000000000E+00 0.  1.
</event>
<event>
 7    1  0.1698110E-015  0.9000779E+02  0.7816164E-02  0.1186339E+00
        -11   -1    0    0    0    0  0.00000000000E+00  0.00000000000E+00  0.45593999997E+02  0.45594000000E+02  0.51100000000E-03 0.  1.
         11   -1    0    0    0    0 -0.00000000000E+00 -0.00000000000E+00 -0.45593999997E+02  0.45594000000E+02  0.51100000000E-03 0. -1.
    9900012    2    1    2    0    0  0.49635454067E+00  0.94443465861E+00  0.50455308966E+00  0.90007788801E+02  0.90000050813E+02 0.  0.
         12    1    1    2    0    0 -0.49635454067E+00 -0.94443465861E+00 -0.50455308966E+00  0.11802111992E+01  0.00000000000E+00 0. -1.
         11    1    3    3    0    0  0.50680452297E+00 -0.33853811463E+01  0.79093656442E+01  0.86183363525E+01  0.51100000000E-03 0. -1.
        -11    1    3    3    0    0 -0.10785140350E+02 -0.18792219247E+01  0.35275043176E+02  0.36934799292E+02  0.51100000000E-03 0.  1.
         12    1    3    3    0    0  0.10774690368E+02  0.62090377296E+01 -0.42679855731E+02  0.44454653156E+02  0.00000000000E+00 0. -1.
</event>
<event>
 7    1  0.1698110E-015  0.9000776E+02  0.7816164E-02  0.1186339E+00
        -11   -1    0    0    0    0  0.00000000000E+00  0.00000000000E+00  0.45593999997E+02  0.45594000000E+02  0.51100000000E-03 0. -1.
         11   -1    0    0    0    0 -0.00000000000E+00 -0.00000000000E+00 -0.45593999997E+02  0.45594000000E+02  0.51100000000E-03 0.  1.
    9900012    2    1    2    0    0 -0.29106579277E+00 -0.16662782804E+00 -0.11315872961E+01  0.90007756831E+02  0.90000018421E+02 0.  0.
         12    1    1    2    0    0  0.29106579277E+00  0.16662782804E+00  0.11315872961E+01  0.11802431688E+01  0.00000000000E+00 0. -1.
         11    1    3    3    0    0 -0.12273460803E+02 -0.23308327275E+02  0.13169095773E+02  0.29450654394E+02  0.51100000000E-03 0. -1.
        -11    1    3    3    0    0 -0.56804303808E+01 -0.12421555160E+02 -0.15718485211E+02  0.20823858900E+02  0.51100000000E-03 0.  1.
        -12    1    3    3    0    0  0.17662825391E+02  0.35563254607E+02  0.14178021418E+01  0.39733243537E+02  0.00000000000E+00 0.  1.
</event>
<event>
 7    1  0.1698110E-015  0.9000761E+02  0.7816164E-02  0.1186339E+00
        -11   -1    0    0    0    0  0.00000000000E+00  0.00000000000E+00  0.45593999997E+02  0.45594000000E+02  0.51100000000E-03 0. -1.
         11   -1    0    0    0    0 -0.00000000000E+00 -0.00000000000E+00 -0.45593999997E+02  0.45594000000E+02  0.51100000000E-03 0.  1.
    9900012    2    1    2    0    0 -0.29830360782E+00 -0.98666750242E+00 -0.57517906300E+00  0.90007606524E+02  0.89999866130E+02 0.  0.
         12    1    1    2    0    0  0.29830360782E+00  0.98666750242E+00  0.57517906300E+00  0.11803934756E+01  0.00000000000E+00 0. -1.
         11    1    3    3    0    0  0.34615175303E+02 -0.10354018594E+02  0.11500444092E+02  0.37916701820E+02  0.51100000000E-03 0. -1.
        -11    1    3    3    0    0  0.60506016068E+01  0.75058048984E+01 -0.16643019374E+01  0.97834957034E+01  0.51100000000E-03 0.  1.
        -12    1    3    3    0    0 -0.40964080518E+02  0.18615461930E+01 -0.10411321218E+02  0.42307409001E+02  0.00000000000E+00 0.  1.
</event>
<event>
 7    1  0.1698110E-015  0.9000759E+02  0.7816164E-02  0.1186339E+00
        -11   -1    0    0    0    0  0.00000000000E+00  0.00000000000E+00  0.45593999997E+02  0.45594000000E+02  0.51100000000E-03 0. -1.
         11   -1    0    0    0    0 -0.00000000000E+00 -0.00000000000E+00 -0.45593999997E+02  0.45594000000E+02  0.51100000000E-03 0.  1.
    9900012    2    1    2    0    0 -0.54953719073E+00 -0.36455218335E+00 -0.97901591205E+00  0.90007592624E+02  0.89999852046E+02 0.  0.
         12    1    1    2    0    0  0.54953719073E+00  0.36455218335E+00  0.97901591205E+00  0.11804073765E+01  0.00000000000E+00 0. -1.
         11    1    3    3    0    0  0.20947343497E+02  0.27238122643E+02  0.20303355856E+02  0.39911562034E+02  0.51100000000E-03 0. -1.
        -11    1    3    3    0    0  0.95640812348E+00 -0.73439343974E+00  0.57406751352E+01  0.58659527352E+01  0.51100000000E-03 0.  1.
        -12    1    3    3    0    0 -0.22453288811E+02 -0.26868281386E+02 -0.27023046903E+02  0.44230077855E+02  0.00000000000E+00 0.  1.
</event>
<event>
 7    1  0.1698110E-015  0.9000775E+02  0.7816164E-02  0.1186339E+00
        -11   -1    0    0    0    0  0.00000000000E+00  0.00000000000E+00  0.45593999997E+02  0.45594000000E+02  0.51100000000E-03 0. -1.
         11   -1    0    0    0    0 -0.00000000000E+00 -0.00000000000E+00 -0.45593999997E+02  0.45594000000E+02  0.51100000000E-03 0.  1.
    9900012    2    1    2    0    0 -0.92385579805E+00  0.72706332995E+00 -0.10415656204E+00  0.90007754597E+02  0.90000016158E+02 0.  0.
         12    1    1    2    0    0  0.92385579805E+00 -0.72706332995E+00  0.10415656204E+00  0.11802454028E+01  0.00000000000E+00 0. -1.
         11    1    3    3    0    0 -0.22299385840E+02 -0.36791231028E+02  0.13578588396E+01  0.43043014186E+02  0.51100000000E-03 0. -1.
        -11    1    3    3    0    0  0.10498787932E+02  0.38078969808E+01  0.21024018814E+01  0.11364185910E+02  0.51100000000E-03 0.  1.
        -12    1    3    3    0    0  0.10876742110E+02  0.33710397377E+02 -0.35644172830E+01  0.35600554501E+02  0.00000000000E+00 0.  1.
</event>
<event>
 7    1  0.1698110E-015  0.9000777E+02  0.7816164E-02  0.1186339E+00
        -11   -1    0    0    0    0  0.00000000000E+00  0.00000000000E+00  0.45593999997E+02  0.45594000000E+02  0.51100000000E-03 0. -1.
         11   -1    0    0    0    0 -0.00000000000E+00 -0.00000000000E+00 -0.45593999997E+02  0.45594000000E+02  0.51100000000E-03 0.  1.
    9900012    2    1    2    0    0  0.12597829239E+00 -0.26217784846E+00 -0.11438246175E+01  0.90007770145E+02  0.90000031911E+02 0.  0.
         12    1    1    2    0    0 -0.12597829239E+00  0.26217784846E+00  0.11438246175E+01  0.11802298547E+01  0.00000000000E+00 0. -1.
         11    1    3    3    0    0 -0.23175137765E+02 -0.84307658240E+01 -0.11392156824E+02  0.27165162620E+02  0.51100000000E-03 0. -1.
        -11    1    3    3    0    0  0.11729416353E+02 -0.20284296474E+01 -0.23163288844E+02  0.26042881660E+02  0.51100000000E-03 0.  1.
        -12    1    3    3    0    0  0.11571699704E+02  0.10197017623E+02  0.33411621051E+02  0.36799725865E+02  0.00000000000E+00 0.  1.
</event>
<event>
 7    1  0.1698110E-015  0.9000757E+02  0.7816164E-02  0.1186339E+00
        -11   -1    0    0    0    0  0.00000000000E+00  0.00000000000E+00  0.45593999997E+02  0.45594000000E+02  0.51100000000E-03 0. -1.
         11   -1    0    0    0    0 -0.00000000000E+00 -0.00000000000E+00 -0.45593999997E+02  0.45594000000E+02  0.51100000000E-03 0.  1.
    9900012    2    1    2    0    0 -0.43539978017E+00  0.95137217823E+00 -0.54657362864E+00  0.90007565876E+02  0.89999824945E+02 0.  0.
         12    1    1    2    0    0  0.43539978017E+00 -0.95137217823E+00  0.54657362864E+00  0.11804341242E+01  0.00000000000E+00 0. -1.
         11    1    3    3    0    0  0.48410452372E+01 -0.47438742743E+01  0.44568975626E+01  0.81119663624E+01  0.51100000000E-03 0. -1.
        -11    1    3    3    0    0  0.68914432699E+01 -0.29218354893E+02  0.21050247910E+02  0.36664931342E+02  0.51100000000E-03 0.  1.
         12    1    3    3    0    0 -0.12167888287E+02  0.34913601345E+02 -0.26053719101E+02  0.45230668172E+02  0.00000000000E+00 0. -1.
</event>
<event>
 7    1  0.1698110E-015  0.9000775E+02  0.7816164E-02  0.1186339E+00
        -11   -1    0    0    0    0  0.00000000000E+00  0.00000000000E+00  0.45593999997E+02  0.45594000000E+02  0.51100000000E-03 0. -1.
         11   -1    0    0    0    0 -0.00000000000E+00 -0.00000000000E+00 -0.45593999997E+02  0.45594000000E+02  0.51100000000E-03 0.  1.
    9900012    2    1    2    0    0 -0.36771797464E+00  0.10096515941E+01 -0.48823720145E+00  0.90007750698E+02  0.90000012207E+02 0.  0.
         12    1    1    2    0    0  0.36771797464E+00 -0.10096515941E+01  0.48823720145E+00  0.11802493021E+01  0.00000000000E+00 0. -1.
         11    1    3    3    0    0  0.22507018251E+02 -0.50078787477E+01  0.21661476319E+02  0.31636439065E+02  0.51100000000E-03 0. -1.
        -11    1    3    3    0    0  0.11965525295E+02  0.20074542899E+01  0.58738562283E+01  0.13479831437E+02  0.51100000000E-03 0.  1.
        -12    1    3    3    0    0 -0.34840261520E+02  0.40100760518E+01 -0.28023569749E+02  0.44891480197E+02  0.00000000000E+00 0.  1.
</event>
<event>
 7    1  0.1698110E-015  0.9000785E+02  0.7816164E-02  0.1186339E+00
        -11   -1    0    0    0    0  0.00000000000E+00  0.00000000000E+00  0.45593999997E+02  0.45594000000E+02  0.51100000000E-03 0.  1.
         11   -1    0    0    0    0 -0.00000000000E+00 -0.00000000000E+00 -0.45593999997E+02  0.45594000000E+02  0.51100000000E-03 0. -1.
    9900012    2    1    2    0    0  0.53859988691E+00  0.35809533922E+00  0.98713399928E+00  0.90007849314E+02  0.90000112124E+02 0.  0.
         12    1    1    2    0    0 -0.53859988691E+00 -0.35809533922E+00 -0.98713399928E+00  0.11801506864E+01  0.00000000000E+00 0. -1.
         11    1    3    3    0    0 -0.26567991335E+01 -0.45129530696E+01  0.41440868880E+01  0.66782320595E+01  0.51100000000E-03 0. -1.
        -11    1    3    3    0    0 -0.11068883166E+02 -0.30017158159E+02  0.21266927289E+02  0.38416560948E+02  0.51100000000E-03 0.  1.
         12    1    3    3    0    0  0.14264282187E+02  0.34888206568E+02 -0.24423880178E+02  0.44913056306E+02  0.00000000000E+00 0. -1.
</event>
<event>
 7    1  0.1698110E-015  0.9000780E+02  0.7816164E-02  0.1186339E+00
        -11   -1    0    0    0    0  0.00000000000E+00  0.00000000000E+00  0.45593999997E+02  0.45594000000E+02  0.51100000000E-03 0. -1.
         11   -1    0    0    0    0 -0.00000000000E+00 -0.00000000000E+00 -0.45593999997E+02  0.45594000000E+02  0.51100000000E-03 0.  1.
    9900012    2    1    2    0    0 -0.92680092146E+00  0.28487080723E+00 -0.67288306388E+00  0.90007795381E+02  0.90000057480E+02 0.  0.
         12    1    1    2    0    0  0.92680092146E+00 -0.28487080723E+00  0.67288306388E+00  0.11802046189E+01  0.00000000000E+00 0. -1.
         11    1    3    3    0    0 -0.11212605752E+02 -0.30252495570E+02  0.23690916934E+02  0.40027435109E+02  0.51100000000E-03 0. -1.
        -11    1    3    3    0    0 -0.77516853223E+01  0.63737892690E+01  0.16328631972E+01  0.10167598412E+02  0.51100000000E-03 0.  1.
        -12    1    3    3    0    0  0.18037490153E+02  0.24163577109E+02 -0.25996663195E+02  0.39812761860E+02  0.00000000000E+00 0.  1.
</event>
<event>
 7    1  0.1698110E-015  0.9000776E+02  0.7816164E-02  0.1186339E+00
        -11   -1    0    0    0    0  0.00000000000E+00  0.00000000000E+00  0.45593999997E+02  0.45594000000E+02  0.51100000000E-03 0.  1.
         11   -1    0    0    0    0 -0.00000000000E+00 -0.00000000000E+00 -0.45593999997E+02  0.45594000000E+02  0.51100000000E-03 0. -1.
    9900012    2    1    2    0    0  0.73327640834E+00 -0.25083961526E-01 -0.92447001132E+00  0.90007759220E+02  0.90000020842E+02 0.  0.
         12    1    1    2    0    0 -0.73327640834E+00  0.25083961526E-01  0.92447001132E+00  0.11802407797E+01  0.00000000000E+00 0. -1.
         11    1    3    3    0    0 -0.22691905328E+02 -0.29305331456E+02 -0.10182561368E+02  0.38437085939E+02  0.51100000000E-03 0. -1.
        -11    1    3    3    0    0 -0.86874104868E+01  0.31147927191E+01  0.28227047136E+01  0.96509427939E+01  0.51100000000E-03 0.  1.
        -12    1    3    3    0    0  0.32112592224E+02  0.26165454776E+02  0.64353866427E+01  0.41919730488E+02  0.00000000000E+00 0.  1.
</event>
<event>
 7    1  0.1698110E-015  0.9000753E+02  0.7816164E-02  0.1186339E+00
        -11   -1    0    0    0    0  0.00000000000E+00  0.00000000000E+00  0.45593999997E+02  0.45594000000E+02  0.51100000000E-03 0. -1.
         11   -1    0    0    0    0 -0.00000000000E+00 -0.00000000000E+00 -0.45593999997E+02  0.45594000000E+02  0.51100000000E-03 0.  1.
    9900012    2    1    2    0    0 -0.10539342826E+01 -0.16316950872E+00 -0.50607002221E+00  0.90007530336E+02  0.89999788936E+02 0.  0.
         12    1    1    2    0    0  0.10539342826E+01  0.16316950872E+00  0.50607002221E+00  0.11804696641E+01  0.00000000000E+00 0. -1.
         11    1    3    3    0    0 -0.32184478103E+02 -0.15334435804E+02  0.54259760350E+01  0.36061430482E+02  0.51100000000E-03 0. -1.
        -11    1    3    3    0    0 -0.68889440883E+01 -0.51907348821E+01 -0.65211864365E+01  0.10813285905E+02  0.51100000000E-03 0.  1.
        -12    1    3    3    0    0  0.38019487909E+02  0.20362001177E+02  0.58914037926E+00  0.43132813949E+02  0.00000000000E+00 0.  1.
</event>
<event>
 7    1  0.1698110E-015  0.9000779E+02  0.7816164E-02  0.1186339E+00
        -11   -1    0    0    0    0  0.00000000000E+00  0.00000000000E+00  0.45593999997E+02  0.45594000000E+02  0.51100000000E-03 0.  1.
         11   -1    0    0    0    0 -0.00000000000E+00 -0.00000000000E+00 -0.45593999997E+02  0.45594000000E+02  0.51100000000E-03 0. -1.
    9900012    2    1    2    0    0 -0.83337353832E+00  0.58137159789E+00  0.60032656382E+00  0.90007789691E+02  0.90000051715E+02 0.  0.
         12    1    1    2    0    0  0.83337353832E+00 -0.58137159789E+00 -0.60032656382E+00  0.11802103086E+01  0.00000000000E+00 0. -1.
         11    1    3    3    0    0 -0.88131394817E+01  0.60802251529E+01 -0.26422265389E+02  0.28509238397E+02  0.51100000000E-03 0. -1.
        -11    1    3    3    0    0  0.11806892195E+01 -0.51990330249E+01 -0.16555220934E+02  0.17392507348E+02  0.51100000000E-03 0.  1.
        -12    1    3    3    0    0  0.67990767238E+01 -0.29982053017E+00  0.43577812886E+02  0.44106043946E+02  0.00000000000E+00 0.  1.
</event>
<event>
 7    1  0.1698110E-015  0.9000770E+02  0.7816164E-02  0.1186339E+00
        -11   -1    0    0    0    0  0.00000000000E+00  0.00000000000E+00  0.45593999997E+02  0.45594000000E+02  0.51100000000E-03 0.  1.
         11   -1    0    0    0    0 -0.00000000000E+00 -0.00000000000E+00 -0.45593999997E+02  0.45594000000E+02  0.51100000000E-03 0. -1.
    9900012    2    1    2    0    0 -0.72629757884E+00  0.82977197944E+00  0.42081385915E+00  0.90007697490E+02  0.89999958297E+02 0.  0.
         12    1    1    2    0    0  0.72629757884E+00 -0.82977197944E+00 -0.42081385915E+00  0.11803025099E+01  0.00000000000E+00 0. -1.
         11    1    3    3    0    0  0.84379346506E+00  0.41623172523E+01 -0.77212914668E+01  0.88122196124E+01  0.51100000000E-03 0. -1.
        -11    1    3    3    0    0 -0.18764886013E+02  0.33906873232E+02  0.10373241655E+02  0.40117342162E+02  0.51100000000E-03 0.  1.
         12    1    3    3    0    0  0.17194794969E+02 -0.37239418505E+02 -0.22311363289E+01  0.41078135716E+02  0.00000000000E+00 0. -1.
</event>
<event>
 7    1  0.1698110E-015  0.9000764E+02  0.7816164E-02  0.1186339E+00
        -11   -1    0    0    0    0  0.00000000000E+00  0.00000000000E+00  0.45593999997E+02  0.45594000000E+02  0.51100000000E-03 0.  1.
         11   -1    0    0    0    0 -0.00000000000E+00 -0.00000000000E+00 -0.45593999997E+02  0.45594000000E+02  0.51100000000E-03 0. -1.
    9900012    2    1    2    0    0  0.22066957523E+00  0.11057543621E+01  0.34909603546E+00  0.90007637423E+02  0.89999897437E+02 0.  0.
         12    1    1    2    0    0 -0.22066957523E+00 -0.11057543621E+01 -0.34909603546E+00  0.11803625768E+01  0.00000000000E+00 0. -1.
         11    1    3    3    0    0 -0.45256378632E+01  0.13373583479E+01 -0.58780703639E+01  0.75380127941E+01  0.51100000000E-03 0. -1.
        -11    1    3    3    0    0 -0.43791175026E+01  0.40173757187E+02  0.71344777053E+01  0.41036669078E+02  0.51100000000E-03 0.  1.
         12    1    3    3    0    0  0.91254249411E+01 -0.40405361173E+02 -0.90731130599E+00  0.41432955551E+02  0.00000000000E+00 0. -1.
</event>
<event>
 7    1  0.1698110E-015  0.9000777E+02  0.7816164E-02  0.1186339E+00
        -11   -1    0    0    0    0  0.00000000000E+00  0.00000000000E+00  0.45593999997E+02  0.45594000000E+02  0.51100000000E-03 0.  1.
         11   -1    0    0    0    0 -0.00000000000E+00 -0.00000000000E+00 -0.45593999997E+02  0.45594000000E+02  0.51100000000E-03 0. -1.
    9900012    2    1    2    0    0  0.90483282900E+00 -0.15347476478E+00  0.74207042960E+00  0.90007768889E+02  0.90000030639E+02 0.  0.
         12    1    1    2    0    0 -0.90483282900E+00  0.15347476478E+00 -0.74207042960E+00  0.11802311106E+01  0.00000000000E+00 0. -1.
         11    1    3    3    0    0 -0.13617016498E+02  0.12480168492E+02  0.34350921432E+02  0.39002096705E+02  0.51100000000E-03 0. -1.
        -11    1    3    3    0    0 -0.72458059071E+01  0.51632204814E+01 -0.28736088156E+01  0.93497688137E+01  0.51100000000E-03 0.  1.
        -12    1    3    3    0    0  0.21767655234E+02 -0.17796863739E+02 -0.30735242187E+02  0.41655903370E+02  0.00000000000E+00 0.  1.
</event>
<event>
 7    1  0.1698110E-015  0.9000878E+02  0.7816164E-02  0.1186337E+00
        -11   -1    0    0    0    0  0.00000000000E+00  0.00000000000E+00  0.45593999997E+02  0.45594000000E+02  0.51100000000E-03 0. -1.
         11   -1    0    0    0    0 -0.00000000000E+00 -0.00000000000E+00 -0.45593999997E+02  0.45594000000E+02  0.51100000000E-03 0.  1.
    9900012    2    1    2    0    0 -0.27293559422E-01  0.95667392983E+00  0.68890570946E+00  0.90008779485E+02  0.90001054568E+02 0.  0.
         12    1    1    2    0    0  0.27293559422E-01 -0.95667392983E+00 -0.68890570946E+00  0.11792205150E+01  0.00000000000E+00 0. -1.
         11    1    3    3    0    0 -0.22742210045E+02  0.85031364592E+01  0.33875834158E+02  0.41678334750E+02  0.51100000000E-03 0. -1.
        -11    1    3    3    0    0  0.68606830900E+01 -0.75898861279E+01  0.13582555964E+01  0.10320862484E+02  0.51100000000E-03 0.  1.
        -12    1    3    3    0    0  0.15854233396E+02  0.43423598579E-01 -0.34545184045E+02  0.38009582251E+02  0.00000000000E+00 0.  1.
</event>
<event>
 7    1  0.1698110E-015  0.9000771E+02  0.7816164E-02  0.1186339E+00
        -11   -1    0    0    0    0  0.00000000000E+00  0.00000000000E+00  0.45593999997E+02  0.45594000000E+02  0.51100000000E-03 0.  1.
         11   -1    0    0    0    0 -0.00000000000E+00 -0.00000000000E+00 -0.45593999997E+02  0.45594000000E+02  0.51100000000E-03 0. -1.
    9900012    2    1    2    0    0 -0.11300039480E+01 -0.72376171701E-01 -0.33306098901E+00  0.90007713232E+02  0.89999974247E+02 0.  0.
         12    1    1    2    0    0  0.11300039480E+01  0.72376171701E-01  0.33306098901E+00  0.11802867682E+01  0.00000000000E+00 0. -1.
         11    1    3    3    0    0  0.71120387405E+01  0.23055745816E+01  0.34257921099E+01  0.82239176211E+01  0.51100000000E-03 0. -1.
        -11    1    3    3    0    0  0.31835363117E+02 -0.94234967654E+01  0.15644919189E+02  0.36702263320E+02  0.51100000000E-03 0.  1.
         12    1    3    3    0    0 -0.40077405806E+02  0.70455460122E+01 -0.19403772287E+02  0.45081532291E+02  0.00000000000E+00 0. -1.
</event>
<event>
 7    1  0.1698110E-015  0.9000775E+02  0.7816164E-02  0.1186339E+00
        -11   -1    0    0    0    0  0.00000000000E+00  0.00000000000E+00  0.45593999997E+02  0.45594000000E+02  0.51100000000E-03 0.  1.
         11   -1    0    0    0    0 -0.00000000000E+00 -0.00000000000E+00 -0.45593999997E+02  0.45594000000E+02  0.51100000000E-03 0. -1.
    9900012    2    1    2    0    0 -0.73594707600E+00  0.67906566106E+00  0.62469721357E+00  0.90007747959E+02  0.90000009432E+02 0.  0.
         12    1    1    2    0    0  0.73594707600E+00 -0.67906566106E+00 -0.62469721357E+00  0.11802520406E+01  0.00000000000E+00 0. -1.
         11    1    3    3    0    0  0.93599245707E+01 -0.34579995424E+02 -0.59533679052E+01  0.36315655868E+02  0.51100000000E-03 0. -1.
        -11    1    3    3    0    0 -0.98713624148E+01  0.65751546142E+01  0.19028098031E+02  0.22421975137E+02  0.51100000000E-03 0.  1.
        -12    1    3    3    0    0 -0.22450923196E+00  0.28683906470E+02 -0.12450032912E+02  0.31270116954E+02  0.00000000000E+00 0.  1.
</event>
<event>
 7    1  0.3220736E-015  0.9000775E+02  0.7816164E-02  0.1186339E+00
        -11   -1    0    0    0    0  0.00000000000E+00  0.00000000000E+00  0.45593999997E+02  0.45594000000E+02  0.51100000000E-03 0. -1.
         11   -1    0    0    0    0 -0.00000000000E+00 -0.00000000000E+00 -0.45593999997E+02  0.45594000000E+02  0.51100000000E-03 0.  1.
    9900012    2    1    2    0    0 -0.60293343126E+00 -0.35260790889E+00 -0.95138382874E+00  0.90007749073E+02  0.90000010561E+02 0.  0.
         12    1    1    2    0    0  0.60293343126E+00  0.35260790889E+00  0.95138382874E+00  0.11802509265E+01  0.00000000000E+00 0. -1.
         11    1    3    3    0    0 -0.80443183469E+01  0.40432543370E+01 -0.18219482358E+01  0.91857748141E+01  0.51100000000E-03 0. -1.
        -11    1    3    3    0    0  0.11677862812E+02 -0.78209885269E+01 -0.38547165734E+02  0.41029554321E+02  0.51100000000E-03 0.  1.
         12    1    3    3    0    0 -0.42364778968E+01  0.34251262810E+01  0.39417730141E+02  0.39792419938E+02  0.00000000000E+00 0. -1.
</event>
<event>
 7    1  0.1698110E-015  0.9000772E+02  0.7816164E-02  0.1186339E+00
        -11   -1    0    0    0    0  0.00000000000E+00  0.00000000000E+00  0.45593999997E+02  0.45594000000E+02  0.51100000000E-03 0. -1.
         11   -1    0    0    0    0 -0.00000000000E+00 -0.00000000000E+00 -0.45593999997E+02  0.45594000000E+02  0.51100000000E-03 0.  1.
    9900012    2    1    2    0    0  0.48876350101E+00  0.75045171540E+00 -0.76875378311E+00  0.90007724644E+02  0.89999985809E+02 0.  0.
         12    1    1    2    0    0 -0.48876350101E+00 -0.75045171540E+00  0.76875378311E+00  0.11802753561E+01  0.00000000000E+00 0. -1.
         11    1    3    3    0    0 -0.57810546653E+01 -0.25661521446E+01 -0.10972484460E+02  0.12664957377E+02  0.51100000000E-03 0. -1.
        -11    1    3    3    0    0 -0.23056577629E+02 -0.11314696999E+02 -0.20171489980E+02  0.32657574136E+02  0.51100000000E-03 0.  1.
         12    1    3    3    0    0  0.29326395795E+02  0.14631300859E+02  0.30375220657E+02  0.44685193131E+02  0.00000000000E+00 0. -1.
</event>
<event>
 7    1  0.1814144E-015  0.9000777E+02  0.7816164E-02  0.1186339E+00
        -11   -1    0    0    0    0  0.00000000000E+00  0.00000000000E+00  0.45593999997E+02  0.45594000000E+02  0.51100000000E-03 0. -1.
         11   -1    0    0    0    0 -0.00000000000E+00 -0.00000000000E+00 -0.45593999997E+02  0.45594000000E+02  0.51100000000E-03 0.  1.
    9900012    2    1    2    0    0  0.65838086627E+00 -0.53383433391E+00 -0.82128326738E+00  0.90007766690E+02  0.90000028410E+02 0.  0.
         12    1    1    2    0    0 -0.65838086627E+00  0.53383433391E+00  0.82128326738E+00  0.11802333102E+01  0.00000000000E+00 0. -1.
         11    1    3    3    0    0 -0.81704481765E+01  0.56121978894E+00 -0.40183369403E+01  0.91224022649E+01  0.51100000000E-03 0. -1.
        -11    1    3    3    0    0  0.51297866758E+01 -0.32805597789E+02 -0.22325501403E+02  0.40011872873E+02  0.51100000000E-03 0.  1.
         12    1    3    3    0    0  0.36990423670E+01  0.31710543667E+02  0.25522555076E+02  0.40873491552E+02  0.00000000000E+00 0. -1.
</event>
<event>
 7    1  0.1698110E-015  0.9000768E+02  0.7816164E-02  0.1186339E+00
        -11   -1    0    0    0    0  0.00000000000E+00  0.00000000000E+00  0.45593999997E+02  0.45594000000E+02  0.51100000000E-03 0.  1.
         11   -1    0    0    0    0 -0.00000000000E+00 -0.00000000000E+00 -0.45593999997E+02  0.45594000000E+02  0.51100000000E-03 0. -1.
    9900012    2    1    2    0    0  0.70736783890E+00 -0.16072110802E+00  0.93109851109E+00  0.90007684376E+02  0.89999945010E+02 0.  0.
         12    1    1    2    0    0 -0.70736783890E+00  0.16072110802E+00 -0.93109851109E+00  0.11803156236E+01  0.00000000000E+00 0. -1.
         11    1    3    3    0    0  0.25033947354E+01 -0.52633484158E+01 -0.83857023894E+01  0.10212239058E+02  0.51100000000E-03 0. -1.
        -11    1    3    3    0    0 -0.19485659213E+02 -0.29542876571E+02 -0.94132940831E+01  0.36620794323E+02  0.51100000000E-03 0.  1.
         12    1    3    3    0    0  0.17689632317E+02  0.34645503879E+02  0.18730094984E+02  0.43174650996E+02  0.00000000000E+00 0. -1.
</event>
<event>
 7    1  0.1698110E-015  0.9000777E+02  0.7816164E-02  0.1186339E+00
        -11   -1    0    0    0    0  0.00000000000E+00  0.00000000000E+00  0.45593999997E+02  0.45594000000E+02  0.51100000000E-03 0.  1.
         11   -1    0    0    0    0 -0.00000000000E+00 -0.00000000000E+00 -0.45593999997E+02  0.45594000000E+02  0.51100000000E-03 0. -1.
    9900012    2    1    2    0    0 -0.11588042260E+00 -0.61684787905E+00  0.99950963010E+00  0.90007767362E+02  0.90000029092E+02 0.  0.
         12    1    1    2    0    0  0.11588042260E+00  0.61684787905E+00 -0.99950963010E+00  0.11802326376E+01  0.00000000000E+00 0. -1.
         11    1    3    3    0    0 -0.50521913007E+01 -0.23784372095E+02  0.10292648260E+02  0.26403780058E+02  0.51100000000E-03 0. -1.
        -11    1    3    3    0    0 -0.62627976461E+01  0.51101356438E+01  0.23319150842E+02  0.24680334619E+02  0.51100000000E-03 0.  1.
        -12    1    3    3    0    0  0.11199108524E+02  0.18057388573E+02 -0.32612289471E+02  0.38923652685E+02  0.00000000000E+00 0.  1.
</event>
<event>
 7    1  0.2526589E-015  0.9000786E+02  0.7816164E-02  0.1186339E+00
        -11   -1    0    0    0    0  0.00000000000E+00  0.00000000000E+00  0.45593999997E+02  0.45594000000E+02  0.51100000000E-03 0.  1.
         11   -1    0    0    0    0 -0.00000000000E+00 -0.00000000000E+00 -0.45593999997E+02  0.45594000000E+02  0.51100000000E-03 0. -1.
    9900012    2    1    2    0    0  0.54963209742E+00  0.52220838916E+00  0.90439391157E+00  0.90007862130E+02  0.90000125110E+02 0.  0.
         12    1    1    2    0    0 -0.54963209742E+00 -0.52220838916E+00 -0.90439391157E+00  0.11801378697E+01  0.00000000000E+00 0. -1.
         11    1    3    3    0    0 -0.43249006603E+01  0.82750091635E+01  0.30776198172E+01  0.98311894691E+01  0.51100000000E-03 0. -1.
        -11    1    3    3    0    0  0.35682392775E+01 -0.68735552334E+00  0.38602282117E+02  0.38772941262E+02  0.51100000000E-03 0.  1.
         12    1    3    3    0    0  0.13062934802E+01 -0.70654452510E+01 -0.40775508023E+02  0.41403731399E+02  0.00000000000E+00 0. -1.
</event>
<event>
 7    1  0.1698110E-015  0.9000775E+02  0.7816164E-02  0.1186339E+00
        -11   -1    0    0    0    0  0.00000000000E+00  0.00000000000E+00  0.45593999997E+02  0.45594000000E+02  0.51100000000E-03 0. -1.
         11   -1    0    0    0    0 -0.00000000000E+00 -0.00000000000E+00 -0.45593999997E+02  0.45594000000E+02  0.51100000000E-03 0.  1.
    9900012    2    1    2    0    0 -0.47935025943E+00 -0.14099225006E-02 -0.10785218944E+01  0.90007750816E+02  0.90000012327E+02 0.  0.
         12    1    1    2    0    0  0.47935025943E+00  0.14099225006E-02  0.10785218944E+01  0.11802491838E+01  0.00000000000E+00 0. -1.
         11    1    3    3    0    0 -0.44163894962E+02 -0.28538986137E+01 -0.64744759881E+01  0.44727096878E+02  0.51100000000E-03 0. -1.
        -11    1    3    3    0    0  0.24101037285E+01  0.12313875253E+01 -0.19374585131E+01  0.33284622532E+01  0.51100000000E-03 0.  1.
        -12    1    3    3    0    0  0.41274440974E+02  0.16211011659E+01  0.73334126069E+01  0.41952191685E+02  0.00000000000E+00 0.  1.
</event>
<event>
 7    1  0.1698110E-015  0.9000776E+02  0.7816164E-02  0.1186339E+00
        -11   -1    0    0    0    0  0.00000000000E+00  0.00000000000E+00  0.45593999997E+02  0.45594000000E+02  0.51100000000E-03 0.  1.
         11   -1    0    0    0    0 -0.00000000000E+00 -0.00000000000E+00 -0.45593999997E+02  0.45594000000E+02  0.51100000000E-03 0. -1.
    9900012    2    1    2    0    0  0.33922765131E+00 -0.24536893859E+00  0.11034828801E+01  0.90007764523E+02  0.90000026214E+02 0.  0.
         12    1    1    2    0    0 -0.33922765131E+00  0.24536893859E+00 -0.11034828801E+01  0.11802354774E+01  0.00000000000E+00 0. -1.
         11    1    3    3    0    0  0.31123969620E+01 -0.35406061007E+02 -0.50665909525E+01  0.35901901273E+02  0.51100000000E-03 0. -1.
        -11    1    3    3    0    0 -0.23065204321E+01 -0.85120875789E+01 -0.32990097072E+01  0.94158980859E+01  0.51100000000E-03 0.  1.
        -12    1    3    3    0    0 -0.46664887864E+00  0.43672779647E+02  0.94690835398E+01  0.44689965164E+02  0.00000000000E+00 0.  1.
</event>
<event>
 7    1  0.1698110E-015  0.9000773E+02  0.7816164E-02  0.1186339E+00
        -11   -1    0    0    0    0  0.00000000000E+00  0.00000000000E+00  0.45593999997E+02  0.45594000000E+02  0.51100000000E-03 0.  1.
         11   -1    0    0    0    0 -0.00000000000E+00 -0.00000000000E+00 -0.45593999997E+02  0.45594000000E+02  0.51100000000E-03 0. -1.
    9900012    2    1    2    0    0 -0.16650917827E+00 -0.23027118987E+00  0.11455544934E+01  0.90007726631E+02  0.89999987823E+02 0.  0.
         12    1    1    2    0    0  0.16650917827E+00  0.23027118987E+00 -0.11455544934E+01  0.11802733686E+01  0.00000000000E+00 0. -1.
         11    1    3    3    0    0 -0.19589147120E+02 -0.10133690100E+01 -0.26589344044E+02  0.33041713312E+02  0.51100000000E-03 0. -1.
        -11    1    3    3    0    0  0.40303620565E+01  0.12152565329E+02 -0.89284601614E+01  0.15609166009E+02  0.51100000000E-03 0.  1.
        -12    1    3    3    0    0  0.15392275885E+02 -0.11369467509E+02  0.36663358699E+02  0.41356847310E+02  0.00000000000E+00 0.  1.
</event>
<event>
 7    1  0.1698110E-015  0.9000777E+02  0.7816164E-02  0.1186339E+00
        -11   -1    0    0    0    0  0.00000000000E+00  0.00000000000E+00  0.45593999997E+02  0.45594000000E+02  0.51100000000E-03 0.  1.
         11   -1    0    0    0    0 -0.00000000000E+00 -0.00000000000E+00 -0.45593999997E+02  0.45594000000E+02  0.51100000000E-03 0. -1.
    9900012    2    1    2    0    0  0.54892140169E+00  0.34088385250E+00  0.98764222250E+00  0.90007765419E+02  0.90000027123E+02 0.  0.
         12    1    1    2    0    0 -0.54892140169E+00 -0.34088385250E+00 -0.98764222250E+00  0.11802345808E+01  0.00000000000E+00 0. -1.
         11    1    3    3    0    0 -0.90368391381E+01  0.35430957815E+02 -0.30379220142E+01  0.36691227885E+02  0.51100000000E-03 0. -1.
        -11    1    3    3    0    0  0.29313720592E+01  0.74738205788E+01  0.62561075664E+01  0.10177908348E+02  0.51100000000E-03 0.  1.
        -12    1    3    3    0    0  0.66543884806E+01 -0.42563894541E+02 -0.22305433298E+01  0.43138629186E+02  0.00000000000E+00 0.  1.
</event>
<event>
 7    1  0.1698110E-015  0.9000776E+02  0.7816164E-02  0.1186339E+00
        -11   -1    0    0    0    0  0.00000000000E+00  0.00000000000E+00  0.45593999997E+02  0.45594000000E+02  0.51100000000E-03 0.  1.
         11   -1    0    0    0    0 -0.00000000000E+00 -0.00000000000E+00 -0.45593999997E+02  0.45594000000E+02  0.51100000000E-03 0. -1.
    9900012    2    1    2    0    0 -0.98127004086E+00  0.35231189814E+00 -0.55312457232E+00  0.90007762160E+02  0.90000023820E+02 0.  0.
         12    1    1    2    0    0  0.98127004086E+00 -0.35231189814E+00  0.55312457232E+00  0.11802378401E+01  0.00000000000E+00 0. -1.
         11    1    3    3    0    0 -0.37152754523E+02  0.16754971102E+02 -0.96247455557E+01  0.41877105350E+02  0.51100000000E-03 0. -1.
        -11    1    3    3    0    0  0.63937329808E+01  0.69339734998E+01  0.20439056871E+01  0.96507699509E+01  0.51100000000E-03 0.  1.
        -12    1    3    3    0    0  0.29777751501E+02 -0.23336632703E+02  0.70277152963E+01  0.38479886859E+02  0.00000000000E+00 0.  1.
</event>
<event>
 7    1  0.1698110E-015  0.9000802E+02  0.7816164E-02  0.1186338E+00
        -11   -1    0    0    0    0  0.00000000000E+00  0.00000000000E+00  0.45593999997E+02  0.45594000000E+02  0.51100000000E-03 0.  1.
         11   -1    0    0    0    0 -0.00000000000E+00 -0.00000000000E+00 -0.45593999997E+02  0.45594000000E+02  0.51100000000E-03 0. -1.
    9900012    2    1    2    0    0 -0.65375215914E-01 -0.11381970458E+01  0.30427521505E+00  0.90008021254E+02  0.90000286334E+02 0.  0.
         12    1    1    2    0    0  0.65375215914E-01  0.11381970458E+01 -0.30427521505E+00  0.11799787457E+01  0.00000000000E+00 0. -1.
         11    1    3    3    0    0 -0.26339864995E+02 -0.85326028972E+00 -0.22562133067E+02  0.34692454365E+02  0.51100000000E-03 0. -1.
        -11    1    3    3    0    0 -0.86121018109E+01 -0.35052681605E+01 -0.49931375711E+01  0.10553986240E+02  0.51100000000E-03 0.  1.
        -12    1    3    3    0    0  0.34886591590E+02  0.32203314044E+01  0.27859545853E+02  0.44761580650E+02  0.00000000000E+00 0.  1.
</event>
<event>
 7    1  0.1698110E-015  0.9000773E+02  0.7816164E-02  0.1186339E+00
        -11   -1    0    0    0    0  0.00000000000E+00  0.00000000000E+00  0.45593999997E+02  0.45594000000E+02  0.51100000000E-03 0. -1.
         11   -1    0    0    0    0 -0.00000000000E+00 -0.00000000000E+00 -0.45593999997E+02  0.45594000000E+02  0.51100000000E-03 0.  1.
    9900012    2    1    2    0    0  0.46848460340E+00 -0.59415037018E+00 -0.90584007902E+00  0.90007729381E+02  0.89999990609E+02 0.  0.
         12    1    1    2    0    0 -0.46848460340E+00  0.59415037018E+00  0.90584007902E+00  0.11802706193E+01  0.00000000000E+00 0. -1.
         11    1    3    3    0    0  0.12435313535E+02  0.23389970770E+01 -0.44782752766E+01  0.13422476662E+02  0.51100000000E-03 0. -1.
        -11    1    3    3    0    0  0.11827593480E+02 -0.21502132260E+02 -0.24994123986E+02  0.35027701799E+02  0.51100000000E-03 0.  1.
         12    1    3    3    0    0 -0.23794422411E+02  0.18568984813E+02  0.28566559183E+02  0.41557550919E+02  0.00000000000E+00 0. -1.
</event>
<event>
 7    1  0.1698110E-015  0.9000778E+02  0.7816164E-02  0.1186339E+00
        -11   -1    0    0    0    0  0.00000000000E+00  0.00000000000E+00  0.45593999997E+02  0.45594000000E+02  0.51100000000E-03 0. -1.
         11   -1    0    0    0    0 -0.00000000000E+00 -0.00000000000E+00 -0.45593999997E+02  0.45594000000E+02  0.51100000000E-03 0.  1.
    9900012    2    1    2    0    0  0.21020056014E+00 -0.67948429898E+00 -0.94182047855E+00  0.90007784341E+02  0.90000046294E+02 0.  0.
         12    1    1    2    0    0 -0.21020056014E+00  0.67948429898E+00  0.94182047855E+00  0.11802156590E+01  0.00000000000E+00 0. -1.
         11    1    3    3    0    0  0.15007400902E+01  0.59128271839E+01 -0.73307003491E+01  0.95369237176E+01  0.51100000000E-03 0. -1.
        -11    1    3    3    0    0 -0.34549057591E+02  0.10118894036E+01 -0.17578265470E+02  0.38777012750E+02  0.51100000000E-03 0.  1.
         12    1    3    3    0    0  0.33258518061E+02 -0.76042008864E+01  0.23967145341E+02  0.41693847874E+02  0.00000000000E+00 0. -1.
</event>
<event>
 7    1  0.1698110E-015  0.9000776E+02  0.7816164E-02  0.1186339E+00
        -11   -1    0    0    0    0  0.00000000000E+00  0.00000000000E+00  0.45593999997E+02  0.45594000000E+02  0.51100000000E-03 0.  1.
         11   -1    0    0    0    0 -0.00000000000E+00 -0.00000000000E+00 -0.45593999997E+02  0.45594000000E+02  0.51100000000E-03 0. -1.
    9900012    2    1    2    0    0  0.16690592173E+00 -0.55250740080E+00  0.10294869605E+01  0.90007760441E+02  0.90000022079E+02 0.  0.
         12    1    1    2    0    0 -0.16690592173E+00  0.55250740080E+00 -0.10294869605E+01  0.11802395589E+01  0.00000000000E+00 0. -1.
         11    1    3    3    0    0 -0.19341003550E+02 -0.30835801204E+02 -0.93351427202E+00  0.36411433690E+02  0.51100000000E-03 0. -1.
        -11    1    3    3    0    0 -0.38329357447E+01 -0.60017024690E+01  0.72107676607E+01  0.10134446185E+02  0.51100000000E-03 0.  1.
        -12    1    3    3    0    0  0.23340845216E+02  0.36284996272E+02 -0.52477664282E+01  0.43461880566E+02  0.00000000000E+00 0.  1.
</event>
<event>
 7    1  0.1698110E-015  0.9000768E+02  0.7816164E-02  0.1186339E+00
        -11   -1    0    0    0    0  0.00000000000E+00  0.00000000000E+00  0.45593999997E+02  0.45594000000E+02  0.51100000000E-03 0. -1.
         11   -1    0    0    0    0 -0.00000000000E+00 -0.00000000000E+00 -0.45593999997E+02  0.45594000000E+02  0.51100000000E-03 0.  1.
    9900012    2    1    2    0    0  0.10964576754E+01 -0.16751504664E+00 -0.40359136550E+00  0.90007675165E+02  0.89999935678E+02 0.  0.
         12    1    1    2    0    0 -0.10964576754E+01  0.16751504664E+00  0.40359136550E+00  0.11803248346E+01  0.00000000000E+00 0. -1.
         11    1    3    3    0    0 -0.69258873375E+01  0.69357653622E+01 -0.38670083263E+01  0.10536911798E+02  0.51100000000E-03 0. -1.
        -11    1    3    3    0    0  0.13338725583E+02  0.25143216996E+02 -0.23650364647E+02  0.37005982074E+02  0.51100000000E-03 0.  1.
         12    1    3    3    0    0 -0.53163805701E+01 -0.32246497404E+02  0.27113781608E+02  0.42464781294E+02  0.00000000000E+00 0. -1.
</event>
<event>
 7    1  0.1698110E-015  0.9000770E+02  0.7816164E-02  0.1186339E+00
        -11   -1    0    0    0    0  0.00000000000E+00  0.00000000000E+00  0.45593999997E+02  0.45594000000E+02  0.51100000000E-03 0.  1.
         11   -1    0    0    0    0 -0.00000000000E+00 -0.00000000000E+00 -0.45593999997E+02  0.45594000000E+02  0.51100000000E-03 0. -1.
    9900012    2    1    2    0    0 -0.47280398478E+00  0.10814281515E+01  0.88502717861E-02  0.90007699707E+02  0.89999960543E+02 0.  0.
         12    1    1    2    0    0  0.47280398478E+00 -0.10814281515E+01 -0.88502717861E-02  0.11803002932E+01  0.00000000000E+00 0. -1.
         11    1    3    3    0    0 -0.34054536658E+01 -0.64574756354E+01  0.76852125933E+01  0.10599933920E+02  0.51100000000E-03 0. -1.
        -11    1    3    3    0    0  0.24580443261E+01 -0.35571143059E+02 -0.22964977181E+00  0.35656709603E+02  0.51100000000E-03 0.  1.
         12    1    3    3    0    0  0.47460535495E+00  0.43110046846E+02 -0.74467125497E+01  0.43751056183E+02  0.00000000000E+00 0. -1.
</event>
<event>
 7    1  0.1698110E-015  0.9000780E+02  0.7816164E-02  0.1186339E+00
        -11   -1    0    0    0    0  0.00000000000E+00  0.00000000000E+00  0.45593999997E+02  0.45594000000E+02  0.51100000000E-03 0.  1.
         11   -1    0    0    0    0 -0.00000000000E+00 -0.00000000000E+00 -0.45593999997E+02  0.45594000000E+02  0.51100000000E-03 0. -1.
    9900012    2    1    2    0    0  0.45724120466E+00 -0.93554883828E+00  0.55546665700E+00  0.90007803256E+02  0.90000065459E+02 0.  0.
         12    1    1    2    0    0 -0.45724120466E+00  0.93554883828E+00 -0.55546665700E+00  0.11801967442E+01  0.00000000000E+00 0. -1.
         11    1    3    3    0    0  0.15653728938E+02  0.28410021564E+01 -0.21913162915E+01  0.16059651001E+02  0.51100000000E-03 0. -1.
        -11    1    3    3    0    0 -0.77351538820E+01  0.25454324034E+02  0.24963702629E+02  0.36482073225E+02  0.51100000000E-03 0.  1.
         12    1    3    3    0    0 -0.74613338514E+01 -0.29230875029E+02 -0.22216919680E+02  0.37466079030E+02  0.00000000000E+00 0. -1.
</event>
<event>
 7    1  0.1698110E-015  0.9000719E+02  0.7816164E-02  0.1186340E+00
        -11   -1    0    0    0    0  0.00000000000E+00  0.00000000000E+00  0.45593999997E+02  0.45594000000E+02  0.51100000000E-03 0. -1.
         11   -1    0    0    0    0 -0.00000000000E+00 -0.00000000000E+00 -0.45593999997E+02  0.45594000000E+02  0.51100000000E-03 0.  1.
    9900012    2    1    2    0    0  0.71047641784E+00  0.22011220283E+00 -0.91710423531E+00  0.90007192522E+02  0.89999446661E+02 0.  0.
         12    1    1    2    0    0 -0.71047641784E+00 -0.22011220283E+00  0.91710423531E+00  0.11808074782E+01  0.00000000000E+00 0. -1.
         11    1    3    3    0    0 -0.35275798288E+01 -0.35917162655E+02 -0.32115982692E+01  0.36232592460E+02  0.51100000000E-03 0. -1.
        -11    1    3    3    0    0 -0.23286365788E+01 -0.83337975054E+01  0.16941626257E+01  0.88173077773E+01  0.51100000000E-03 0.  1.
        -12    1    3    3    0    0  0.65666928254E+01  0.44471072363E+02  0.60033140821E+00  0.44957292285E+02  0.00000000000E+00 0.  1.
</event>
<event>
 7    1  0.1698110E-015  0.9000779E+02  0.7816164E-02  0.1186339E+00
        -11   -1    0    0    0    0  0.00000000000E+00  0.00000000000E+00  0.45593999997E+02  0.45594000000E+02  0.51100000000E-03 0. -1.
         11   -1    0    0    0    0 -0.00000000000E+00 -0.00000000000E+00 -0.45593999997E+02  0.45594000000E+02  0.51100000000E-03 0.  1.
    9900012    2    1    2    0    0  0.86094836479E+00 -0.15071628364E+00  0.79306620461E+00  0.90007787523E+02  0.90000049519E+02 0.  0.
         12    1    1    2    0    0 -0.86094836479E+00  0.15071628364E+00 -0.79306620461E+00  0.11802124766E+01  0.00000000000E+00 0. -1.
         11    1    3    3    0    0 -0.89840669730E+01  0.39981173581E+02  0.70085460094E+01  0.41573157418E+02  0.51100000000E-03 0. -1.
        -11    1    3    3    0    0  0.75417575010E+01  0.26809774083E+00 -0.15132788860E+01  0.76967522924E+01  0.51100000000E-03 0.  1.
        -12    1    3    3    0    0  0.23032578368E+01 -0.40399987606E+02 -0.47022009188E+01  0.40737877813E+02  0.00000000000E+00 0.  1.
</event>
<event>
 7    1  0.1698110E-015  0.9000771E+02  0.7816164E-02  0.1186339E+00
        -11   -1    0    0    0    0  0.00000000000E+00  0.00000000000E+00  0.45593999997E+02  0.45594000000E+02  0.51100000000E-03 0. -1.
         11   -1    0    0    0    0 -0.00000000000E+00 -0.00000000000E+00 -0.45593999997E+02  0.45594000000E+02  0.51100000000E-03 0.  1.
    9900012    2    1    2    0    0  0.71977292440E+00  0.22565090956E+00 -0.90779351961E+00  0.90007711701E+02  0.89999972695E+02 0.  0.
         12    1    1    2    0    0 -0.71977292440E+00 -0.22565090956E+00  0.90779351961E+00  0.11802882995E+01  0.00000000000E+00 0. -1.
         11    1    3    3    0    0  0.36135827019E+01  0.78869824566E+01 -0.21143841208E+02  0.22854419562E+02  0.51100000000E-03 0. -1.
        -11    1    3    3    0    0 -0.21776586856E+02  0.13212042215E+02 -0.85743184321E+01  0.26875578718E+02  0.51100000000E-03 0.  1.
         12    1    3    3    0    0  0.18882777078E+02 -0.20873373762E+02  0.28810366121E+02  0.40277713421E+02  0.00000000000E+00 0. -1.
</event>
<event>
 7    1  0.1698110E-015  0.9000769E+02  0.7816164E-02  0.1186339E+00
        -11   -1    0    0    0    0  0.00000000000E+00  0.00000000000E+00  0.45593999997E+02  0.45594000000E+02  0.51100000000E-03 0.  1.
         11   -1    0    0    0    0 -0.00000000000E+00 -0.00000000000E+00 -0.45593999997E+02  0.45594000000E+02  0.51100000000E-03 0. -1.
    9900012    2    1    2    0    0  0.61678671202E+00 -0.57087075035E+00 -0.82873840936E+00  0.90007692153E+02  0.89999952890E+02 0.  0.
         12    1    1    2    0    0 -0.61678671202E+00  0.57087075035E+00  0.82873840936E+00  0.11803078467E+01  0.00000000000E+00 0. -1.
         11    1    3    3    0    0  0.69903916162E+01  0.10514178218E+02 -0.71351361691E+01  0.14502540707E+02  0.51100000000E-03 0. -1.
        -11    1    3    3    0    0 -0.61172004154E+01 -0.10651584087E+00  0.39794707537E+02  0.40262268127E+02  0.51100000000E-03 0.  1.
         12    1    3    3    0    0 -0.25640448877E+00 -0.10978533128E+02 -0.33488309777E+02  0.35242883319E+02  0.00000000000E+00 0. -1.
</event>
<event>
 7    1  0.1698110E-015  0.9000771E+02  0.7816164E-02  0.1186339E+00
        -11   -1    0    0    0    0  0.00000000000E+00  0.00000000000E+00  0.45593999997E+02  0.45594000000E+02  0.51100000000E-03 0. -1.
         11   -1    0    0    0    0 -0.00000000000E+00 -0.00000000000E+00 -0.45593999997E+02  0.45594000000E+02  0.51100000000E-03 0.  1.
    9900012    2    1    2    0    0 -0.19384503051E+00 -0.10076542941E+01 -0.58320711480E+00  0.90007714606E+02  0.89999975639E+02 0.  0.
         12    1    1    2    0    0  0.19384503051E+00  0.10076542941E+01  0.58320711480E+00  0.11802853938E+01  0.00000000000E+00 0. -1.
         11    1    3    3    0    0  0.19662685921E+02 -0.72123868853E+01  0.24223918423E+02  0.32022460340E+02  0.51100000000E-03 0. -1.
        -11    1    3    3    0    0 -0.11551084368E+02 -0.10023093431E+02  0.10292211461E+02  0.18434195643E+02  0.51100000000E-03 0.  1.
        -12    1    3    3    0    0 -0.83054465844E+01  0.16227826022E+02 -0.35099336999E+02  0.39551058622E+02  0.00000000000E+00 0.  1.
</event>
<event>
 7    1  0.1698110E-015  0.9000772E+02  0.7816164E-02  0.1186339E+00
        -11   -1    0    0    0    0  0.00000000000E+00  0.00000000000E+00  0.45593999997E+02  0.45594000000E+02  0.51100000000E-03 0. -1.
         11   -1    0    0    0    0 -0.00000000000E+00 -0.00000000000E+00 -0.45593999997E+02  0.45594000000E+02  0.51100000000E-03 0.  1.
    9900012    2    1    2    0    0 -0.40377637243E+00 -0.32167319721E+00 -0.10613963439E+01  0.90007715626E+02  0.89999976672E+02 0.  0.
         12    1    1    2    0    0  0.40377637243E+00  0.32167319721E+00  0.10613963439E+01  0.11802843740E+01  0.00000000000E+00 0. -1.
         11    1    3    3    0    0  0.11032198480E+01  0.10663351857E+02  0.67834380746E+00  0.10741709242E+02  0.51100000000E-03 0. -1.
        -11    1    3    3    0    0  0.66857501586E+01 -0.15500633156E+00 -0.39020274344E+02  0.39589204239E+02  0.51100000000E-03 0.  1.
         12    1    3    3    0    0 -0.81927463790E+01 -0.10830018722E+02  0.37280534193E+02  0.39676802145E+02  0.00000000000E+00 0. -1.
</event>
<event>
 7    1  0.1698110E-015  0.9000785E+02  0.7816164E-02  0.1186339E+00
        -11   -1    0    0    0    0  0.00000000000E+00  0.00000000000E+00  0.45593999997E+02  0.45594000000E+02  0.51100000000E-03 0.  1.
         11   -1    0    0    0    0 -0.00000000000E+00 -0.00000000000E+00 -0.45593999997E+02  0.45594000000E+02  0.51100000000E-03 0. -1.
    9900012    2    1    2    0    0 -0.42323070212E+00  0.24892532238E+00  0.10731604050E+01  0.90007846918E+02  0.90000109697E+02 0.  0.
         12    1    1    2    0    0  0.42323070212E+00 -0.24892532238E+00 -0.10731604050E+01  0.11801530825E+01  0.00000000000E+00 0. -1.
         11    1    3    3    0    0 -0.99694280604E+00 -0.95237074583E+01 -0.18295451995E+01  0.97489555650E+01  0.51100000000E-03 0. -1.
        -11    1    3    3    0    0 -0.20015637742E+02 -0.29597274729E+02 -0.82798993726E-01  0.35729977352E+02  0.51100000000E-03 0.  1.
         12    1    3    3    0    0  0.20589349846E+02  0.39369907510E+02  0.29855045982E+01  0.44528914001E+02  0.00000000000E+00 0. -1.
</event>
<event>
 7    1  0.1698110E-015  0.9000775E+02  0.7816164E-02  0.1186339E+00
        -11   -1    0    0    0    0  0.00000000000E+00  0.00000000000E+00  0.45593999997E+02  0.45594000000E+02  0.51100000000E-03 0. -1.
         11   -1    0    0    0    0 -0.00000000000E+00 -0.00000000000E+00 -0.45593999997E+02  0.45594000000E+02  0.51100000000E-03 0.  1.
    9900012    2    1    2    0    0 -0.80335713829E-01  0.50696871489E+00 -0.10627865603E+01  0.90007751561E+02  0.90000013082E+02 0.  0.
         12    1    1    2    0    0  0.80335713829E-01 -0.50696871489E+00  0.10627865603E+01  0.11802484389E+01  0.00000000000E+00 0. -1.
         11    1    3    3    0    0 -0.90623187617E+01 -0.68457145735E+01 -0.16041608793E+01  0.11470081157E+02  0.51100000000E-03 0. -1.
        -11    1    3    3    0    0  0.26037500657E+01 -0.33595065085E+02  0.11616132749E+02  0.35641863767E+02  0.51100000000E-03 0.  1.
         12    1    3    3    0    0  0.63782329823E+01  0.40947748373E+02 -0.11074758430E+02  0.42895806638E+02  0.00000000000E+00 0. -1.
</event>
<event>
 7    1  0.1698110E-015  0.9000772E+02  0.7816164E-02  0.1186339E+00
        -11   -1    0    0    0    0  0.00000000000E+00  0.00000000000E+00  0.45593999997E+02  0.45594000000E+02  0.51100000000E-03 0. -1.
         11   -1    0    0    0    0 -0.00000000000E+00 -0.00000000000E+00 -0.45593999997E+02  0.45594000000E+02  0.51100000000E-03 0.  1.
    9900012    2    1    2    0    0 -0.87188321668E+00 -0.38147273801E+00 -0.69811044891E+00  0.90007720375E+02  0.89999981484E+02 0.  0.
         12    1    1    2    0    0  0.87188321668E+00  0.38147273801E+00  0.69811044891E+00  0.11802796246E+01  0.00000000000E+00 0. -1.
         11    1    3    3    0    0 -0.16706621395E+02 -0.18253734241E+02  0.29015274625E+02  0.38133924188E+02  0.51100000000E-03 0. -1.
        -11    1    3    3    0    0 -0.13533524465E+01  0.33603511400E+01  0.75345386663E+01  0.83601911344E+01  0.51100000000E-03 0.  1.
        -12    1    3    3    0    0  0.17188090625E+02  0.14511910362E+02 -0.37247923741E+02  0.43513605053E+02  0.00000000000E+00 0.  1.
</event>
<event>
 7    1  0.1893691E-015  0.9000770E+02  0.7816164E-02  0.1186339E+00
        -11   -1    0    0    0    0  0.00000000000E+00  0.00000000000E+00  0.45593999997E+02  0.45594000000E+02  0.51100000000E-03 0. -1.
         11   -1    0    0    0    0 -0.00000000000E+00 -0.00000000000E+00 -0.45593999997E+02  0.45594000000E+02  0.51100000000E-03 0.  1.
    9900012    2    1    2    0    0  0.10670614553E+01 -0.20958074543E+00 -0.45886215288E+00  0.90007703972E+02  0.89999964864E+02 0.  0.
         12    1    1    2    0    0 -0.10670614553E+01  0.20958074543E+00  0.45886215288E+00  0.11802960279E+01  0.00000000000E+00 0. -1.
         11    1    3    3    0    0  0.67542777001E+01  0.50430593517E+01 -0.52563224954E+01  0.99338633628E+01  0.51100000000E-03 0. -1.
        -11    1    3    3    0    0  0.29025499006E+02 -0.26195579285E+02 -0.10540558716E+01  0.39112645022E+02  0.51100000000E-03 0.  1.
         12    1    3    3    0    0 -0.34712715251E+02  0.20942939188E+02  0.58515162142E+01  0.40961195587E+02  0.00000000000E+00 0. -1.
</event>
<event>
 7    1  0.1698110E-015  0.9000773E+02  0.7816164E-02  0.1186339E+00
        -11   -1    0    0    0    0  0.00000000000E+00  0.00000000000E+00  0.45593999997E+02  0.45594000000E+02  0.51100000000E-03 0.  1.
         11   -1    0    0    0    0 -0.00000000000E+00 -0.00000000000E+00 -0.45593999997E+02  0.45594000000E+02  0.51100000000E-03 0. -1.
    9900012    2    1    2    0    0  0.71022560529E+00  0.94133152064E+00 -0.50092258857E-01  0.90007731100E+02  0.89999992350E+02 0.  0.
         12    1    1    2    0    0 -0.71022560529E+00 -0.94133152064E+00  0.50092258857E-01  0.11802689001E+01  0.00000000000E+00 0. -1.
         11    1    3    3    0    0  0.10776511429E+01 -0.57630256643E+01  0.22753385688E+02  0.23496603102E+02  0.51100000000E-03 0. -1.
        -11    1    3    3    0    0 -0.74420664493E+01 -0.22113684012E+02  0.70946597874E+01  0.24387159970E+02  0.51100000000E-03 0.  1.
         12    1    3    3    0    0  0.70746409117E+01  0.28818041197E+02 -0.29898137734E+02  0.42123968028E+02  0.00000000000E+00 0. -1.
</event>
<event>
 7    1  0.1698110E-015  0.9000779E+02  0.7816164E-02  0.1186339E+00
        -11   -1    0    0    0    0  0.00000000000E+00  0.00000000000E+00  0.45593999997E+02  0.45594000000E+02  0.51100000000E-03 0.  1.
         11   -1    0    0    0    0 -0.00000000000E+00 -0.00000000000E+00 -0.45593999997E+02  0.45594000000E+02  0.51100000000E-03 0. -1.
    9900012    2    1    2    0    0  0.74410604448E+00  0.32407087931E+00  0.85684590301E+00  0.90007787883E+02  0.90000049883E+02 0.  0.
         12    1    1    2    0    0 -0.74410604448E+00 -0.32407087931E+00 -0.85684590301E+00  0.11802121173E+01  0.00000000000E+00 0. -1.
         11    1    3    3    0    0  0.52797436992E+01 -0.48226186882E+01  0.51276921252E+01  0.87992369745E+01  0.51100000000E-03 0. -1.
        -11    1    3    3    0    0  0.33415350558E+02 -0.11680704203E+02  0.10854116901E+02  0.37024807326E+02  0.51100000000E-03 0.  1.
         12    1    3    3    0    0 -0.37950988213E+02  0.16827393770E+02 -0.15124963123E+02  0.44183743582E+02  0.00000000000E+00 0. -1.
</event>
<event>
 7    1  0.1698110E-015  0.9000784E+02  0.7816164E-02  0.1186339E+00
        -11   -1    0    0    0    0  0.00000000000E+00  0.00000000000E+00  0.45593999997E+02  0.45594000000E+02  0.51100000000E-03 0.  1.
         11   -1    0    0    0    0 -0.00000000000E+00 -0.00000000000E+00 -0.45593999997E+02  0.45594000000E+02  0.51100000000E-03 0. -1.
    9900012    2    1    2    0    0  0.12618510995E+00  0.83078042808E-01  0.11704537377E+01  0.90007836200E+02  0.90000098838E+02 0.  0.
         12    1    1    2    0    0 -0.12618510995E+00 -0.83078042808E-01 -0.11704537377E+01  0.11801638001E+01  0.00000000000E+00 0. -1.
         11    1    3    3    0    0 -0.30922353585E+01 -0.76413749710E+01  0.68603841795E+01  0.10724616651E+02  0.51100000000E-03 0. -1.
        -11    1    3    3    0    0 -0.15741699524E+02 -0.26372331066E+02  0.16015324798E+02  0.34638007714E+02  0.51100000000E-03 0.  1.
         12    1    3    3    0    0  0.18960119992E+02  0.34096784080E+02 -0.21705255240E+02  0.44645211835E+02  0.00000000000E+00 0. -1.
</event>
<event>
 7    1  0.1698110E-015  0.9000773E+02  0.7816164E-02  0.1186339E+00
        -11   -1    0    0    0    0  0.00000000000E+00  0.00000000000E+00  0.45593999997E+02  0.45594000000E+02  0.51100000000E-03 0.  1.
         11   -1    0    0    0    0 -0.00000000000E+00 -0.00000000000E+00 -0.45593999997E+02  0.45594000000E+02  0.51100000000E-03 0. -1.
    9900012    2    1    2    0    0 -0.68209759024E+00 -0.49456409851E+00  0.82654511930E+00  0.90007734096E+02  0.89999995386E+02 0.  0.
         12    1    1    2    0    0  0.68209759024E+00  0.49456409851E+00 -0.82654511930E+00  0.11802659041E+01  0.00000000000E+00 0. -1.
         11    1    3    3    0    0  0.77085528190E+01 -0.30932988247E+01  0.42511713975E+01  0.93307418083E+01  0.51100000000E-03 0. -1.
        -11    1    3    3    0    0  0.35565166396E+02  0.72161500522E+01  0.61521793490E+00  0.36295073711E+02  0.51100000000E-03 0.  1.
         12    1    3    3    0    0 -0.43955816805E+02 -0.46174153260E+01 -0.40398442131E+01  0.44381918577E+02  0.00000000000E+00 0. -1.
</event>
<event>
 7    1  0.1698110E-015  0.9000665E+02  0.7816164E-02  0.1186341E+00
        -11   -1    0    0    0    0  0.00000000000E+00  0.00000000000E+00  0.45593999997E+02  0.45594000000E+02  0.51100000000E-03 0.  1.
         11   -1    0    0    0    0 -0.00000000000E+00 -0.00000000000E+00 -0.45593999997E+02  0.45594000000E+02  0.51100000000E-03 0. -1.
    9900012    2    1    2    0    0 -0.33791891038E+00 -0.11291170064E+01 -0.80529673585E-01  0.90006653551E+02  0.89998900571E+02 0.  0.
         12    1    1    2    0    0  0.33791891038E+00  0.11291170064E+01  0.80529673585E-01  0.11813464490E+01  0.00000000000E+00 0. -1.
         11    1    3    3    0    0  0.73518987128E+01  0.54331402618E+01  0.21667720519E+01  0.93949097481E+01  0.51100000000E-03 0. -1.
        -11    1    3    3    0    0 -0.22429461991E+02  0.28583205271E+02  0.14322934469E+02  0.39054152671E+02  0.51100000000E-03 0.  1.
         12    1    3    3    0    0  0.14739644368E+02 -0.35145462539E+02 -0.16570236195E+02  0.41557591132E+02  0.00000000000E+00 0. -1.
</event>
<event>
 7    1  0.1698110E-015  0.9000760E+02  0.7816164E-02  0.1186339E+00
        -11   -1    0    0    0    0  0.00000000000E+00  0.00000000000E+00  0.45593999997E+02  0.45594000000E+02  0.51100000000E-03 0. -1.
         11   -1    0    0    0    0 -0.00000000000E+00 -0.00000000000E+00 -0.45593999997E+02  0.45594000000E+02  0.51100000000E-03 0.  1.
    9900012    2    1    2    0    0  0.81378414924E+00  0.58291005785E+00 -0.62555448525E+00  0.90007598716E+02  0.89999858219E+02 0.  0.
         12    1    1    2    0    0 -0.81378414924E+00 -0.58291005785E+00  0.62555448525E+00  0.11804012839E+01  0.00000000000E+00 0. -1.
         11    1    3    3    0    0 -0.92947744809E+01 -0.56326549140E+01 -0.71393460642E+01  0.13003457099E+02  0.51100000000E-03 0. -1.
        -11    1    3    3    0    0  0.34545731490E+02  0.24968735806E+02 -0.72999443477E+01  0.43245051968E+02  0.51100000000E-03 0.  1.
         12    1    3    3    0    0 -0.24437172860E+02 -0.18753170834E+02  0.13813735927E+02  0.33759089650E+02  0.00000000000E+00 0. -1.
</event>
<event>
 7    1  0.1698110E-015  0.9000772E+02  0.7816164E-02  0.1186339E+00
        -11   -1    0    0    0    0  0.00000000000E+00  0.00000000000E+00  0.45593999997E+02  0.45594000000E+02  0.51100000000E-03 0.  1.
         11   -1    0    0    0    0 -0.00000000000E+00 -0.00000000000E+00 -0.45593999997E+02  0.45594000000E+02  0.51100000000E-03 0. -1.
    9900012    2    1    2    0    0 -0.42834666855E+00  0.89202136897E+00  0.64332916339E+00  0.90007722319E+02  0.89999983454E+02 0.  0.
         12    1    1    2    0    0  0.42834666855E+00 -0.89202136897E+00 -0.64332916339E+00  0.11802776807E+01  0.00000000000E+00 0. -1.
         11    1    3    3    0    0 -0.98799963944E+01  0.31086079318E+02  0.21003611084E+02  0.38795751506E+02  0.51100000000E-03 0. -1.
        -11    1    3    3    0    0  0.34511322012E+00 -0.17047938137E+01  0.90794415969E+01  0.92445489374E+01  0.51100000000E-03 0.  1.
        -12    1    3    3    0    0  0.91065365057E+01 -0.28489264136E+02 -0.29439723517E+02  0.41967421876E+02  0.00000000000E+00 0.  1.
</event>
<event>
 7    1  0.1698110E-015  0.9000779E+02  0.7816164E-02  0.1186339E+00
        -11   -1    0    0    0    0  0.00000000000E+00  0.00000000000E+00  0.45593999997E+02  0.45594000000E+02  0.51100000000E-03 0.  1.
         11   -1    0    0    0    0 -0.00000000000E+00 -0.00000000000E+00 -0.45593999997E+02  0.45594000000E+02  0.51100000000E-03 0. -1.
    9900012    2    1    2    0    0 -0.42778379931E+00 -0.36094289552E+00  0.10390416210E+01  0.90007793983E+02  0.90000056063E+02 0.  0.
         12    1    1    2    0    0  0.42778379931E+00  0.36094289552E+00 -0.10390416210E+01  0.11802060171E+01  0.00000000000E+00 0. -1.
         11    1    3    3    0    0  0.38805909310E+01  0.49267681546E+01 -0.33822688668E+01  0.71254314516E+01  0.51100000000E-03 0. -1.
        -11    1    3    3    0    0  0.32303605636E+02 -0.20828837846E+02  0.15732085713E+02  0.41531457286E+02  0.51100000000E-03 0.  1.
         12    1    3    3    0    0 -0.36611980367E+02  0.15541126796E+02 -0.11310775225E+02  0.41350905246E+02  0.00000000000E+00 0. -1.
</event>
<event>
 7    1  0.1998233E-015  0.9000776E+02  0.7816164E-02  0.1186339E+00
        -11   -1    0    0    0    0  0.00000000000E+00  0.00000000000E+00  0.45593999997E+02  0.45594000000E+02  0.51100000000E-03 0. -1.
         11   -1    0    0    0    0 -0.00000000000E+00 -0.00000000000E+00 -0.45593999997E+02  0.45594000000E+02  0.51100000000E-03 0.  1.
    9900012    2    1    2    0    0  0.10591354676E+01  0.45734443710E+00  0.24906977021E+00  0.90007759506E+02  0.90000021132E+02 0.  0.
         12    1    1    2    0    0 -0.10591354676E+01 -0.45734443710E+00 -0.24906977021E+00  0.11802404938E+01  0.00000000000E+00 0. -1.
         11    1    3    3    0    0 -0.82225384587E+00 -0.91887357333E+01 -0.54232839549E+00  0.92413790158E+01  0.51100000000E-03 0. -1.
        -11    1    3    3    0    0 -0.16961703019E+02 -0.25370321710E+02  0.20119576123E+02  0.36553384749E+02  0.51100000000E-03 0.  1.
         12    1    3    3    0    0  0.18843092332E+02  0.35016401881E+02 -0.19328177957E+02  0.44212995742E+02  0.00000000000E+00 0. -1.
</event>
<event>
 7    1  0.1698110E-015  0.9000771E+02  0.7816164E-02  0.1186339E+00
        -11   -1    0    0    0    0  0.00000000000E+00  0.00000000000E+00  0.45593999997E+02  0.45594000000E+02  0.51100000000E-03 0. -1.
         11   -1    0    0    0    0 -0.00000000000E+00 -0.00000000000E+00 -0.45593999997E+02  0.45594000000E+02  0.51100000000E-03 0.  1.
    9900012    2    1    2    0    0 -0.26180064967E-02  0.10411344567E+01 -0.55597664751E+00  0.90007712813E+02  0.89999973822E+02 0.  0.
         12    1    1    2    0    0  0.26180064967E-02 -0.10411344567E+01  0.55597664751E+00  0.11802871868E+01  0.00000000000E+00 0. -1.
         11    1    3    3    0    0  0.41922054882E+01 -0.39529030759E+02 -0.41012004050E+01  0.39961715487E+02  0.51100000000E-03 0. -1.
        -11    1    3    3    0    0 -0.93488838194E+01  0.78371267030E+00 -0.18610136623E+01  0.95644762705E+01  0.51100000000E-03 0.  1.
        -12    1    3    3    0    0  0.51540603247E+01  0.39786452545E+02  0.54062374197E+01  0.40481521056E+02  0.00000000000E+00 0.  1.
</event>
<event>
 7    1  0.1698110E-015  0.9000771E+02  0.7816164E-02  0.1186339E+00
        -11   -1    0    0    0    0  0.00000000000E+00  0.00000000000E+00  0.45593999997E+02  0.45594000000E+02  0.51100000000E-03 0. -1.
         11   -1    0    0    0    0 -0.00000000000E+00 -0.00000000000E+00 -0.45593999997E+02  0.45594000000E+02  0.51100000000E-03 0.  1.
    9900012    2    1    2    0    0 -0.52310418393E+00  0.22982045452E+00 -0.10327825550E+01  0.90007705446E+02  0.89999966358E+02 0.  0.
         12    1    1    2    0    0  0.52310418393E+00 -0.22982045452E+00  0.10327825550E+01  0.11802945541E+01  0.00000000000E+00 0. -1.
         11    1    3    3    0    0 -0.27983859332E+02  0.14499396785E+02  0.31526171928E+01  0.31674404267E+02  0.51100000000E-03 0. -1.
        -11    1    3    3    0    0 -0.31666884877E+01  0.14778152570E+02 -0.55481615000E+01  0.16099807628E+02  0.51100000000E-03 0.  1.
        -12    1    3    3    0    0  0.30627443636E+02 -0.29047728901E+02  0.13627617522E+01  0.42233493551E+02  0.00000000000E+00 0.  1.
</event>
<event>
 7    1  0.1698110E-015  0.9000779E+02  0.7816164E-02  0.1186339E+00
        -11   -1    0    0    0    0  0.00000000000E+00  0.00000000000E+00  0.45593999997E+02  0.45594000000E+02  0.51100000000E-03 0.  1.
         11   -1    0    0    0    0 -0.00000000000E+00 -0.00000000000E+00 -0.45593999997E+02  0.45594000000E+02  0.51100000000E-03 0. -1.
    9900012    2    1    2    0    0 -0.67682637410E+00  0.89174804238E+00 -0.37362364945E+00  0.90007786823E+02  0.90000048809E+02 0.  0.
         12    1    1    2    0    0  0.67682637410E+00 -0.89174804238E+00  0.37362364945E+00  0.11802131770E+01  0.00000000000E+00 0. -1.
         11    1    3    3    0    0 -0.82449450561E+01  0.10243462151E+02  0.10277896619E+02  0.16689601403E+02  0.51100000000E-03 0. -1.
        -11    1    3    3    0    0  0.88053301721E+01  0.27893856670E+02  0.97502943786E+01  0.30832925909E+02  0.51100000000E-03 0.  1.
         12    1    3    3    0    0 -0.12372114901E+01 -0.37245570778E+02 -0.20401814648E+02  0.42485259511E+02  0.00000000000E+00 0. -1.
</event>
<event>
 7    1  0.1698110E-015  0.9000686E+02  0.7816164E-02  0.1186341E+00
        -11   -1    0    0    0    0  0.00000000000E+00  0.00000000000E+00  0.45593999997E+02  0.45594000000E+02  0.51100000000E-03 0. -1.
         11   -1    0    0    0    0 -0.00000000000E+00 -0.00000000000E+00 -0.45593999997E+02  0.45594000000E+02  0.51100000000E-03 0.  1.
    9900012    2    1    2    0    0 -0.37833115647E+00 -0.10287070747E+01 -0.44014454138E+00  0.90006856517E+02  0.89999106219E+02 0.  0.
         12    1    1    2    0    0  0.37833115647E+00  0.10287070747E+01  0.44014454138E+00  0.11811434827E+01  0.00000000000E+00 0. -1.
         11    1    3    3    0    0 -0.21216107587E+00  0.72122150919E+01  0.46424608872E+01  0.85798311292E+01  0.51100000000E-03 0. -1.
        -11    1    3    3    0    0 -0.42244147333E+01  0.73895454589E+01 -0.41090984222E+02  0.41963317868E+02  0.51100000000E-03 0.  1.
         12    1    3    3    0    0  0.40582446527E+01 -0.15630467626E+02  0.36008378794E+02  0.39463707520E+02  0.00000000000E+00 0. -1.
</event>
<event>
 7    1  0.1698110E-015  0.9000769E+02  0.7816164E-02  0.1186339E+00
        -11   -1    0    0    0    0  0.00000000000E+00  0.00000000000E+00  0.45593999997E+02  0.45594000000E+02  0.51100000000E-03 0.  1.
         11   -1    0    0    0    0 -0.00000000000E+00 -0.00000000000E+00 -0.45593999997E+02  0.45594000000E+02  0.51100000000E-03 0. -1.
    9900012    2    1    2    0    0 -0.89641223946E+00 -0.58945035848E+00  0.49205669632E+00  0.90007692235E+02  0.89999952972E+02 0.  0.
         12    1    1    2    0    0  0.89641223946E+00  0.58945035848E+00 -0.49205669632E+00  0.11803077652E+01  0.00000000000E+00 0. -1.
         11    1    3    3    0    0  0.11750813920E+02 -0.30076551233E+02 -0.22373118517E+02  0.39284055217E+02  0.51100000000E-03 0. -1.
        -11    1    3    3    0    0 -0.98110379775E+01 -0.41318545678E+01  0.14037336899E+01  0.10737744498E+02  0.51100000000E-03 0.  1.
        -12    1    3    3    0    0 -0.28361881821E+01  0.33618955442E+02  0.21461441523E+02  0.39985892521E+02  0.00000000000E+00 0.  1.
</event>
<event>
 7    1  0.1698110E-015  0.9000773E+02  0.7816164E-02  0.1186339E+00
        -11   -1    0    0    0    0  0.00000000000E+00  0.00000000000E+00  0.45593999997E+02  0.45594000000E+02  0.51100000000E-03 0. -1.
         11   -1    0    0    0    0 -0.00000000000E+00 -0.00000000000E+00 -0.45593999997E+02  0.45594000000E+02  0.51100000000E-03 0.  1.
    9900012    2    1    2    0    0 -0.15674024669E-01  0.14007531465E+00 -0.11718196381E+01  0.90007733914E+02  0.89999995202E+02 0.  0.
         12    1    1    2    0    0  0.15674024669E-01 -0.14007531465E+00  0.11718196381E+01  0.11802660857E+01  0.00000000000E+00 0. -1.
         11    1    3    3    0    0 -0.32110929919E+01 -0.85048215601E+01  0.34219124313E+02  0.35406095195E+02  0.51100000000E-03 0. -1.
        -11    1    3    3    0    0 -0.70997037653E+00 -0.14460862356E+01  0.88813385382E+01  0.90262615643E+01  0.51100000000E-03 0.  1.
        -12    1    3    3    0    0  0.39053893437E+01  0.10090983110E+02 -0.44272282489E+02  0.45575377155E+02  0.00000000000E+00 0.  1.
</event>
<event>
 7    1  0.1698110E-015  0.9000770E+02  0.7816164E-02  0.1186339E+00
        -11   -1    0    0    0    0  0.00000000000E+00  0.00000000000E+00  0.45593999997E+02  0.45594000000E+02  0.51100000000E-03 0.  1.
         11   -1    0    0    0    0 -0.00000000000E+00 -0.00000000000E+00 -0.45593999997E+02  0.45594000000E+02  0.51100000000E-03 0. -1.
    9900012    2    1    2    0    0  0.10564429077E+01  0.43228987381E+00 -0.30026046478E+00  0.90007702368E+02  0.89999963240E+02 0.  0.
         12    1    1    2    0    0 -0.10564429077E+01 -0.43228987381E+00  0.30026046478E+00  0.11802976315E+01  0.00000000000E+00 0. -1.
         11    1    3    3    0    0 -0.10881561084E+02  0.17137760534E+01 -0.32906836107E+02  0.34701660808E+02  0.51100000000E-03 0. -1.
        -11    1    3    3    0    0 -0.27287531820E+00  0.89543296128E+00 -0.10453416333E+02  0.10495245324E+02  0.51100000000E-03 0.  1.
        -12    1    3    3    0    0  0.12210879310E+02 -0.21769191409E+01  0.43059991975E+02  0.44810796237E+02  0.00000000000E+00 0.  1.
</event>
<event>
 7    1  0.1698110E-015  0.9000787E+02  0.7816164E-02  0.1186339E+00
        -11   -1    0    0    0    0  0.00000000000E+00  0.00000000000E+00  0.45593999997E+02  0.45594000000E+02  0.51100000000E-03 0.  1.
         11   -1    0    0    0    0 -0.00000000000E+00 -0.00000000000E+00 -0.45593999997E+02  0.45594000000E+02  0.51100000000E-03 0. -1.
    9900012    2    1    2    0    0 -0.40393334388E+00  0.10950690877E+01  0.17424455259E+00  0.90007873050E+02  0.90000136175E+02 0.  0.
         12    1    1    2    0    0  0.40393334388E+00 -0.10950690877E+01 -0.17424455259E+00  0.11801269496E+01  0.00000000000E+00 0. -1.
         11    1    3    3    0    0 -0.22173279027E+02  0.10576104136E+02 -0.25711705055E+02  0.35561215651E+02  0.51100000000E-03 0. -1.
        -11    1    3    3    0    0 -0.22167606695E+00  0.70801132445E+01 -0.80668124273E+01  0.10735483540E+02  0.51100000000E-03 0.  1.
        -12    1    3    3    0    0  0.21991021750E+02 -0.16561148293E+02  0.33952762035E+02  0.43711173859E+02  0.00000000000E+00 0.  1.
</event>
<event>
 7    1  0.1698110E-015  0.9000770E+02  0.7816164E-02  0.1186339E+00
        -11   -1    0    0    0    0  0.00000000000E+00  0.00000000000E+00  0.45593999997E+02  0.45594000000E+02  0.51100000000E-03 0.  1.
         11   -1    0    0    0    0 -0.00000000000E+00 -0.00000000000E+00 -0.45593999997E+02  0.45594000000E+02  0.51100000000E-03 0. -1.
    9900012    2    1    2    0    0 -0.64405937273E+00  0.89958724840E+00  0.41114161805E+00  0.90007700410E+02  0.89999961255E+02 0.  0.
         12    1    1    2    0    0  0.64405937273E+00 -0.89958724840E+00 -0.41114161805E+00  0.11802995904E+01  0.00000000000E+00 0. -1.
         11    1    3    3    0    0  0.75384326414E+01 -0.37410862218E+01  0.20491174573E+00  0.84181756867E+01  0.51100000000E-03 0. -1.
        -11    1    3    3    0    0 -0.15589883393E+02 -0.13694518051E+02  0.35507854527E+02  0.41126536716E+02  0.51100000000E-03 0.  1.
         12    1    3    3    0    0  0.74073913790E+01  0.18335191521E+02 -0.35301624655E+02  0.40462988007E+02  0.00000000000E+00 0. -1.
</event>
<event>
 7    1  0.1698110E-015  0.9000775E+02  0.7816164E-02  0.1186339E+00
        -11   -1    0    0    0    0  0.00000000000E+00  0.00000000000E+00  0.45593999997E+02  0.45594000000E+02  0.51100000000E-03 0.  1.
         11   -1    0    0    0    0 -0.00000000000E+00 -0.00000000000E+00 -0.45593999997E+02  0.45594000000E+02  0.51100000000E-03 0. -1.
    9900012    2    1    2    0    0 -0.11103364612E-01 -0.30073739425E+00  0.11412425850E+01  0.90007745408E+02  0.90000006847E+02 0.  0.
         12    1    1    2    0    0  0.11103364612E-01  0.30073739425E+00 -0.11412425850E+01  0.11802545924E+01  0.00000000000E+00 0. -1.
         11    1    3    3    0    0  0.41752986602E+01 -0.41160493437E+01  0.75033234526E+01  0.95223339679E+01  0.51100000000E-03 0. -1.
        -11    1    3    3    0    0  0.16776524072E+02 -0.11284696514E+02  0.29818968385E+02  0.36027309241E+02  0.51100000000E-03 0.  1.
         12    1    3    3    0    0 -0.20962926097E+02  0.15100008463E+02 -0.36181049252E+02  0.44458102199E+02  0.00000000000E+00 0. -1.
</event>
<event>
 7    1  0.1698110E-015  0.9000764E+02  0.7816164E-02  0.1186339E+00
        -11   -1    0    0    0    0  0.00000000000E+00  0.00000000000E+00  0.45593999997E+02  0.45594000000E+02  0.51100000000E-03 0.  1.
         11   -1    0    0    0    0 -0.00000000000E+00 -0.00000000000E+00 -0.45593999997E+02  0.45594000000E+02  0.51100000000E-03 0. -1.
    9900012    2    1    2    0    0 -0.11420122577E+01 -0.13491160499E+00  0.26617581883E+00  0.90007642976E+02  0.89999903063E+02 0.  0.
         12    1    1    2    0    0  0.11420122577E+01  0.13491160499E+00 -0.26617581883E+00  0.11803570242E+01  0.00000000000E+00 0. -1.
         11    1    3    3    0    0  0.98831176005E+01 -0.34572915370E+01 -0.41147210227E+02  0.42458471334E+02  0.51100000000E-03 0. -1.
        -11    1    3    3    0    0  0.14448050892E+01 -0.69161128085E+01  0.10137438396E+02  0.12356687890E+02  0.51100000000E-03 0.  1.
        -12    1    3    3    0    0 -0.12469934947E+02  0.10238492740E+02  0.31275947650E+02  0.35192483752E+02  0.00000000000E+00 0.  1.
</event>
<event>
 7    1  0.1698110E-015  0.9000771E+02  0.7816164E-02  0.1186339E+00
        -11   -1    0    0    0    0  0.00000000000E+00  0.00000000000E+00  0.45593999997E+02  0.45594000000E+02  0.51100000000E-03 0.  1.
         11   -1    0    0    0    0 -0.00000000000E+00 -0.00000000000E+00 -0.45593999997E+02  0.45594000000E+02  0.51100000000E-03 0. -1.
    9900012    2    1    2    0    0 -0.86699212936E+00 -0.79724288949E+00  0.76275423439E-01  0.90007707868E+02  0.89999968812E+02 0.  0.
         12    1    1    2    0    0  0.86699212936E+00  0.79724288949E+00 -0.76275423439E-01  0.11802921322E+01  0.00000000000E+00 0. -1.
         11    1    3    3    0    0 -0.53995917947E+01  0.37382784075E+01  0.81262973489E+01  0.10448302535E+02  0.51100000000E-03 0. -1.
        -11    1    3    3    0    0 -0.20726428119E+02  0.10426132068E+02  0.25836301207E+02  0.34724681608E+02  0.51100000000E-03 0.  1.
         12    1    3    3    0    0  0.25259027784E+02 -0.14961653365E+02 -0.33886323132E+02  0.44834723725E+02  0.00000000000E+00 0. -1.
</event>
<event>
 7    1  0.1698110E-015  0.9000772E+02  0.7816164E-02  0.1186339E+00
        -11   -1    0    0    0    0  0.00000000000E+00  0.00000000000E+00  0.45593999997E+02  0.45594000000E+02  0.51100000000E-03 0. -1.
         11   -1    0    0    0    0 -0.00000000000E+00 -0.00000000000E+00 -0.45593999997E+02  0.45594000000E+02  0.51100000000E-03 0.  1.
    9900012    2    1    2    0    0 -0.23198375524E-01  0.32177680419E+00 -0.11353286296E+01  0.90007724789E+02  0.89999985956E+02 0.  0.
         12    1    1    2    0    0  0.23198375524E-01 -0.32177680419E+00  0.11353286296E+01  0.11802752109E+01  0.00000000000E+00 0. -1.
         11    1    3    3    0    0  0.39057558770E+02  0.69335217626E+01 -0.17405259526E+01  0.39706372939E+02  0.51100000000E-03 0. -1.
        -11    1    3    3    0    0 -0.10905569481E+01  0.38569753607E+01 -0.89035329472E+01  0.97641421842E+01  0.51100000000E-03 0.  1.
        -12    1    3    3    0    0 -0.37990200197E+02 -0.10468720319E+02  0.95087302702E+01  0.40537209666E+02  0.00000000000E+00 0.  1.
</event>
<event>
 7    1  0.1698110E-015  0.9000772E+02  0.7816164E-02  0.1186339E+00
        -11   -1    0    0    0    0  0.00000000000E+00  0.00000000000E+00  0.45593999997E+02  0.45594000000E+02  0.51100000000E-03 0.  1.
         11   -1    0    0    0    0 -0.00000000000E+00 -0.00000000000E+00 -0.45593999997E+02  0.45594000000E+02  0.51100000000E-03 0. -1.
    9900012    2    1    2    0    0 -0.29726848754E+00  0.27821965865E+00  0.11078253916E+01  0.90007723833E+02  0.89999984988E+02 0.  0.
         12    1    1    2    0    0  0.29726848754E+00 -0.27821965865E+00 -0.11078253916E+01  0.11802761670E+01  0.00000000000E+00 0. -1.
         11    1    3    3    0    0  0.52977506347E+01 -0.69915655460E+01 -0.31343188910E+01  0.93151546280E+01  0.51100000000E-03 0. -1.
        -11    1    3    3    0    0  0.28269857598E+02 -0.18955776135E+02 -0.10131624512E+02  0.35512759862E+02  0.51100000000E-03 0.  1.
         12    1    3    3    0    0 -0.33864876720E+02  0.26225561340E+02  0.14373768795E+02  0.45179809343E+02  0.00000000000E+00 0. -1.
</event>
<event>
 7    1  0.1698110E-015  0.9000772E+02  0.7816164E-02  0.1186339E+00
        -11   -1    0    0    0    0  0.00000000000E+00  0.00000000000E+00  0.45593999997E+02  0.45594000000E+02  0.51100000000E-03 0.  1.
         11   -1    0    0    0    0 -0.00000000000E+00 -0.00000000000E+00 -0.45593999997E+02  0.45594000000E+02  0.51100000000E-03 0. -1.
    9900012    2    1    2    0    0 -0.77023063580E+00 -0.80621192310E+00  0.38707344010E+00  0.90007720904E+02  0.89999982020E+02 0.  0.
         12    1    1    2    0    0  0.77023063580E+00  0.80621192310E+00 -0.38707344010E+00  0.11802790964E+01  0.00000000000E+00 0. -1.
         11    1    3    3    0    0  0.16347900396E+02 -0.13719242117E+02 -0.36088307420E+02  0.41926571340E+02  0.51100000000E-03 0. -1.
        -11    1    3    3    0    0  0.27073713082E+01 -0.39525504387E+01  0.92390868318E+01  0.10407364706E+02  0.51100000000E-03 0.  1.
        -12    1    3    3    0    0 -0.19825502340E+02  0.16865580632E+02  0.27236294029E+02  0.37673784858E+02  0.00000000000E+00 0.  1.
</event>
<event>
 7    1  0.1698110E-015  0.9000772E+02  0.7816164E-02  0.1186339E+00
        -11   -1    0    0    0    0  0.00000000000E+00  0.00000000000E+00  0.45593999997E+02  0.45594000000E+02  0.51100000000E-03 0.  1.
         11   -1    0    0    0    0 -0.00000000000E+00 -0.00000000000E+00 -0.45593999997E+02  0.45594000000E+02  0.51100000000E-03 0. -1.
    9900012    2    1    2    0    0 -0.20930466799E+00  0.82159843276E+00  0.82111388366E+00  0.90007720186E+02  0.89999981293E+02 0.  0.
         12    1    1    2    0    0  0.20930466799E+00 -0.82159843276E+00 -0.82111388366E+00  0.11802798137E+01  0.00000000000E+00 0. -1.
         11    1    3    3    0    0 -0.18783962353E+01  0.34822239266E+02 -0.10209979295E+02  0.36336763716E+02  0.51100000000E-03 0. -1.
        -11    1    3    3    0    0 -0.17929670397E+01  0.91035718921E+01  0.17087555216E+01  0.94344897950E+01  0.51100000000E-03 0.  1.
        -12    1    3    3    0    0  0.34620586070E+01 -0.43104212725E+02  0.93223376572E+01  0.44236466675E+02  0.00000000000E+00 0.  1.
</event>
<event>
 7    1  0.1698110E-015  0.9000727E+02  0.7816164E-02  0.1186340E+00
        -11   -1    0    0    0    0  0.00000000000E+00  0.00000000000E+00  0.45593999997E+02  0.45594000000E+02  0.51100000000E-03 0. -1.
         11   -1    0    0    0    0 -0.00000000000E+00 -0.00000000000E+00 -0.45593999997E+02  0.45594000000E+02  0.51100000000E-03 0.  1.
    9900012    2    1    2    0    0  0.63530351378E+00  0.99296567966E+00  0.67384797256E-01  0.90007266285E+02  0.89999521398E+02 0.  0.
         12    1    1    2    0    0 -0.63530351378E+00 -0.99296567966E+00 -0.67384797256E-01  0.11807337153E+01  0.00000000000E+00 0. -1.
         11    1    3    3    0    0  0.28879846758E+02  0.12130253914E+01  0.28339591820E+02  0.40480235228E+02  0.51100000000E-03 0. -1.
        -11    1    3    3    0    0 -0.20553568729E+00 -0.98996346362E+01 -0.24524457634E+01  0.10200955903E+02  0.51100000000E-03 0.  1.
        -12    1    3    3    0    0 -0.28039007557E+02  0.96795749244E+01 -0.25819761259E+02  0.39326075153E+02  0.00000000000E+00 0.  1.
</event>
<event>
 7    1  0.1698110E-015  0.9000766E+02  0.7816164E-02  0.1186339E+00
        -11   -1    0    0    0    0  0.00000000000E+00  0.00000000000E+00  0.45593999997E+02  0.45594000000E+02  0.51100000000E-03 0.  1.
         11   -1    0    0    0    0 -0.00000000000E+00 -0.00000000000E+00 -0.45593999997E+02  0.45594000000E+02  0.51100000000E-03 0. -1.
    9900012    2    1    2    0    0  0.28418574617E+00 -0.40987601456E+00  0.10697895355E+01  0.90007657026E+02  0.89999917299E+02 0.  0.
         12    1    1    2    0    0 -0.28418574617E+00  0.40987601456E+00 -0.10697895355E+01  0.11803429738E+01  0.00000000000E+00 0. -1.
         11    1    3    3    0    0  0.16151162241E+02 -0.19068033881E+02 -0.17452781370E+02  0.30480313903E+02  0.51100000000E-03 0. -1.
        -11    1    3    3    0    0  0.59867046401E+01 -0.14495723252E+02  0.10886197994E+02  0.19091252763E+02  0.51100000000E-03 0.  1.
        -12    1    3    3    0    0 -0.21853681135E+02  0.33153881118E+02  0.76363729110E+01  0.40436090360E+02  0.00000000000E+00 0.  1.
</event>
<event>
 7    1  0.1698110E-015  0.9000771E+02  0.7816164E-02  0.1186339E+00
        -11   -1    0    0    0    0  0.00000000000E+00  0.00000000000E+00  0.45593999997E+02  0.45594000000E+02  0.51100000000E-03 0.  1.
         11   -1    0    0    0    0 -0.00000000000E+00 -0.00000000000E+00 -0.45593999997E+02  0.45594000000E+02  0.51100000000E-03 0. -1.
    9900012    2    1    2    0    0  0.52786601556E+00  0.10371995202E+01  0.19663547087E+00  0.90007707289E+02  0.89999968225E+02 0.  0.
         12    1    1    2    0    0 -0.52786601556E+00 -0.10371995202E+01 -0.19663547087E+00  0.11802927109E+01  0.00000000000E+00 0. -1.
         11    1    3    3    0    0  0.12988892752E+01  0.98290526649E+01  0.23513882692E+01  0.10189524851E+02  0.51100000000E-03 0. -1.
        -11    1    3    3    0    0 -0.22362114522E+02  0.27548626264E+02 -0.99141127571E+01  0.36841289431E+02  0.51100000000E-03 0.  1.
         12    1    3    3    0    0  0.21591091263E+02 -0.36340479409E+02  0.77593599587E+01  0.42976893007E+02  0.00000000000E+00 0. -1.
</event>
<event>
 7    1  0.1698110E-015  0.9000778E+02  0.7816164E-02  0.1186339E+00
        -11   -1    0    0    0    0  0.00000000000E+00  0.00000000000E+00  0.45593999997E+02  0.45594000000E+02  0.51100000000E-03 0.  1.
         11   -1    0    0    0    0 -0.00000000000E+00 -0.00000000000E+00 -0.45593999997E+02  0.45594000000E+02  0.51100000000E-03 0. -1.
    9900012    2    1    2    0    0 -0.43315595850E+00 -0.10891767315E+01 -0.13782666259E+00  0.90007777044E+02  0.90000038901E+02 0.  0.
         12    1    1    2    0    0  0.43315595850E+00  0.10891767315E+01  0.13782666259E+00  0.11802229560E+01  0.00000000000E+00 0. -1.
         11    1    3    3    0    0  0.26299501779E+01 -0.25426537850E+02 -0.36580575192E+02  0.44626941936E+02  0.51100000000E-03 0. -1.
        -11    1    3    3    0    0  0.21563775908E+01  0.68051382157E+01  0.41238381030E+01  0.82441440677E+01  0.51100000000E-03 0.  1.
        -12    1    3    3    0    0 -0.52194837272E+01  0.17532222902E+02  0.32318910426E+02  0.37136691040E+02  0.00000000000E+00 0.  1.
</event>
<event>
 7    1  0.1698110E-015  0.9000761E+02  0.7816164E-02  0.1186339E+00
        -11   -1    0    0    0    0  0.00000000000E+00  0.00000000000E+00  0.45593999997E+02  0.45594000000E+02  0.51100000000E-03 0.  1.
         11   -1    0    0    0    0 -0.00000000000E+00 -0.00000000000E+00 -0.45593999997E+02  0.45594000000E+02  0.51100000000E-03 0. -1.
    9900012    2    1    2    0    0 -0.93302752838E+00 -0.72286287975E+00 -0.15759468721E-01  0.90007610457E+02  0.89999870115E+02 0.  0.
         12    1    1    2    0    0  0.93302752838E+00  0.72286287975E+00  0.15759468721E-01  0.11803895427E+01  0.00000000000E+00 0. -1.
         11    1    3    3    0    0 -0.55631280730E+01  0.25778563296E+02 -0.30103922564E+02  0.40021605085E+02  0.51100000000E-03 0. -1.
        -11    1    3    3    0    0  0.10449303760E+02 -0.52468731449E+00  0.93003411359E+00  0.10503723604E+02  0.51100000000E-03 0.  1.
        -12    1    3    3    0    0 -0.58192032151E+01 -0.25976738861E+02  0.29158128982E+02  0.39482281768E+02  0.00000000000E+00 0.  1.
</event>
<event>
 7    1  0.1698110E-015  0.9000790E+02  0.7816164E-02  0.1186339E+00
        -11   -1    0    0    0    0  0.00000000000E+00  0.00000000000E+00  0.45593999997E+02  0.45594000000E+02  0.51100000000E-03 0.  1.
         11   -1    0    0    0    0 -0.00000000000E+00 -0.00000000000E+00 -0.45593999997E+02  0.45594000000E+02  0.51100000000E-03 0. -1.
    9900012    2    1    2    0    0 -0.21953043053E+00  0.62840179908E+00  0.97445532293E+00  0.90007895934E+02  0.90000159360E+02 0.  0.
         12    1    1    2    0    0  0.21953043053E+00 -0.62840179908E+00 -0.97445532293E+00  0.11801040663E+01  0.00000000000E+00 0. -1.
         11    1    3    3    0    0  0.92172704023E+01 -0.40010224372E+00 -0.36363863202E+01  0.99167263351E+01  0.51100000000E-03 0. -1.
        -11    1    3    3    0    0 -0.38264476626E+02  0.19131508143E+02 -0.84931688976E+01  0.43615578564E+02  0.51100000000E-03 0.  1.
         12    1    3    3    0    0  0.28827675793E+02 -0.18103004101E+02  0.13104010541E+02  0.36475591035E+02  0.00000000000E+00 0. -1.
</event>
<event>
 7    1  0.1698110E-015  0.9000775E+02  0.7816164E-02  0.1186339E+00
        -11   -1    0    0    0    0  0.00000000000E+00  0.00000000000E+00  0.45593999997E+02  0.45594000000E+02  0.51100000000E-03 0.  1.
         11   -1    0    0    0    0 -0.00000000000E+00 -0.00000000000E+00 -0.45593999997E+02  0.45594000000E+02  0.51100000000E-03 0. -1.
    9900012    2    1    2    0    0  0.31557542864E+00 -0.29260214983E+00  0.10989943068E+01  0.90007749029E+02  0.90000010516E+02 0.  0.
         12    1    1    2    0    0 -0.31557542864E+00  0.29260214983E+00 -0.10989943068E+01  0.11802509715E+01  0.00000000000E+00 0. -1.
         11    1    3    3    0    0  0.85518679254E+01 -0.30894874902E+01 -0.25462151729E+01  0.94425944492E+01  0.51100000000E-03 0. -1.
        -11    1    3    3    0    0  0.21078080046E+02  0.31264818998E+02  0.10477986487E+02  0.39135183231E+02  0.51100000000E-03 0.  1.
         12    1    3    3    0    0 -0.29314372543E+02 -0.28467933657E+02 -0.68327770071E+01  0.41429971349E+02  0.00000000000E+00 0. -1.
</event>
<event>
 7    1  0.1698110E-015  0.9000778E+02  0.7816164E-02  0.1186339E+00
        -11   -1    0    0    0    0  0.00000000000E+00  0.00000000000E+00  0.45593999997E+02  0.45594000000E+02  0.51100000000E-03 0.  1.
         11   -1    0    0    0    0 -0.00000000000E+00 -0.00000000000E+00 -0.45593999997E+02  0.45594000000E+02  0.51100000000E-03 0. -1.
    9900012    2    1    2    0    0 -0.11577030206E+01  0.22803393904E+00 -0.25258007982E-01  0.90007782339E+02  0.90000044266E+02 0.  0.
         12    1    1    2    0    0  0.11577030206E+01 -0.22803393904E+00  0.25258007982E-01  0.11802176613E+01  0.00000000000E+00 0. -1.
         11    1    3    3    0    0  0.51503799726E+01 -0.66363287419E+01 -0.80859719444E+00  0.84392596071E+01  0.51100000000E-03 0. -1.
        -11    1    3    3    0    0 -0.42180722087E+02 -0.68186837153E-01  0.11074713360E+02  0.43610402905E+02  0.51100000000E-03 0.  1.
         12    1    3    3    0    0  0.35872639094E+02  0.69325495181E+01 -0.10291374174E+02  0.37958119827E+02  0.00000000000E+00 0. -1.
</event>
<event>
 7    1  0.1698110E-015  0.9000779E+02  0.7816164E-02  0.1186339E+00
        -11   -1    0    0    0    0  0.00000000000E+00  0.00000000000E+00  0.45593999997E+02  0.45594000000E+02  0.51100000000E-03 0.  1.
         11   -1    0    0    0    0 -0.00000000000E+00 -0.00000000000E+00 -0.45593999997E+02  0.45594000000E+02  0.51100000000E-03 0. -1.
    9900012    2    1    2    0    0 -0.50527753882E+00  0.88868822022E+00  0.58976421413E+00  0.90007790708E+02  0.90000052746E+02 0.  0.
         12    1    1    2    0    0  0.50527753882E+00 -0.88868822022E+00 -0.58976421413E+00  0.11802092917E+01  0.00000000000E+00 0. -1.
         11    1    3    3    0    0  0.27847510172E+02  0.15909799528E+02 -0.94247052890E+01  0.33427991472E+02  0.51100000000E-03 0. -1.
        -11    1    3    3    0    0  0.40518687266E+01  0.11601387924E+02 -0.30356380101E+01  0.12657999065E+02  0.51100000000E-03 0.  1.
        -12    1    3    3    0    0 -0.32404656438E+02 -0.26622499232E+02  0.13050107513E+02  0.43921800171E+02  0.00000000000E+00 0.  1.
</event>
<event>
 7    1  0.1698110E-015  0.9000781E+02  0.7816164E-02  0.1186339E+00
        -11   -1    0    0    0    0  0.00000000000E+00  0.00000000000E+00  0.45593999997E+02  0.45594000000E+02  0.51100000000E-03 0. -1.
         11   -1    0    0    0    0 -0.00000000000E+00 -0.00000000000E+00 -0.45593999997E+02  0.45594000000E+02  0.51100000000E-03 0.  1.
    9900012    2    1    2    0    0  0.28926829101E+00  0.93261731881E+00 -0.66287339946E+00  0.90007808341E+02  0.90000070611E+02 0.  0.
         12    1    1    2    0    0 -0.28926829101E+00 -0.93261731881E+00  0.66287339946E+00  0.11801916587E+01  0.00000000000E+00 0. -1.
         11    1    3    3    0    0 -0.31482516303E+02 -0.14996950851E+02  0.17578791397E+02  0.39052160949E+02  0.51100000000E-03 0. -1.
        -11    1    3    3    0    0  0.51487915818E+01  0.24892608924E+00  0.86003912032E+01  0.10026901219E+02  0.51100000000E-03 0.  1.
        -12    1    3    3    0    0  0.26622993012E+02  0.15680642081E+02 -0.26842056000E+02  0.40928746173E+02  0.00000000000E+00 0.  1.
</event>
<event>
 7    1  0.1698110E-015  0.9000775E+02  0.7816164E-02  0.1186339E+00
        -11   -1    0    0    0    0  0.00000000000E+00  0.00000000000E+00  0.45593999997E+02  0.45594000000E+02  0.51100000000E-03 0. -1.
         11   -1    0    0    0    0 -0.00000000000E+00 -0.00000000000E+00 -0.45593999997E+02  0.45594000000E+02  0.51100000000E-03 0.  1.
    9900012    2    1    2    0    0  0.37532282347E+00 -0.10414841575E+01  0.40917888431E+00  0.90007752640E+02  0.90000014175E+02 0.  0.
         12    1    1    2    0    0 -0.37532282347E+00  0.10414841575E+01 -0.40917888431E+00  0.11802473603E+01  0.00000000000E+00 0. -1.
         11    1    3    3    0    0  0.17861984246E+01 -0.53897228190E+00 -0.93676816515E+01  0.95516729277E+01  0.51100000000E-03 0. -1.
        -11    1    3    3    0    0 -0.19206510532E+02  0.33203470681E+02 -0.66872495458E+01  0.38936869659E+02  0.51100000000E-03 0.  1.
         12    1    3    3    0    0  0.17795634930E+02 -0.33705982557E+02  0.16464110082E+02  0.41519210053E+02  0.00000000000E+00 0. -1.
</event>
<event>
 7    1  0.1698110E-015  0.9000768E+02  0.7816164E-02  0.1186339E+00
        -11   -1    0    0    0    0  0.00000000000E+00  0.00000000000E+00  0.45593999997E+02  0.45594000000E+02  0.51100000000E-03 0. -1.
         11   -1    0    0    0    0 -0.00000000000E+00 -0.00000000000E+00 -0.45593999997E+02  0.45594000000E+02  0.51100000000E-03 0.  1.
    9900012    2    1    2    0    0  0.26430351561E+00 -0.11049214421E+01  0.32008550360E+00  0.90007676963E+02  0.89999937499E+02 0.  0.
         12    1    1    2    0    0 -0.26430351561E+00  0.11049214421E+01 -0.32008550360E+00  0.11803230367E+01  0.00000000000E+00 0. -1.
         11    1    3    3    0    0  0.88232207919E+01 -0.36470329221E+02  0.22178604807E+02  0.43586977987E+02  0.51100000000E-03 0. -1.
        -11    1    3    3    0    0 -0.31373962263E+01  0.92081338560E+01  0.27405915022E+01  0.10106622890E+02  0.51100000000E-03 0.  1.
        -12    1    3    3    0    0 -0.54215210499E+01  0.26157273923E+02 -0.24599110806E+02  0.36314076086E+02  0.00000000000E+00 0.  1.
</event>
<event>
 7    1  0.1698110E-015  0.9000781E+02  0.7816164E-02  0.1186339E+00
        -11   -1    0    0    0    0  0.00000000000E+00  0.00000000000E+00  0.45593999997E+02  0.45594000000E+02  0.51100000000E-03 0.  1.
         11   -1    0    0    0    0 -0.00000000000E+00 -0.00000000000E+00 -0.45593999997E+02  0.45594000000E+02  0.51100000000E-03 0. -1.
    9900012    2    1    2    0    0  0.25134627807E+00  0.76323480942E+00  0.86437921271E+00  0.90007807749E+02  0.90000070011E+02 0.  0.
         12    1    1    2    0    0 -0.25134627807E+00 -0.76323480942E+00 -0.86437921271E+00  0.11801922509E+01  0.00000000000E+00 0. -1.
         11    1    3    3    0    0 -0.19182814610E+02  0.11086816906E+02 -0.24806376716E+02  0.33260400050E+02  0.51100000000E-03 0. -1.
        -11    1    3    3    0    0 -0.91642018930E+01  0.81876359592E+00 -0.72682698660E+01  0.11725217152E+02  0.51100000000E-03 0.  1.
        -12    1    3    3    0    0  0.28598362781E+02 -0.11142345692E+02  0.32939025795E+02  0.45022190546E+02  0.00000000000E+00 0.  1.
</event>
<event>
 7    1  0.1698110E-015  0.9000765E+02  0.7816164E-02  0.1186339E+00
        -11   -1    0    0    0    0  0.00000000000E+00  0.00000000000E+00  0.45593999997E+02  0.45594000000E+02  0.51100000000E-03 0.  1.
         11   -1    0    0    0    0 -0.00000000000E+00 -0.00000000000E+00 -0.45593999997E+02  0.45594000000E+02  0.51100000000E-03 0. -1.
    9900012    2    1    2    0    0  0.11092339490E+01  0.34381015498E+00 -0.21121379634E+00  0.90007654015E+02  0.89999914248E+02 0.  0.
         12    1    1    2    0    0 -0.11092339490E+01 -0.34381015498E+00  0.21121379634E+00  0.11803459849E+01  0.00000000000E+00 0. -1.
         11    1    3    3    0    0  0.32863474965E+01 -0.11852318957E+01  0.86149121437E+01  0.92963200256E+01  0.51100000000E-03 0. -1.
        -11    1    3    3    0    0 -0.14592440181E+02 -0.17677894002E+02  0.28721194536E+02  0.36747166729E+02  0.51100000000E-03 0.  1.
         12    1    3    3    0    0  0.12415326633E+02  0.19206936053E+02 -0.37547320476E+02  0.43964167260E+02  0.00000000000E+00 0. -1.
</event>
<event>
 7    1  0.1698110E-015  0.9000765E+02  0.7816164E-02  0.1186339E+00
        -11   -1    0    0    0    0  0.00000000000E+00  0.00000000000E+00  0.45593999997E+02  0.45594000000E+02  0.51100000000E-03 0. -1.
         11   -1    0    0    0    0 -0.00000000000E+00 -0.00000000000E+00 -0.45593999997E+02  0.45594000000E+02  0.51100000000E-03 0.  1.
    9900012    2    1    2    0    0  0.93013992191E-01  0.63553499000E+00 -0.99029210146E+00  0.90007646336E+02  0.89999906467E+02 0.  0.
         12    1    1    2    0    0 -0.93013992191E-01 -0.63553499000E+00  0.99029210146E+00  0.11803536641E+01  0.00000000000E+00 0. -1.
         11    1    3    3    0    0 -0.27309152615E+02 -0.14095168263E+02  0.28173287965E+02  0.41691698693E+02  0.51100000000E-03 0. -1.
        -11    1    3    3    0    0  0.61532707717E+01 -0.56820227718E+01 -0.29551910639E+01  0.88815132975E+01  0.51100000000E-03 0.  1.
        -12    1    3    3    0    0  0.21248895836E+02  0.20412726025E+02 -0.26208389003E+02  0.39434434345E+02  0.00000000000E+00 0.  1.
</event>
<event>
 7    1  0.1698110E-015  0.9000696E+02  0.7816164E-02  0.1186341E+00
        -11   -1    0    0    0    0  0.00000000000E+00  0.00000000000E+00  0.45593999997E+02  0.45594000000E+02  0.51100000000E-03 0. -1.
         11   -1    0    0    0    0 -0.00000000000E+00 -0.00000000000E+00 -0.45593999997E+02  0.45594000000E+02  0.51100000000E-03 0.  1.
    9900012    2    1    2    0    0 -0.92912781096E+00  0.39631191325E+00  0.61197724957E+00  0.90006959029E+02  0.89999210085E+02 0.  0.
         12    1    1    2    0    0  0.92912781096E+00 -0.39631191325E+00 -0.61197724957E+00  0.11810409712E+01  0.00000000000E+00 0. -1.
         11    1    3    3    0    0  0.12918859599E+02 -0.12279611560E+00  0.33790551379E+02  0.36176143727E+02  0.51100000000E-03 0. -1.
        -11    1    3    3    0    0  0.68057329270E+01  0.66764023024E+01  0.44081806152E+01  0.10503542496E+02  0.51100000000E-03 0.  1.
        -12    1    3    3    0    0 -0.20653720337E+02 -0.61572942735E+01 -0.37586754744E+02  0.43327272805E+02  0.00000000000E+00 0.  1.
</event>
<event>
 7    1  0.1698110E-015  0.9000771E+02  0.7816164E-02  0.1186339E+00
        -11   -1    0    0    0    0  0.00000000000E+00  0.00000000000E+00  0.45593999997E+02  0.45594000000E+02  0.51100000000E-03 0. -1.
         11   -1    0    0    0    0 -0.00000000000E+00 -0.00000000000E+00 -0.45593999997E+02  0.45594000000E+02  0.51100000000E-03 0.  1.
    9900012    2    1    2    0    0 -0.75963361782E+00  0.15561079028E+00 -0.88985157306E+00  0.90007706065E+02  0.89999966985E+02 0.  0.
         12    1    1    2    0    0  0.75963361782E+00 -0.15561079028E+00  0.88985157306E+00  0.11802939352E+01  0.00000000000E+00 0. -1.
         11    1    3    3    0    0 -0.13787696698E+02  0.95332662971E+01  0.33804278788E+02  0.37732121742E+02  0.51100000000E-03 0. -1.
        -11    1    3    3    0    0  0.33860623604E+01  0.82278601254E+01  0.31491732223E+01  0.94382409800E+01  0.51100000000E-03 0.  1.
        -12    1    3    3    0    0  0.96420007198E+01 -0.17605515632E+02 -0.37843303583E+02  0.42837343343E+02  0.00000000000E+00 0.  1.
</event>
<event>
 7    1  0.1698110E-015  0.9000775E+02  0.7816164E-02  0.1186339E+00
        -11   -1    0    0    0    0  0.00000000000E+00  0.00000000000E+00  0.45593999997E+02  0.45594000000E+02  0.51100000000E-03 0. -1.
         11   -1    0    0    0    0 -0.00000000000E+00 -0.00000000000E+00 -0.45593999997E+02  0.45594000000E+02  0.51100000000E-03 0.  1.
    9900012    2    1    2    0    0 -0.15015959804E+00 -0.10553480729E+01  0.50663446646E+00  0.90007751745E+02  0.90000013268E+02 0.  0.
         12    1    1    2    0    0  0.15015959804E+00  0.10553480729E+01 -0.50663446646E+00  0.11802482546E+01  0.00000000000E+00 0. -1.
         11    1    3    3    0    0  0.10924834810E+02  0.89014902784E+01  0.18930805771E+02  0.23600083733E+02  0.51100000000E-03 0. -1.
        -11    1    3    3    0    0  0.14709313980E+02  0.18903872931E+02 -0.10223874751E+01  0.23974269665E+02  0.51100000000E-03 0.  1.
         12    1    3    3    0    0 -0.25784308388E+02 -0.28860711283E+02 -0.17401783830E+02  0.42433398347E+02  0.00000000000E+00 0. -1.
</event>
<event>
 7    1  0.1698110E-015  0.9000771E+02  0.7816164E-02  0.1186339E+00
        -11   -1    0    0    0    0  0.00000000000E+00  0.00000000000E+00  0.45593999997E+02  0.45594000000E+02  0.51100000000E-03 0. -1.
         11   -1    0    0    0    0 -0.00000000000E+00 -0.00000000000E+00 -0.45593999997E+02  0.45594000000E+02  0.51100000000E-03 0.  1.
    9900012    2    1    2    0    0  0.24960590542E+00 -0.28277706468E+00 -0.11184029353E+01  0.90007707197E+02  0.89999968132E+02 0.  0.
         12    1    1    2    0    0 -0.24960590542E+00  0.28277706468E+00  0.11184029353E+01  0.11802928035E+01  0.00000000000E+00 0. -1.
         11    1    3    3    0    0  0.77861247502E+01 -0.13465871530E+02 -0.15690181823E+01  0.15633785626E+02  0.51100000000E-03 0. -1.
        -11    1    3    3    0    0 -0.35163988547E+02  0.49833128926E+01 -0.18339248306E+02  0.39970833449E+02  0.51100000000E-03 0.  1.
         12    1    3    3    0    0  0.27627469702E+02  0.81997815725E+01  0.18789863553E+02  0.34403088122E+02  0.00000000000E+00 0. -1.
</event>
<event>
 7    1  0.1698110E-015  0.9000775E+02  0.7816164E-02  0.1186339E+00
        -11   -1    0    0    0    0  0.00000000000E+00  0.00000000000E+00  0.45593999997E+02  0.45594000000E+02  0.51100000000E-03 0.  1.
         11   -1    0    0    0    0 -0.00000000000E+00 -0.00000000000E+00 -0.45593999997E+02  0.45594000000E+02  0.51100000000E-03 0. -1.
    9900012    2    1    2    0    0 -0.48586464347E-02 -0.29235999175E+00  0.11434575536E+01  0.90007748693E+02  0.90000010176E+02 0.  0.
         12    1    1    2    0    0  0.48586464347E-02  0.29235999175E+00 -0.11434575536E+01  0.11802513072E+01  0.00000000000E+00 0. -1.
         11    1    3    3    0    0 -0.51617478377E+00  0.92310705084E+01  0.15201308227E+01  0.93696263062E+01  0.51100000000E-03 0. -1.
        -11    1    3    3    0    0 -0.34010222520E+02 -0.12332830422E+02  0.19091806792E+02  0.40905880126E+02  0.51100000000E-03 0.  1.
         12    1    3    3    0    0  0.34521538657E+02  0.28093999219E+01 -0.19468480061E+02  0.39732242261E+02  0.00000000000E+00 0. -1.
</event>
<event>
 7    1  0.1698110E-015  0.9000761E+02  0.7816164E-02  0.1186339E+00
        -11   -1    0    0    0    0  0.00000000000E+00  0.00000000000E+00  0.45593999997E+02  0.45594000000E+02  0.51100000000E-03 0. -1.
         11   -1    0    0    0    0 -0.00000000000E+00 -0.00000000000E+00 -0.45593999997E+02  0.45594000000E+02  0.51100000000E-03 0.  1.
    9900012    2    1    2    0    0 -0.10618118656E+01 -0.50507067084E+00  0.10386793897E+00  0.90007606265E+02  0.89999865868E+02 0.  0.
         12    1    1    2    0    0  0.10618118656E+01  0.50507067084E+00 -0.10386793897E+00  0.11803937348E+01  0.00000000000E+00 0. -1.
         11    1    3    3    0    0  0.20217292635E+01  0.45158414196E+01 -0.61386274925E+01  0.78843490977E+01  0.51100000000E-03 0. -1.
        -11    1    3    3    0    0 -0.28040094171E+02  0.93441971284E+01 -0.25664516956E+02  0.39143688277E+02  0.51100000000E-03 0.  1.
         12    1    3    3    0    0  0.24956553041E+02 -0.14365109219E+02  0.31907012387E+02  0.42979568891E+02  0.00000000000E+00 0. -1.
</event>
<event>
 7    1  0.1698110E-015  0.9000808E+02  0.7816164E-02  0.1186338E+00
        -11   -1    0    0    0    0  0.00000000000E+00  0.00000000000E+00  0.45593999997E+02  0.45594000000E+02  0.51100000000E-03 0.  1.
         11   -1    0    0    0    0 -0.00000000000E+00 -0.00000000000E+00 -0.45593999997E+02  0.45594000000E+02  0.51100000000E-03 0. -1.
    9900012    2    1    2    0    0  0.22361647812E+00  0.77174579924E+00 -0.86407381344E+00  0.90008076501E+02  0.90000342310E+02 0.  0.
         12    1    1    2    0    0 -0.22361647812E+00 -0.77174579924E+00  0.86407381344E+00  0.11799234988E+01  0.00000000000E+00 0. -1.
         11    1    3    3    0    0 -0.21793790704E+01 -0.43862185867E+01  0.93064233396E+01  0.10516564185E+02  0.51100000000E-03 0. -1.
        -11    1    3    3    0    0 -0.34582482449E+02 -0.13005641536E+02 -0.10037678688E+02  0.38286417928E+02  0.51100000000E-03 0.  1.
         12    1    3    3    0    0  0.36985477997E+02  0.18163605922E+02 -0.13281846549E+00  0.41205094388E+02  0.00000000000E+00 0. -1.
</event>
<event>
 7    1  0.1698110E-015  0.9000781E+02  0.7816164E-02  0.1186339E+00
        -11   -1    0    0    0    0  0.00000000000E+00  0.00000000000E+00  0.45593999997E+02  0.45594000000E+02  0.51100000000E-03 0.  1.
         11   -1    0    0    0    0 -0.00000000000E+00 -0.00000000000E+00 -0.45593999997E+02  0.45594000000E+02  0.51100000000E-03 0. -1.
    9900012    2    1    2    0    0 -0.64314481046E+00 -0.82271422818E+00 -0.54987201059E+00  0.90007807992E+02  0.90000070257E+02 0.  0.
         12    1    1    2    0    0  0.64314481046E+00  0.82271422818E+00  0.54987201059E+00  0.11801920083E+01  0.00000000000E+00 0. -1.
         11    1    3    3    0    0  0.38539216972E+02 -0.48490005588E+01 -0.11980759329E+02  0.40648771760E+02  0.51100000000E-03 0. -1.
        -11    1    3    3    0    0 -0.21524040440E+01 -0.19414701735E+01  0.11491279326E+02  0.11851229911E+02  0.51100000000E-03 0.  1.
        -12    1    3    3    0    0 -0.37029957738E+02  0.59677565042E+01 -0.60392007546E-01  0.37507806321E+02  0.00000000000E+00 0.  1.
</event>
<event>
 7    1  0.1698110E-015  0.9000782E+02  0.7816164E-02  0.1186339E+00
        -11   -1    0    0    0    0  0.00000000000E+00  0.00000000000E+00  0.45593999997E+02  0.45594000000E+02  0.51100000000E-03 0. -1.
         11   -1    0    0    0    0 -0.00000000000E+00 -0.00000000000E+00 -0.45593999997E+02  0.45594000000E+02  0.51100000000E-03 0.  1.
    9900012    2    1    2    0    0 -0.70527519509E+00  0.80740622086E+00 -0.49347396678E+00  0.90007815920E+02  0.90000078290E+02 0.  0.
         12    1    1    2    0    0  0.70527519509E+00 -0.80740622086E+00  0.49347396678E+00  0.11801840798E+01  0.00000000000E+00 0. -1.
         11    1    3    3    0    0 -0.24791904835E+02 -0.18161494277E+02 -0.12373140493E+02  0.33129639685E+02  0.51100000000E-03 0. -1.
        -11    1    3    3    0    0 -0.13460841678E+02  0.94995594417E+01  0.67993110887E+01  0.17823201727E+02  0.51100000000E-03 0.  1.
        -12    1    3    3    0    0  0.37547471318E+02  0.94693410566E+01  0.50803554379E+01  0.39054974508E+02  0.00000000000E+00 0.  1.
</event>
<event>
 7    1  0.1698110E-015  0.9000765E+02  0.7816164E-02  0.1186339E+00
        -11   -1    0    0    0    0  0.00000000000E+00  0.00000000000E+00  0.45593999997E+02  0.45594000000E+02  0.51100000000E-03 0. -1.
         11   -1    0    0    0    0 -0.00000000000E+00 -0.00000000000E+00 -0.45593999997E+02  0.45594000000E+02  0.51100000000E-03 0.  1.
    9900012    2    1    2    0    0  0.33398073404E+00  0.11309620569E+01 -0.51072067765E-01  0.90007649772E+02  0.89999909949E+02 0.  0.
         12    1    1    2    0    0 -0.33398073404E+00 -0.11309620569E+01  0.51072067765E-01  0.11803502281E+01  0.00000000000E+00 0. -1.
         11    1    3    3    0    0  0.80882576039E+01  0.71117978523E+01  0.13259357052E+01  0.10851529179E+02  0.51100000000E-03 0. -1.
        -11    1    3    3    0    0  0.17008833890E+02  0.30371566787E+02  0.30779702255E+01  0.34945763697E+02  0.51100000000E-03 0.  1.
         12    1    3    3    0    0 -0.24763110760E+02 -0.36352402582E+02 -0.44549779985E+01  0.44210356897E+02  0.00000000000E+00 0. -1.
</event>
<event>
 7    1  0.2595797E-015  0.9000762E+02  0.7816164E-02  0.1186339E+00
        -11   -1    0    0    0    0  0.00000000000E+00  0.00000000000E+00  0.45593999997E+02  0.45594000000E+02  0.51100000000E-03 0.  1.
         11   -1    0    0    0    0 -0.00000000000E+00 -0.00000000000E+00 -0.45593999997E+02  0.45594000000E+02  0.51100000000E-03 0. -1.
    9900012    2    1    2    0    0 -0.11326131511E+01 -0.15391669314E+00  0.29461508110E+00  0.90007618306E+02  0.89999878067E+02 0.  0.
         12    1    1    2    0    0  0.11326131511E+01  0.15391669314E+00 -0.29461508110E+00  0.11803816944E+01  0.00000000000E+00 0. -1.
         11    1    3    3    0    0 -0.70471555071E+01 -0.63878354309E+01 -0.12106379322E+01  0.95881430265E+01  0.51100000000E-03 0. -1.
        -11    1    3    3    0    0  0.30832285315E+02 -0.95782701581E+01  0.26482092706E+02  0.41757326439E+02  0.51100000000E-03 0.  1.
         12    1    3    3    0    0 -0.24917742959E+02  0.15812188896E+02 -0.24976839693E+02  0.38662148840E+02  0.00000000000E+00 0. -1.
</event>
<event>
 7    1  0.1698110E-015  0.9000775E+02  0.7816164E-02  0.1186339E+00
        -11   -1    0    0    0    0  0.00000000000E+00  0.00000000000E+00  0.45593999997E+02  0.45594000000E+02  0.51100000000E-03 0.  1.
         11   -1    0    0    0    0 -0.00000000000E+00 -0.00000000000E+00 -0.45593999997E+02  0.45594000000E+02  0.51100000000E-03 0. -1.
    9900012    2    1    2    0    0 -0.56107332380E-01 -0.44029043676E+00  0.10936119416E+01  0.90007749696E+02  0.90000011192E+02 0.  0.
         12    1    1    2    0    0  0.56107332380E-01  0.44029043676E+00 -0.10936119416E+01  0.11802503040E+01  0.00000000000E+00 0. -1.
         11    1    3    3    0    0 -0.26341426819E+01  0.15869604929E+02 -0.32791592335E+02  0.36524944851E+02  0.51100000000E-03 0. -1.
        -11    1    3    3    0    0 -0.60845026464E+01  0.21678069648E+01 -0.59132872001E+01  0.87571413865E+01  0.51100000000E-03 0.  1.
        -12    1    3    3    0    0  0.86625379959E+01 -0.18477702331E+02  0.39798491477E+02  0.44725663458E+02  0.00000000000E+00 0.  1.
</event>
<event>
 7    1  0.1698110E-015  0.9000775E+02  0.7816164E-02  0.1186339E+00
        -11   -1    0    0    0    0  0.00000000000E+00  0.00000000000E+00  0.45593999997E+02  0.45594000000E+02  0.51100000000E-03 0.  1.
         11   -1    0    0    0    0 -0.00000000000E+00 -0.00000000000E+00 -0.45593999997E+02  0.45594000000E+02  0.51100000000E-03 0. -1.
    9900012    2    1    2    0    0  0.36383825676E+00  0.39408060801E+00  0.10513438500E+01  0.90007745073E+02  0.90000006508E+02 0.  0.
         12    1    1    2    0    0 -0.36383825676E+00 -0.39408060801E+00 -0.10513438500E+01  0.11802549274E+01  0.00000000000E+00 0. -1.
         11    1    3    3    0    0 -0.30479508732E+01 -0.37129865969E+02 -0.17639463481E+01  0.37296493916E+02  0.51100000000E-03 0. -1.
        -11    1    3    3    0    0 -0.38583167576E+01 -0.65807520249E+01 -0.15981107721E+01  0.77940274388E+01  0.51100000000E-03 0.  1.
        -12    1    3    3    0    0  0.72701058876E+01  0.44104698602E+02  0.44134009702E+01  0.44917223718E+02  0.00000000000E+00 0.  1.
</event>
<event>
 7    1  0.1698110E-015  0.9000773E+02  0.7816164E-02  0.1186339E+00
        -11   -1    0    0    0    0  0.00000000000E+00  0.00000000000E+00  0.45593999997E+02  0.45594000000E+02  0.51100000000E-03 0.  1.
         11   -1    0    0    0    0 -0.00000000000E+00 -0.00000000000E+00 -0.45593999997E+02  0.45594000000E+02  0.51100000000E-03 0. -1.
    9900012    2    1    2    0    0 -0.83350940959E+00  0.32913853708E+00  0.76808777140E+00  0.90007733531E+02  0.89999994814E+02 0.  0.
         12    1    1    2    0    0  0.83350940959E+00 -0.32913853708E+00 -0.76808777140E+00  0.11802664687E+01  0.00000000000E+00 0. -1.
         11    1    3    3    0    0 -0.67273749936E+01  0.48934330631E+01  0.20463240439E+01  0.85668374446E+01  0.51100000000E-03 0. -1.
        -11    1    3    3    0    0 -0.13231606022E+02  0.34099696579E+02  0.77054059383E+01  0.37379646676E+02  0.51100000000E-03 0.  1.
         12    1    3    3    0    0  0.19125471606E+02 -0.38663991105E+02 -0.89836422108E+01  0.44061249411E+02  0.00000000000E+00 0. -1.
</event>
<event>
 7    1  0.1698110E-015  0.9000774E+02  0.7816164E-02  0.1186339E+00
        -11   -1    0    0    0    0  0.00000000000E+00  0.00000000000E+00  0.45593999997E+02  0.45594000000E+02  0.51100000000E-03 0. -1.
         11   -1    0    0    0    0 -0.00000000000E+00 -0.00000000000E+00 -0.45593999997E+02  0.45594000000E+02  0.51100000000E-03 0.  1.
    9900012    2    1    2    0    0 -0.68681769637E+00 -0.43338037113E+00 -0.85643925718E+00  0.90007735074E+02  0.89999996377E+02 0.  0.
         12    1    1    2    0    0  0.68681769637E+00  0.43338037113E+00  0.85643925718E+00  0.11802649259E+01  0.00000000000E+00 0. -1.
         11    1    3    3    0    0  0.70126392991E+01  0.40670651986E+00 -0.40345190355E+01  0.81006088810E+01  0.51100000000E-03 0. -1.
        -11    1    3    3    0    0  0.34284959571E+02 -0.15129062571E+02  0.23901645257E+01  0.37550763957E+02  0.51100000000E-03 0.  1.
         12    1    3    3    0    0 -0.41984416566E+02  0.14288975680E+02  0.78791525265E+00  0.44356362236E+02  0.00000000000E+00 0. -1.
</event>
<event>
 7    1  0.1698110E-015  0.9000840E+02  0.7816164E-02  0.1186338E+00
        -11   -1    0    0    0    0  0.00000000000E+00  0.00000000000E+00  0.45593999997E+02  0.45594000000E+02  0.51100000000E-03 0. -1.
         11   -1    0    0    0    0 -0.00000000000E+00 -0.00000000000E+00 -0.45593999997E+02  0.45594000000E+02  0.51100000000E-03 0.  1.
    9900012    2    1    2    0    0 -0.96728791541E+00  0.23111161194E+00 -0.63435126520E+00  0.90008398365E+02  0.90000668421E+02 0.  0.
         12    1    1    2    0    0  0.96728791541E+00 -0.23111161194E+00  0.63435126520E+00  0.11796016345E+01  0.00000000000E+00 0. -1.
         11    1    3    3    0    0 -0.50639301871E+01  0.11187796118E+01  0.91545949748E+01  0.10521485930E+02  0.51100000000E-03 0. -1.
        -11    1    3    3    0    0 -0.21928359077E+02 -0.26303558043E+02 -0.22474892229E+02  0.40961578076E+02  0.51100000000E-03 0.  1.
         12    1    3    3    0    0  0.26025001348E+02  0.25415890043E+02  0.12685945989E+02  0.38525334359E+02  0.00000000000E+00 0. -1.
</event>
<event>
 7    1  0.1698110E-015  0.9000770E+02  0.7816164E-02  0.1186339E+00
        -11   -1    0    0    0    0  0.00000000000E+00  0.00000000000E+00  0.45593999997E+02  0.45594000000E+02  0.51100000000E-03 0.  1.
         11   -1    0    0    0    0 -0.00000000000E+00 -0.00000000000E+00 -0.45593999997E+02  0.45594000000E+02  0.51100000000E-03 0. -1.
    9900012    2    1    2    0    0  0.11536946364E+00  0.11689748114E+01  0.11529442574E+00  0.90007701297E+02  0.89999962155E+02 0.  0.
         12    1    1    2    0    0 -0.11536946364E+00 -0.11689748114E+01 -0.11529442574E+00  0.11802987026E+01  0.00000000000E+00 0. -1.
         11    1    3    3    0    0 -0.22247340027E+02 -0.55268309886E+01 -0.32377294608E+02  0.39670886119E+02  0.51100000000E-03 0. -1.
        -11    1    3    3    0    0  0.27499515615E+00  0.93698036739E+01 -0.17157942728E+01  0.95295746742E+01  0.51100000000E-03 0.  1.
        -12    1    3    3    0    0  0.22087714334E+02 -0.26739978740E+01  0.34208383307E+02  0.40807240505E+02  0.00000000000E+00 0.  1.
</event>
<event>
 7    1  0.1888991E-015  0.9000773E+02  0.7816164E-02  0.1186339E+00
        -11   -1    0    0    0    0  0.00000000000E+00  0.00000000000E+00  0.45593999997E+02  0.45594000000E+02  0.51100000000E-03 0. -1.
         11   -1    0    0    0    0 -0.00000000000E+00 -0.00000000000E+00 -0.45593999997E+02  0.45594000000E+02  0.51100000000E-03 0.  1.
    9900012    2    1    2    0    0  0.46781284235E+00 -0.77529549661E+00 -0.75703763269E+00  0.90007729717E+02  0.89999990950E+02 0.  0.
         12    1    1    2    0    0 -0.46781284235E+00  0.77529549661E+00  0.75703763269E+00  0.11802702825E+01  0.00000000000E+00 0. -1.
         11    1    3    3    0    0 -0.60339439271E+01  0.71078436024E+01 -0.29184451137E+01  0.97697104427E+01  0.51100000000E-03 0. -1.
        -11    1    3    3    0    0 -0.16820437484E+02 -0.22933944408E+02 -0.27537072821E+02  0.39587666047E+02  0.51100000000E-03 0.  1.
         12    1    3    3    0    0  0.23322194254E+02  0.15050805309E+02  0.29698480302E+02  0.40650353227E+02  0.00000000000E+00 0. -1.
</event>
<event>
 7    1  0.1698110E-015  0.9000768E+02  0.7816164E-02  0.1186339E+00
        -11   -1    0    0    0    0  0.00000000000E+00  0.00000000000E+00  0.45593999997E+02  0.45594000000E+02  0.51100000000E-03 0. -1.
         11   -1    0    0    0    0 -0.00000000000E+00 -0.00000000000E+00 -0.45593999997E+02  0.45594000000E+02  0.51100000000E-03 0.  1.
    9900012    2    1    2    0    0 -0.65716298025E+00  0.84908644329E+00 -0.49024824989E+00  0.90007680417E+02  0.89999940999E+02 0.  0.
         12    1    1    2    0    0  0.65716298025E+00 -0.84908644329E+00  0.49024824989E+00  0.11803195827E+01  0.00000000000E+00 0. -1.
         11    1    3    3    0    0 -0.31018928395E+02  0.18043843802E+02  0.52319438566E+01  0.36264686055E+02  0.51100000000E-03 0. -1.
        -11    1    3    3    0    0 -0.93038761423E+01  0.16983420068E+01 -0.18549175140E+01  0.96378003760E+01  0.51100000000E-03 0.  1.
        -12    1    3    3    0    0  0.39665641557E+02 -0.18893099365E+02 -0.38672745925E+01  0.44105193986E+02  0.00000000000E+00 0.  1.
</event>
<event>
 7    1  0.1698110E-015  0.9000725E+02  0.7816164E-02  0.1186340E+00
        -11   -1    0    0    0    0  0.00000000000E+00  0.00000000000E+00  0.45593999997E+02  0.45594000000E+02  0.51100000000E-03 0. -1.
         11   -1    0    0    0    0 -0.00000000000E+00 -0.00000000000E+00 -0.45593999997E+02  0.45594000000E+02  0.51100000000E-03 0.  1.
    9900012    2    1    2    0    0  0.30261649788E+00  0.10985637012E+01  0.30942509665E+00  0.90007253270E+02  0.89999508212E+02 0.  0.
         12    1    1    2    0    0 -0.30261649788E+00 -0.10985637012E+01 -0.30942509665E+00  0.11807467302E+01  0.00000000000E+00 0. -1.
         11    1    3    3    0    0 -0.23255787828E+02 -0.26183983802E+02  0.62593840764E+00  0.35026054223E+02  0.51100000000E-03 0. -1.
        -11    1    3    3    0    0  0.72901068119E+00 -0.84757364459E+01  0.80812597012E+01  0.11733555450E+02  0.51100000000E-03 0.  1.
        -12    1    3    3    0    0  0.22829393645E+02  0.35758283949E+02 -0.83977730122E+01  0.43247643597E+02  0.00000000000E+00 0.  1.
</event>
<event>
 7    1  0.1698110E-015  0.9000794E+02  0.7816164E-02  0.1186339E+00
        -11   -1    0    0    0    0  0.00000000000E+00  0.00000000000E+00  0.45593999997E+02  0.45594000000E+02  0.51100000000E-03 0. -1.
         11   -1    0    0    0    0 -0.00000000000E+00 -0.00000000000E+00 -0.45593999997E+02  0.45594000000E+02  0.51100000000E-03 0.  1.
    9900012    2    1    2    0    0 -0.21947822410E+00 -0.11540029688E+01 -0.11242742545E+00  0.90007943447E+02  0.90000207500E+02 0.  0.
         12    1    1    2    0    0  0.21947822410E+00  0.11540029688E+01  0.11242742545E+00  0.11800565532E+01  0.00000000000E+00 0. -1.
         11    1    3    3    0    0 -0.92855976214E+01 -0.64429547762E+00 -0.56405731905E+01  0.10883634780E+02  0.51100000000E-03 0. -1.
        -11    1    3    3    0    0 -0.17874267563E+02 -0.24982749438E+02 -0.18172431764E+02  0.35691238237E+02  0.51100000000E-03 0.  1.
         12    1    3    3    0    0  0.26940386960E+02  0.24473041947E+02  0.23700577530E+02  0.43433070430E+02  0.00000000000E+00 0. -1.
</event>
<event>
 7    1  0.1698110E-015  0.9000741E+02  0.7816164E-02  0.1186340E+00
        -11   -1    0    0    0    0  0.00000000000E+00  0.00000000000E+00  0.45593999997E+02  0.45594000000E+02  0.51100000000E-03 0.  1.
         11   -1    0    0    0    0 -0.00000000000E+00 -0.00000000000E+00 -0.45593999997E+02  0.45594000000E+02  0.51100000000E-03 0. -1.
    9900012    2    1    2    0    0 -0.92364372970E+00 -0.41254396510E+00 -0.60866828845E+00  0.90007412287E+02  0.89999669329E+02 0.  0.
         12    1    1    2    0    0  0.92364372970E+00  0.41254396510E+00  0.60866828845E+00  0.11805877129E+01  0.00000000000E+00 0. -1.
         11    1    3    3    0    0 -0.29154485386E+02 -0.26196908400E+02  0.46958549992E+00  0.39197991512E+02  0.51100000000E-03 0. -1.
        -11    1    3    3    0    0 -0.74773894382E+01  0.62962633565E+01 -0.25516383490E+01  0.10102729512E+02  0.51100000000E-03 0.  1.
        -12    1    3    3    0    0  0.35708231094E+02  0.19488101078E+02  0.14733845606E+01  0.40706691263E+02  0.00000000000E+00 0.  1.
</event>
<event>
 7    1  0.1698110E-015  0.9000743E+02  0.7816164E-02  0.1186340E+00
        -11   -1    0    0    0    0  0.00000000000E+00  0.00000000000E+00  0.45593999997E+02  0.45594000000E+02  0.51100000000E-03 0. -1.
         11   -1    0    0    0    0 -0.00000000000E+00 -0.00000000000E+00 -0.45593999997E+02  0.45594000000E+02  0.51100000000E-03 0.  1.
    9900012    2    1    2    0    0 -0.41317758373E+00 -0.97788717722E+00 -0.51650395836E+00  0.90007425824E+02  0.89999683044E+02 0.  0.
         12    1    1    2    0    0  0.41317758373E+00  0.97788717722E+00  0.51650395836E+00  0.11805741764E+01  0.00000000000E+00 0. -1.
         11    1    3    3    0    0  0.98070319578E+01  0.33223365665E+02  0.15973995811E+02  0.38146276940E+02  0.51100000000E-03 0. -1.
        -11    1    3    3    0    0 -0.45492297142E+01 -0.10457029833E+00  0.82036825956E+01  0.93811957836E+01  0.51100000000E-03 0.  1.
        -12    1    3    3    0    0 -0.56709798273E+01 -0.34096682544E+02 -0.24694182365E+02  0.42479953100E+02  0.00000000000E+00 0.  1.
</event>
<event>
 7    1  0.1698110E-015  0.9000755E+02  0.7816164E-02  0.1186339E+00
        -11   -1    0    0    0    0  0.00000000000E+00  0.00000000000E+00  0.45593999997E+02  0.45594000000E+02  0.51100000000E-03 0. -1.
         11   -1    0    0    0    0 -0.00000000000E+00 -0.00000000000E+00 -0.45593999997E+02  0.45594000000E+02  0.51100000000E-03 0.  1.
    9900012    2    1    2    0    0 -0.96213062622E+00 -0.88602887938E-01  0.67817716288E+00  0.90007546664E+02  0.89999805480E+02 0.  0.
         12    1    1    2    0    0  0.96213062622E+00  0.88602887938E-01 -0.67817716288E+00  0.11804533358E+01  0.00000000000E+00 0. -1.
         11    1    3    3    0    0  0.24079488846E+02  0.26343771203E+02  0.55382206873E+01  0.36117695842E+02  0.51100000000E-03 0. -1.
        -11    1    3    3    0    0  0.93349449718E+01 -0.55697470246E+00  0.36341302006E+01  0.10032862055E+02  0.51100000000E-03 0.  1.
        -12    1    3    3    0    0 -0.34376564444E+02 -0.25875399388E+02 -0.84941737250E+01  0.43856988767E+02  0.00000000000E+00 0.  1.
</event>
<event>
 7    1  0.1698110E-015  0.9000765E+02  0.7816164E-02  0.1186339E+00
        -11   -1    0    0    0    0  0.00000000000E+00  0.00000000000E+00  0.45593999997E+02  0.45594000000E+02  0.51100000000E-03 0. -1.
         11   -1    0    0    0    0 -0.00000000000E+00 -0.00000000000E+00 -0.45593999997E+02  0.45594000000E+02  0.51100000000E-03 0.  1.
    9900012    2    1    2    0    0  0.29025576106E+00  0.11430935294E+01 -0.48079353895E-01  0.90007651387E+02  0.89999911585E+02 0.  0.
         12    1    1    2    0    0 -0.29025576106E+00 -0.11430935294E+01  0.48079353895E-01  0.11803486129E+01  0.00000000000E+00 0. -1.
         11    1    3    3    0    0 -0.34517503640E+02 -0.19325583153E+02 -0.14296973556E+02  0.42063519526E+02  0.51100000000E-03 0. -1.
        -11    1    3    3    0    0  0.71794450881E+01 -0.43000972513E+01  0.53609453812E+00  0.83858610624E+01  0.51100000000E-03 0.  1.
        -12    1    3    3    0    0  0.27628314313E+02  0.24768773934E+02  0.13712799664E+02  0.39558270799E+02  0.00000000000E+00 0.  1.
</event>
<event>
 7    1  0.1698110E-015  0.9000769E+02  0.7816164E-02  0.1186339E+00
        -11   -1    0    0    0    0  0.00000000000E+00  0.00000000000E+00  0.45593999997E+02  0.45594000000E+02  0.51100000000E-03 0. -1.
         11   -1    0    0    0    0 -0.00000000000E+00 -0.00000000000E+00 -0.45593999997E+02  0.45594000000E+02  0.51100000000E-03 0.  1.
    9900012    2    1    2    0    0  0.15179586241E+00 -0.10348325071E+01 -0.54699405435E+00  0.90007693770E+02  0.89999954528E+02 0.  0.
         12    1    1    2    0    0 -0.15179586241E+00  0.10348325071E+01  0.54699405435E+00  0.11803062302E+01  0.00000000000E+00 0. -1.
         11    1    3    3    0    0  0.80061342817E+00 -0.36297542451E+02  0.33346246423E+01  0.36459186656E+02  0.51100000000E-03 0. -1.
        -11    1    3    3    0    0 -0.43187878428E+01 -0.82070575853E+01  0.21198152857E+01  0.95132192104E+01  0.51100000000E-03 0.  1.
        -12    1    3    3    0    0  0.36699702771E+01  0.43469767529E+02 -0.60014339823E+01  0.44035287903E+02  0.00000000000E+00 0.  1.
</event>
<event>
 7    1  0.1698110E-015  0.9000777E+02  0.7816164E-02  0.1186339E+00
        -11   -1    0    0    0    0  0.00000000000E+00  0.00000000000E+00  0.45593999997E+02  0.45594000000E+02  0.51100000000E-03 0.  1.
         11   -1    0    0    0    0 -0.00000000000E+00 -0.00000000000E+00 -0.45593999997E+02  0.45594000000E+02  0.51100000000E-03 0. -1.
    9900012    2    1    2    0    0  0.47508058691E+00 -0.27655229954E+00  0.10443914116E+01  0.90007772836E+02  0.90000034637E+02 0.  0.
         12    1    1    2    0    0 -0.47508058691E+00  0.27655229954E+00 -0.10443914116E+01  0.11802271642E+01  0.00000000000E+00 0. -1.
         11    1    3    3    0    0  0.69931095326E+01 -0.22969091005E+01  0.71631010291E+01  0.10270802742E+02  0.51100000000E-03 0. -1.
        -11    1    3    3    0    0 -0.29887079255E+02 -0.72430215876E+01  0.25071805675E+02  0.39677377788E+02  0.51100000000E-03 0.  1.
         12    1    3    3    0    0  0.23369050309E+02  0.92633783885E+01 -0.31190515292E+02  0.40059592306E+02  0.00000000000E+00 0. -1.
</event>
<event>
 7    1  0.1698110E-015  0.9000775E+02  0.7816164E-02  0.1186339E+00
        -11   -1    0    0    0    0  0.00000000000E+00  0.00000000000E+00  0.45593999997E+02  0.45594000000E+02  0.51100000000E-03 0. -1.
         11   -1    0    0    0    0 -0.00000000000E+00 -0.00000000000E+00 -0.45593999997E+02  0.45594000000E+02  0.51100000000E-03 0.  1.
    9900012    2    1    2    0    0 -0.59520861500E+00 -0.74577978745E+00 -0.69464174522E+00  0.90007750899E+02  0.90000012411E+02 0.  0.
         12    1    1    2    0    0  0.59520861500E+00  0.74577978745E+00  0.69464174522E+00  0.11802491012E+01  0.00000000000E+00 0. -1.
         11    1    3    3    0    0 -0.44955393782E+01 -0.77498627863E+01 -0.11525359577E+01  0.90331936158E+01  0.51100000000E-03 0. -1.
        -11    1    3    3    0    0 -0.25719735774E+02 -0.15083901976E+02  0.23031218088E+02  0.37675800110E+02  0.51100000000E-03 0.  1.
         12    1    3    3    0    0  0.29620066537E+02  0.22087984974E+02 -0.22573323875E+02  0.43298757172E+02  0.00000000000E+00 0. -1.
</event>
<event>
 7    1  0.1698110E-015  0.9000778E+02  0.7816164E-02  0.1186339E+00
        -11   -1    0    0    0    0  0.00000000000E+00  0.00000000000E+00  0.45593999997E+02  0.45594000000E+02  0.51100000000E-03 0.  1.
         11   -1    0    0    0    0 -0.00000000000E+00 -0.00000000000E+00 -0.45593999997E+02  0.45594000000E+02  0.51100000000E-03 0. -1.
    9900012    2    1    2    0    0 -0.11475537972E+01  0.27423916887E+00 -0.28997926823E-01  0.90007776411E+02  0.90000038260E+02 0.  0.
         12    1    1    2    0    0  0.11475537972E+01 -0.27423916887E+00  0.28997926823E-01  0.11802235885E+01  0.00000000000E+00 0. -1.
         11    1    3    3    0    0 -0.21743218852E+02 -0.36623820845E+02  0.76641559397E+01  0.43275987636E+02  0.51100000000E-03 0. -1.
        -11    1    3    3    0    0  0.76369741052E+01  0.45680333452E+01  0.43145179899E+01  0.98896596439E+01  0.51100000000E-03 0.  1.
        -12    1    3    3    0    0  0.12958690950E+02  0.32330026669E+02 -0.12007671856E+02  0.36842129132E+02  0.00000000000E+00 0.  1.
</event>
<event>
 7    1  0.1698110E-015  0.9000776E+02  0.7816164E-02  0.1186339E+00
        -11   -1    0    0    0    0  0.00000000000E+00  0.00000000000E+00  0.45593999997E+02  0.45594000000E+02  0.51100000000E-03 0. -1.
         11   -1    0    0    0    0 -0.00000000000E+00 -0.00000000000E+00 -0.45593999997E+02  0.45594000000E+02  0.51100000000E-03 0.  1.
    9900012    2    1    2    0    0 -0.30633564334E+00 -0.78855516095E+00  0.82298518180E+00  0.90007760457E+02  0.90000022096E+02 0.  0.
         12    1    1    2    0    0  0.30633564334E+00  0.78855516095E+00 -0.82298518180E+00  0.11802395425E+01  0.00000000000E+00 0. -1.
         11    1    3    3    0    0 -0.17982183981E+02 -0.24045861121E+02  0.24310154740E+02  0.38633482907E+02  0.51100000000E-03 0. -1.
        -11    1    3    3    0    0  0.43928376129E+01 -0.63693104672E+01  0.41110777665E+01  0.87616264919E+01  0.51100000000E-03 0.  1.
        -12    1    3    3    0    0  0.13283010725E+02  0.29626616428E+02 -0.27598247324E+02  0.42612651059E+02  0.00000000000E+00 0.  1.
</event>
<event>
 7    1  0.1698110E-015  0.9000764E+02  0.7816164E-02  0.1186339E+00
        -11   -1    0    0    0    0  0.00000000000E+00  0.00000000000E+00  0.45593999997E+02  0.45594000000E+02  0.51100000000E-03 0.  1.
         11   -1    0    0    0    0 -0.00000000000E+00 -0.00000000000E+00 -0.45593999997E+02  0.45594000000E+02  0.51100000000E-03 0. -1.
    9900012    2    1    2    0    0  0.66564188482E+00 -0.31062206844E+00  0.92395636317E+00  0.90007635417E+02  0.89999895404E+02 0.  0.
         12    1    1    2    0    0 -0.66564188482E+00  0.31062206844E+00 -0.92395636317E+00  0.11803645832E+01  0.00000000000E+00 0. -1.
         11    1    3    3    0    0 -0.19857483812E+02 -0.31531036842E+02  0.89370207630E+01  0.38319659289E+02  0.51100000000E-03 0. -1.
        -11    1    3    3    0    0 -0.71502621809E+01 -0.70051375137E+00 -0.60557284857E+01  0.93962128821E+01  0.51100000000E-03 0.  1.
        -12    1    3    3    0    0  0.27673387878E+02  0.31920928525E+02 -0.19573359141E+01  0.42291763245E+02  0.00000000000E+00 0.  1.
</event>
<event>
 7    1  0.1698110E-015  0.9000778E+02  0.7816164E-02  0.1186339E+00
        -11   -1    0    0    0    0  0.00000000000E+00  0.00000000000E+00  0.45593999997E+02  0.45594000000E+02  0.51100000000E-03 0. -1.
         11   -1    0    0    0    0 -0.00000000000E+00 -0.00000000000E+00 -0.45593999997E+02  0.45594000000E+02  0.51100000000E-03 0.  1.
    9900012    2    1    2    0    0  0.16158927558E+00 -0.72802765009E+00 -0.91476499198E+00  0.90007775299E+02  0.90000037133E+02 0.  0.
         12    1    1    2    0    0 -0.16158927558E+00  0.72802765009E+00  0.91476499198E+00  0.11802247006E+01  0.00000000000E+00 0. -1.
         11    1    3    3    0    0  0.38001683870E+02  0.78914954953E+01  0.21018267564E+02  0.44138092955E+02  0.51100000000E-03 0. -1.
        -11    1    3    3    0    0 -0.81288866800E+01  0.21748686842E+01 -0.68197229252E+01  0.10831319102E+02  0.51100000000E-03 0.  1.
        -12    1    3    3    0    0 -0.29711207914E+02 -0.10794391830E+02 -0.15113309630E+02  0.35038363242E+02  0.00000000000E+00 0.  1.
</event>
<event>
 7    1  0.1698110E-015  0.9000781E+02  0.7816164E-02  0.1186339E+00
        -11   -1    0    0    0    0  0.00000000000E+00  0.00000000000E+00  0.45593999997E+02  0.45594000000E+02  0.51100000000E-03 0.  1.
         11   -1    0    0    0    0 -0.00000000000E+00 -0.00000000000E+00 -0.45593999997E+02  0.45594000000E+02  0.51100000000E-03 0. -1.
    9900012    2    1    2    0    0  0.50013012783E+00 -0.99717137770E+00  0.38519863615E+00  0.90007805571E+02  0.90000067804E+02 0.  0.
         12    1    1    2    0    0 -0.50013012783E+00  0.99717137770E+00 -0.38519863615E+00  0.11801944291E+01  0.00000000000E+00 0. -1.
         11    1    3    3    0    0  0.29977630405E+02  0.24066405482E+01 -0.24358354213E+02  0.38701158428E+02  0.51100000000E-03 0. -1.
        -11    1    3    3    0    0 -0.37097595708E+01  0.45997687550E+01 -0.73155654295E+01  0.94041313521E+01  0.51100000000E-03 0.  1.
        -12    1    3    3    0    0 -0.25767740706E+02 -0.80035806809E+01  0.32059118279E+02  0.41902515791E+02  0.00000000000E+00 0.  1.
</event>
<event>
 7    1  0.1698110E-015  0.9000751E+02  0.7816164E-02  0.1186340E+00
        -11   -1    0    0    0    0  0.00000000000E+00  0.00000000000E+00  0.45593999997E+02  0.45594000000E+02  0.51100000000E-03 0. -1.
         11   -1    0    0    0    0 -0.00000000000E+00 -0.00000000000E+00 -0.45593999997E+02  0.45594000000E+02  0.51100000000E-03 0.  1.
    9900012    2    1    2    0    0 -0.60361018077E+00 -0.10066526409E+01 -0.12593806021E+00  0.90007510616E+02  0.89999768956E+02 0.  0.
         12    1    1    2    0    0  0.60361018077E+00  0.10066526409E+01  0.12593806021E+00  0.11804893836E+01  0.00000000000E+00 0. -1.
         11    1    3    3    0    0  0.27681409206E+02 -0.22534569122E+01  0.11451358279E+02  0.30041173253E+02  0.51100000000E-03 0. -1.
        -11    1    3    3    0    0  0.11419026179E+02 -0.48536421740E+01  0.85181357750E+01  0.15050270382E+02  0.51100000000E-03 0.  1.
        -12    1    3    3    0    0 -0.39704045566E+02  0.61004464452E+01 -0.20095432115E+02  0.44916066981E+02  0.00000000000E+00 0.  1.
</event>
<event>
 7    1  0.1698110E-015  0.9000745E+02  0.7816164E-02  0.1186340E+00
        -11   -1    0    0    0    0  0.00000000000E+00  0.00000000000E+00  0.45593999997E+02  0.45594000000E+02  0.51100000000E-03 0.  1.
         11   -1    0    0    0    0 -0.00000000000E+00 -0.00000000000E+00 -0.45593999997E+02  0.45594000000E+02  0.51100000000E-03 0. -1.
    9900012    2    1    2    0    0  0.25368262490E+00  0.40394788256E+00  0.10798966158E+01  0.90007446966E+02  0.89999704465E+02 0.  0.
         12    1    1    2    0    0 -0.25368262490E+00 -0.40394788256E+00 -0.10798966158E+01  0.11805530343E+01  0.00000000000E+00 0. -1.
         11    1    3    3    0    0  0.10505176090E+01  0.10954028266E+02 -0.10604204423E+00  0.11004797485E+02  0.51100000000E-03 0. -1.
        -11    1    3    3    0    0  0.84254093799E+01 -0.16411971781E+02  0.37115783188E+02  0.41447819037E+02  0.51100000000E-03 0.  1.
         12    1    3    3    0    0 -0.92222443641E+01  0.58618913969E+01 -0.35929844528E+02  0.37554830444E+02  0.00000000000E+00 0. -1.
</event>
<event>
 7    1  0.1698110E-015  0.9000771E+02  0.7816164E-02  0.1186339E+00
        -11   -1    0    0    0    0  0.00000000000E+00  0.00000000000E+00  0.45593999997E+02  0.45594000000E+02  0.51100000000E-03 0.  1.
         11   -1    0    0    0    0 -0.00000000000E+00 -0.00000000000E+00 -0.45593999997E+02  0.45594000000E+02  0.51100000000E-03 0. -1.
    9900012    2    1    2    0    0 -0.10912274681E+01 -0.43952342709E+00  0.95473583807E-01  0.90007714681E+02  0.89999975714E+02 0.  0.
         12    1    1    2    0    0  0.10912274681E+01  0.43952342709E+00 -0.95473583807E-01  0.11802853195E+01  0.00000000000E+00 0. -1.
         11    1    3    3    0    0 -0.63909044935E+01  0.96804794823E+01  0.69891571643E+01  0.13542660794E+02  0.51100000000E-03 0. -1.
        -11    1    3    3    0    0  0.18542600906E+01 -0.41072391920E+02  0.80930302889E+01  0.41903183626E+02  0.51100000000E-03 0.  1.
         12    1    3    3    0    0  0.34454169348E+01  0.30952389010E+02 -0.14986713869E+02  0.34561870261E+02  0.00000000000E+00 0. -1.
</event>
<event>
 7    1  0.1698110E-015  0.9000775E+02  0.7816164E-02  0.1186339E+00
        -11   -1    0    0    0    0  0.00000000000E+00  0.00000000000E+00  0.45593999997E+02  0.45594000000E+02  0.51100000000E-03 0. -1.
         11   -1    0    0    0    0 -0.00000000000E+00 -0.00000000000E+00 -0.45593999997E+02  0.45594000000E+02  0.51100000000E-03 0.  1.
    9900012    2    1    2    0    0 -0.33628589408E+00 -0.54063887877E+00 -0.99378077789E+00  0.90007754757E+02  0.90000016319E+02 0.  0.
         12    1    1    2    0    0  0.33628589408E+00  0.54063887877E+00  0.99378077789E+00  0.11802452433E+01  0.00000000000E+00 0. -1.
         11    1    3    3    0    0  0.20581135867E+02  0.23714082655E+02  0.20506437886E+02  0.37502731431E+02  0.51100000000E-03 0. -1.
        -11    1    3    3    0    0 -0.46552939808E+01  0.83157610793E+01  0.11961657688E+01  0.96049183850E+01  0.51100000000E-03 0.  1.
        -12    1    3    3    0    0 -0.16262127780E+02 -0.32570482613E+02 -0.22696384432E+02  0.42900104941E+02  0.00000000000E+00 0.  1.
</event>
<event>
 7    1  0.1698110E-015  0.9000777E+02  0.7816164E-02  0.1186339E+00
        -11   -1    0    0    0    0  0.00000000000E+00  0.00000000000E+00  0.45593999997E+02  0.45594000000E+02  0.51100000000E-03 0. -1.
         11   -1    0    0    0    0 -0.00000000000E+00 -0.00000000000E+00 -0.45593999997E+02  0.45594000000E+02  0.51100000000E-03 0.  1.
    9900012    2    1    2    0    0  0.70258623645E+00  0.91397049853E+00 -0.25291870908E+00  0.90007772325E+02  0.90000034120E+02 0.  0.
         12    1    1    2    0    0 -0.70258623645E+00 -0.91397049853E+00  0.25291870908E+00  0.11802276752E+01  0.00000000000E+00 0. -1.
         11    1    3    3    0    0  0.69538987606E+01 -0.36987384019E+01 -0.69417538304E+01  0.10498824708E+02  0.51100000000E-03 0. -1.
        -11    1    3    3    0    0  0.72968509287E+01 -0.35621681914E+02 -0.94619169575E+00  0.36373665403E+02  0.51100000000E-03 0.  1.
         12    1    3    3    0    0 -0.13548163453E+02  0.40234390815E+02  0.76350268171E+01  0.43135282214E+02  0.00000000000E+00 0. -1.
</event>
<event>
 7    1  0.1698110E-015  0.9000777E+02  0.7816164E-02  0.1186339E+00
        -11   -1    0    0    0    0  0.00000000000E+00  0.00000000000E+00  0.45593999997E+02  0.45594000000E+02  0.51100000000E-03 0.  1.
         11   -1    0    0    0    0 -0.00000000000E+00 -0.00000000000E+00 -0.45593999997E+02  0.45594000000E+02  0.51100000000E-03 0. -1.
    9900012    2    1    2    0    0 -0.63704468024E+00 -0.55696953123E+00 -0.82274443486E+00  0.90007767231E+02  0.90000028959E+02 0.  0.
         12    1    1    2    0    0  0.63704468024E+00  0.55696953123E+00  0.82274443486E+00  0.11802327687E+01  0.00000000000E+00 0. -1.
         11    1    3    3    0    0 -0.18308805233E+02 -0.22687009111E+02 -0.21892906997E+02  0.36458361298E+02  0.51100000000E-03 0. -1.
        -11    1    3    3    0    0 -0.51706362278E+01  0.34147002717E+01 -0.93090295348E+01  0.11182740634E+02  0.51100000000E-03 0.  1.
        -12    1    3    3    0    0  0.22842396781E+02  0.18715339308E+02  0.30379192097E+02  0.42366665299E+02  0.00000000000E+00 0.  1.
</event>
<event>
 7    1  0.1698110E-015  0.9000778E+02  0.7816164E-02  0.1186339E+00
        -11   -1    0    0    0    0  0.00000000000E+00  0.00000000000E+00  0.45593999997E+02  0.45594000000E+02  0.51100000000E-03 0. -1.
         11   -1    0    0    0    0 -0.00000000000E+00 -0.00000000000E+00 -0.45593999997E+02  0.45594000000E+02  0.51100000000E-03 0.  1.
    9900012    2    1    2    0    0  0.10590009087E+01  0.49475230237E+00  0.16325809808E+00  0.90007781388E+02  0.90000043302E+02 0.  0.
         12    1    1    2    0    0 -0.10590009087E+01 -0.49475230237E+00 -0.16325809808E+00  0.11802186119E+01  0.00000000000E+00 0. -1.
         11    1    3    3    0    0  0.20048406155E+01  0.67996516531E+01 -0.37687878346E+01  0.80285995354E+01  0.51100000000E-03 0. -1.
        -11    1    3    3    0    0 -0.16431761380E+02 -0.20155795451E+02 -0.31535239188E+02  0.40874566459E+02  0.51100000000E-03 0.  1.
         12    1    3    3    0    0  0.15485921673E+02  0.13850896100E+02  0.35467285121E+02  0.41104615394E+02  0.00000000000E+00 0. -1.
</event>
<event>
 7    1  0.1698110E-015  0.9000780E+02  0.7816164E-02  0.1186339E+00
        -11   -1    0    0    0    0  0.00000000000E+00  0.00000000000E+00  0.45593999997E+02  0.45594000000E+02  0.51100000000E-03 0.  1.
         11   -1    0    0    0    0 -0.00000000000E+00 -0.00000000000E+00 -0.45593999997E+02  0.45594000000E+02  0.51100000000E-03 0. -1.
    9900012    2    1    2    0    0 -0.95890458778E+00  0.68432318411E+00 -0.71225039074E-01  0.90007801188E+02  0.90000063364E+02 0.  0.
         12    1    1    2    0    0  0.95890458778E+00 -0.68432318411E+00  0.71225039074E-01  0.11801988116E+01  0.00000000000E+00 0. -1.
         11    1    3    3    0    0 -0.10140963608E+02 -0.21922772839E+02 -0.30711405187E+02  0.39072209058E+02  0.51100000000E-03 0. -1.
        -11    1    3    3    0    0  0.15606178942E+01  0.85203188776E+01 -0.62746771488E+01  0.10695930795E+02  0.51100000000E-03 0.  1.
        -12    1    3    3    0    0  0.76214411255E+01  0.14086777146E+02  0.36914857297E+02  0.40239661336E+02  0.00000000000E+00 0.  1.
</event>
<event>
 7    1  0.2588470E-015  0.9000774E+02  0.7816164E-02  0.1186339E+00
        -11   -1    0    0    0    0  0.00000000000E+00  0.00000000000E+00  0.45593999997E+02  0.45594000000E+02  0.51100000000E-03 0.  1.
         11   -1    0    0    0    0 -0.00000000000E+00 -0.00000000000E+00 -0.45593999997E+02  0.45594000000E+02  0.51100000000E-03 0. -1.
    9900012    2    1    2    0    0 -0.89234947863E+00 -0.19916563452E+00  0.74636337803E+00  0.90007740353E+02  0.90000001726E+02 0.  0.
         12    1    1    2    0    0  0.89234947863E+00  0.19916563452E+00 -0.74636337803E+00  0.11802596469E+01  0.00000000000E+00 0. -1.
         11    1    3    3    0    0 -0.66763748939E+01  0.14140968555E+01  0.70136423603E+01  0.97859506978E+01  0.51100000000E-03 0. -1.
        -11    1    3    3    0    0  0.10986976167E+02  0.22325884971E+02  0.28408564780E+02  0.37765133896E+02  0.51100000000E-03 0.  1.
         12    1    3    3    0    0 -0.52029507522E+01 -0.23939147461E+02 -0.34675843762E+02  0.42456655760E+02  0.00000000000E+00 0. -1.
</event>
<event>
 7    1  0.1698110E-015  0.9000839E+02  0.7816164E-02  0.1186338E+00
        -11   -1    0    0    0    0  0.00000000000E+00  0.00000000000E+00  0.45593999997E+02  0.45594000000E+02  0.51100000000E-03 0. -1.
         11   -1    0    0    0    0 -0.00000000000E+00 -0.00000000000E+00 -0.45593999997E+02  0.45594000000E+02  0.51100000000E-03 0.  1.
    9900012    2    1    2    0    0  0.96611352037E+00 -0.67570643460E+00 -0.39085076787E-01  0.90008388978E+02  0.90000658910E+02 0.  0.
         12    1    1    2    0    0 -0.96611352037E+00  0.67570643460E+00  0.39085076787E-01  0.11796110220E+01  0.00000000000E+00 0. -1.
         11    1    3    3    0    0 -0.37878284998E+01 -0.92316811144E+01 -0.31033852912E+00  0.99833807503E+01  0.51100000000E-03 0. -1.
        -11    1    3    3    0    0  0.13519603668E+02 -0.26285827972E+01 -0.37350549176E+02  0.39808951943E+02  0.51100000000E-03 0.  1.
         12    1    3    3    0    0 -0.87656616477E+01  0.11184557477E+02  0.37621802628E+02  0.40216056284E+02  0.00000000000E+00 0. -1.
</event>
<event>
 7    1  0.1698110E-015  0.9000772E+02  0.7816164E-02  0.1186339E+00
        -11   -1    0    0    0    0  0.00000000000E+00  0.00000000000E+00  0.45593999997E+02  0.45594000000E+02  0.51100000000E-03 0.  1.
         11   -1    0    0    0    0 -0.00000000000E+00 -0.00000000000E+00 -0.45593999997E+02  0.45594000000E+02  0.51100000000E-03 0. -1.
    9900012    2    1    2    0    0  0.21937372371E-01  0.10688965348E+01 -0.50003605840E+00  0.90007721596E+02  0.89999982721E+02 0.  0.
         12    1    1    2    0    0 -0.21937372371E-01 -0.10688965348E+01  0.50003605840E+00  0.11802784036E+01  0.00000000000E+00 0. -1.
         11    1    3    3    0    0  0.64415888652E+01  0.11792436017E+02 -0.33509655430E+02  0.36103360254E+02  0.51100000000E-03 0. -1.
        -11    1    3    3    0    0  0.11482064054E+01  0.77461206616E+01 -0.61461364719E+01  0.99546851807E+01  0.51100000000E-03 0.  1.
        -12    1    3    3    0    0 -0.75678578983E+01 -0.18469660144E+02  0.39155755844E+02  0.43949676161E+02  0.00000000000E+00 0.  1.
</event>
<event>
 7    1  0.1698110E-015  0.9000768E+02  0.7816164E-02  0.1186339E+00
        -11   -1    0    0    0    0  0.00000000000E+00  0.00000000000E+00  0.45593999997E+02  0.45594000000E+02  0.51100000000E-03 0. -1.
         11   -1    0    0    0    0 -0.00000000000E+00 -0.00000000000E+00 -0.45593999997E+02  0.45594000000E+02  0.51100000000E-03 0.  1.
    9900012    2    1    2    0    0  0.52902976715E-01 -0.75452853588E+00 -0.90610968372E+00  0.90007683604E+02  0.89999944227E+02 0.  0.
         12    1    1    2    0    0 -0.52902976715E-01  0.75452853588E+00  0.90610968372E+00  0.11803163963E+01  0.00000000000E+00 0. -1.
         11    1    3    3    0    0 -0.14022409751E+02 -0.14934172345E+01  0.29132711950E+01  0.14399493726E+02  0.51100000000E-03 0. -1.
        -11    1    3    3    0    0 -0.82740260213E+01 -0.13572113089E+02 -0.32716656419E+02  0.36373635614E+02  0.51100000000E-03 0.  1.
         12    1    3    3    0    0  0.22349338749E+02  0.14311001787E+02  0.28897275540E+02  0.39234554264E+02  0.00000000000E+00 0. -1.
</event>
<event>
 7    1  0.1698110E-015  0.9000777E+02  0.7816164E-02  0.1186339E+00
        -11   -1    0    0    0    0  0.00000000000E+00  0.00000000000E+00  0.45593999997E+02  0.45594000000E+02  0.51100000000E-03 0. -1.
         11   -1    0    0    0    0 -0.00000000000E+00 -0.00000000000E+00 -0.45593999997E+02  0.45594000000E+02  0.51100000000E-03 0.  1.
    9900012    2    1    2    0    0 -0.78248559618E+00  0.15567677203E+00 -0.86972273190E+00  0.90007772651E+02  0.90000034450E+02 0.  0.
         12    1    1    2    0    0  0.78248559618E+00 -0.15567677203E+00  0.86972273190E+00  0.11802273493E+01  0.00000000000E+00 0. -1.
         11    1    3    3    0    0  0.81558252604E+01 -0.28808492273E+01  0.30745733462E+00  0.86551319009E+01  0.51100000000E-03 0. -1.
        -11    1    3    3    0    0  0.11072298518E+02  0.38688356487E+02  0.23976334431E+01  0.40312942940E+02  0.51100000000E-03 0.  1.
         12    1    3    3    0    0 -0.20010609375E+02 -0.35651830488E+02 -0.35748135097E+01  0.41039697809E+02  0.00000000000E+00 0. -1.
</event>
<event>
 7    1  0.1698110E-015  0.9000781E+02  0.7816164E-02  0.1186339E+00
        -11   -1    0    0    0    0  0.00000000000E+00  0.00000000000E+00  0.45593999997E+02  0.45594000000E+02  0.51100000000E-03 0. -1.
         11   -1    0    0    0    0 -0.00000000000E+00 -0.00000000000E+00 -0.45593999997E+02  0.45594000000E+02  0.51100000000E-03 0.  1.
    9900012    2    1    2    0    0  0.58545658814E-01  0.11596672971E+01  0.21118035565E+00  0.90007808076E+02  0.90000070343E+02 0.  0.
         12    1    1    2    0    0 -0.58545658814E-01 -0.11596672971E+01 -0.21118035565E+00  0.11801919237E+01  0.00000000000E+00 0. -1.
         11    1    3    3    0    0  0.44293337482E+01  0.17332884010E+02  0.10568603961E+02  0.20778432460E+02  0.51100000000E-03 0. -1.
        -11    1    3    3    0    0 -0.16302989709E+02  0.19871067454E+02 -0.16817075101E+02  0.30715807176E+02  0.51100000000E-03 0.  1.
         12    1    3    3    0    0  0.11932201619E+02 -0.36044284167E+02  0.64596514962E+01  0.38513568441E+02  0.00000000000E+00 0. -1.
</event>
<event>
 7    1  0.1698110E-015  0.9000773E+02  0.7816164E-02  0.1186339E+00
        -11   -1    0    0    0    0  0.00000000000E+00  0.00000000000E+00  0.45593999997E+02  0.45594000000E+02  0.51100000000E-03 0. -1.
         11   -1    0    0    0    0 -0.00000000000E+00 -0.00000000000E+00 -0.45593999997E+02  0.45594000000E+02  0.51100000000E-03 0.  1.
    9900012    2    1    2    0    0 -0.59377728570E+00  0.78337907161E+00 -0.65329385547E+00  0.90007725838E+02  0.89999987020E+02 0.  0.
         12    1    1    2    0    0  0.59377728570E+00 -0.78337907161E+00  0.65329385547E+00  0.11802741616E+01  0.00000000000E+00 0. -1.
         11    1    3    3    0    0  0.21388294747E+02  0.12125207247E+02 -0.31501237036E+02  0.39960076803E+02  0.51100000000E-03 0. -1.
        -11    1    3    3    0    0 -0.36737798213E+01  0.10146041382E+02  0.55179278582E+01  0.12119667570E+02  0.51100000000E-03 0.  1.
        -12    1    3    3    0    0 -0.18308292212E+02 -0.21487869557E+02  0.25330015323E+02  0.37927981466E+02  0.00000000000E+00 0.  1.
</event>
<event>
 7    1  0.1698110E-015  0.9000772E+02  0.7816164E-02  0.1186339E+00
        -11   -1    0    0    0    0  0.00000000000E+00  0.00000000000E+00  0.45593999997E+02  0.45594000000E+02  0.51100000000E-03 0.  1.
         11   -1    0    0    0    0 -0.00000000000E+00 -0.00000000000E+00 -0.45593999997E+02  0.45594000000E+02  0.51100000000E-03 0. -1.
    9900012    2    1    2    0    0 -0.11403158489E+01 -0.19109002908E+00 -0.23710044177E+00  0.90007723654E+02  0.89999984806E+02 0.  0.
         12    1    1    2    0    0  0.11403158489E+01  0.19109002908E+00  0.23710044177E+00  0.11802763464E+01  0.00000000000E+00 0. -1.
         11    1    3    3    0    0 -0.38829149337E+01 -0.11573627794E+01 -0.87823324277E+01  0.96719119163E+01  0.51100000000E-03 0. -1.
        -11    1    3    3    0    0 -0.35030027037E+02  0.15795475299E+02  0.10083059913E+02  0.39727420399E+02  0.51100000000E-03 0.  1.
         12    1    3    3    0    0  0.37772626121E+02 -0.14829202549E+02 -0.15378279271E+01  0.40608391338E+02  0.00000000000E+00 0. -1.
</event>
<event>
 7    1  0.1698110E-015  0.9000778E+02  0.7816164E-02  0.1186339E+00
        -11   -1    0    0    0    0  0.00000000000E+00  0.00000000000E+00  0.45593999997E+02  0.45594000000E+02  0.51100000000E-03 0.  1.
         11   -1    0    0    0    0 -0.00000000000E+00 -0.00000000000E+00 -0.45593999997E+02  0.45594000000E+02  0.51100000000E-03 0. -1.
    9900012    2    1    2    0    0 -0.24657716349E+00  0.11500913857E+01  0.96943485659E-01  0.90007784540E+02  0.90000046496E+02 0.  0.
         12    1    1    2    0    0  0.24657716349E+00 -0.11500913857E+01 -0.96943485659E-01  0.11802154601E+01  0.00000000000E+00 0. -1.
         11    1    3    3    0    0 -0.54882655184E+01 -0.29198395066E+01  0.79852723890E+01  0.10119836784E+02  0.51100000000E-03 0. -1.
        -11    1    3    3    0    0 -0.17898093565E+01 -0.37174424259E+02 -0.79086839120E+01  0.38048502178E+02  0.51100000000E-03 0.  1.
         12    1    3    3    0    0  0.70314977114E+01  0.41244355151E+02  0.20355008594E-01  0.41839445578E+02  0.00000000000E+00 0. -1.
</event>
<event>
 7    1  0.1698110E-015  0.9000777E+02  0.7816164E-02  0.1186339E+00
        -11   -1    0    0    0    0  0.00000000000E+00  0.00000000000E+00  0.45593999997E+02  0.45594000000E+02  0.51100000000E-03 0. -1.
         11   -1    0    0    0    0 -0.00000000000E+00 -0.00000000000E+00 -0.45593999997E+02  0.45594000000E+02  0.51100000000E-03 0.  1.
    9900012    2    1    2    0    0 -0.47002622069E-01 -0.63635726267E+00 -0.99286639049E+00  0.90007769734E+02  0.90000031494E+02 0.  0.
         12    1    1    2    0    0  0.47002622069E-01  0.63635726267E+00  0.99286639049E+00  0.11802302663E+01  0.00000000000E+00 0. -1.
         11    1    3    3    0    0 -0.33400977605E+01 -0.81579684732E+01  0.14526033137E+01  0.89341345025E+01  0.51100000000E-03 0. -1.
        -11    1    3    3    0    0  0.46917161616E+01 -0.35123450605E+02  0.96471382397E+01  0.36725144784E+02  0.51100000000E-03 0.  1.
         12    1    3    3    0    0 -0.13986210232E+01  0.42645061816E+02 -0.12092607944E+02  0.44348490447E+02  0.00000000000E+00 0. -1.
</event>
<event>
 7    1  0.1698110E-015  0.9000773E+02  0.7816164E-02  0.1186339E+00
        -11   -1    0    0    0    0  0.00000000000E+00  0.00000000000E+00  0.45593999997E+02  0.45594000000E+02  0.51100000000E-03 0.  1.
         11   -1    0    0    0    0 -0.00000000000E+00 -0.00000000000E+00 -0.45593999997E+02  0.45594000000E+02  0.51100000000E-03 0. -1.
    9900012    2    1    2    0    0  0.78013666269E+00 -0.19657249233E+00  0.86358454553E+00  0.90007732139E+02  0.89999993403E+02 0.  0.
         12    1    1    2    0    0 -0.78013666269E+00  0.19657249233E+00 -0.86358454553E+00  0.11802678613E+01  0.00000000000E+00 0. -1.
         11    1    3    3    0    0  0.91775734349E+01 -0.31650925135E+02 -0.18286073297E+02  0.37688053717E+02  0.51100000000E-03 0. -1.
        -11    1    3    3    0    0 -0.41125628827E+01 -0.32730069491E+01 -0.69166450626E+01  0.86871011930E+01  0.51100000000E-03 0.  1.
        -12    1    3    3    0    0 -0.42848738895E+01  0.34727359592E+02  0.26066302905E+02  0.43632577229E+02  0.00000000000E+00 0.  1.
</event>
<event>
 7    1  0.1698110E-015  0.9000777E+02  0.7816164E-02  0.1186339E+00
        -11   -1    0    0    0    0  0.00000000000E+00  0.00000000000E+00  0.45593999997E+02  0.45594000000E+02  0.51100000000E-03 0.  1.
         11   -1    0    0    0    0 -0.00000000000E+00 -0.00000000000E+00 -0.45593999997E+02  0.45594000000E+02  0.51100000000E-03 0. -1.
    9900012    2    1    2    0    0 -0.10027288930E+01 -0.55480471261E+00  0.28227684748E+00  0.90007765396E+02  0.90000027099E+02 0.  0.
         12    1    1    2    0    0  0.10027288930E+01  0.55480471261E+00 -0.28227684748E+00  0.11802346041E+01  0.00000000000E+00 0. -1.
         11    1    3    3    0    0 -0.34528561755E+02 -0.51884713027E+01  0.25926133483E+02  0.43489150475E+02  0.51100000000E-03 0. -1.
        -11    1    3    3    0    0  0.45145090633E+01 -0.62672709463E+01 -0.64652122257E+01  0.10072658367E+02  0.51100000000E-03 0.  1.
        -12    1    3    3    0    0  0.29011323799E+02  0.10900937536E+02 -0.19178644410E+02  0.36445956554E+02  0.00000000000E+00 0.  1.
</event>
<event>
 7    1  0.1698110E-015  0.9000727E+02  0.7816164E-02  0.1186340E+00
        -11   -1    0    0    0    0  0.00000000000E+00  0.00000000000E+00  0.45593999997E+02  0.45594000000E+02  0.51100000000E-03 0.  1.
         11   -1    0    0    0    0 -0.00000000000E+00 -0.00000000000E+00 -0.45593999997E+02  0.45594000000E+02  0.51100000000E-03 0. -1.
    9900012    2    1    2    0    0 -0.71419163601E-01  0.11097511570E+01  0.39682426223E+00  0.90007272333E+02  0.89999527527E+02 0.  0.
         12    1    1    2    0    0  0.71419163601E-01 -0.11097511570E+01 -0.39682426223E+00  0.11807276666E+01  0.00000000000E+00 0. -1.
         11    1    3    3    0    0  0.45700659957E+01  0.10317065297E+01 -0.77460106352E+01  0.90526572115E+01  0.51100000000E-03 0. -1.
        -11    1    3    3    0    0  0.19625885359E+02  0.30271781927E+02 -0.11039231397E+02  0.37728249194E+02  0.51100000000E-03 0.  1.
         12    1    3    3    0    0 -0.24267370519E+02 -0.30193737300E+02  0.19182066294E+02  0.43226365928E+02  0.00000000000E+00 0. -1.
</event>
<event>
 7    1  0.1698110E-015  0.9000765E+02  0.7816164E-02  0.1186339E+00
        -11   -1    0    0    0    0  0.00000000000E+00  0.00000000000E+00  0.45593999997E+02  0.45594000000E+02  0.51100000000E-03 0.  1.
         11   -1    0    0    0    0 -0.00000000000E+00 -0.00000000000E+00 -0.45593999997E+02  0.45594000000E+02  0.51100000000E-03 0. -1.
    9900012    2    1    2    0    0  0.99770750018E+00 -0.61776085036E+00  0.12720440110E+00  0.90007648491E+02  0.89999908651E+02 0.  0.
         12    1    1    2    0    0 -0.99770750018E+00  0.61776085036E+00 -0.12720440110E+00  0.11803515086E+01  0.00000000000E+00 0. -1.
         11    1    3    3    0    0 -0.90238486836E+01  0.49156743156E+01  0.21926922441E+01  0.10507216500E+02  0.51100000000E-03 0. -1.
        -11    1    3    3    0    0 -0.33031748976E+02  0.67132212892E+01  0.53504418691E+01  0.34129034691E+02  0.51100000000E-03 0.  1.
         12    1    3    3    0    0  0.43053305160E+02 -0.12246656455E+02 -0.74159297121E+01  0.45371397300E+02  0.00000000000E+00 0. -1.
</event>
<event>
 7    1  0.1698110E-015  0.9000765E+02  0.7816164E-02  0.1186339E+00
        -11   -1    0    0    0    0  0.00000000000E+00  0.00000000000E+00  0.45593999997E+02  0.45594000000E+02  0.51100000000E-03 0. -1.
         11   -1    0    0    0    0 -0.00000000000E+00 -0.00000000000E+00 -0.45593999997E+02  0.45594000000E+02  0.51100000000E-03 0.  1.
    9900012    2    1    2    0    0  0.61046875348E+00 -0.61357610371E+00 -0.80254813268E+00  0.90007647833E+02  0.89999907984E+02 0.  0.
         12    1    1    2    0    0 -0.61046875348E+00  0.61357610371E+00  0.80254813268E+00  0.11803521675E+01  0.00000000000E+00 0. -1.
         11    1    3    3    0    0 -0.71593686051E+01 -0.34387903586E+02  0.21210693801E+02  0.41032645584E+02  0.51100000000E-03 0. -1.
        -11    1    3    3    0    0 -0.88682799864E+01  0.43495483758E+01 -0.38507742905E+01  0.10601576481E+02  0.51100000000E-03 0.  1.
        -12    1    3    3    0    0  0.16638117345E+02  0.29424779106E+02 -0.18162467643E+02  0.38373425767E+02  0.00000000000E+00 0.  1.
</event>
<event>
 7    1  0.1698110E-015  0.9000782E+02  0.7816164E-02  0.1186339E+00
        -11   -1    0    0    0    0  0.00000000000E+00  0.00000000000E+00  0.45593999997E+02  0.45594000000E+02  0.51100000000E-03 0.  1.
         11   -1    0    0    0    0 -0.00000000000E+00 -0.00000000000E+00 -0.45593999997E+02  0.45594000000E+02  0.51100000000E-03 0. -1.
    9900012    2    1    2    0    0  0.97190729255E+00 -0.16252828189E-01  0.66929661547E+00  0.90007819548E+02  0.90000081966E+02 0.  0.
         12    1    1    2    0    0 -0.97190729255E+00  0.16252828189E-01 -0.66929661547E+00  0.11801804520E+01  0.00000000000E+00 0. -1.
         11    1    3    3    0    0 -0.71514135545E+01 -0.67451436541E+01 -0.97897125532E+00  0.98791732307E+01  0.51100000000E-03 0. -1.
        -11    1    3    3    0    0 -0.22853243353E+02 -0.19953622721E+02  0.18910774063E+02  0.35749617724E+02  0.51100000000E-03 0.  1.
         12    1    3    3    0    0  0.30976564200E+02  0.26682513547E+02 -0.17262506193E+02  0.44379028593E+02  0.00000000000E+00 0. -1.
</event>
<event>
 7    1  0.1698110E-015  0.9000775E+02  0.7816164E-02  0.1186339E+00
        -11   -1    0    0    0    0  0.00000000000E+00  0.00000000000E+00  0.45593999997E+02  0.45594000000E+02  0.51100000000E-03 0.  1.
         11   -1    0    0    0    0 -0.00000000000E+00 -0.00000000000E+00 -0.45593999997E+02  0.45594000000E+02  0.51100000000E-03 0. -1.
    9900012    2    1    2    0    0  0.26232930559E-02 -0.47318025726E+00  0.10812402510E+01  0.90007751332E+02  0.90000012850E+02 0.  0.
         12    1    1    2    0    0 -0.26232930559E-02  0.47318025726E+00 -0.10812402510E+01  0.11802486678E+01  0.00000000000E+00 0. -1.
         11    1    3    3    0    0 -0.12497985131E+02 -0.34059684705E+02 -0.56314658620E+01  0.36714781254E+02  0.51100000000E-03 0. -1.
        -11    1    3    3    0    0 -0.53603404713E+01 -0.68215982375E+01  0.65951883504E+00  0.87007136395E+01  0.51100000000E-03 0.  1.
        -12    1    3    3    0    0  0.17860948895E+02  0.40408102685E+02  0.60531872779E+01  0.44592256438E+02  0.00000000000E+00 0.  1.
</event>
<event>
 7    1  0.3120649E-015  0.9000762E+02  0.7816164E-02  0.1186339E+00
        -11   -1    0    0    0    0  0.00000000000E+00  0.00000000000E+00  0.45593999997E+02  0.45594000000E+02  0.51100000000E-03 0. -1.
         11   -1    0    0    0    0 -0.00000000000E+00 -0.00000000000E+00 -0.45593999997E+02  0.45594000000E+02  0.51100000000E-03 0.  1.
    9900012    2    1    2    0    0 -0.42582124338E+00  0.49226893609E+00 -0.98471115795E+00  0.90007615105E+02  0.89999874824E+02 0.  0.
         12    1    1    2    0    0  0.42582124338E+00 -0.49226893609E+00  0.98471115795E+00  0.11803848954E+01  0.00000000000E+00 0. -1.
         11    1    3    3    0    0  0.59901034367E+01 -0.58433875078E+01 -0.40163541099E+01  0.92821127630E+01  0.51100000000E-03 0. -1.
        -11    1    3    3    0    0  0.99630021492E+01  0.56939054110E+01 -0.36323622997E+02  0.38093143196E+02  0.51100000000E-03 0.  1.
         12    1    3    3    0    0 -0.16378926829E+02  0.64175103283E+00  0.39355265949E+02  0.42632359146E+02  0.00000000000E+00 0. -1.
</event>
<event>
 7    1  0.1698110E-015  0.9000776E+02  0.7816164E-02  0.1186339E+00
        -11   -1    0    0    0    0  0.00000000000E+00  0.00000000000E+00  0.45593999997E+02  0.45594000000E+02  0.51100000000E-03 0. -1.
         11   -1    0    0    0    0 -0.00000000000E+00 -0.00000000000E+00 -0.45593999997E+02  0.45594000000E+02  0.51100000000E-03 0.  1.
    9900012    2    1    2    0    0  0.88000583713E+00 -0.53777141454E+00 -0.57389153772E+00  0.90007762793E+02  0.90000024462E+02 0.  0.
         12    1    1    2    0    0 -0.88000583713E+00  0.53777141454E+00  0.57389153772E+00  0.11802372070E+01  0.00000000000E+00 0. -1.
         11    1    3    3    0    0  0.19080814736E+02  0.98553964176E+01  0.25972225235E+02  0.33701080301E+02  0.51100000000E-03 0. -1.
        -11    1    3    3    0    0  0.53500476189E+01  0.28047195460E+00  0.10114071541E+02  0.11445353531E+02  0.51100000000E-03 0.  1.
        -12    1    3    3    0    0 -0.23550856518E+02 -0.10673639787E+02 -0.36660188313E+02  0.44861328962E+02  0.00000000000E+00 0.  1.
</event>
<event>
 7    1  0.1698110E-015  0.9000801E+02  0.7816164E-02  0.1186338E+00
        -11   -1    0    0    0    0  0.00000000000E+00  0.00000000000E+00  0.45593999997E+02  0.45594000000E+02  0.51100000000E-03 0.  1.
         11   -1    0    0    0    0 -0.00000000000E+00 -0.00000000000E+00 -0.45593999997E+02  0.45594000000E+02  0.51100000000E-03 0. -1.
    9900012    2    1    2    0    0 -0.55474510193E+00 -0.80755926014E+00  0.65762612350E+00  0.90008014320E+02  0.90000279309E+02 0.  0.
         12    1    1    2    0    0  0.55474510193E+00  0.80755926014E+00 -0.65762612350E+00  0.11799856800E+01  0.00000000000E+00 0. -1.
         11    1    3    3    0    0 -0.11106879021E+02 -0.20180206791E+02 -0.22617035335E+02  0.32282097133E+02  0.51100000000E-03 0. -1.
        -11    1    3    3    0    0  0.52185637835E+01 -0.15531585562E+02  0.20098647722E+01  0.16507668360E+02  0.51100000000E-03 0.  1.
        -12    1    3    3    0    0  0.53335701351E+01  0.34904233093E+02  0.21264796687E+02  0.41218248826E+02  0.00000000000E+00 0.  1.
</event>
<event>
 7    1  0.1698110E-015  0.9000778E+02  0.7816164E-02  0.1186339E+00
        -11   -1    0    0    0    0  0.00000000000E+00  0.00000000000E+00  0.45593999997E+02  0.45594000000E+02  0.51100000000E-03 0. -1.
         11   -1    0    0    0    0 -0.00000000000E+00 -0.00000000000E+00 -0.45593999997E+02  0.45594000000E+02  0.51100000000E-03 0.  1.
    9900012    2    1    2    0    0 -0.62874943287E+00 -0.97747622138E+00 -0.20525830116E+00  0.90007781129E+02  0.90000043040E+02 0.  0.
         12    1    1    2    0    0  0.62874943287E+00  0.97747622138E+00  0.20525830116E+00  0.11802188708E+01  0.00000000000E+00 0. -1.
         11    1    3    3    0    0  0.70607185658E+01  0.66888954959E+01  0.18746625921E+01  0.99050204298E+01  0.51100000000E-03 0. -1.
        -11    1    3    3    0    0  0.30361695894E+02  0.88578598066E+01 -0.17135392238E+02  0.35971042872E+02  0.51100000000E-03 0.  1.
         12    1    3    3    0    0 -0.38051163892E+02 -0.16524231524E+02  0.15055471345E+02  0.44131717828E+02  0.00000000000E+00 0. -1.
</event>
<event>
 7    1  0.1698110E-015  0.9000771E+02  0.7816164E-02  0.1186339E+00
        -11   -1    0    0    0    0  0.00000000000E+00  0.00000000000E+00  0.45593999997E+02  0.45594000000E+02  0.51100000000E-03 0. -1.
         11   -1    0    0    0    0 -0.00000000000E+00 -0.00000000000E+00 -0.45593999997E+02  0.45594000000E+02  0.51100000000E-03 0.  1.
    9900012    2    1    2    0    0 -0.69518344046E+00 -0.63236046865E+00 -0.71408759502E+00  0.90007711530E+02  0.89999972523E+02 0.  0.
         12    1    1    2    0    0  0.69518344046E+00  0.63236046865E+00  0.71408759502E+00  0.11802884696E+01  0.00000000000E+00 0. -1.
         11    1    3    3    0    0 -0.36188607456E+01 -0.19862203153E+02  0.31721266945E+02  0.37601090996E+02  0.51100000000E-03 0. -1.
        -11    1    3    3    0    0  0.51226359459E+01 -0.88145271460E+01 -0.10331882501E+01  0.10247183323E+02  0.51100000000E-03 0.  1.
        -12    1    3    3    0    0 -0.21989586407E+01  0.28044369830E+02 -0.31402166290E+02  0.42159437211E+02  0.00000000000E+00 0.  1.
</event>
<event>
 7    1  0.1698110E-015  0.9000736E+02  0.7816164E-02  0.1186340E+00
        -11   -1    0    0    0    0  0.00000000000E+00  0.00000000000E+00  0.45593999997E+02  0.45594000000E+02  0.51100000000E-03 0. -1.
         11   -1    0    0    0    0 -0.00000000000E+00 -0.00000000000E+00 -0.45593999997E+02  0.45594000000E+02  0.51100000000E-03 0.  1.
    9900012    2    1    2    0    0 -0.99700767827E+00  0.40110310516E+00 -0.48887444829E+00  0.90007361936E+02  0.89999618313E+02 0.  0.
         12    1    1    2    0    0  0.99700767827E+00 -0.40110310516E+00  0.48887444829E+00  0.11806380638E+01  0.00000000000E+00 0. -1.
         11    1    3    3    0    0  0.48070645017E+01 -0.88358984389E+01  0.86061869275E+00  0.10095624554E+02  0.51100000000E-03 0. -1.
        -11    1    3    3    0    0 -0.11192622392E+02 -0.29282345567E+02 -0.19575703265E+02  0.36958608151E+02  0.51100000000E-03 0.  1.
         12    1    3    3    0    0  0.53885502120E+01  0.38519347111E+02  0.18226210124E+02  0.42953129231E+02  0.00000000000E+00 0. -1.
</event>
<event>
 7    1  0.1698110E-015  0.9000814E+02  0.7816164E-02  0.1186338E+00
        -11   -1    0    0    0    0  0.00000000000E+00  0.00000000000E+00  0.45593999997E+02  0.45594000000E+02  0.51100000000E-03 0. -1.
         11   -1    0    0    0    0 -0.00000000000E+00 -0.00000000000E+00 -0.45593999997E+02  0.45594000000E+02  0.51100000000E-03 0.  1.
    9900012    2    1    2    0    0 -0.11331985233E+01 -0.32736193420E+00  0.27805493978E-01  0.90008136502E+02  0.90000403103E+02 0.  0.
         12    1    1    2    0    0  0.11331985233E+01  0.32736193420E+00 -0.27805493978E-01  0.11798634983E+01  0.00000000000E+00 0. -1.
         11    1    3    3    0    0 -0.44081226074E+01  0.13815626694E+02  0.37440007306E+02  0.40150432540E+02  0.51100000000E-03 0. -1.
        -11    1    3    3    0    0 -0.67970182051E+01 -0.67900358499E+01  0.82068566705E+00  0.96424876743E+01  0.51100000000E-03 0.  1.
        -12    1    3    3    0    0  0.10071942289E+02 -0.73529527781E+01 -0.38232887479E+02  0.40215216287E+02  0.00000000000E+00 0.  1.
</event>
<event>
 7    1  0.1698110E-015  0.9000780E+02  0.7816164E-02  0.1186339E+00
        -11   -1    0    0    0    0  0.00000000000E+00  0.00000000000E+00  0.45593999997E+02  0.45594000000E+02  0.51100000000E-03 0.  1.
         11   -1    0    0    0    0 -0.00000000000E+00 -0.00000000000E+00 -0.45593999997E+02  0.45594000000E+02  0.51100000000E-03 0. -1.
    9900012    2    1    2    0    0  0.13086221201E+00 -0.99523348987E+00  0.62068329487E+00  0.90007804097E+02  0.90000066311E+02 0.  0.
         12    1    1    2    0    0 -0.13086221201E+00  0.99523348987E+00 -0.62068329487E+00  0.11801959034E+01  0.00000000000E+00 0. -1.
         11    1    3    3    0    0 -0.35056696069E+01  0.29001662161E+01  0.83918075551E+01  0.95458429579E+01  0.51100000000E-03 0. -1.
        -11    1    3    3    0    0 -0.59007696501E+01  0.36141046945E+01  0.35166816569E+02  0.35841119166E+02  0.51100000000E-03 0.  1.
         12    1    3    3    0    0  0.95373014690E+01 -0.75095044004E+01 -0.42937940830E+02  0.44620841972E+02  0.00000000000E+00 0. -1.
</event>
<event>
 7    1  0.1698110E-015  0.9000774E+02  0.7816164E-02  0.1186339E+00
        -11   -1    0    0    0    0  0.00000000000E+00  0.00000000000E+00  0.45593999997E+02  0.45594000000E+02  0.51100000000E-03 0.  1.
         11   -1    0    0    0    0 -0.00000000000E+00 -0.00000000000E+00 -0.45593999997E+02  0.45594000000E+02  0.51100000000E-03 0. -1.
    9900012    2    1    2    0    0  0.11727329422E+01 -0.13036442204E+00  0.26623088750E-01  0.90007743153E+02  0.90000004563E+02 0.  0.
         12    1    1    2    0    0 -0.11727329422E+01  0.13036442204E+00 -0.26623088750E-01  0.11802568471E+01  0.00000000000E+00 0. -1.
         11    1    3    3    0    0 -0.17863755707E+02 -0.32499078989E+01 -0.28572720661E+02  0.33853744779E+02  0.51100000000E-03 0. -1.
        -11    1    3    3    0    0 -0.99252193135E+01 -0.15774403980E+01 -0.52665812178E+01  0.11346152415E+02  0.51100000000E-03 0.  1.
        -12    1    3    3    0    0  0.28961707963E+02  0.46969838749E+01  0.33865924967E+02  0.44807845960E+02  0.00000000000E+00 0.  1.
</event>
<event>
 7    1  0.1698110E-015  0.9000780E+02  0.7816164E-02  0.1186339E+00
        -11   -1    0    0    0    0  0.00000000000E+00  0.00000000000E+00  0.45593999997E+02  0.45594000000E+02  0.51100000000E-03 0.  1.
         11   -1    0    0    0    0 -0.00000000000E+00 -0.00000000000E+00 -0.45593999997E+02  0.45594000000E+02  0.51100000000E-03 0. -1.
    9900012    2    1    2    0    0  0.11497281413E+01  0.31558167546E-01  0.26459679185E+00  0.90007795705E+02  0.90000057808E+02 0.  0.
         12    1    1    2    0    0 -0.11497281413E+01 -0.31558167546E-01 -0.26459679185E+00  0.11802042955E+01  0.00000000000E+00 0. -1.
         11    1    3    3    0    0  0.70484734173E+01  0.84542525005E+01 -0.37372288920E+02  0.38959509009E+02  0.51100000000E-03 0. -1.
        -11    1    3    3    0    0  0.76042792097E+01  0.57702601636E+01  0.11235240396E+01  0.96116216730E+01  0.51100000000E-03 0.  1.
        -12    1    3    3    0    0 -0.13503024486E+02 -0.14192954497E+02  0.36513361672E+02  0.41436665023E+02  0.00000000000E+00 0.  1.
</event>
<event>
 7    1  0.1698110E-015  0.9000766E+02  0.7816164E-02  0.1186339E+00
        -11   -1    0    0    0    0  0.00000000000E+00  0.00000000000E+00  0.45593999997E+02  0.45594000000E+02  0.51100000000E-03 0.  1.
         11   -1    0    0    0    0 -0.00000000000E+00 -0.00000000000E+00 -0.45593999997E+02  0.45594000000E+02  0.51100000000E-03 0. -1.
    9900012    2    1    2    0    0 -0.10498360410E+01  0.47011690108E+00  0.26463687007E+00  0.90007661791E+02  0.89999922127E+02 0.  0.
         12    1    1    2    0    0  0.10498360410E+01 -0.47011690108E+00 -0.26463687007E+00  0.11803382086E+01  0.00000000000E+00 0. -1.
         11    1    3    3    0    0 -0.18792767929E+02 -0.19546614292E+02  0.20462179585E+02  0.33969678396E+02  0.51100000000E-03 0. -1.
        -11    1    3    3    0    0  0.84296886340E+01 -0.11836662095E+02  0.38753755748E+01  0.15039440021E+02  0.51100000000E-03 0.  1.
        -12    1    3    3    0    0  0.93132432540E+01  0.31853393288E+02 -0.24072918289E+02  0.40998543375E+02  0.00000000000E+00 0.  1.
</event>
<event>
 7    1  0.1698110E-015  0.9000777E+02  0.7816164E-02  0.1186339E+00
        -11   -1    0    0    0    0  0.00000000000E+00  0.00000000000E+00  0.45593999997E+02  0.45594000000E+02  0.51100000000E-03 0. -1.
         11   -1    0    0    0    0 -0.00000000000E+00 -0.00000000000E+00 -0.45593999997E+02  0.45594000000E+02  0.51100000000E-03 0.  1.
    9900012    2    1    2    0    0 -0.10256845426E+00 -0.10674756841E+01 -0.49287747485E+00  0.90007765774E+02  0.90000027482E+02 0.  0.
         12    1    1    2    0    0  0.10256845426E+00  0.10674756841E+01  0.49287747485E+00  0.11802342264E+01  0.00000000000E+00 0. -1.
         11    1    3    3    0    0 -0.93147357744E+01  0.69313613219E+01  0.53317802905E+01  0.12776382651E+02  0.51100000000E-03 0. -1.
        -11    1    3    3    0    0  0.78175298087E+01 -0.32451283606E+02 -0.28472018424E+02  0.43873174188E+02  0.51100000000E-03 0.  1.
         12    1    3    3    0    0  0.13946375114E+01  0.24452446600E+02  0.22647360658E+02  0.33358208934E+02  0.00000000000E+00 0. -1.
</event>
<event>
 7    1  0.1698110E-015  0.9000779E+02  0.7816164E-02  0.1186339E+00
        -11   -1    0    0    0    0  0.00000000000E+00  0.00000000000E+00  0.45593999997E+02  0.45594000000E+02  0.51100000000E-03 0.  1.
         11   -1    0    0    0    0 -0.00000000000E+00 -0.00000000000E+00 -0.45593999997E+02  0.45594000000E+02  0.51100000000E-03 0. -1.
    9900012    2    1    2    0    0 -0.13760127879E-01  0.57550185121E+00  0.10302929014E+01  0.90007790195E+02  0.90000052225E+02 0.  0.
         12    1    1    2    0    0  0.13760127879E-01 -0.57550185121E+00 -0.10302929014E+01  0.11802098053E+01  0.00000000000E+00 0. -1.
         11    1    3    3    0    0  0.48591074659E+01  0.55334017973E+01 -0.87837529522E+01  0.11462276257E+02  0.51100000000E-03 0. -1.
        -11    1    3    3    0    0 -0.40492635173E+02 -0.83575998007E+01 -0.35237879883E+00  0.41347637765E+02  0.51100000000E-03 0.  1.
         12    1    3    3    0    0  0.35619767579E+02  0.33996998545E+01  0.10166424652E+02  0.37197876172E+02  0.00000000000E+00 0. -1.
</event>
<event>
 7    1  0.1698110E-015  0.9000782E+02  0.7816164E-02  0.1186339E+00
        -11   -1    0    0    0    0  0.00000000000E+00  0.00000000000E+00  0.45593999997E+02  0.45594000000E+02  0.51100000000E-03 0. -1.
         11   -1    0    0    0    0 -0.00000000000E+00 -0.00000000000E+00 -0.45593999997E+02  0.45594000000E+02  0.51100000000E-03 0.  1.
    9900012    2    1    2    0    0 -0.10483977069E+01  0.48895740573E+00  0.23370399634E+00  0.90007815839E+02  0.90000078208E+02 0.  0.
         12    1    1    2    0    0  0.10483977069E+01 -0.48895740573E+00 -0.23370399634E+00  0.11801841612E+01  0.00000000000E+00 0. -1.
         11    1    3    3    0    0 -0.31294262813E+02  0.83531722974E+01  0.20558267144E+02  0.38363377337E+02  0.51100000000E-03 0. -1.
        -11    1    3    3    0    0 -0.77196031158E+01 -0.54132625030E+01 -0.43048589305E+01  0.10364723531E+02  0.51100000000E-03 0.  1.
        -12    1    3    3    0    0  0.37965468222E+02 -0.24509523886E+01 -0.16019704217E+02  0.41279714972E+02  0.00000000000E+00 0.  1.
</event>
<event>
 7    1  0.1698110E-015  0.9000776E+02  0.7816164E-02  0.1186339E+00
        -11   -1    0    0    0    0  0.00000000000E+00  0.00000000000E+00  0.45593999997E+02  0.45594000000E+02  0.51100000000E-03 0.  1.
         11   -1    0    0    0    0 -0.00000000000E+00 -0.00000000000E+00 -0.45593999997E+02  0.45594000000E+02  0.51100000000E-03 0. -1.
    9900012    2    1    2    0    0 -0.58287086271E+00  0.79433761743E-01  0.10231878064E+01  0.90007762121E+02  0.90000023780E+02 0.  0.
         12    1    1    2    0    0  0.58287086271E+00 -0.79433761743E-01 -0.10231878064E+01  0.11802378795E+01  0.00000000000E+00 0. -1.
         11    1    3    3    0    0  0.25487039336E+02 -0.18777928368E+02  0.17462017520E+02  0.36154139791E+02  0.51100000000E-03 0. -1.
        -11    1    3    3    0    0  0.48908440937E+01  0.13369954450E+02  0.57665674933E+01  0.15359991499E+02  0.51100000000E-03 0.  1.
        -12    1    3    3    0    0 -0.30960754292E+02  0.54874076801E+01 -0.22205397207E+02  0.38493630830E+02  0.00000000000E+00 0.  1.
</event>
<event>
 7    1  0.1698110E-015  0.9000773E+02  0.7816164E-02  0.1186339E+00
        -11   -1    0    0    0    0  0.00000000000E+00  0.00000000000E+00  0.45593999997E+02  0.45594000000E+02  0.51100000000E-03 0.  1.
         11   -1    0    0    0    0 -0.00000000000E+00 -0.00000000000E+00 -0.45593999997E+02  0.45594000000E+02  0.51100000000E-03 0. -1.
    9900012    2    1    2    0    0 -0.23253074227E+00 -0.31567478033E-01  0.11567096737E+01  0.90007727014E+02  0.89999988211E+02 0.  0.
         12    1    1    2    0    0  0.23253074227E+00  0.31567478033E-01 -0.11567096737E+01  0.11802729858E+01  0.00000000000E+00 0. -1.
         11    1    3    3    0    0  0.10307371703E+02  0.22847947967E+02 -0.24143674625E+02  0.34802121522E+02  0.51100000000E-03 0. -1.
        -11    1    3    3    0    0  0.84264806084E+01  0.48301957588E+01 -0.41304232457E+01  0.10554466493E+02  0.51100000000E-03 0.  1.
        -12    1    3    3    0    0 -0.18966383054E+02 -0.27709711204E+02  0.29430807545E+02  0.44651138999E+02  0.00000000000E+00 0.  1.
</event>
<event>
 7    1  0.1698110E-015  0.9000768E+02  0.7816164E-02  0.1186339E+00
        -11   -1    0    0    0    0  0.00000000000E+00  0.00000000000E+00  0.45593999997E+02  0.45594000000E+02  0.51100000000E-03 0.  1.
         11   -1    0    0    0    0 -0.00000000000E+00 -0.00000000000E+00 -0.45593999997E+02  0.45594000000E+02  0.51100000000E-03 0. -1.
    9900012    2    1    2    0    0  0.94611080193E+00  0.32542035451E+00  0.62621190826E+00  0.90007675718E+02  0.89999936237E+02 0.  0.
         12    1    1    2    0    0 -0.94611080193E+00 -0.32542035451E+00 -0.62621190826E+00  0.11803242820E+01  0.00000000000E+00 0. -1.
         11    1    3    3    0    0  0.73515984211E+01 -0.19430183196E+02 -0.28790991137E+02  0.35503509535E+02  0.51100000000E-03 0. -1.
        -11    1    3    3    0    0  0.18281415359E+01  0.61523869834E+01 -0.10066704418E+02  0.11938697801E+02  0.51100000000E-03 0.  1.
        -12    1    3    3    0    0 -0.82336291550E+01  0.13603216567E+02  0.39483907464E+02  0.42565468383E+02  0.00000000000E+00 0.  1.
</event>
<event>
 7    1  0.2205618E-015  0.9000776E+02  0.7816164E-02  0.1186339E+00
        -11   -1    0    0    0    0  0.00000000000E+00  0.00000000000E+00  0.45593999997E+02  0.45594000000E+02  0.51100000000E-03 0. -1.
         11   -1    0    0    0    0 -0.00000000000E+00 -0.00000000000E+00 -0.45593999997E+02  0.45594000000E+02  0.51100000000E-03 0.  1.
    9900012    2    1    2    0    0 -0.31109736944E+00 -0.97567723883E+00 -0.58672012275E+00  0.90007759283E+02  0.90000020906E+02 0.  0.
         12    1    1    2    0    0  0.31109736944E+00  0.97567723883E+00  0.58672012275E+00  0.11802407170E+01  0.00000000000E+00 0. -1.
         11    1    3    3    0    0 -0.31123144996E+01 -0.83274068006E+01 -0.34927145154E+01  0.95515056674E+01  0.51100000000E-03 0. -1.
        -11    1    3    3    0    0 -0.32022444718E+02  0.21931452907E+02 -0.10808899017E+02  0.40289674739E+02  0.51100000000E-03 0.  1.
         12    1    3    3    0    0  0.34823661849E+02 -0.14579723346E+02  0.13714893410E+02  0.40166578876E+02  0.00000000000E+00 0. -1.
</event>
<event>
 7    1  0.1698110E-015  0.9000766E+02  0.7816164E-02  0.1186339E+00
        -11   -1    0    0    0    0  0.00000000000E+00  0.00000000000E+00  0.45593999997E+02  0.45594000000E+02  0.51100000000E-03 0. -1.
         11   -1    0    0    0    0 -0.00000000000E+00 -0.00000000000E+00 -0.45593999997E+02  0.45594000000E+02  0.51100000000E-03 0.  1.
    9900012    2    1    2    0    0 -0.53207660200E+00  0.95770525287E+00 -0.43919321860E+00  0.90007662953E+02  0.89999923304E+02 0.  0.
         12    1    1    2    0    0  0.53207660200E+00 -0.95770525287E+00  0.43919321860E+00  0.11803370472E+01  0.00000000000E+00 0. -1.
         11    1    3    3    0    0  0.10074969172E+02  0.29417126970E+02 -0.18833619799E+02  0.36353508744E+02  0.51100000000E-03 0. -1.
        -11    1    3    3    0    0  0.35219597915E+01  0.40729411581E+01 -0.78590908380E+01  0.95267181921E+01  0.51100000000E-03 0.  1.
        -12    1    3    3    0    0 -0.14129005566E+02 -0.32532362876E+02  0.26253517419E+02  0.44127436017E+02  0.00000000000E+00 0.  1.
</event>
<event>
 7    1  0.1698110E-015  0.9000787E+02  0.7816164E-02  0.1186339E+00
        -11   -1    0    0    0    0  0.00000000000E+00  0.00000000000E+00  0.45593999997E+02  0.45594000000E+02  0.51100000000E-03 0. -1.
         11   -1    0    0    0    0 -0.00000000000E+00 -0.00000000000E+00 -0.45593999997E+02  0.45594000000E+02  0.51100000000E-03 0.  1.
    9900012    2    1    2    0    0  0.51455280422E+00 -0.25136787608E+00 -0.10318677210E+01  0.90007872299E+02  0.90000135413E+02 0.  0.
         12    1    1    2    0    0 -0.51455280422E+00  0.25136787608E+00  0.10318677210E+01  0.11801277012E+01  0.00000000000E+00 0. -1.
         11    1    3    3    0    0  0.68537834854E+01  0.19745084485E+01  0.56365452214E+01  0.90908566137E+01  0.51100000000E-03 0. -1.
        -11    1    3    3    0    0  0.14179396943E+02  0.27121557543E+02 -0.26058270775E+02  0.40195368605E+02  0.51100000000E-03 0.  1.
         12    1    3    3    0    0 -0.20518627624E+02 -0.29347433868E+02  0.19389857832E+02  0.40721647081E+02  0.00000000000E+00 0. -1.
</event>
<event>
 7    1  0.1698110E-015  0.9000775E+02  0.7816164E-02  0.1186339E+00
        -11   -1    0    0    0    0  0.00000000000E+00  0.00000000000E+00  0.45593999997E+02  0.45594000000E+02  0.51100000000E-03 0. -1.
         11   -1    0    0    0    0 -0.00000000000E+00 -0.00000000000E+00 -0.45593999997E+02  0.45594000000E+02  0.51100000000E-03 0.  1.
    9900012    2    1    2    0    0 -0.11370899314E+01  0.31262875115E+00 -0.47626533044E-01  0.90007754884E+02  0.90000016448E+02 0.  0.
         12    1    1    2    0    0  0.11370899314E+01 -0.31262875115E+00  0.47626533044E-01  0.11802451164E+01  0.00000000000E+00 0. -1.
         11    1    3    3    0    0 -0.37860916448E+02 -0.73553437525E+01  0.84815030812E+01  0.39490327559E+02  0.51100000000E-03 0. -1.
        -11    1    3    3    0    0  0.11374629217E+01 -0.94529490810E+01  0.18191980999E+01  0.96933766157E+01  0.51100000000E-03 0.  1.
        -12    1    3    3    0    0  0.35586363594E+02  0.17120921585E+02 -0.10348327714E+02  0.40824050709E+02  0.00000000000E+00 0.  1.
</event>
<event>
 7    1  0.1698110E-015  0.9000777E+02  0.7816164E-02  0.1186339E+00
        -11   -1    0    0    0    0  0.00000000000E+00  0.00000000000E+00  0.45593999997E+02  0.45594000000E+02  0.51100000000E-03 0.  1.
         11   -1    0    0    0    0 -0.00000000000E+00 -0.00000000000E+00 -0.45593999997E+02  0.45594000000E+02  0.51100000000E-03 0. -1.
    9900012    2    1    2    0    0 -0.79325668564E+00 -0.34295325517E+00  0.80378984818E+00  0.90007766453E+02  0.90000028171E+02 0.  0.
         12    1    1    2    0    0  0.79325668564E+00  0.34295325517E+00 -0.80378984818E+00  0.11802335466E+01  0.00000000000E+00 0. -1.
         11    1    3    3    0    0  0.23747519867E+01 -0.72876553349E+01  0.74279492007E+01  0.10673509117E+02  0.51100000000E-03 0. -1.
        -11    1    3    3    0    0  0.17601640893E+02  0.29651523329E+02  0.18927901086E+02  0.39335684024E+02  0.51100000000E-03 0.  1.
         12    1    3    3    0    0 -0.20769649565E+02 -0.22706821250E+02 -0.25552060439E+02  0.39998573312E+02  0.00000000000E+00 0. -1.
</event>
<event>
 7    1  0.1698110E-015  0.9000774E+02  0.7816164E-02  0.1186339E+00
        -11   -1    0    0    0    0  0.00000000000E+00  0.00000000000E+00  0.45593999997E+02  0.45594000000E+02  0.51100000000E-03 0.  1.
         11   -1    0    0    0    0 -0.00000000000E+00 -0.00000000000E+00 -0.45593999997E+02  0.45594000000E+02  0.51100000000E-03 0. -1.
    9900012    2    1    2    0    0  0.28554036555E+00 -0.10603301735E+00  0.11402773648E+01  0.90007742075E+02  0.90000003470E+02 0.  0.
         12    1    1    2    0    0 -0.28554036555E+00  0.10603301735E+00 -0.11402773648E+01  0.11802579252E+01  0.00000000000E+00 0. -1.
         11    1    3    3    0    0  0.10021004770E+02 -0.16499551185E+01  0.19226055831E+00  0.10157748416E+02  0.51100000000E-03 0. -1.
        -11    1    3    3    0    0 -0.11598513354E+02 -0.38156685483E+02 -0.24837083249E+01  0.39957814835E+02  0.51100000000E-03 0.  1.
         12    1    3    3    0    0  0.18630489491E+01  0.39700607584E+02  0.34317251314E+01  0.39892178824E+02  0.00000000000E+00 0. -1.
</event>
<event>
 7    1  0.1698110E-015  0.9000785E+02  0.7816164E-02  0.1186339E+00
        -11   -1    0    0    0    0  0.00000000000E+00  0.00000000000E+00  0.45593999997E+02  0.45594000000E+02  0.51100000000E-03 0.  1.
         11   -1    0    0    0    0 -0.00000000000E+00 -0.00000000000E+00 -0.45593999997E+02  0.45594000000E+02  0.51100000000E-03 0. -1.
    9900012    2    1    2    0    0 -0.70965027236E+00 -0.67504636551E+00  0.65838658841E+00  0.90007845771E+02  0.90000108535E+02 0.  0.
         12    1    1    2    0    0  0.70965027236E+00  0.67504636551E+00 -0.65838658841E+00  0.11801542291E+01  0.00000000000E+00 0. -1.
         11    1    3    3    0    0  0.15425719248E+02 -0.14031312036E+02 -0.34426662505E+02  0.40249541902E+02  0.51100000000E-03 0. -1.
        -11    1    3    3    0    0 -0.17291841581E+01 -0.84434103334E+01  0.52208192795E+01  0.10076616998E+02  0.51100000000E-03 0.  1.
        -12    1    3    3    0    0 -0.14406185362E+02  0.21799676004E+02  0.29864229814E+02  0.39681686871E+02  0.00000000000E+00 0.  1.
</event>
<event>
 7    1  0.2024200E-015  0.9000773E+02  0.7816164E-02  0.1186339E+00
        -11   -1    0    0    0    0  0.00000000000E+00  0.00000000000E+00  0.45593999997E+02  0.45594000000E+02  0.51100000000E-03 0. -1.
         11   -1    0    0    0    0 -0.00000000000E+00 -0.00000000000E+00 -0.45593999997E+02  0.45594000000E+02  0.51100000000E-03 0.  1.
    9900012    2    1    2    0    0 -0.75508687482E+00  0.69513230790E+00 -0.58282092272E+00  0.90007726582E+02  0.89999987773E+02 0.  0.
         12    1    1    2    0    0  0.75508687482E+00 -0.69513230790E+00  0.58282092272E+00  0.11802734183E+01  0.00000000000E+00 0. -1.
         11    1    3    3    0    0  0.41132473202E+01 -0.65722476106E+01 -0.42532920643E+01  0.88432876136E+01  0.51100000000E-03 0. -1.
        -11    1    3    3    0    0 -0.14450046457E+02  0.14383288646E+01 -0.36592509002E+02  0.39368570559E+02  0.51100000000E-03 0.  1.
         12    1    3    3    0    0  0.95817122622E+01  0.58290510539E+01  0.40262980143E+02  0.41795868409E+02  0.00000000000E+00 0. -1.
</event>
<event>
 7    1  0.1698110E-015  0.9000761E+02  0.7816164E-02  0.1186339E+00
        -11   -1    0    0    0    0  0.00000000000E+00  0.00000000000E+00  0.45593999997E+02  0.45594000000E+02  0.51100000000E-03 0.  1.
         11   -1    0    0    0    0 -0.00000000000E+00 -0.00000000000E+00 -0.45593999997E+02  0.45594000000E+02  0.51100000000E-03 0. -1.
    9900012    2    1    2    0    0 -0.40467249107E-01 -0.92677943961E+00  0.72990807745E+00  0.90007608739E+02  0.89999868374E+02 0.  0.
         12    1    1    2    0    0  0.40467249107E-01  0.92677943961E+00 -0.72990807745E+00  0.11803912612E+01  0.00000000000E+00 0. -1.
         11    1    3    3    0    0 -0.33720365121E+02  0.29082845701E+01  0.14412249820E+02  0.36786330181E+02  0.51100000000E-03 0. -1.
        -11    1    3    3    0    0 -0.29682657754E+01  0.11269066250E+02 -0.47773797035E+01  0.12594673992E+02  0.51100000000E-03 0.  1.
        -12    1    3    3    0    0  0.36648163647E+02 -0.15104130260E+02 -0.89049620388E+01  0.40626604566E+02  0.00000000000E+00 0.  1.
</event>
<event>
 7    1  0.1698110E-015  0.9000776E+02  0.7816164E-02  0.1186339E+00
        -11   -1    0    0    0    0  0.00000000000E+00  0.00000000000E+00  0.45593999997E+02  0.45594000000E+02  0.51100000000E-03 0. -1.
         11   -1    0    0    0    0 -0.00000000000E+00 -0.00000000000E+00 -0.45593999997E+02  0.45594000000E+02  0.51100000000E-03 0.  1.
    9900012    2    1    2    0    0  0.52202469866E+00  0.10584222722E+01 -0.14084033316E-01  0.90007760256E+02  0.90000021892E+02 0.  0.
         12    1    1    2    0    0 -0.52202469866E+00 -0.10584222722E+01  0.14084033316E-01  0.11802397436E+01  0.00000000000E+00 0. -1.
         11    1    3    3    0    0  0.54185676668E+01  0.72646809140E+01 -0.47339330938E+01  0.10224802548E+02  0.51100000000E-03 0. -1.
        -11    1    3    3    0    0 -0.39654361863E+00  0.14256772230E+02 -0.33381579867E+02  0.36300725557E+02  0.51100000000E-03 0.  1.
         12    1    3    3    0    0 -0.44999993495E+01 -0.20463030872E+02  0.38101428928E+02  0.43482232152E+02  0.00000000000E+00 0. -1.
</event>
<event>
 7    1  0.1698110E-015  0.9000776E+02  0.7816164E-02  0.1186339E+00
        -11   -1    0    0    0    0  0.00000000000E+00  0.00000000000E+00  0.45593999997E+02  0.45594000000E+02  0.51100000000E-03 0. -1.
         11   -1    0    0    0    0 -0.00000000000E+00 -0.00000000000E+00 -0.45593999997E+02  0.45594000000E+02  0.51100000000E-03 0.  1.
    9900012    2    1    2    0    0 -0.43017025322E+00 -0.36845907950E+00 -0.10354484079E+01  0.90007761912E+02  0.90000023569E+02 0.  0.
         12    1    1    2    0    0  0.43017025322E+00  0.36845907950E+00  0.10354484079E+01  0.11802380884E+01  0.00000000000E+00 0. -1.
         11    1    3    3    0    0 -0.37558971382E+02 -0.54391702393E+01  0.17184091884E+02  0.41659979817E+02  0.51100000000E-03 0. -1.
        -11    1    3    3    0    0  0.18211212164E+01 -0.56511492528E+01  0.20078451986E+01  0.62676481207E+01  0.51100000000E-03 0.  1.
        -12    1    3    3    0    0  0.35307679912E+02  0.10721860413E+02 -0.20227385491E+02  0.42080133974E+02  0.00000000000E+00 0.  1.
</event>
<event>
 7    1  0.1698110E-015  0.9000776E+02  0.7816164E-02  0.1186339E+00
        -11   -1    0    0    0    0  0.00000000000E+00  0.00000000000E+00  0.45593999997E+02  0.45594000000E+02  0.51100000000E-03 0.  1.
         11   -1    0    0    0    0 -0.00000000000E+00 -0.00000000000E+00 -0.45593999997E+02  0.45594000000E+02  0.51100000000E-03 0. -1.
    9900012    2    1    2    0    0 -0.99749233874E+00  0.37277875131E+00  0.50892184022E+00  0.90007764260E+02  0.90000025948E+02 0.  0.
         12    1    1    2    0    0  0.99749233874E+00 -0.37277875131E+00 -0.50892184022E+00  0.11802357403E+01  0.00000000000E+00 0. -1.
         11    1    3    3    0    0  0.34294202234E+02  0.85856332116E+00  0.17552255504E+02  0.38534544390E+02  0.51100000000E-03 0. -1.
        -11    1    3    3    0    0  0.51693347927E+01 -0.33338209994E+01 -0.76902754646E+01  0.98476759511E+01  0.51100000000E-03 0.  1.
        -12    1    3    3    0    0 -0.40461029365E+02  0.28480364296E+01 -0.93530581993E+01  0.41625543918E+02  0.00000000000E+00 0.  1.
</event>
<event>
 7    1  0.1698110E-015  0.9000775E+02  0.7816164E-02  0.1186339E+00
        -11   -1    0    0    0    0  0.00000000000E+00  0.00000000000E+00  0.45593999997E+02  0.45594000000E+02  0.51100000000E-03 0.  1.
         11   -1    0    0    0    0 -0.00000000000E+00 -0.00000000000E+00 -0.45593999997E+02  0.45594000000E+02  0.51100000000E-03 0. -1.
    9900012    2    1    2    0    0 -0.96324409742E+00 -0.89760833514E-01  0.67608557400E+00  0.90007750915E+02  0.90000012427E+02 0.  0.
         12    1    1    2    0    0  0.96324409742E+00  0.89760833514E-01 -0.67608557400E+00  0.11802490847E+01  0.00000000000E+00 0. -1.
         11    1    3    3    0    0  0.26888747287E+01 -0.99830584646E+01  0.91010113598E+00  0.10378814381E+02  0.51100000000E-03 0. -1.
        -11    1    3    3    0    0  0.22952452296E+01 -0.55058184711E+01  0.37747114292E+02  0.38215531206E+02  0.51100000000E-03 0.  1.
         12    1    3    3    0    0 -0.59473640558E+01  0.15399116102E+02 -0.37981129854E+02  0.41413405329E+02  0.00000000000E+00 0. -1.
</event>
<event>
 7    1  0.1698110E-015  0.9000767E+02  0.7816164E-02  0.1186339E+00
        -11   -1    0    0    0    0  0.00000000000E+00  0.00000000000E+00  0.45593999997E+02  0.45594000000E+02  0.51100000000E-03 0. -1.
         11   -1    0    0    0    0 -0.00000000000E+00 -0.00000000000E+00 -0.45593999997E+02  0.45594000000E+02  0.51100000000E-03 0.  1.
    9900012    2    1    2    0    0 -0.44148115051E+00  0.10926230780E+01  0.66702268982E-01  0.90007669542E+02  0.89999929980E+02 0.  0.
         12    1    1    2    0    0  0.44148115051E+00 -0.10926230780E+01 -0.66702268982E-01  0.11803304578E+01  0.00000000000E+00 0. -1.
         11    1    3    3    0    0  0.59985590960E+01  0.22184557858E+01  0.64923447936E+01  0.91134405403E+01  0.51100000000E-03 0. -1.
        -11    1    3    3    0    0  0.58631781622E+01 -0.38003081077E+02 -0.14666726650E+02  0.41154876994E+02  0.51100000000E-03 0.  1.
         12    1    3    3    0    0 -0.12303218409E+02  0.36877248369E+02  0.82410841257E+01  0.39739352008E+02  0.00000000000E+00 0. -1.
</event>
<event>
 7    1  0.1698110E-015  0.9000791E+02  0.7816164E-02  0.1186339E+00
        -11   -1    0    0    0    0  0.00000000000E+00  0.00000000000E+00  0.45593999997E+02  0.45594000000E+02  0.51100000000E-03 0. -1.
         11   -1    0    0    0    0 -0.00000000000E+00 -0.00000000000E+00 -0.45593999997E+02  0.45594000000E+02  0.51100000000E-03 0.  1.
    9900012    2    1    2    0    0  0.70159299444E-01 -0.11277241839E+01 -0.34048879147E+00  0.90007908148E+02  0.90000171735E+02 0.  0.
         12    1    1    2    0    0 -0.70159299444E-01  0.11277241839E+01  0.34048879147E+00  0.11800918521E+01  0.00000000000E+00 0. -1.
         11    1    3    3    0    0  0.60513023119E+01  0.48515244396E+01 -0.40752979716E+01  0.87614840568E+01  0.51100000000E-03 0. -1.
        -11    1    3    3    0    0  0.46101069847E-01  0.36877602711E+02 -0.46291160703E+01  0.37167034087E+02  0.51100000000E-03 0.  1.
         12    1    3    3    0    0 -0.60272440823E+01 -0.42856851334E+02  0.83639252504E+01  0.44079390004E+02  0.00000000000E+00 0. -1.
</event>
<event>
 7    1  0.1698110E-015  0.9000895E+02  0.7816164E-02  0.1186337E+00
        -11   -1    0    0    0    0  0.00000000000E+00  0.00000000000E+00  0.45593999997E+02  0.45594000000E+02  0.51100000000E-03 0.  1.
         11   -1    0    0    0    0 -0.00000000000E+00 -0.00000000000E+00 -0.45593999997E+02  0.45594000000E+02  0.51100000000E-03 0. -1.
    9900012    2    1    2    0    0  0.89942701938E+00 -0.72548453054E+00  0.23423558374E+00  0.90008948230E+02  0.90001225538E+02 0.  0.
         12    1    1    2    0    0 -0.89942701938E+00  0.72548453054E+00 -0.23423558374E+00  0.11790517698E+01  0.00000000000E+00 0. -1.
         11    1    3    3    0    0 -0.91345597112E+01  0.30868048254E+02 -0.15116696409E+02  0.35563901568E+02  0.51100000000E-03 0. -1.
        -11    1    3    3    0    0 -0.21397723022E+01  0.76918798345E+01 -0.40704499216E+01  0.89617076341E+01  0.51100000000E-03 0.  1.
        -12    1    3    3    0    0  0.12173759033E+02 -0.39285412619E+02  0.19421381915E+02  0.45483339028E+02  0.00000000000E+00 0.  1.
</event>
<event>
 7    1  0.1698110E-015  0.9000780E+02  0.7816164E-02  0.1186339E+00
        -11   -1    0    0    0    0  0.00000000000E+00  0.00000000000E+00  0.45593999997E+02  0.45594000000E+02  0.51100000000E-03 0.  1.
         11   -1    0    0    0    0 -0.00000000000E+00 -0.00000000000E+00 -0.45593999997E+02  0.45594000000E+02  0.51100000000E-03 0. -1.
    9900012    2    1    2    0    0  0.10285377890E+01  0.36266737588E+00 -0.45106411771E+00  0.90007798133E+02  0.90000060268E+02 0.  0.
         12    1    1    2    0    0 -0.10285377890E+01 -0.36266737588E+00  0.45106411771E+00  0.11802018671E+01  0.00000000000E+00 0. -1.
         11    1    3    3    0    0 -0.31221786118E+02 -0.12006855638E+02 -0.11512784482E+02  0.35376669113E+02  0.51100000000E-03 0. -1.
        -11    1    3    3    0    0 -0.88524817219E+01 -0.33752521630E+01  0.15532997580E+01  0.96005989501E+01  0.51100000000E-03 0.  1.
        -12    1    3    3    0    0  0.41102805629E+02  0.15744775177E+02  0.95084206060E+01  0.45030530070E+02  0.00000000000E+00 0.  1.
</event>
<event>
 7    1  0.1698110E-015  0.9000771E+02  0.7816164E-02  0.1186339E+00
        -11   -1    0    0    0    0  0.00000000000E+00  0.00000000000E+00  0.45593999997E+02  0.45594000000E+02  0.51100000000E-03 0.  1.
         11   -1    0    0    0    0 -0.00000000000E+00 -0.00000000000E+00 -0.45593999997E+02  0.45594000000E+02  0.51100000000E-03 0. -1.
    9900012    2    1    2    0    0  0.11398182657E+01 -0.30617540409E+00  0.12322244466E-01  0.90007711521E+02  0.89999972513E+02 0.  0.
         12    1    1    2    0    0 -0.11398182657E+01  0.30617540409E+00 -0.12322244466E-01  0.11802884794E+01  0.00000000000E+00 0. -1.
         11    1    3    3    0    0 -0.89360499465E+01  0.27453744501E+01  0.46239224442E+01  0.10429320618E+02  0.51100000000E-03 0. -1.
        -11    1    3    3    0    0  0.46934211085E+01 -0.16562837242E+02  0.34114130303E+02  0.38211643066E+02  0.51100000000E-03 0.  1.
         12    1    3    3    0    0  0.53824471037E+01  0.13511287388E+02 -0.38725730502E+02  0.41366747837E+02  0.00000000000E+00 0. -1.
</event>
<event>
 7    1  0.1698110E-015  0.9000772E+02  0.7816164E-02  0.1186339E+00
        -11   -1    0    0    0    0  0.00000000000E+00  0.00000000000E+00  0.45593999997E+02  0.45594000000E+02  0.51100000000E-03 0. -1.
         11   -1    0    0    0    0 -0.00000000000E+00 -0.00000000000E+00 -0.45593999997E+02  0.45594000000E+02  0.51100000000E-03 0.  1.
    9900012    2    1    2    0    0  0.65954929264E+00  0.88905943959E-01 -0.97476036301E+00  0.90007717279E+02  0.89999978347E+02 0.  0.
         12    1    1    2    0    0 -0.65954929264E+00 -0.88905943959E-01  0.97476036301E+00  0.11802827210E+01  0.00000000000E+00 0. -1.
         11    1    3    3    0    0 -0.15998870901E+02 -0.18489260198E+02  0.24150498944E+02  0.34366600243E+02  0.51100000000E-03 0. -1.
        -11    1    3    3    0    0 -0.39784742239E+01 -0.82299212997E+01  0.49316539475E+01  0.10386581375E+02  0.51100000000E-03 0.  1.
        -12    1    3    3    0    0  0.20636894417E+02  0.26808087442E+02 -0.30056913254E+02  0.45254535661E+02  0.00000000000E+00 0.  1.
</event>
<event>
 7    1  0.1698110E-015  0.9000770E+02  0.7816164E-02  0.1186339E+00
        -11   -1    0    0    0    0  0.00000000000E+00  0.00000000000E+00  0.45593999997E+02  0.45594000000E+02  0.51100000000E-03 0.  1.
         11   -1    0    0    0    0 -0.00000000000E+00 -0.00000000000E+00 -0.45593999997E+02  0.45594000000E+02  0.51100000000E-03 0. -1.
    9900012    2    1    2    0    0  0.10482778047E+01 -0.17578210602E+00  0.51314375058E+00  0.90007702489E+02  0.89999963362E+02 0.  0.
         12    1    1    2    0    0 -0.10482778047E+01  0.17578210602E+00 -0.51314375058E+00  0.11802975105E+01  0.00000000000E+00 0. -1.
         11    1    3    3    0    0 -0.36502147959E+02  0.44339831668E+01 -0.90788435359E+00  0.36781670253E+02  0.51100000000E-03 0. -1.
        -11    1    3    3    0    0 -0.50379498102E+00  0.25652286615E+01  0.12641120976E+02  0.12908607487E+02  0.51100000000E-03 0.  1.
        -12    1    3    3    0    0  0.38054220744E+02 -0.71749939343E+01 -0.11220092872E+02  0.40317424750E+02  0.00000000000E+00 0.  1.
</event>
<event>
 7    1  0.1698110E-015  0.9000786E+02  0.7816164E-02  0.1186339E+00
        -11   -1    0    0    0    0  0.00000000000E+00  0.00000000000E+00  0.45593999997E+02  0.45594000000E+02  0.51100000000E-03 0.  1.
         11   -1    0    0    0    0 -0.00000000000E+00 -0.00000000000E+00 -0.45593999997E+02  0.45594000000E+02  0.51100000000E-03 0. -1.
    9900012    2    1    2    0    0 -0.43572944837E+00  0.35003932012E+00  0.10393926352E+01  0.90007862411E+02  0.90000125395E+02 0.  0.
         12    1    1    2    0    0  0.43572944837E+00 -0.35003932012E+00 -0.10393926352E+01  0.11801375885E+01  0.00000000000E+00 0. -1.
         11    1    3    3    0    0 -0.12474826098E+02 -0.32756624822E+02 -0.11350165123E+01  0.35070015949E+02  0.51100000000E-03 0. -1.
        -11    1    3    3    0    0 -0.66064419536E+01 -0.74684993076E+01  0.25106251688E+01  0.10282353631E+02  0.51100000000E-03 0.  1.
        -12    1    3    3    0    0  0.18645538603E+02  0.40575163450E+02 -0.33621602139E+00  0.44655492831E+02  0.00000000000E+00 0.  1.
</event>
<event>
 7    1  0.1698110E-015  0.9000790E+02  0.7816164E-02  0.1186339E+00
        -11   -1    0    0    0    0  0.00000000000E+00  0.00000000000E+00  0.45593999997E+02  0.45594000000E+02  0.51100000000E-03 0.  1.
         11   -1    0    0    0    0 -0.00000000000E+00 -0.00000000000E+00 -0.45593999997E+02  0.45594000000E+02  0.51100000000E-03 0. -1.
    9900012    2    1    2    0    0  0.21452382551E+00 -0.11779455041E+00  0.11544447143E+01  0.90007898892E+02  0.90000162357E+02 0.  0.
         12    1    1    2    0    0 -0.21452382551E+00  0.11779455041E+00 -0.11544447143E+01  0.11801011084E+01  0.00000000000E+00 0. -1.
         11    1    3    3    0    0  0.29722748273E+02 -0.13590536919E+01  0.24674823016E+02  0.38654051314E+02  0.51100000000E-03 0. -1.
        -11    1    3    3    0    0 -0.52847100619E+00 -0.65320939954E+01  0.62719213984E+01  0.90710821768E+01  0.51100000000E-03 0.  1.
        -12    1    3    3    0    0 -0.28979753442E+02  0.77733531370E+01 -0.29792299700E+02  0.42282765401E+02  0.00000000000E+00 0.  1.
</event>
<event>
 7    1  0.1698110E-015  0.9000774E+02  0.7816164E-02  0.1186339E+00
        -11   -1    0    0    0    0  0.00000000000E+00  0.00000000000E+00  0.45593999997E+02  0.45594000000E+02  0.51100000000E-03 0.  1.
         11   -1    0    0    0    0 -0.00000000000E+00 -0.00000000000E+00 -0.45593999997E+02  0.45594000000E+02  0.51100000000E-03 0. -1.
    9900012    2    1    2    0    0 -0.99501190148E+00  0.58771169861E+00  0.23993681917E+00  0.90007735876E+02  0.89999997190E+02 0.  0.
         12    1    1    2    0    0  0.99501190148E+00 -0.58771169861E+00 -0.23993681917E+00  0.11802641238E+01  0.00000000000E+00 0. -1.
         11    1    3    3    0    0  0.14853027425E+01 -0.92082784771E+01  0.20596772341E+01  0.95520043613E+01  0.51100000000E-03 0. -1.
        -11    1    3    3    0    0 -0.25986006011E+01  0.22134576561E+02  0.35072625192E+02  0.41554557424E+02  0.51100000000E-03 0.  1.
         12    1    3    3    0    0  0.11828595708E+00 -0.12338586385E+02 -0.36892365607E+02  0.38901174091E+02  0.00000000000E+00 0. -1.
</event>
<event>
 7    1  0.1698110E-015  0.9000779E+02  0.7816164E-02  0.1186339E+00
        -11   -1    0    0    0    0  0.00000000000E+00  0.00000000000E+00  0.45593999997E+02  0.45594000000E+02  0.51100000000E-03 0.  1.
         11   -1    0    0    0    0 -0.00000000000E+00 -0.00000000000E+00 -0.45593999997E+02  0.45594000000E+02  0.51100000000E-03 0. -1.
    9900012    2    1    2    0    0 -0.11066235962E+01 -0.61846541783E-01  0.40554184658E+00  0.90007786050E+02  0.90000048026E+02 0.  0.
         12    1    1    2    0    0  0.11066235962E+01  0.61846541783E-01 -0.40554184658E+00  0.11802139500E+01  0.00000000000E+00 0. -1.
         11    1    3    3    0    0  0.34580380527E+01 -0.48503906601E+01  0.78772046550E+01  0.98759642652E+01  0.51100000000E-03 0. -1.
        -11    1    3    3    0    0  0.72143345633E+01 -0.20680421005E+02  0.27587998013E+02  0.35225332798E+02  0.51100000000E-03 0.  1.
         12    1    3    3    0    0 -0.11778996212E+02  0.25468965123E+02 -0.35059660821E+02  0.44906488987E+02  0.00000000000E+00 0. -1.
</event>
<event>
 7    1  0.1698110E-015  0.9000772E+02  0.7816164E-02  0.1186339E+00
        -11   -1    0    0    0    0  0.00000000000E+00  0.00000000000E+00  0.45593999997E+02  0.45594000000E+02  0.51100000000E-03 0.  1.
         11   -1    0    0    0    0 -0.00000000000E+00 -0.00000000000E+00 -0.45593999997E+02  0.45594000000E+02  0.51100000000E-03 0. -1.
    9900012    2    1    2    0    0  0.59654997765E+00  0.37747915975E+00  0.94588043167E+00  0.90007723684E+02  0.89999984836E+02 0.  0.
         12    1    1    2    0    0 -0.59654997765E+00 -0.37747915975E+00 -0.94588043167E+00  0.11802763163E+01  0.00000000000E+00 0. -1.
         11    1    3    3    0    0 -0.87372689722E+00  0.83019007380E+01 -0.75087198757E+01  0.11227904034E+02  0.51100000000E-03 0. -1.
        -11    1    3    3    0    0  0.29241831057E+02  0.21978422554E+02 -0.20559270929E+01  0.36638266580E+02  0.51100000000E-03 0.  1.
         12    1    3    3    0    0 -0.27771554182E+02 -0.29902844133E+02  0.10510527400E+02  0.42141553070E+02  0.00000000000E+00 0. -1.
</event>
<event>
 7    1  0.1698110E-015  0.9000776E+02  0.7816164E-02  0.1186339E+00
        -11   -1    0    0    0    0  0.00000000000E+00  0.00000000000E+00  0.45593999997E+02  0.45594000000E+02  0.51100000000E-03 0.  1.
         11   -1    0    0    0    0 -0.00000000000E+00 -0.00000000000E+00 -0.45593999997E+02  0.45594000000E+02  0.51100000000E-03 0. -1.
    9900012    2    1    2    0    0  0.33842338848E+00  0.84030593537E+00  0.75652552990E+00  0.90007756240E+02  0.90000017823E+02 0.  0.
         12    1    1    2    0    0 -0.33842338848E+00 -0.84030593537E+00 -0.75652552990E+00  0.11802437597E+01  0.00000000000E+00 0. -1.
         11    1    3    3    0    0  0.75166617817E+01 -0.41435662980E+01  0.29737574732E+01  0.90836435298E+01  0.51100000000E-03 0. -1.
        -11    1    3    3    0    0  0.30651205814E+02 -0.18481513136E+02  0.38415603395E+01  0.35997504521E+02  0.51100000000E-03 0.  1.
         12    1    3    3    0    0 -0.37829444207E+02  0.23465385369E+02 -0.60587922828E+01  0.44926608190E+02  0.00000000000E+00 0. -1.
</event>
<event>
 7    1  0.1698110E-015  0.9000773E+02  0.7816164E-02  0.1186339E+00
        -11   -1    0    0    0    0  0.00000000000E+00  0.00000000000E+00  0.45593999997E+02  0.45594000000E+02  0.51100000000E-03 0.  1.
         11   -1    0    0    0    0 -0.00000000000E+00 -0.00000000000E+00 -0.45593999997E+02  0.45594000000E+02  0.51100000000E-03 0. -1.
    9900012    2    1    2    0    0 -0.88016781185E+00 -0.78596114754E+00 -0.24475125215E-01  0.90007733363E+02  0.89999994643E+02 0.  0.
         12    1    1    2    0    0  0.88016781185E+00  0.78596114754E+00  0.24475125215E-01  0.11802666369E+01  0.00000000000E+00 0. -1.
         11    1    3    3    0    0 -0.16351607662E+01  0.49374221802E+00 -0.79239162651E+01  0.81059226092E+01  0.51100000000E-03 0. -1.
        -11    1    3    3    0    0  0.79893399797E+01  0.35927062112E+02 -0.12484931349E+02  0.38864596439E+02  0.51100000000E-03 0.  1.
         12    1    3    3    0    0 -0.72343470254E+01 -0.37206765478E+02  0.20384372489E+02  0.43037214315E+02  0.00000000000E+00 0. -1.
</event>
<event>
 7    1  0.1698110E-015  0.9000763E+02  0.7816164E-02  0.1186339E+00
        -11   -1    0    0    0    0  0.00000000000E+00  0.00000000000E+00  0.45593999997E+02  0.45594000000E+02  0.51100000000E-03 0.  1.
         11   -1    0    0    0    0 -0.00000000000E+00 -0.00000000000E+00 -0.45593999997E+02  0.45594000000E+02  0.51100000000E-03 0. -1.
    9900012    2    1    2    0    0  0.61522780730E+00  0.86195646005E+00  0.52134107188E+00  0.90007631114E+02  0.89999891045E+02 0.  0.
         12    1    1    2    0    0 -0.61522780730E+00 -0.86195646005E+00 -0.52134107188E+00  0.11803688860E+01  0.00000000000E+00 0. -1.
         11    1    3    3    0    0 -0.37801279696E+02  0.15830589754E+01 -0.14026110688E+02  0.40350645641E+02  0.51100000000E-03 0. -1.
        -11    1    3    3    0    0  0.86526395502E+01 -0.11274707043E+02  0.10811806327E+02  0.17857277127E+02  0.51100000000E-03 0.  1.
        -12    1    3    3    0    0  0.29763867953E+02  0.10553604527E+02  0.37356454325E+01  0.31799708346E+02  0.00000000000E+00 0.  1.
</event>
<event>
 7    1  0.1698110E-015  0.9000746E+02  0.7816164E-02  0.1186340E+00
        -11   -1    0    0    0    0  0.00000000000E+00  0.00000000000E+00  0.45593999997E+02  0.45594000000E+02  0.51100000000E-03 0.  1.
         11   -1    0    0    0    0 -0.00000000000E+00 -0.00000000000E+00 -0.45593999997E+02  0.45594000000E+02  0.51100000000E-03 0. -1.
    9900012    2    1    2    0    0 -0.77142635208E+00 -0.88524481366E+00 -0.12211940851E+00  0.90007461925E+02  0.89999719622E+02 0.  0.
         12    1    1    2    0    0  0.77142635208E+00  0.88524481366E+00  0.12211940851E+00  0.11805380751E+01  0.00000000000E+00 0. -1.
         11    1    3    3    0    0  0.67179898469E+01  0.75576866988E+01 -0.33933808388E+02  0.35408379909E+02  0.51100000000E-03 0. -1.
        -11    1    3    3    0    0  0.35916783902E+01 -0.54739864751E+01 -0.85174261066E+01  0.10742961851E+02  0.51100000000E-03 0.  1.
        -12    1    3    3    0    0 -0.11081094589E+02 -0.29689450374E+01  0.42329115086E+02  0.43856120165E+02  0.00000000000E+00 0.  1.
</event>
<event>
 7    1  0.1698110E-015  0.9000774E+02  0.7816164E-02  0.1186339E+00
        -11   -1    0    0    0    0  0.00000000000E+00  0.00000000000E+00  0.45593999997E+02  0.45594000000E+02  0.51100000000E-03 0. -1.
         11   -1    0    0    0    0 -0.00000000000E+00 -0.00000000000E+00 -0.45593999997E+02  0.45594000000E+02  0.51100000000E-03 0.  1.
    9900012    2    1    2    0    0 -0.21897573238E+00  0.11120325479E+01  0.32931713661E+00  0.90007738785E+02  0.90000000137E+02 0.  0.
         12    1    1    2    0    0  0.21897573238E+00 -0.11120325479E+01 -0.32931713661E+00  0.11802612149E+01  0.00000000000E+00 0. -1.
         11    1    3    3    0    0 -0.10098542119E+02  0.64951419039E+00 -0.36071306651E+01  0.10743082123E+02  0.51100000000E-03 0. -1.
        -11    1    3    3    0    0 -0.31924885173E+02  0.84280685553E+01 -0.99742024297E+01  0.34492250539E+02  0.51100000000E-03 0.  1.
         12    1    3    3    0    0  0.41804451560E+02 -0.79655501978E+01  0.13910650231E+02  0.44772406123E+02  0.00000000000E+00 0. -1.
</event>
<event>
 7    1  0.1698110E-015  0.9000775E+02  0.7816164E-02  0.1186339E+00
        -11   -1    0    0    0    0  0.00000000000E+00  0.00000000000E+00  0.45593999997E+02  0.45594000000E+02  0.51100000000E-03 0.  1.
         11   -1    0    0    0    0 -0.00000000000E+00 -0.00000000000E+00 -0.45593999997E+02  0.45594000000E+02  0.51100000000E-03 0. -1.
    9900012    2    1    2    0    0 -0.65538406371E+00  0.98126677105E+00  0.23868900703E-01  0.90007753216E+02  0.90000014758E+02 0.  0.
         12    1    1    2    0    0  0.65538406371E+00 -0.98126677105E+00 -0.23868900703E-01  0.11802467841E+01  0.00000000000E+00 0. -1.
         11    1    3    3    0    0 -0.14529588413E+00  0.63975621659E+01  0.82020942902E+01  0.10403089136E+02  0.51100000000E-03 0. -1.
        -11    1    3    3    0    0 -0.78226235050E+00  0.16591914182E+02  0.30713197578E+02  0.34917102634E+02  0.51100000000E-03 0.  1.
         12    1    3    3    0    0  0.27217417092E+00 -0.22008209577E+02 -0.38891422968E+02  0.44687561446E+02  0.00000000000E+00 0. -1.
</event>
<event>
 7    1  0.1698110E-015  0.9000825E+02  0.7816164E-02  0.1186338E+00
        -11   -1    0    0    0    0  0.00000000000E+00  0.00000000000E+00  0.45593999997E+02  0.45594000000E+02  0.51100000000E-03 0.  1.
         11   -1    0    0    0    0 -0.00000000000E+00 -0.00000000000E+00 -0.45593999997E+02  0.45594000000E+02  0.51100000000E-03 0. -1.
    9900012    2    1    2    0    0  0.97746887843E+00 -0.42584504221E+00  0.50500070138E+00  0.90008247858E+02  0.90000515928E+02 0.  0.
         12    1    1    2    0    0 -0.97746887843E+00  0.42584504221E+00 -0.50500070138E+00  0.11797521420E+01  0.00000000000E+00 0. -1.
         11    1    3    3    0    0 -0.21639033165E+02  0.16457788536E+02 -0.24465138570E+02  0.36573891853E+02  0.51100000000E-03 0. -1.
        -11    1    3    3    0    0  0.29529368560E+01  0.23645024839E+01 -0.89736918121E+01  0.97384728305E+01  0.51100000000E-03 0.  1.
        -12    1    3    3    0    0  0.19663565187E+02 -0.19248136062E+02  0.33943831084E+02  0.43695883174E+02  0.00000000000E+00 0.  1.
</event>
<event>
 7    1  0.1698110E-015  0.9000777E+02  0.7816164E-02  0.1186339E+00
        -11   -1    0    0    0    0  0.00000000000E+00  0.00000000000E+00  0.45593999997E+02  0.45594000000E+02  0.51100000000E-03 0.  1.
         11   -1    0    0    0    0 -0.00000000000E+00 -0.00000000000E+00 -0.45593999997E+02  0.45594000000E+02  0.51100000000E-03 0. -1.
    9900012    2    1    2    0    0 -0.32391964254E+00 -0.57019520115E+00  0.98127130102E+00  0.90007771264E+02  0.90000033045E+02 0.  0.
         12    1    1    2    0    0  0.32391964254E+00  0.57019520115E+00 -0.98127130102E+00  0.11802287356E+01  0.00000000000E+00 0. -1.
         11    1    3    3    0    0 -0.28656797099E+02 -0.18232717974E+02 -0.23535778541E+02  0.41322837469E+02  0.51100000000E-03 0. -1.
        -11    1    3    3    0    0  0.31796722131E+00 -0.39949297129E+01  0.93320802334E+01  0.10156194578E+02  0.51100000000E-03 0.  1.
        -12    1    3    3    0    0  0.28014910235E+02  0.21657452485E+02  0.15184969609E+02  0.38528739217E+02  0.00000000000E+00 0.  1.
</event>
<event>
 7    1  0.1698110E-015  0.9000770E+02  0.7816164E-02  0.1186339E+00
        -11   -1    0    0    0    0  0.00000000000E+00  0.00000000000E+00  0.45593999997E+02  0.45594000000E+02  0.51100000000E-03 0. -1.
         11   -1    0    0    0    0 -0.00000000000E+00 -0.00000000000E+00 -0.45593999997E+02  0.45594000000E+02  0.51100000000E-03 0.  1.
    9900012    2    1    2    0    0  0.10852762191E+01 -0.88919421873E-01 -0.45539265587E+00  0.90007697663E+02  0.89999958472E+02 0.  0.
         12    1    1    2    0    0 -0.10852762191E+01  0.88919421873E-01  0.45539265587E+00  0.11803023369E+01  0.00000000000E+00 0. -1.
         11    1    3    3    0    0 -0.57625645071E+01  0.70137531429E+01 -0.74500008993E+01  0.11743185109E+02  0.51100000000E-03 0. -1.
        -11    1    3    3    0    0 -0.26496555184E+01  0.15534815554E+02 -0.29987381313E+02  0.33876159861E+02  0.51100000000E-03 0.  1.
         12    1    3    3    0    0  0.94974962446E+01 -0.22637488119E+02  0.36981989556E+02  0.44388352693E+02  0.00000000000E+00 0. -1.
</event>
<event>
 7    1  0.1698110E-015  0.9000775E+02  0.7816164E-02  0.1186339E+00
        -11   -1    0    0    0    0  0.00000000000E+00  0.00000000000E+00  0.45593999997E+02  0.45594000000E+02  0.51100000000E-03 0.  1.
         11   -1    0    0    0    0 -0.00000000000E+00 -0.00000000000E+00 -0.45593999997E+02  0.45594000000E+02  0.51100000000E-03 0. -1.
    9900012    2    1    2    0    0 -0.31718661585E+00 -0.86183039333E+00  0.74137222096E+00  0.90007749287E+02  0.90000010777E+02 0.  0.
         12    1    1    2    0    0  0.31718661585E+00  0.86183039333E+00 -0.74137222096E+00  0.11802507133E+01  0.00000000000E+00 0. -1.
         11    1    3    3    0    0 -0.77128202708E+01 -0.61824034963E+01  0.31996736787E+00  0.98899994388E+01  0.51100000000E-03 0. -1.
        -11    1    3    3    0    0 -0.27947312599E+02 -0.11295323895E+02  0.20254433549E+02  0.36316369616E+02  0.51100000000E-03 0.  1.
         12    1    3    3    0    0  0.35342946254E+02  0.16615896998E+02 -0.19833028696E+02  0.43801380232E+02  0.00000000000E+00 0. -1.
</event>
<event>
 7    1  0.1698110E-015  0.9000763E+02  0.7816164E-02  0.1186339E+00
        -11   -1    0    0    0    0  0.00000000000E+00  0.00000000000E+00  0.45593999997E+02  0.45594000000E+02  0.51100000000E-03 0.  1.
         11   -1    0    0    0    0 -0.00000000000E+00 -0.00000000000E+00 -0.45593999997E+02  0.45594000000E+02  0.51100000000E-03 0. -1.
    9900012    2    1    2    0    0 -0.77932740388E+00 -0.88378534561E+00  0.69559981586E-01  0.90007632968E+02  0.89999892923E+02 0.  0.
         12    1    1    2    0    0  0.77932740388E+00  0.88378534561E+00 -0.69559981586E-01  0.11803670322E+01  0.00000000000E+00 0. -1.
         11    1    3    3    0    0  0.30176076530E+02  0.92160084777E+00 -0.88930329626E+01  0.31472702114E+02  0.51100000000E-03 0. -1.
        -11    1    3    3    0    0  0.10092680080E+02  0.10743402840E+02  0.28555526520E+00  0.14743284500E+02  0.51100000000E-03 0.  1.
        -12    1    3    3    0    0 -0.41048084014E+02 -0.12548789034E+02  0.86770376790E+01  0.43791646353E+02  0.00000000000E+00 0.  1.
</event>
<event>
 7    1  0.1698110E-015  0.9000741E+02  0.7816164E-02  0.1186340E+00
        -11   -1    0    0    0    0  0.00000000000E+00  0.00000000000E+00  0.45593999997E+02  0.45594000000E+02  0.51100000000E-03 0.  1.
         11   -1    0    0    0    0 -0.00000000000E+00 -0.00000000000E+00 -0.45593999997E+02  0.45594000000E+02  0.51100000000E-03 0. -1.
    9900012    2    1    2    0    0  0.10756228180E+01  0.23007261779E+00  0.42883277595E+00  0.90007408874E+02  0.89999665871E+02 0.  0.
         12    1    1    2    0    0 -0.10756228180E+01 -0.23007261779E+00 -0.42883277595E+00  0.11805911255E+01  0.00000000000E+00 0. -1.
         11    1    3    3    0    0  0.67342360164E+01  0.43789334243E+01  0.20256326100E+01  0.82842127201E+01  0.51100000000E-03 0. -1.
        -11    1    3    3    0    0  0.14940332063E+02  0.31910137621E+02  0.13217433830E+02  0.37632047014E+02  0.51100000000E-03 0.  1.
         12    1    3    3    0    0 -0.20598945261E+02 -0.36058998428E+02 -0.14814233664E+02  0.44091149141E+02  0.00000000000E+00 0. -1.
</event>
<event>
 7    1  0.1698110E-015  0.9000774E+02  0.7816164E-02  0.1186339E+00
        -11   -1    0    0    0    0  0.00000000000E+00  0.00000000000E+00  0.45593999997E+02  0.45594000000E+02  0.51100000000E-03 0. -1.
         11   -1    0    0    0    0 -0.00000000000E+00 -0.00000000000E+00 -0.45593999997E+02  0.45594000000E+02  0.51100000000E-03 0.  1.
    9900012    2    1    2    0    0  0.28495392571E+00 -0.10330752025E+01 -0.49453644020E+00  0.90007741806E+02  0.90000003198E+02 0.  0.
         12    1    1    2    0    0 -0.28495392571E+00  0.10330752025E+01  0.49453644020E+00  0.11802581940E+01  0.00000000000E+00 0. -1.
         11    1    3    3    0    0  0.90642433629E+01  0.49265536841E+01  0.15895391011E+01  0.10438298413E+02  0.51100000000E-03 0. -1.
        -11    1    3    3    0    0 -0.10661768814E+02  0.26447294259E+02 -0.26517698818E+02  0.38939967113E+02  0.51100000000E-03 0.  1.
         12    1    3    3    0    0  0.18824793767E+01 -0.32406923145E+02  0.24433623277E+02  0.40629476280E+02  0.00000000000E+00 0. -1.
</event>
<event>
 7    1  0.1698110E-015  0.9000773E+02  0.7816164E-02  0.1186339E+00
        -11   -1    0    0    0    0  0.00000000000E+00  0.00000000000E+00  0.45593999997E+02  0.45594000000E+02  0.51100000000E-03 0.  1.
         11   -1    0    0    0    0 -0.00000000000E+00 -0.00000000000E+00 -0.45593999997E+02  0.45594000000E+02  0.51100000000E-03 0. -1.
    9900012    2    1    2    0    0 -0.10073031566E+00 -0.76174804388E+00 -0.89589037617E+00  0.90007734672E+02  0.89999995969E+02 0.  0.
         12    1    1    2    0    0  0.10073031566E+00  0.76174804388E+00  0.89589037617E+00  0.11802653282E+01  0.00000000000E+00 0. -1.
         11    1    3    3    0    0  0.12239870423E+02  0.11141630358E+01  0.12355022319E+01  0.12352418924E+02  0.51100000000E-03 0. -1.
        -11    1    3    3    0    0 -0.32078337018E+01 -0.39481843914E+01  0.37036087335E+02  0.37383821667E+02  0.51100000000E-03 0.  1.
         12    1    3    3    0    0 -0.91327670369E+01  0.20722733117E+01 -0.39167479943E+02  0.40271494081E+02  0.00000000000E+00 0. -1.
</event>
<event>
 7    1  0.1698110E-015  0.9000782E+02  0.7816164E-02  0.1186339E+00
        -11   -1    0    0    0    0  0.00000000000E+00  0.00000000000E+00  0.45593999997E+02  0.45594000000E+02  0.51100000000E-03 0. -1.
         11   -1    0    0    0    0 -0.00000000000E+00 -0.00000000000E+00 -0.45593999997E+02  0.45594000000E+02  0.51100000000E-03 0.  1.
    9900012    2    1    2    0    0  0.28120990105E+00 -0.92897330448E+00  0.67137688147E+00  0.90007823180E+02  0.90000085646E+02 0.  0.
         12    1    1    2    0    0 -0.28120990105E+00  0.92897330448E+00 -0.67137688147E+00  0.11801768197E+01  0.00000000000E+00 0. -1.
         11    1    3    3    0    0 -0.14352280115E+02 -0.10231113857E+02  0.35494731011E+02  0.39630033624E+02  0.51100000000E-03 0. -1.
        -11    1    3    3    0    0 -0.77112186154E+01  0.49966868084E+01 -0.50753471422E+00  0.92025737347E+01  0.51100000000E-03 0.  1.
        -12    1    3    3    0    0  0.22344708632E+02  0.43054537440E+01 -0.34315819415E+02  0.41175215821E+02  0.00000000000E+00 0.  1.
</event>
<event>
 7    1  0.1698110E-015  0.9000778E+02  0.7816164E-02  0.1186339E+00
        -11   -1    0    0    0    0  0.00000000000E+00  0.00000000000E+00  0.45593999997E+02  0.45594000000E+02  0.51100000000E-03 0.  1.
         11   -1    0    0    0    0 -0.00000000000E+00 -0.00000000000E+00 -0.45593999997E+02  0.45594000000E+02  0.51100000000E-03 0. -1.
    9900012    2    1    2    0    0 -0.19206705120E+00 -0.56337098908E+00  0.10191436103E+01  0.90007775309E+02  0.90000037143E+02 0.  0.
         12    1    1    2    0    0  0.19206705120E+00  0.56337098908E+00 -0.10191436103E+01  0.11802246913E+01  0.00000000000E+00 0. -1.
         11    1    3    3    0    0 -0.14044733471E+02 -0.76216732121E+01 -0.10125766192E+02  0.18917599796E+02  0.51100000000E-03 0. -1.
        -11    1    3    3    0    0  0.18362102811E+02  0.36259036065E+02  0.73088269445E+01  0.41295320165E+02  0.51100000000E-03 0.  1.
         12    1    3    3    0    0 -0.45094363913E+01 -0.29200733842E+02  0.38360828579E+01  0.29794855347E+02  0.00000000000E+00 0. -1.
</event>
<event>
 7    1  0.1698110E-015  0.9000763E+02  0.7816164E-02  0.1186339E+00
        -11   -1    0    0    0    0  0.00000000000E+00  0.00000000000E+00  0.45593999997E+02  0.45594000000E+02  0.51100000000E-03 0.  1.
         11   -1    0    0    0    0 -0.00000000000E+00 -0.00000000000E+00 -0.45593999997E+02  0.45594000000E+02  0.51100000000E-03 0. -1.
    9900012    2    1    2    0    0 -0.80501646511E+00  0.82358883671E+00 -0.25867762150E+00  0.90007633873E+02  0.89999893840E+02 0.  0.
         12    1    1    2    0    0  0.80501646511E+00 -0.82358883671E+00  0.25867762150E+00  0.11803661266E+01  0.00000000000E+00 0. -1.
         11    1    3    3    0    0 -0.41376080050E+01  0.30386673444E+02 -0.14329682091E+02  0.33849808154E+02  0.51100000000E-03 0. -1.
        -11    1    3    3    0    0 -0.20321040423E+02 -0.97733660006E+01  0.74468311028E+00  0.22561425488E+02  0.51100000000E-03 0.  1.
        -12    1    3    3    0    0  0.23653631962E+02 -0.19789718607E+02  0.13326321359E+02  0.33596400231E+02  0.00000000000E+00 0.  1.
</event>
<event>
 7    1  0.1698110E-015  0.9000775E+02  0.7816164E-02  0.1186339E+00
        -11   -1    0    0    0    0  0.00000000000E+00  0.00000000000E+00  0.45593999997E+02  0.45594000000E+02  0.51100000000E-03 0.  1.
         11   -1    0    0    0    0 -0.00000000000E+00 -0.00000000000E+00 -0.45593999997E+02  0.45594000000E+02  0.51100000000E-03 0. -1.
    9900012    2    1    2    0    0  0.10968420105E+01 -0.32297138938E+00  0.29261213349E+00  0.90007748004E+02  0.90000009477E+02 0.  0.
         12    1    1    2    0    0 -0.10968420105E+01  0.32297138938E+00 -0.29261213349E+00  0.11802519964E+01  0.00000000000E+00 0. -1.
         11    1    3    3    0    0  0.54507006297E+01 -0.83549081825E+01  0.13282944125E+01  0.10063746539E+02  0.51100000000E-03 0. -1.
        -11    1    3    3    0    0 -0.25735922136E+02  0.37699196024E+01  0.31454827251E+02  0.40816125976E+02  0.51100000000E-03 0.  1.
         12    1    3    3    0    0  0.21382063517E+02  0.42620171907E+01 -0.32490509530E+02  0.39127875489E+02  0.00000000000E+00 0. -1.
</event>
<event>
 7    1  0.1698110E-015  0.9000827E+02  0.7816164E-02  0.1186338E+00
        -11   -1    0    0    0    0  0.00000000000E+00  0.00000000000E+00  0.45593999997E+02  0.45594000000E+02  0.51100000000E-03 0.  1.
         11   -1    0    0    0    0 -0.00000000000E+00 -0.00000000000E+00 -0.45593999997E+02  0.45594000000E+02  0.51100000000E-03 0. -1.
    9900012    2    1    2    0    0 -0.10675662658E+01 -0.15428791994E+00  0.47776213137E+00  0.90008271579E+02  0.90000539962E+02 0.  0.
         12    1    1    2    0    0  0.10675662658E+01  0.15428791994E+00 -0.47776213137E+00  0.11797284215E+01  0.00000000000E+00 0. -1.
         11    1    3    3    0    0 -0.28902899632E+01 -0.42901999799E+01  0.62047051117E+01  0.80782397664E+01  0.51100000000E-03 0. -1.
        -11    1    3    3    0    0 -0.10185489348E+01 -0.72876326710E+01  0.36941662283E+02  0.37667405597E+02  0.51100000000E-03 0.  1.
         12    1    3    3    0    0  0.28412726321E+01  0.11423544731E+02 -0.42668605263E+02  0.44262626216E+02  0.00000000000E+00 0. -1.
</event>
<event>
 7    1  0.1698110E-015  0.9000842E+02  0.7816164E-02  0.1186338E+00
        -11   -1    0    0    0    0  0.00000000000E+00  0.00000000000E+00  0.45593999997E+02  0.45594000000E+02  0.51100000000E-03 0.  1.
         11   -1    0    0    0    0 -0.00000000000E+00 -0.00000000000E+00 -0.45593999997E+02  0.45594000000E+02  0.51100000000E-03 0. -1.
    9900012    2    1    2    0    0 -0.76255491433E+00  0.23308391872E+00 -0.86925009545E+00  0.90008417939E+02  0.90000688253E+02 0.  0.
         12    1    1    2    0    0  0.76255491433E+00 -0.23308391872E+00  0.86925009545E+00  0.11795820611E+01  0.00000000000E+00 0. -1.
         11    1    3    3    0    0  0.67316985903E+00  0.21764792184E+02 -0.32749723353E+02  0.39328154246E+02  0.51100000000E-03 0. -1.
        -11    1    3    3    0    0  0.10047647002E+02 -0.23816930439E+01 -0.15873544654E+01  0.10447361700E+02  0.51100000000E-03 0.  1.
        -12    1    3    3    0    0 -0.11483371775E+02 -0.19150015221E+02  0.33467827723E+02  0.40232901993E+02  0.00000000000E+00 0.  1.
</event>
<event>
 7    1  0.1698110E-015  0.9000776E+02  0.7816164E-02  0.1186339E+00
        -11   -1    0    0    0    0  0.00000000000E+00  0.00000000000E+00  0.45593999997E+02  0.45594000000E+02  0.51100000000E-03 0. -1.
         11   -1    0    0    0    0 -0.00000000000E+00 -0.00000000000E+00 -0.45593999997E+02  0.45594000000E+02  0.51100000000E-03 0.  1.
    9900012    2    1    2    0    0 -0.11142056954E+01  0.37398546951E+00 -0.10792565268E+00  0.90007759597E+02  0.90000021223E+02 0.  0.
         12    1    1    2    0    0  0.11142056954E+01 -0.37398546951E+00  0.10792565268E+00  0.11802404033E+01  0.00000000000E+00 0. -1.
         11    1    3    3    0    0  0.35805752153E+02  0.46822525939E+01  0.98472384451E+01  0.37429179551E+02  0.51100000000E-03 0. -1.
        -11    1    3    3    0    0  0.61109765185E+01  0.37515927686E+00 -0.68425023859E+01  0.91817546065E+01  0.51100000000E-03 0.  1.
        -12    1    3    3    0    0 -0.43030934366E+02 -0.46834264013E+01 -0.31126617119E+01  0.43396825440E+02  0.00000000000E+00 0.  1.
</event>
<event>
 7    1  0.1698110E-015  0.9000775E+02  0.7816164E-02  0.1186339E+00
        -11   -1    0    0    0    0  0.00000000000E+00  0.00000000000E+00  0.45593999997E+02  0.45594000000E+02  0.51100000000E-03 0.  1.
         11   -1    0    0    0    0 -0.00000000000E+00 -0.00000000000E+00 -0.45593999997E+02  0.45594000000E+02  0.51100000000E-03 0. -1.
    9900012    2    1    2    0    0 -0.11278183010E+01 -0.12596010961E-01  0.34764414955E+00  0.90007750351E+02  0.90000011855E+02 0.  0.
         12    1    1    2    0    0  0.11278183010E+01  0.12596010961E-01 -0.34764414955E+00  0.11802496492E+01  0.00000000000E+00 0. -1.
         11    1    3    3    0    0 -0.21439699711E+01 -0.82656242330E+01 -0.11576708659E+02  0.14385316640E+02  0.51100000000E-03 0. -1.
        -11    1    3    3    0    0 -0.23910070636E+02  0.71150711075E+00 -0.22241520280E+02  0.32663174138E+02  0.51100000000E-03 0.  1.
         12    1    3    3    0    0  0.24926222306E+02  0.75415211113E+01  0.34165873088E+02  0.42959259572E+02  0.00000000000E+00 0. -1.
</event>
<event>
 7    1  0.1698110E-015  0.9000783E+02  0.7816164E-02  0.1186339E+00
        -11   -1    0    0    0    0  0.00000000000E+00  0.00000000000E+00  0.45593999997E+02  0.45594000000E+02  0.51100000000E-03 0.  1.
         11   -1    0    0    0    0 -0.00000000000E+00 -0.00000000000E+00 -0.45593999997E+02  0.45594000000E+02  0.51100000000E-03 0. -1.
    9900012    2    1    2    0    0  0.16722617119E+00 -0.47796903984E-01  0.11672808010E+01  0.90007833230E+02  0.90000095829E+02 0.  0.
         12    1    1    2    0    0 -0.16722617119E+00  0.47796903984E-01 -0.11672808010E+01  0.11801667699E+01  0.00000000000E+00 0. -1.
         11    1    3    3    0    0  0.84565721102E+01  0.13281949918E+02  0.31617933628E+01  0.16059911052E+02  0.51100000000E-03 0. -1.
        -11    1    3    3    0    0  0.24358995826E+02  0.14529651290E+02  0.87908538539E+01  0.29694284905E+02  0.51100000000E-03 0.  1.
         12    1    3    3    0    0 -0.32648341765E+02 -0.27859398112E+02 -0.10785366416E+02  0.44253637273E+02  0.00000000000E+00 0. -1.
</event>
<event>
 7    1  0.1698110E-015  0.9000751E+02  0.7816164E-02  0.1186339E+00
        -11   -1    0    0    0    0  0.00000000000E+00  0.00000000000E+00  0.45593999997E+02  0.45594000000E+02  0.51100000000E-03 0. -1.
         11   -1    0    0    0    0 -0.00000000000E+00 -0.00000000000E+00 -0.45593999997E+02  0.45594000000E+02  0.51100000000E-03 0.  1.
    9900012    2    1    2    0    0  0.95010255146E+00  0.59919145485E+00  0.36307670743E+00  0.90007512832E+02  0.89999771201E+02 0.  0.
         12    1    1    2    0    0 -0.95010255146E+00 -0.59919145485E+00 -0.36307670743E+00  0.11804871678E+01  0.00000000000E+00 0. -1.
         11    1    3    3    0    0  0.22709475293E+01 -0.99096306345E+01  0.12051376006E+00  0.10167227047E+02  0.51100000000E-03 0. -1.
        -11    1    3    3    0    0 -0.78203796223E+01  0.60273663431E+01 -0.38785094117E+02  0.40022131482E+02  0.51100000000E-03 0.  1.
         12    1    3    3    0    0  0.64995346445E+01  0.44814557463E+01  0.39027657064E+02  0.39818154303E+02  0.00000000000E+00 0. -1.
</event>
<event>
 7    1  0.1698110E-015  0.9000776E+02  0.7816164E-02  0.1186339E+00
        -11   -1    0    0    0    0  0.00000000000E+00  0.00000000000E+00  0.45593999997E+02  0.45594000000E+02  0.51100000000E-03 0.  1.
         11   -1    0    0    0    0 -0.00000000000E+00 -0.00000000000E+00 -0.45593999997E+02  0.45594000000E+02  0.51100000000E-03 0. -1.
    9900012    2    1    2    0    0  0.63507398464E+00 -0.79656422875E+00 -0.59592893031E+00  0.90007760691E+02  0.90000022332E+02 0.  0.
         12    1    1    2    0    0 -0.63507398464E+00  0.79656422875E+00  0.59592893031E+00  0.11802393090E+01  0.00000000000E+00 0. -1.
         11    1    3    3    0    0 -0.16678374056E+01 -0.12070235947E+02 -0.25732884022E+01  0.12453677805E+02  0.51100000000E-03 0. -1.
        -11    1    3    3    0    0 -0.69578917577E+01  0.69535255449E+00  0.38128982123E+02  0.38764868772E+02  0.51100000000E-03 0.  1.
         12    1    3    3    0    0  0.92608031480E+01  0.10578319163E+02 -0.36151622651E+02  0.38789214114E+02  0.00000000000E+00 0. -1.
</event>
<event>
 7    1  0.1698110E-015  0.9000787E+02  0.7816164E-02  0.1186339E+00
        -11   -1    0    0    0    0  0.00000000000E+00  0.00000000000E+00  0.45593999997E+02  0.45594000000E+02  0.51100000000E-03 0. -1.
         11   -1    0    0    0    0 -0.00000000000E+00 -0.00000000000E+00 -0.45593999997E+02  0.45594000000E+02  0.51100000000E-03 0.  1.
    9900012    2    1    2    0    0  0.64205822299E+00 -0.98839354954E+00  0.59535340778E-01  0.90007870758E+02  0.90000133852E+02 0.  0.
         12    1    1    2    0    0 -0.64205822299E+00  0.98839354954E+00 -0.59535340778E-01  0.11801292418E+01  0.00000000000E+00 0. -1.
         11    1    3    3    0    0 -0.39245720654E+02 -0.11983205461E+02  0.27619046926E+01  0.41127264930E+02  0.51100000000E-03 0. -1.
        -11    1    3    3    0    0  0.63735389404E+01 -0.48276239638E+01  0.69377828277E+01  0.10585876562E+02  0.51100000000E-03 0.  1.
        -12    1    3    3    0    0  0.33514239937E+02  0.15822435875E+02 -0.96401521796E+01  0.38294729267E+02  0.00000000000E+00 0.  1.
</event>
<event>
 7    1  0.1698110E-015  0.9000774E+02  0.7816164E-02  0.1186339E+00
        -11   -1    0    0    0    0  0.00000000000E+00  0.00000000000E+00  0.45593999997E+02  0.45594000000E+02  0.51100000000E-03 0.  1.
         11   -1    0    0    0    0 -0.00000000000E+00 -0.00000000000E+00 -0.45593999997E+02  0.45594000000E+02  0.51100000000E-03 0. -1.
    9900012    2    1    2    0    0 -0.11795910781E+00 -0.25460514030E+00  0.11464141460E+01  0.90007744298E+02  0.90000005722E+02 0.  0.
         12    1    1    2    0    0  0.11795910781E+00  0.25460514030E+00 -0.11464141460E+01  0.11802557023E+01  0.00000000000E+00 0. -1.
         11    1    3    3    0    0 -0.16189085600E+02 -0.11741477177E+02 -0.35521193407E+02  0.40764003241E+02  0.51100000000E-03 0. -1.
        -11    1    3    3    0    0  0.84017499560E+01 -0.40583648281E+01  0.74830813554E+00  0.93605391259E+01  0.51100000000E-03 0.  1.
        -12    1    3    3    0    0  0.76693765364E+01  0.15545236864E+02  0.35919299418E+02  0.39883201931E+02  0.00000000000E+00 0.  1.
</event>
<event>
 7    1  0.1698110E-015  0.9000767E+02  0.7816164E-02  0.1186339E+00
        -11   -1    0    0    0    0  0.00000000000E+00  0.00000000000E+00  0.45593999997E+02  0.45594000000E+02  0.51100000000E-03 0.  1.
         11   -1    0    0    0    0 -0.00000000000E+00 -0.00000000000E+00 -0.45593999997E+02  0.45594000000E+02  0.51100000000E-03 0. -1.
    9900012    2    1    2    0    0 -0.30515071134E+00  0.10003148454E+01 -0.54720316929E+00  0.90007670362E+02  0.89999930810E+02 0.  0.
         12    1    1    2    0    0  0.30515071134E+00 -0.10003148454E+01  0.54720316929E+00  0.11803296383E+01  0.00000000000E+00 0. -1.
         11    1    3    3    0    0  0.21748973033E+01  0.74023947201E+01 -0.70819045988E+01  0.10472774173E+02  0.51100000000E-03 0. -1.
        -11    1    3    3    0    0  0.93729263727E+01  0.32024314515E+02  0.17739375662E+02  0.37790129903E+02  0.51100000000E-03 0.  1.
         12    1    3    3    0    0 -0.11852974387E+02 -0.38426394390E+02 -0.11204674232E+02  0.41744766286E+02  0.00000000000E+00 0. -1.
</event>
<event>
 7    1  0.1698110E-015  0.9000797E+02  0.7816164E-02  0.1186339E+00
        -11   -1    0    0    0    0  0.00000000000E+00  0.00000000000E+00  0.45593999997E+02  0.45594000000E+02  0.51100000000E-03 0.  1.
         11   -1    0    0    0    0 -0.00000000000E+00 -0.00000000000E+00 -0.45593999997E+02  0.45594000000E+02  0.51100000000E-03 0. -1.
    9900012    2    1    2    0    0 -0.11502290945E+01 -0.71560875813E-01  0.25361497345E+00  0.90007970982E+02  0.90000235399E+02 0.  0.
         12    1    1    2    0    0  0.11502290945E+01  0.71560875813E-01 -0.25361497345E+00  0.11800290181E+01  0.00000000000E+00 0. -1.
         11    1    3    3    0    0 -0.43343606016E+01  0.16954831575E+01 -0.75588104237E+01  0.88767651903E+01  0.51100000000E-03 0. -1.
        -11    1    3    3    0    0 -0.21207625508E+02  0.32388076753E+02  0.20627655993E+01  0.38768620012E+02  0.51100000000E-03 0.  1.
         12    1    3    3    0    0  0.24391757015E+02 -0.34155120786E+02  0.57496597979E+01  0.42362585780E+02  0.00000000000E+00 0. -1.
</event>
<event>
 7    1  0.1698110E-015  0.9000767E+02  0.7816164E-02  0.1186339E+00
        -11   -1    0    0    0    0  0.00000000000E+00  0.00000000000E+00  0.45593999997E+02  0.45594000000E+02  0.51100000000E-03 0. -1.
         11   -1    0    0    0    0 -0.00000000000E+00 -0.00000000000E+00 -0.45593999997E+02  0.45594000000E+02  0.51100000000E-03 0.  1.
    9900012    2    1    2    0    0  0.90631073025E+00  0.56750323440E+00  0.49972413172E+00  0.90007668153E+02  0.89999928573E+02 0.  0.
         12    1    1    2    0    0 -0.90631073025E+00 -0.56750323440E+00 -0.49972413172E+00  0.11803318468E+01  0.00000000000E+00 0. -1.
         11    1    3    3    0    0  0.19406533516E+01 -0.61147440287E+01 -0.85079691831E+01  0.10655598052E+02  0.51100000000E-03 0. -1.
        -11    1    3    3    0    0  0.16777220553E+01  0.42458467722E+02  0.91839710969E+01  0.43472768004E+02  0.51100000000E-03 0.  1.
         12    1    3    3    0    0 -0.27120646766E+01 -0.35776220459E+02 -0.17627778217E+00  0.35879302097E+02  0.00000000000E+00 0. -1.
</event>
<event>
 7    1  0.1698110E-015  0.9000773E+02  0.7816164E-02  0.1186339E+00
        -11   -1    0    0    0    0  0.00000000000E+00  0.00000000000E+00  0.45593999997E+02  0.45594000000E+02  0.51100000000E-03 0.  1.
         11   -1    0    0    0    0 -0.00000000000E+00 -0.00000000000E+00 -0.45593999997E+02  0.45594000000E+02  0.51100000000E-03 0. -1.
    9900012    2    1    2    0    0  0.81131880738E-01  0.71512695046E+00  0.93544188288E+00  0.90007728653E+02  0.89999989871E+02 0.  0.
         12    1    1    2    0    0 -0.81131880738E-01 -0.71512695046E+00 -0.93544188288E+00  0.11802713474E+01  0.00000000000E+00 0. -1.
         11    1    3    3    0    0  0.28147542109E+01 -0.28691379065E+02 -0.18717748574E+02  0.34372549888E+02  0.51100000000E-03 0. -1.
        -11    1    3    3    0    0 -0.98416413284E-01 -0.52197857535E+01 -0.91390513640E+01  0.10525118013E+02  0.51100000000E-03 0.  1.
        -12    1    3    3    0    0 -0.26352059168E+01  0.34626291768E+02  0.28792241821E+02  0.45110060751E+02  0.00000000000E+00 0.  1.
</event>
<event>
 7    1  0.1698110E-015  0.9000748E+02  0.7816164E-02  0.1186340E+00
        -11   -1    0    0    0    0  0.00000000000E+00  0.00000000000E+00  0.45593999997E+02  0.45594000000E+02  0.51100000000E-03 0.  1.
         11   -1    0    0    0    0 -0.00000000000E+00 -0.00000000000E+00 -0.45593999997E+02  0.45594000000E+02  0.51100000000E-03 0. -1.
    9900012    2    1    2    0    0 -0.90013591212E+00  0.46328562660E+00  0.60725454880E+00  0.90007476252E+02  0.89999734138E+02 0.  0.
         12    1    1    2    0    0  0.90013591212E+00 -0.46328562660E+00 -0.60725454880E+00  0.11805237478E+01  0.00000000000E+00 0. -1.
         11    1    3    3    0    0 -0.59318484690E+01  0.12808335440E+01 -0.50709784366E+01  0.79083616123E+01  0.51100000000E-03 0. -1.
        -11    1    3    3    0    0 -0.20991472343E+02 -0.33109065202E+02  0.98393646685E+01  0.40418624507E+02  0.51100000000E-03 0.  1.
         12    1    3    3    0    0  0.26023184900E+02  0.32291517284E+02 -0.41611316831E+01  0.41680490133E+02  0.00000000000E+00 0. -1.
</event>
<event>
 7    1  0.1698110E-015  0.9000783E+02  0.7816164E-02  0.1186339E+00
        -11   -1    0    0    0    0  0.00000000000E+00  0.00000000000E+00  0.45593999997E+02  0.45594000000E+02  0.51100000000E-03 0. -1.
         11   -1    0    0    0    0 -0.00000000000E+00 -0.00000000000E+00 -0.45593999997E+02  0.45594000000E+02  0.51100000000E-03 0.  1.
    9900012    2    1    2    0    0 -0.50692670904E-01  0.87179605479E+00 -0.79385203476E+00  0.90007830876E+02  0.90000093444E+02 0.  0.
         12    1    1    2    0    0  0.50692670904E-01 -0.87179605479E+00  0.79385203476E+00  0.11801691240E+01  0.00000000000E+00 0. -1.
         11    1    3    3    0    0  0.17447955101E+02 -0.18576926556E+02  0.15460427617E+02  0.29808692689E+02  0.51100000000E-03 0. -1.
        -11    1    3    3    0    0 -0.21795422505E+01 -0.16702498129E+02  0.18835534422E+01  0.16949089120E+02  0.51100000000E-03 0.  1.
        -12    1    3    3    0    0 -0.15319105521E+02  0.36151220740E+02 -0.18137833094E+02  0.43250049067E+02  0.00000000000E+00 0.  1.
</event>
<event>
 7    1  0.1698110E-015  0.9000765E+02  0.7816164E-02  0.1186339E+00
        -11   -1    0    0    0    0  0.00000000000E+00  0.00000000000E+00  0.45593999997E+02  0.45594000000E+02  0.51100000000E-03 0. -1.
         11   -1    0    0    0    0 -0.00000000000E+00 -0.00000000000E+00 -0.45593999997E+02  0.45594000000E+02  0.51100000000E-03 0.  1.
    9900012    2    1    2    0    0 -0.80480493012E+00 -0.72227701911E+00  0.47311001441E+00  0.90007649140E+02  0.89999909308E+02 0.  0.
         12    1    1    2    0    0  0.80480493012E+00  0.72227701911E+00 -0.47311001441E+00  0.11803508604E+01  0.00000000000E+00 0. -1.
         11    1    3    3    0    0 -0.85993850131E+01  0.12678876502E+01  0.26349277704E+01  0.90829404002E+01  0.51100000000E-03 0. -1.
        -11    1    3    3    0    0 -0.31873927145E+02 -0.14052747921E+02 -0.14401440056E+02  0.37693877907E+02  0.51100000000E-03 0.  1.
         12    1    3    3    0    0  0.39668507228E+02  0.12062583251E+02  0.12239622300E+02  0.43230830832E+02  0.00000000000E+00 0. -1.
</event>
<event>
 7    1  0.1698110E-015  0.9000776E+02  0.7816164E-02  0.1186339E+00
        -11   -1    0    0    0    0  0.00000000000E+00  0.00000000000E+00  0.45593999997E+02  0.45594000000E+02  0.51100000000E-03 0.  1.
         11   -1    0    0    0    0 -0.00000000000E+00 -0.00000000000E+00 -0.45593999997E+02  0.45594000000E+02  0.51100000000E-03 0. -1.
    9900012    2    1    2    0    0 -0.81723605381E+00 -0.67869528070E+00 -0.51426507782E+00  0.90007758236E+02  0.90000019845E+02 0.  0.
         12    1    1    2    0    0  0.81723605381E+00  0.67869528070E+00  0.51426507782E+00  0.11802417642E+01  0.00000000000E+00 0. -1.
         11    1    3    3    0    0  0.33576020694E+02 -0.60231934585E+01 -0.27077915896E+02  0.43552744513E+02  0.51100000000E-03 0. -1.
        -11    1    3    3    0    0 -0.26184173013E+01  0.37218562459E+01  0.90676297676E+01  0.10145453807E+02  0.51100000000E-03 0.  1.
        -12    1    3    3    0    0 -0.31774839447E+02  0.16226419318E+01  0.17496021051E+02  0.36309559916E+02  0.00000000000E+00 0.  1.
</event>
<event>
 7    1  0.1698110E-015  0.9000781E+02  0.7816164E-02  0.1186339E+00
        -11   -1    0    0    0    0  0.00000000000E+00  0.00000000000E+00  0.45593999997E+02  0.45594000000E+02  0.51100000000E-03 0. -1.
         11   -1    0    0    0    0 -0.00000000000E+00 -0.00000000000E+00 -0.45593999997E+02  0.45594000000E+02  0.51100000000E-03 0.  1.
    9900012    2    1    2    0    0 -0.49579756553E+00 -0.37566724169E+00 -0.10029526195E+01  0.90007807194E+02  0.90000069449E+02 0.  0.
         12    1    1    2    0    0  0.49579756553E+00  0.37566724169E+00  0.10029526195E+01  0.11801928060E+01  0.00000000000E+00 0. -1.
         11    1    3    3    0    0  0.35948081275E+01 -0.16072672103E+01  0.97727313986E+01  0.10536234271E+02  0.51100000000E-03 0. -1.
        -11    1    3    3    0    0 -0.40232191009E+02  0.60912301527E+01  0.22381489933E+01  0.40752197356E+02  0.51100000000E-03 0.  1.
         12    1    3    3    0    0  0.36141585316E+02 -0.48596301841E+01 -0.13013833011E+02  0.38719375567E+02  0.00000000000E+00 0. -1.
</event>
<event>
 7    1  0.1698110E-015  0.9000787E+02  0.7816164E-02  0.1186339E+00
        -11   -1    0    0    0    0  0.00000000000E+00  0.00000000000E+00  0.45593999997E+02  0.45594000000E+02  0.51100000000E-03 0. -1.
         11   -1    0    0    0    0 -0.00000000000E+00 -0.00000000000E+00 -0.45593999997E+02  0.45594000000E+02  0.51100000000E-03 0.  1.
    9900012    2    1    2    0    0 -0.72186867230E+00  0.85128057490E+00 -0.38332985218E+00  0.90007866629E+02  0.90000129669E+02 0.  0.
         12    1    1    2    0    0  0.72186867230E+00 -0.85128057490E+00  0.38332985218E+00  0.11801333708E+01  0.00000000000E+00 0. -1.
         11    1    3    3    0    0  0.64016858464E+01  0.30038550165E+01  0.30628381239E+01  0.77062120572E+01  0.51100000000E-03 0. -1.
        -11    1    3    3    0    0  0.33465410468E+02 -0.18744480942E+02 -0.25759021578E+01  0.38443784097E+02  0.51100000000E-03 0.  1.
         12    1    3    3    0    0 -0.40588964986E+02  0.16591906500E+02 -0.87026581830E+00  0.43857870475E+02  0.00000000000E+00 0. -1.
</event>
<event>
 7    1  0.1698110E-015  0.9000757E+02  0.7816164E-02  0.1186339E+00
        -11   -1    0    0    0    0  0.00000000000E+00  0.00000000000E+00  0.45593999997E+02  0.45594000000E+02  0.51100000000E-03 0.  1.
         11   -1    0    0    0    0 -0.00000000000E+00 -0.00000000000E+00 -0.45593999997E+02  0.45594000000E+02  0.51100000000E-03 0. -1.
    9900012    2    1    2    0    0 -0.31466693750E+00 -0.23200524359E+00  0.11138139822E+01  0.90007566477E+02  0.89999825555E+02 0.  0.
         12    1    1    2    0    0  0.31466693750E+00  0.23200524359E+00 -0.11138139822E+01  0.11804335228E+01  0.00000000000E+00 0. -1.
         11    1    3    3    0    0 -0.18704017722E+02 -0.25546292350E+02 -0.16198311317E+02  0.35564569751E+02  0.51100000000E-03 0. -1.
        -11    1    3    3    0    0 -0.33883101288E+01 -0.87157949731E+01 -0.21539943867E+01  0.95961148191E+01  0.51100000000E-03 0.  1.
        -12    1    3    3    0    0  0.21777660913E+02  0.34030082079E+02  0.19466119686E+02  0.44846881907E+02  0.00000000000E+00 0.  1.
</event>
<event>
 7    1  0.1698110E-015  0.9000761E+02  0.7816164E-02  0.1186339E+00
        -11   -1    0    0    0    0  0.00000000000E+00  0.00000000000E+00  0.45593999997E+02  0.45594000000E+02  0.51100000000E-03 0. -1.
         11   -1    0    0    0    0 -0.00000000000E+00 -0.00000000000E+00 -0.45593999997E+02  0.45594000000E+02  0.51100000000E-03 0.  1.
    9900012    2    1    2    0    0  0.28636021000E+00  0.91816256839E+00 -0.68432714874E+00  0.90007606710E+02  0.89999866319E+02 0.  0.
         12    1    1    2    0    0 -0.28636021000E+00 -0.91816256839E+00  0.68432714874E+00  0.11803932897E+01  0.00000000000E+00 0. -1.
         11    1    3    3    0    0 -0.15720428012E+02  0.55391523294E+01  0.40389918385E+02  0.43693930618E+02  0.51100000000E-03 0. -1.
        -11    1    3    3    0    0  0.73866220198E+01  0.21562840320E+01 -0.66003079785E+01  0.10137840567E+02  0.51100000000E-03 0.  1.
        -12    1    3    3    0    0  0.86201662020E+01 -0.67772737930E+01 -0.34473937555E+02  0.36175835526E+02  0.00000000000E+00 0.  1.
</event>
<event>
 7    1  0.1698110E-015  0.9000779E+02  0.7816164E-02  0.1186339E+00
        -11   -1    0    0    0    0  0.00000000000E+00  0.00000000000E+00  0.45593999997E+02  0.45594000000E+02  0.51100000000E-03 0.  1.
         11   -1    0    0    0    0 -0.00000000000E+00 -0.00000000000E+00 -0.45593999997E+02  0.45594000000E+02  0.51100000000E-03 0. -1.
    9900012    2    1    2    0    0 -0.47956548238E+00 -0.99733569851E+00  0.41015159014E+00  0.90007794139E+02  0.90000056222E+02 0.  0.
         12    1    1    2    0    0  0.47956548238E+00  0.99733569851E+00 -0.41015159014E+00  0.11802058610E+01  0.00000000000E+00 0. -1.
         11    1    3    3    0    0 -0.33879131112E+02  0.13993570630E+02 -0.20061162300E+02  0.41785951910E+02  0.51100000000E-03 0. -1.
        -11    1    3    3    0    0 -0.24848854203E+01 -0.55029665436E+01  0.56027054789E+01  0.82369657809E+01  0.51100000000E-03 0.  1.
        -12    1    3    3    0    0  0.35884451050E+02 -0.94879397852E+01  0.14868608412E+02  0.39984876449E+02  0.00000000000E+00 0.  1.
</event>
<event>
 7    1  0.1698110E-015  0.9000780E+02  0.7816164E-02  0.1186339E+00
        -11   -1    0    0    0    0  0.00000000000E+00  0.00000000000E+00  0.45593999997E+02  0.45594000000E+02  0.51100000000E-03 0.  1.
         11   -1    0    0    0    0 -0.00000000000E+00 -0.00000000000E+00 -0.45593999997E+02  0.45594000000E+02  0.51100000000E-03 0. -1.
    9900012    2    1    2    0    0  0.17712208518E+00  0.19417435902E+00  0.11505678577E+01  0.90007795649E+02  0.90000057752E+02 0.  0.
         12    1    1    2    0    0 -0.17712208518E+00 -0.19417435902E+00 -0.11505678577E+01  0.11802043509E+01  0.00000000000E+00 0. -1.
         11    1    3    3    0    0 -0.21665090783E+01  0.10838434377E+01 -0.94852207124E+01  0.97896828554E+01  0.51100000000E-03 0. -1.
        -11    1    3    3    0    0  0.24117040403E+02  0.31986761388E+02  0.61990156236E+01  0.40536555562E+02  0.51100000000E-03 0.  1.
         12    1    3    3    0    0 -0.21773409239E+02 -0.32876430467E+02  0.44367729466E+01  0.39681557231E+02  0.00000000000E+00 0. -1.
</event>
<event>
 7    1  0.1698110E-015  0.9000830E+02  0.7816164E-02  0.1186338E+00
        -11   -1    0    0    0    0  0.00000000000E+00  0.00000000000E+00  0.45593999997E+02  0.45594000000E+02  0.51100000000E-03 0.  1.
         11   -1    0    0    0    0 -0.00000000000E+00 -0.00000000000E+00 -0.45593999997E+02  0.45594000000E+02  0.51100000000E-03 0. -1.
    9900012    2    1    2    0    0  0.47541929225E+00 -0.57930650032E+00  0.91108502563E+00  0.90008298576E+02  0.90000567316E+02 0.  0.
         12    1    1    2    0    0 -0.47541929225E+00  0.57930650032E+00 -0.91108502563E+00  0.11797014235E+01  0.00000000000E+00 0. -1.
         11    1    3    3    0    0 -0.23162564920E+02  0.31818828283E+02  0.50456226739E+01  0.39678716656E+02  0.51100000000E-03 0. -1.
        -11    1    3    3    0    0 -0.67394926140E+01 -0.63766543684E+01 -0.45386375010E+01  0.10328683956E+02  0.51100000000E-03 0.  1.
        -12    1    3    3    0    0  0.30377476827E+02 -0.26021480415E+02  0.40409985272E+00  0.40000897965E+02  0.00000000000E+00 0.  1.
</event>
<event>
 7    1  0.1698110E-015  0.9000790E+02  0.7816164E-02  0.1186339E+00
        -11   -1    0    0    0    0  0.00000000000E+00  0.00000000000E+00  0.45593999997E+02  0.45594000000E+02  0.51100000000E-03 0.  1.
         11   -1    0    0    0    0 -0.00000000000E+00 -0.00000000000E+00 -0.45593999997E+02  0.45594000000E+02  0.51100000000E-03 0. -1.
    9900012    2    1    2    0    0 -0.36799686328E+00 -0.30422558168E+00  0.10791940716E+01  0.90007900538E+02  0.90000164025E+02 0.  0.
         12    1    1    2    0    0  0.36799686328E+00  0.30422558168E+00 -0.10791940716E+01  0.11800994620E+01  0.00000000000E+00 0. -1.
         11    1    3    3    0    0  0.87817697060E+01 -0.98299816549E+01 -0.73584138043E+01  0.15096167477E+02  0.51100000000E-03 0. -1.
        -11    1    3    3    0    0  0.29491632774E+02 -0.98621466695E+01  0.15639781963E+01  0.31136222774E+02  0.51100000000E-03 0.  1.
         12    1    3    3    0    0 -0.38641399343E+02  0.19387902743E+02  0.68736296797E+01  0.43775510287E+02  0.00000000000E+00 0. -1.
</event>
<event>
 7    1  0.1698110E-015  0.9000759E+02  0.7816164E-02  0.1186339E+00
        -11   -1    0    0    0    0  0.00000000000E+00  0.00000000000E+00  0.45593999997E+02  0.45594000000E+02  0.51100000000E-03 0.  1.
         11   -1    0    0    0    0 -0.00000000000E+00 -0.00000000000E+00 -0.45593999997E+02  0.45594000000E+02  0.51100000000E-03 0. -1.
    9900012    2    1    2    0    0  0.10856729042E+01 -0.35134589161E+00 -0.30205348175E+00  0.90007590793E+02  0.89999850191E+02 0.  0.
         12    1    1    2    0    0 -0.10856729042E+01  0.35134589161E+00  0.30205348175E+00  0.11804092071E+01  0.00000000000E+00 0. -1.
         11    1    3    3    0    0  0.18254200998E+01 -0.49361319357E+00  0.85775279392E+01  0.87834957923E+01  0.51100000000E-03 0. -1.
        -11    1    3    3    0    0  0.32510185551E+02  0.14558423474E+02  0.14102055257E+02  0.38310936054E+02  0.51100000000E-03 0.  1.
         12    1    3    3    0    0 -0.33249932746E+02 -0.14416156172E+02 -0.22981636678E+02  0.42913158947E+02  0.00000000000E+00 0. -1.
</event>
<event>
 7    1  0.1698110E-015  0.9000776E+02  0.7816164E-02  0.1186339E+00
        -11   -1    0    0    0    0  0.00000000000E+00  0.00000000000E+00  0.45593999997E+02  0.45594000000E+02  0.51100000000E-03 0.  1.
         11   -1    0    0    0    0 -0.00000000000E+00 -0.00000000000E+00 -0.45593999997E+02  0.45594000000E+02  0.51100000000E-03 0. -1.
    9900012    2    1    2    0    0  0.79359523163E-01 -0.92233428265E+00 -0.73210412619E+00  0.90007756417E+02  0.90000018002E+02 0.  0.
         12    1    1    2    0    0 -0.79359523163E-01  0.92233428265E+00  0.73210412619E+00  0.11802435827E+01  0.00000000000E+00 0. -1.
         11    1    3    3    0    0 -0.95948681107E+01 -0.29834001367E+01 -0.48851068581E+00  0.10059861499E+02  0.51100000000E-03 0. -1.
        -11    1    3    3    0    0 -0.31104551269E+01 -0.36773604150E+02 -0.93286834503E+01  0.38065696216E+02  0.51100000000E-03 0.  1.
         12    1    3    3    0    0  0.12784682761E+02  0.38834670004E+02  0.90850900099E+01  0.41882198702E+02  0.00000000000E+00 0. -1.
</event>
<event>
 7    1  0.1698110E-015  0.9000774E+02  0.7816164E-02  0.1186339E+00
        -11   -1    0    0    0    0  0.00000000000E+00  0.00000000000E+00  0.45593999997E+02  0.45594000000E+02  0.51100000000E-03 0.  1.
         11   -1    0    0    0    0 -0.00000000000E+00 -0.00000000000E+00 -0.45593999997E+02  0.45594000000E+02  0.51100000000E-03 0. -1.
    9900012    2    1    2    0    0  0.45235961349E+00  0.10612231309E+01 -0.24939202366E+00  0.90007737260E+02  0.89999998592E+02 0.  0.
         12    1    1    2    0    0 -0.45235961349E+00 -0.10612231309E+01  0.24939202366E+00  0.11802627398E+01  0.00000000000E+00 0. -1.
         11    1    3    3    0    0  0.32288066314E+02  0.19212245020E+01  0.25461457600E+01  0.32445233678E+02  0.51100000000E-03 0. -1.
        -11    1    3    3    0    0  0.95624683596E+01  0.10570740916E+02 -0.32189654003E+01  0.14613114081E+02  0.51100000000E-03 0.  1.
        -12    1    3    3    0    0 -0.41398175060E+02 -0.11430742287E+02  0.42342761666E+00  0.42949389501E+02  0.00000000000E+00 0.  1.
</event>
<event>
 7    1  0.1698110E-015  0.9000758E+02  0.7816164E-02  0.1186339E+00
        -11   -1    0    0    0    0  0.00000000000E+00  0.00000000000E+00  0.45593999997E+02  0.45594000000E+02  0.51100000000E-03 0. -1.
         11   -1    0    0    0    0 -0.00000000000E+00 -0.00000000000E+00 -0.45593999997E+02  0.45594000000E+02  0.51100000000E-03 0.  1.
    9900012    2    1    2    0    0 -0.88676548288E+00  0.19402519640E+00 -0.75458024195E+00  0.90007580524E+02  0.89999839786E+02 0.  0.
         12    1    1    2    0    0  0.88676548288E+00 -0.19402519640E+00  0.75458024195E+00  0.11804194763E+01  0.00000000000E+00 0. -1.
         11    1    3    3    0    0  0.23282084463E+02  0.85427150540E+01  0.70890693126E+01  0.25793184011E+02  0.51100000000E-03 0. -1.
        -11    1    3    3    0    0  0.12078773614E+02 -0.98453983253E+01 -0.20536634296E+02  0.25779487751E+02  0.51100000000E-03 0.  1.
         12    1    3    3    0    0 -0.36247623559E+02  0.14967084677E+01  0.12692984742E+02  0.38434908763E+02  0.00000000000E+00 0. -1.
</event>
<event>
 7    1  0.1698110E-015  0.9000759E+02  0.7816164E-02  0.1186339E+00
        -11   -1    0    0    0    0  0.00000000000E+00  0.00000000000E+00  0.45593999997E+02  0.45594000000E+02  0.51100000000E-03 0. -1.
         11   -1    0    0    0    0 -0.00000000000E+00 -0.00000000000E+00 -0.45593999997E+02  0.45594000000E+02  0.51100000000E-03 0.  1.
    9900012    2    1    2    0    0 -0.15035016195E-01  0.27788409926E+00  0.11471366823E+01  0.90007589820E+02  0.89999849206E+02 0.  0.
         12    1    1    2    0    0  0.15035016195E-01 -0.27788409926E+00 -0.11471366823E+01  0.11804101796E+01  0.00000000000E+00 0. -1.
         11    1    3    3    0    0 -0.16702950754E+02  0.31345743276E+02  0.11346705761E+02  0.37286618475E+02  0.51100000000E-03 0. -1.
        -11    1    3    3    0    0 -0.59925264304E+01  0.29849867467E+00  0.79580451589E+01  0.99664415661E+01  0.51100000000E-03 0.  1.
        -12    1    3    3    0    0  0.22680442168E+02 -0.31366357852E+02 -0.18157614237E+02  0.42754529779E+02  0.00000000000E+00 0.  1.
</event>
<event>
 7    1  0.1698110E-015  0.9000762E+02  0.7816164E-02  0.1186339E+00
        -11   -1    0    0    0    0  0.00000000000E+00  0.00000000000E+00  0.45593999997E+02  0.45594000000E+02  0.51100000000E-03 0.  1.
         11   -1    0    0    0    0 -0.00000000000E+00 -0.00000000000E+00 -0.45593999997E+02  0.45594000000E+02  0.51100000000E-03 0. -1.
    9900012    2    1    2    0    0  0.21093645402E+00  0.35873218910E+00  0.11045923539E+01  0.90007615639E+02  0.89999875365E+02 0.  0.
         12    1    1    2    0    0 -0.21093645402E+00 -0.35873218910E+00 -0.11045923539E+01  0.11803843609E+01  0.00000000000E+00 0. -1.
         11    1    3    3    0    0 -0.93384697587E+01 -0.15214799270E+01  0.92438664255E+01  0.13227659859E+02  0.51100000000E-03 0. -1.
        -11    1    3    3    0    0  0.16127019962E+02 -0.58760065690E+01  0.31491390072E+02  0.35865246061E+02  0.51100000000E-03 0.  1.
         12    1    3    3    0    0 -0.65776137489E+01  0.77562186851E+01 -0.39630664144E+02  0.40914709719E+02  0.00000000000E+00 0. -1.
</event>
<event>
 7    1  0.1698110E-015  0.9000770E+02  0.7816164E-02  0.1186339E+00
        -11   -1    0    0    0    0  0.00000000000E+00  0.00000000000E+00  0.45593999997E+02  0.45594000000E+02  0.51100000000E-03 0. -1.
         11   -1    0    0    0    0 -0.00000000000E+00 -0.00000000000E+00 -0.45593999997E+02  0.45594000000E+02  0.51100000000E-03 0.  1.
    9900012    2    1    2    0    0 -0.53347541094E+00 -0.71101980174E+00 -0.77650288639E+00  0.90007702620E+02  0.89999963495E+02 0.  0.
         12    1    1    2    0    0  0.53347541094E+00  0.71101980174E+00  0.77650288639E+00  0.11802973799E+01  0.00000000000E+00 0. -1.
         11    1    3    3    0    0 -0.13414558857E+02 -0.17629097924E+01  0.38955374002E+02  0.41238081965E+02  0.51100000000E-03 0. -1.
        -11    1    3    3    0    0  0.74483390925E+01 -0.56155534433E+01 -0.13371229892E+01  0.94233801717E+01  0.51100000000E-03 0.  1.
        -12    1    3    3    0    0  0.54327443538E+01  0.66674434339E+01 -0.38394753899E+02  0.39346240483E+02  0.00000000000E+00 0.  1.
</event>
<event>
 7    1  0.1698110E-015  0.9000772E+02  0.7816164E-02  0.1186339E+00
        -11   -1    0    0    0    0  0.00000000000E+00  0.00000000000E+00  0.45593999997E+02  0.45594000000E+02  0.51100000000E-03 0.  1.
         11   -1    0    0    0    0 -0.00000000000E+00 -0.00000000000E+00 -0.45593999997E+02  0.45594000000E+02  0.51100000000E-03 0. -1.
    9900012    2    1    2    0    0 -0.35205040770E+00  0.56192762941E+00  0.97640512147E+00  0.90007716512E+02  0.89999977570E+02 0.  0.
         12    1    1    2    0    0  0.35205040770E+00 -0.56192762941E+00 -0.97640512147E+00  0.11802834878E+01  0.00000000000E+00 0. -1.
         11    1    3    3    0    0 -0.56292249394E+00  0.93136480772E+01  0.35983949682E+01  0.10000468431E+02  0.51100000000E-03 0. -1.
        -11    1    3    3    0    0  0.28130232531E+02 -0.40707510545E+01  0.26879606223E+02  0.39120253416E+02  0.51100000000E-03 0.  1.
        -12    1    3    3    0    0 -0.27919360444E+02 -0.46809693933E+01 -0.29501596070E+02  0.40886994665E+02  0.00000000000E+00 0.  1.
</event>
<event>
 7    1  0.1698110E-015  0.9000763E+02  0.7816164E-02  0.1186339E+00
        -11   -1    0    0    0    0  0.00000000000E+00  0.00000000000E+00  0.45593999997E+02  0.45594000000E+02  0.51100000000E-03 0.  1.
         11   -1    0    0    0    0 -0.00000000000E+00 -0.00000000000E+00 -0.45593999997E+02  0.45594000000E+02  0.51100000000E-03 0. -1.
    9900012    2    1    2    0    0 -0.70041895167E+00 -0.91724183469E+00 -0.24768512521E+00  0.90007632594E+02  0.89999892544E+02 0.  0.
         12    1    1    2    0    0  0.70041895167E+00  0.91724183469E+00  0.24768512521E+00  0.11803674057E+01  0.00000000000E+00 0. -1.
         11    1    3    3    0    0  0.59387716409E+01 -0.54158572799E+01 -0.84618628380E+01  0.11670631587E+02  0.51100000000E-03 0. -1.
        -11    1    3    3    0    0  0.87709139266E+01 -0.30122478846E+02  0.21662678755E+02  0.38125638540E+02  0.51100000000E-03 0.  1.
         12    1    3    3    0    0 -0.15410104519E+02  0.34621094292E+02 -0.13448501042E+02  0.40211362468E+02  0.00000000000E+00 0. -1.
</event>
<event>
 7    1  0.1698110E-015  0.9000770E+02  0.7816164E-02  0.1186339E+00
        -11   -1    0    0    0    0  0.00000000000E+00  0.00000000000E+00  0.45593999997E+02  0.45594000000E+02  0.51100000000E-03 0. -1.
         11   -1    0    0    0    0 -0.00000000000E+00 -0.00000000000E+00 -0.45593999997E+02  0.45594000000E+02  0.51100000000E-03 0.  1.
    9900012    2    1    2    0    0 -0.77195614087E+00 -0.31200846800E+00  0.83657051028E+00  0.90007696740E+02  0.89999957537E+02 0.  0.
         12    1    1    2    0    0  0.77195614087E+00  0.31200846800E+00 -0.83657051028E+00  0.11803032603E+01  0.00000000000E+00 0. -1.
         11    1    3    3    0    0  0.39382775601E+02  0.23536250476E+00  0.14155399953E+01  0.39408909694E+02  0.51100000000E-03 0. -1.
        -11    1    3    3    0    0  0.39650331596E+00 -0.46797661318E+01 -0.78948703918E+01  0.91862073073E+01  0.51100000000E-03 0.  1.
        -12    1    3    3    0    0 -0.40551235058E+02  0.41323951591E+01  0.73159009067E+01  0.41412579738E+02  0.00000000000E+00 0.  1.
</event>
<event>
 7    1  0.1698110E-015  0.9000765E+02  0.7816164E-02  0.1186339E+00
        -11   -1    0    0    0    0  0.00000000000E+00  0.00000000000E+00  0.45593999997E+02  0.45594000000E+02  0.51100000000E-03 0. -1.
         11   -1    0    0    0    0 -0.00000000000E+00 -0.00000000000E+00 -0.45593999997E+02  0.45594000000E+02  0.51100000000E-03 0.  1.
    9900012    2    1    2    0    0  0.70635638985E+00 -0.94566140059E+00  0.31023971737E-02  0.90007650705E+02  0.89999910894E+02 0.  0.
         12    1    1    2    0    0 -0.70635638985E+00  0.94566140059E+00 -0.31023971737E-02  0.11803492953E+01  0.00000000000E+00 0. -1.
         11    1    3    3    0    0  0.47805350699E+00  0.24391911964E+00 -0.99275962257E+01  0.99420922735E+01  0.51100000000E-03 0. -1.
        -11    1    3    3    0    0 -0.65341957598E+01  0.32105047906E+02 -0.16815431735E+02  0.36826465483E+02  0.51100000000E-03 0.  1.
         12    1    3    3    0    0  0.67624986426E+01 -0.33294628426E+02  0.26746130357E+02  0.43239092949E+02  0.00000000000E+00 0. -1.
</event>
<event>
 7    1  0.1698110E-015  0.9000782E+02  0.7816164E-02  0.1186339E+00
        -11   -1    0    0    0    0  0.00000000000E+00  0.00000000000E+00  0.45593999997E+02  0.45594000000E+02  0.51100000000E-03 0.  1.
         11   -1    0    0    0    0 -0.00000000000E+00 -0.00000000000E+00 -0.45593999997E+02  0.45594000000E+02  0.51100000000E-03 0. -1.
    9900012    2    1    2    0    0  0.57802034127E+00  0.98798244801E+00  0.28742170829E+00  0.90007818628E+02  0.90000081034E+02 0.  0.
         12    1    1    2    0    0 -0.57802034127E+00 -0.98798244801E+00 -0.28742170829E+00  0.11801813720E+01  0.00000000000E+00 0. -1.
         11    1    3    3    0    0 -0.28807172903E+00  0.42169617241E+01  0.69987805063E+01  0.81761042276E+01  0.51100000000E-03 0. -1.
        -11    1    3    3    0    0  0.12933263563E+02  0.32169233147E+01  0.35255919492E+02  0.37690817999E+02  0.51100000000E-03 0.  1.
         12    1    3    3    0    0 -0.12067171493E+02 -0.64459025908E+01 -0.41967278290E+02  0.44140896401E+02  0.00000000000E+00 0. -1.
</event>
<event>
 7    1  0.1698110E-015  0.9000776E+02  0.7816164E-02  0.1186339E+00
        -11   -1    0    0    0    0  0.00000000000E+00  0.00000000000E+00  0.45593999997E+02  0.45594000000E+02  0.51100000000E-03 0. -1.
         11   -1    0    0    0    0 -0.00000000000E+00 -0.00000000000E+00 -0.45593999997E+02  0.45594000000E+02  0.51100000000E-03 0.  1.
    9900012    2    1    2    0    0  0.14262154754E+00 -0.10416369334E+01 -0.53629388390E+00  0.90007762932E+02  0.90000024603E+02 0.  0.
         12    1    1    2    0    0 -0.14262154754E+00  0.10416369334E+01  0.53629388390E+00  0.11802370680E+01  0.00000000000E+00 0. -1.
         11    1    3    3    0    0 -0.23313161481E+02  0.90957989003E+01  0.29289694882E+02  0.38524320661E+02  0.51100000000E-03 0. -1.
        -11    1    3    3    0    0  0.99835745444E+01  0.96102030089E+01 -0.79990684657E+00  0.13880475993E+02  0.51100000000E-03 0.  1.
        -12    1    3    3    0    0  0.13472208484E+02 -0.19747638843E+02 -0.29026081919E+02  0.37602966278E+02  0.00000000000E+00 0.  1.
</event>
<event>
 7    1  0.1698110E-015  0.9000753E+02  0.7816164E-02  0.1186339E+00
        -11   -1    0    0    0    0  0.00000000000E+00  0.00000000000E+00  0.45593999997E+02  0.45594000000E+02  0.51100000000E-03 0.  1.
         11   -1    0    0    0    0 -0.00000000000E+00 -0.00000000000E+00 -0.45593999997E+02  0.45594000000E+02  0.51100000000E-03 0. -1.
    9900012    2    1    2    0    0  0.68212983551E+00  0.87574738653E+00 -0.40159468866E+00  0.90007528530E+02  0.89999787106E+02 0.  0.
         12    1    1    2    0    0 -0.68212983551E+00 -0.87574738653E+00  0.40159468866E+00  0.11804714700E+01  0.00000000000E+00 0. -1.
         11    1    3    3    0    0 -0.23003882448E+02 -0.18839048897E+01 -0.29563679420E+02  0.37506517386E+02  0.51100000000E-03 0. -1.
        -11    1    3    3    0    0 -0.92250227605E+00 -0.11479562848E+02 -0.34985785400E+00  0.11521882416E+02  0.51100000000E-03 0.  1.
        -12    1    3    3    0    0  0.24608514559E+02  0.14239215124E+02  0.29511942585E+02  0.40979128728E+02  0.00000000000E+00 0.  1.
</event>
<event>
 7    1  0.1698110E-015  0.9000766E+02  0.7816164E-02  0.1186339E+00
        -11   -1    0    0    0    0  0.00000000000E+00  0.00000000000E+00  0.45593999997E+02  0.45594000000E+02  0.51100000000E-03 0.  1.
         11   -1    0    0    0    0 -0.00000000000E+00 -0.00000000000E+00 -0.45593999997E+02  0.45594000000E+02  0.51100000000E-03 0. -1.
    9900012    2    1    2    0    0  0.94359157898E+00 -0.44093640569E+00  0.55534298701E+00  0.90007662838E+02  0.89999923188E+02 0.  0.
         12    1    1    2    0    0 -0.94359157898E+00  0.44093640569E+00 -0.55534298701E+00  0.11803371616E+01  0.00000000000E+00 0. -1.
         11    1    3    3    0    0  0.31263296236E+01  0.38835045127E+01  0.54833764560E+01  0.74110027550E+01  0.51100000000E-03 0. -1.
        -11    1    3    3    0    0 -0.11831102376E+02  0.78314996798E+01  0.36069630773E+02  0.38759845653E+02  0.51100000000E-03 0.  1.
         12    1    3    3    0    0  0.96483643309E+01 -0.12155940598E+02 -0.40997664242E+02  0.43836814430E+02  0.00000000000E+00 0. -1.
</event>
<event>
 7    1  0.1698110E-015  0.9000769E+02  0.7816164E-02  0.1186339E+00
        -11   -1    0    0    0    0  0.00000000000E+00  0.00000000000E+00  0.45593999997E+02  0.45594000000E+02  0.51100000000E-03 0.  1.
         11   -1    0    0    0    0 -0.00000000000E+00 -0.00000000000E+00 -0.45593999997E+02  0.45594000000E+02  0.51100000000E-03 0. -1.
    9900012    2    1    2    0    0  0.11087057233E+01  0.34014667083E+00 -0.21956070693E+00  0.90007688582E+02  0.89999949272E+02 0.  0.
         12    1    1    2    0    0 -0.11087057233E+01 -0.34014667083E+00  0.21956070693E+00  0.11803114176E+01  0.00000000000E+00 0. -1.
         11    1    3    3    0    0  0.53227889285E+01 -0.16915926952E+01  0.60645980334E+01  0.82445689634E+01  0.51100000000E-03 0. -1.
        -11    1    3    3    0    0  0.23265722963E+02  0.22566418833E+02  0.20404058190E+02  0.38299643795E+02  0.51100000000E-03 0.  1.
         12    1    3    3    0    0 -0.27479806168E+02 -0.20534679467E+02 -0.26688216930E+02  0.43463475824E+02  0.00000000000E+00 0. -1.
</event>
<event>
 7    1  0.1698110E-015  0.9000702E+02  0.7816164E-02  0.1186340E+00
        -11   -1    0    0    0    0  0.00000000000E+00  0.00000000000E+00  0.45593999997E+02  0.45594000000E+02  0.51100000000E-03 0.  1.
         11   -1    0    0    0    0 -0.00000000000E+00 -0.00000000000E+00 -0.45593999997E+02  0.45594000000E+02  0.51100000000E-03 0. -1.
    9900012    2    1    2    0    0  0.76804804988E+00  0.84691951797E+00  0.29589035819E+00  0.90007016689E+02  0.89999268506E+02 0.  0.
         12    1    1    2    0    0 -0.76804804988E+00 -0.84691951797E+00 -0.29589035819E+00  0.11809833110E+01  0.00000000000E+00 0. -1.
         11    1    3    3    0    0  0.16283741353E+02 -0.30690799738E+02 -0.91907307198E+01  0.35938210201E+02  0.51100000000E-03 0. -1.
        -11    1    3    3    0    0  0.36533697228E+00 -0.82376990536E+01 -0.40028979121E+01  0.91660432443E+01  0.51100000000E-03 0.  1.
        -12    1    3    3    0    0 -0.15881030275E+02  0.39775418310E+02  0.13489518990E+02  0.44902763244E+02  0.00000000000E+00 0.  1.
</event>
<event>
 7    1  0.1698110E-015  0.9000767E+02  0.7816164E-02  0.1186339E+00
        -11   -1    0    0    0    0  0.00000000000E+00  0.00000000000E+00  0.45593999997E+02  0.45594000000E+02  0.51100000000E-03 0.  1.
         11   -1    0    0    0    0 -0.00000000000E+00 -0.00000000000E+00 -0.45593999997E+02  0.45594000000E+02  0.51100000000E-03 0. -1.
    9900012    2    1    2    0    0  0.82964596067E+00 -0.54894126688E+00 -0.63523884757E+00  0.90007670670E+02  0.89999931122E+02 0.  0.
         12    1    1    2    0    0 -0.82964596067E+00  0.54894126688E+00  0.63523884757E+00  0.11803293303E+01  0.00000000000E+00 0. -1.
         11    1    3    3    0    0  0.26543080426E+02 -0.32400740676E+02  0.60753967961E+00  0.41889285260E+02  0.51100000000E-03 0. -1.
        -11    1    3    3    0    0  0.77713866610E+00  0.40258622471E+01  0.76535459743E+01  0.86826423156E+01  0.51100000000E-03 0.  1.
        -12    1    3    3    0    0 -0.26490573132E+02  0.27825937162E+02 -0.88963245014E+01  0.39435743094E+02  0.00000000000E+00 0.  1.
</event>
<event>
 7    1  0.1698110E-015  0.9000765E+02  0.7816164E-02  0.1186339E+00
        -11   -1    0    0    0    0  0.00000000000E+00  0.00000000000E+00  0.45593999997E+02  0.45594000000E+02  0.51100000000E-03 0. -1.
         11   -1    0    0    0    0 -0.00000000000E+00 -0.00000000000E+00 -0.45593999997E+02  0.45594000000E+02  0.51100000000E-03 0.  1.
    9900012    2    1    2    0    0 -0.59554778941E+00  0.13847623048E+00 -0.10096453985E+01  0.90007645534E+02  0.89999905655E+02 0.  0.
         12    1    1    2    0    0  0.59554778941E+00 -0.13847623048E+00  0.10096453985E+01  0.11803544665E+01  0.00000000000E+00 0. -1.
         11    1    3    3    0    0 -0.34676022066E+01  0.45535450864E+01 -0.66914477944E+01  0.88053683491E+01  0.51100000000E-03 0. -1.
        -11    1    3    3    0    0 -0.53567863452E+01 -0.34181109611E+02 -0.20929285249E+02  0.40436102625E+02  0.51100000000E-03 0.  1.
         12    1    3    3    0    0  0.82288407624E+01  0.29766040755E+02  0.26611087645E+02  0.40766174559E+02  0.00000000000E+00 0. -1.
</event>
<event>
 7    1  0.2117121E-015  0.9000779E+02  0.7816164E-02  0.1186339E+00
        -11   -1    0    0    0    0  0.00000000000E+00  0.00000000000E+00  0.45593999997E+02  0.45594000000E+02  0.51100000000E-03 0. -1.
         11   -1    0    0    0    0 -0.00000000000E+00 -0.00000000000E+00 -0.45593999997E+02  0.45594000000E+02  0.51100000000E-03 0.  1.
    9900012    2    1    2    0    0 -0.10670345728E+01 -0.38746163279E+00 -0.32281544508E+00  0.90007788533E+02  0.90000050541E+02 0.  0.
         12    1    1    2    0    0  0.10670345728E+01  0.38746163279E+00  0.32281544508E+00  0.11802114675E+01  0.00000000000E+00 0. -1.
         11    1    3    3    0    0 -0.10927025858E-01  0.58033157407E+01  0.72682570574E+01  0.93008684486E+01  0.51100000000E-03 0. -1.
        -11    1    3    3    0    0 -0.24379556735E+02  0.22263109686E+02 -0.23600599310E+02  0.40583212386E+02  0.51100000000E-03 0.  1.
         12    1    3    3    0    0  0.23323449188E+02 -0.28453887060E+02  0.16009526807E+02  0.40123707698E+02  0.00000000000E+00 0. -1.
</event>
<event>
 7    1  0.1698110E-015  0.9000777E+02  0.7816164E-02  0.1186339E+00
        -11   -1    0    0    0    0  0.00000000000E+00  0.00000000000E+00  0.45593999997E+02  0.45594000000E+02  0.51100000000E-03 0.  1.
         11   -1    0    0    0    0 -0.00000000000E+00 -0.00000000000E+00 -0.45593999997E+02  0.45594000000E+02  0.51100000000E-03 0. -1.
    9900012    2    1    2    0    0  0.68224391143E+00  0.94465005399E+00  0.18741718576E+00  0.90007768802E+02  0.90000030550E+02 0.  0.
         12    1    1    2    0    0 -0.68224391143E+00 -0.94465005399E+00 -0.18741718576E+00  0.11802311980E+01  0.00000000000E+00 0. -1.
         11    1    3    3    0    0 -0.34809129747E+02  0.83406182136E+01  0.59017361665E+01  0.36277705494E+02  0.51100000000E-03 0. -1.
        -11    1    3    3    0    0  0.15686993347E+01  0.45157587481E+01  0.12531234058E+02  0.13412111018E+02  0.51100000000E-03 0.  1.
        -12    1    3    3    0    0  0.33922674323E+02 -0.11911726908E+02 -0.18245553039E+02  0.40317952290E+02  0.00000000000E+00 0.  1.
</event>
<event>
 7    1  0.1698110E-015  0.9000777E+02  0.7816164E-02  0.1186339E+00
        -11   -1    0    0    0    0  0.00000000000E+00  0.00000000000E+00  0.45593999997E+02  0.45594000000E+02  0.51100000000E-03 0. -1.
         11   -1    0    0    0    0 -0.00000000000E+00 -0.00000000000E+00 -0.45593999997E+02  0.45594000000E+02  0.51100000000E-03 0.  1.
    9900012    2    1    2    0    0 -0.84277912000E+00 -0.27132452906E+00 -0.78040976920E+00  0.90007774152E+02  0.90000035970E+02 0.  0.
         12    1    1    2    0    0  0.84277912000E+00  0.27132452906E+00  0.78040976920E+00  0.11802258483E+01  0.00000000000E+00 0. -1.
         11    1    3    3    0    0 -0.36981781304E+02 -0.66039761488E+01  0.14110826443E+02  0.40129541145E+02  0.51100000000E-03 0. -1.
        -11    1    3    3    0    0 -0.21154345679E+01 -0.25785005479E+01 -0.97008201283E+01  0.10258149926E+02  0.51100000000E-03 0.  1.
        -12    1    3    3    0    0  0.38254436752E+02  0.89111521676E+01 -0.51904160841E+01  0.39620083080E+02  0.00000000000E+00 0.  1.
</event>
<event>
 7    1  0.1698110E-015  0.9000792E+02  0.7816164E-02  0.1186339E+00
        -11   -1    0    0    0    0  0.00000000000E+00  0.00000000000E+00  0.45593999997E+02  0.45594000000E+02  0.51100000000E-03 0.  1.
         11   -1    0    0    0    0 -0.00000000000E+00 -0.00000000000E+00 -0.45593999997E+02  0.45594000000E+02  0.51100000000E-03 0. -1.
    9900012    2    1    2    0    0  0.74529493738E+00  0.37178520437E+00 -0.83599967269E+00  0.90007921937E+02  0.90000185706E+02 0.  0.
         12    1    1    2    0    0 -0.74529493738E+00 -0.37178520437E+00  0.83599967269E+00  0.11800780629E+01  0.00000000000E+00 0. -1.
         11    1    3    3    0    0 -0.78804310162E+01  0.35464674088E+02 -0.84458151962E+01  0.37298473102E+02  0.51100000000E-03 0. -1.
        -11    1    3    3    0    0  0.79537964842E+00  0.36794029435E+01 -0.90404158800E+01  0.97928419956E+01  0.51100000000E-03 0.  1.
        -12    1    3    3    0    0  0.78303463051E+01 -0.38772291827E+02  0.16650231404E+02  0.42916606839E+02  0.00000000000E+00 0.  1.
</event>
<event>
 7    1  0.1698110E-015  0.9000752E+02  0.7816164E-02  0.1186339E+00
        -11   -1    0    0    0    0  0.00000000000E+00  0.00000000000E+00  0.45593999997E+02  0.45594000000E+02  0.51100000000E-03 0.  1.
         11   -1    0    0    0    0 -0.00000000000E+00 -0.00000000000E+00 -0.45593999997E+02  0.45594000000E+02  0.51100000000E-03 0. -1.
    9900012    2    1    2    0    0  0.19809995812E+00  0.11635883910E+01 -0.18510333365E-01  0.90007523753E+02  0.89999782266E+02 0.  0.
         12    1    1    2    0    0 -0.19809995812E+00 -0.11635883910E+01  0.18510333365E-01  0.11804762470E+01  0.00000000000E+00 0. -1.
         11    1    3    3    0    0  0.64827128962E+01 -0.16550899438E+00 -0.11249680996E+02  0.12984925201E+02  0.51100000000E-03 0. -1.
        -11    1    3    3    0    0 -0.41009517102E+02  0.32114625578E+01  0.94182130023E+01  0.42199487213E+02  0.51100000000E-03 0.  1.
         12    1    3    3    0    0  0.34724904163E+02 -0.18823651724E+01  0.18129576599E+01  0.34823111338E+02  0.00000000000E+00 0. -1.
</event>
<event>
 7    1  0.1698110E-015  0.9000775E+02  0.7816164E-02  0.1186339E+00
        -11   -1    0    0    0    0  0.00000000000E+00  0.00000000000E+00  0.45593999997E+02  0.45594000000E+02  0.51100000000E-03 0.  1.
         11   -1    0    0    0    0 -0.00000000000E+00 -0.00000000000E+00 -0.45593999997E+02  0.45594000000E+02  0.51100000000E-03 0. -1.
    9900012    2    1    2    0    0  0.86916285786E+00 -0.62140628122E+00 -0.50139713436E+00  0.90007750481E+02  0.90000011988E+02 0.  0.
         12    1    1    2    0    0 -0.86916285786E+00  0.62140628122E+00  0.50139713436E+00  0.11802495186E+01  0.00000000000E+00 0. -1.
         11    1    3    3    0    0 -0.19056554354E+00  0.54591300052E+01  0.57017810557E+01  0.78961207633E+01  0.51100000000E-03 0. -1.
        -11    1    3    3    0    0  0.36473431236E+01  0.89192233804E+01  0.35989548233E+02  0.37257257546E+02  0.51100000000E-03 0.  1.
         12    1    3    3    0    0 -0.25876147222E+01 -0.14999759667E+02 -0.42192726423E+02  0.44854372173E+02  0.00000000000E+00 0. -1.
</event>
<event>
 7    1  0.1698110E-015  0.9000776E+02  0.7816164E-02  0.1186339E+00
        -11   -1    0    0    0    0  0.00000000000E+00  0.00000000000E+00  0.45593999997E+02  0.45594000000E+02  0.51100000000E-03 0.  1.
         11   -1    0    0    0    0 -0.00000000000E+00 -0.00000000000E+00 -0.45593999997E+02  0.45594000000E+02  0.51100000000E-03 0. -1.
    9900012    2    1    2    0    0  0.62324987839E+00  0.49681245528E-01  0.10010277824E+01  0.90007760508E+02  0.90000022147E+02 0.  0.
         12    1    1    2    0    0 -0.62324987839E+00 -0.49681245528E-01 -0.10010277824E+01  0.11802394919E+01  0.00000000000E+00 0. -1.
         11    1    3    3    0    0 -0.29384271959E+02 -0.12814803850E+02  0.11214728604E+02  0.33962107918E+02  0.51100000000E-03 0. -1.
        -11    1    3    3    0    0  0.53182990400E+01 -0.14374680807E+02  0.51956724139E+01  0.16183657345E+02  0.51100000000E-03 0.  1.
        -12    1    3    3    0    0  0.24689222798E+02  0.27239165902E+02 -0.15409373236E+02  0.39861995245E+02  0.00000000000E+00 0.  1.
</event>
<event>
 7    1  0.1698110E-015  0.9000784E+02  0.7816164E-02  0.1186339E+00
        -11   -1    0    0    0    0  0.00000000000E+00  0.00000000000E+00  0.45593999997E+02  0.45594000000E+02  0.51100000000E-03 0.  1.
         11   -1    0    0    0    0 -0.00000000000E+00 -0.00000000000E+00 -0.45593999997E+02  0.45594000000E+02  0.51100000000E-03 0. -1.
    9900012    2    1    2    0    0  0.77668460130E-01  0.93209772499E+00  0.71967578145E+00  0.90007842473E+02  0.90000105193E+02 0.  0.
         12    1    1    2    0    0 -0.77668460130E-01 -0.93209772499E+00 -0.71967578145E+00  0.11801575272E+01  0.00000000000E+00 0. -1.
         11    1    3    3    0    0  0.58640086175E+01 -0.31381280707E+01  0.48961675366E+01  0.82587469789E+01  0.51100000000E-03 0. -1.
        -11    1    3    3    0    0  0.28402066269E+01 -0.37516805259E+02 -0.98690355282E+01  0.38896983341E+02  0.51100000000E-03 0.  1.
         12    1    3    3    0    0 -0.86265467843E+01  0.41587031055E+02  0.56925437731E+01  0.42852112153E+02  0.00000000000E+00 0. -1.
</event>
<event>
 7    1  0.1698110E-015  0.9000779E+02  0.7816164E-02  0.1186339E+00
        -11   -1    0    0    0    0  0.00000000000E+00  0.00000000000E+00  0.45593999997E+02  0.45594000000E+02  0.51100000000E-03 0.  1.
         11   -1    0    0    0    0 -0.00000000000E+00 -0.00000000000E+00 -0.45593999997E+02  0.45594000000E+02  0.51100000000E-03 0. -1.
    9900012    2    1    2    0    0  0.14950933638E+00 -0.72329887942E+00  0.92053687831E+00  0.90007787115E+02  0.90000049104E+02 0.  0.
         12    1    1    2    0    0 -0.14950933638E+00  0.72329887942E+00 -0.92053687831E+00  0.11802128854E+01  0.00000000000E+00 0. -1.
         11    1    3    3    0    0 -0.14456217700E+02 -0.10028490228E+02  0.94235168911E+01  0.19958845590E+02  0.51100000000E-03 0. -1.
        -11    1    3    3    0    0  0.39532599472E+01 -0.28980260586E+02  0.70168797035E+00  0.29257069814E+02  0.51100000000E-03 0.  1.
         12    1    3    3    0    0  0.10652467089E+02  0.38285451934E+02 -0.92046679831E+01  0.40791871710E+02  0.00000000000E+00 0. -1.
</event>
<event>
 7    1  0.1698110E-015  0.9000771E+02  0.7816164E-02  0.1186339E+00
        -11   -1    0    0    0    0  0.00000000000E+00  0.00000000000E+00  0.45593999997E+02  0.45594000000E+02  0.51100000000E-03 0. -1.
         11   -1    0    0    0    0 -0.00000000000E+00 -0.00000000000E+00 -0.45593999997E+02  0.45594000000E+02  0.51100000000E-03 0.  1.
    9900012    2    1    2    0    0  0.28457144989E+00 -0.73120573203E-01 -0.11431318716E+01  0.90007712745E+02  0.89999973753E+02 0.  0.
         12    1    1    2    0    0 -0.28457144989E+00  0.73120573203E-01  0.11431318716E+01  0.11802872550E+01  0.00000000000E+00 0. -1.
         11    1    3    3    0    0 -0.51713849448E+01  0.36031021839E+01  0.36978124592E+01  0.73074882716E+01  0.51100000000E-03 0. -1.
        -11    1    3    3    0    0  0.15256106761E+02  0.36434016619E+02  0.61431907098E+01  0.39974055997E+02  0.51100000000E-03 0.  1.
         12    1    3    3    0    0 -0.98001503667E+01 -0.40110239376E+02 -0.10984135041E+02  0.42726168476E+02  0.00000000000E+00 0. -1.
</event>
<event>
 7    1  0.1698110E-015  0.9000773E+02  0.7816164E-02  0.1186339E+00
        -11   -1    0    0    0    0  0.00000000000E+00  0.00000000000E+00  0.45593999997E+02  0.45594000000E+02  0.51100000000E-03 0. -1.
         11   -1    0    0    0    0 -0.00000000000E+00 -0.00000000000E+00 -0.45593999997E+02  0.45594000000E+02  0.51100000000E-03 0.  1.
    9900012    2    1    2    0    0  0.27594227187E+00  0.10698539916E+01 -0.41508667857E+00  0.90007733652E+02  0.89999994937E+02 0.  0.
         12    1    1    2    0    0 -0.27594227187E+00 -0.10698539916E+01  0.41508667857E+00  0.11802663477E+01  0.00000000000E+00 0. -1.
         11    1    3    3    0    0 -0.35360187171E+02 -0.14436658365E+02 -0.12765303334E+02  0.40270496781E+02  0.51100000000E-03 0. -1.
        -11    1    3    3    0    0  0.67208903683E+01 -0.81698045548E+01  0.47682658939E+01  0.11603983527E+02  0.51100000000E-03 0.  1.
        -12    1    3    3    0    0  0.28915239075E+02  0.23676316912E+02  0.75819507614E+01  0.38133253344E+02  0.00000000000E+00 0.  1.
</event>
<event>
 7    1  0.1698110E-015  0.9000777E+02  0.7816164E-02  0.1186339E+00
        -11   -1    0    0    0    0  0.00000000000E+00  0.00000000000E+00  0.45593999997E+02  0.45594000000E+02  0.51100000000E-03 0. -1.
         11   -1    0    0    0    0 -0.00000000000E+00 -0.00000000000E+00 -0.45593999997E+02  0.45594000000E+02  0.51100000000E-03 0.  1.
    9900012    2    1    2    0    0  0.11457734778E+01  0.12598937750E+00  0.25351563758E+00  0.90007771054E+02  0.90000032832E+02 0.  0.
         12    1    1    2    0    0 -0.11457734778E+01 -0.12598937750E+00 -0.25351563758E+00  0.11802289457E+01  0.00000000000E+00 0. -1.
         11    1    3    3    0    0  0.14288303533E+02 -0.19538446817E+02  0.25789036473E+02  0.35369208704E+02  0.51100000000E-03 0. -1.
        -11    1    3    3    0    0  0.84502130109E+00 -0.30600498109E+01  0.98331181232E+01  0.10332868824E+02  0.51100000000E-03 0.  1.
        -12    1    3    3    0    0 -0.13987551356E+02  0.22724486005E+02 -0.35368638958E+02  0.44305693527E+02  0.00000000000E+00 0.  1.
</event>
<event>
 7    1  0.1698110E-015  0.9000773E+02  0.7816164E-02  0.1186339E+00
        -11   -1    0    0    0    0  0.00000000000E+00  0.00000000000E+00  0.45593999997E+02  0.45594000000E+02  0.51100000000E-03 0.  1.
         11   -1    0    0    0    0 -0.00000000000E+00 -0.00000000000E+00 -0.45593999997E+02  0.45594000000E+02  0.51100000000E-03 0. -1.
    9900012    2    1    2    0    0 -0.58041016856E+00  0.10228027922E+01  0.10021586807E+00  0.90007726839E+02  0.89999988033E+02 0.  0.
         12    1    1    2    0    0  0.58041016856E+00 -0.10228027922E+01 -0.10021586807E+00  0.11802731615E+01  0.00000000000E+00 0. -1.
         11    1    3    3    0    0 -0.37952277108E+01 -0.63177305049E+01 -0.12944778474E+01  0.74828567585E+01  0.51100000000E-03 0. -1.
        -11    1    3    3    0    0 -0.17537509916E+02 -0.27287756241E+02 -0.18687371163E+02  0.37435327379E+02  0.51100000000E-03 0.  1.
         12    1    3    3    0    0  0.20752327459E+02  0.34628289538E+02  0.20082064878E+02  0.45089542701E+02  0.00000000000E+00 0. -1.
</event>
<event>
 7    1  0.1698110E-015  0.9000778E+02  0.7816164E-02  0.1186339E+00
        -11   -1    0    0    0    0  0.00000000000E+00  0.00000000000E+00  0.45593999997E+02  0.45594000000E+02  0.51100000000E-03 0.  1.
         11   -1    0    0    0    0 -0.00000000000E+00 -0.00000000000E+00 -0.45593999997E+02  0.45594000000E+02  0.51100000000E-03 0. -1.
    9900012    2    1    2    0    0  0.23653339075E-01 -0.10716724923E+01 -0.49383482588E+00  0.90007782119E+02  0.90000044043E+02 0.  0.
         12    1    1    2    0    0 -0.23653339075E-01  0.10716724923E+01  0.49383482588E+00  0.11802178809E+01  0.00000000000E+00 0. -1.
         11    1    3    3    0    0 -0.82842876477E+01 -0.39285463495E+02  0.21509525963E+01  0.40207010100E+02  0.51100000000E-03 0. -1.
        -11    1    3    3    0    0 -0.79990321550E+01  0.27294050545E+00  0.19824333565E+01  0.82455475385E+01  0.51100000000E-03 0.  1.
        -12    1    3    3    0    0  0.16306973142E+02  0.37940850497E+02 -0.46272207787E+01  0.41555224481E+02  0.00000000000E+00 0.  1.
</event>
<event>
 7    1  0.1698110E-015  0.9000774E+02  0.7816164E-02  0.1186339E+00
        -11   -1    0    0    0    0  0.00000000000E+00  0.00000000000E+00  0.45593999997E+02  0.45594000000E+02  0.51100000000E-03 0. -1.
         11   -1    0    0    0    0 -0.00000000000E+00 -0.00000000000E+00 -0.45593999997E+02  0.45594000000E+02  0.51100000000E-03 0.  1.
    9900012    2    1    2    0    0  0.83020149907E+00 -0.78288349515E+00  0.30146542361E+00  0.90007736259E+02  0.89999997578E+02 0.  0.
         12    1    1    2    0    0 -0.83020149907E+00  0.78288349515E+00 -0.30146542361E+00  0.11802637407E+01  0.00000000000E+00 0. -1.
         11    1    3    3    0    0  0.71170066575E+01 -0.28297734399E+00 -0.71482345943E+01  0.10091041473E+02  0.51100000000E-03 0. -1.
        -11    1    3    3    0    0  0.48288675321E+01 -0.27743751891E+02 -0.23889683674E+02  0.36928995612E+02  0.51100000000E-03 0.  1.
         12    1    3    3    0    0 -0.11115672691E+02  0.27243845740E+02  0.31339383692E+02  0.42987699174E+02  0.00000000000E+00 0. -1.
</event>
<event>
 7    1  0.1698110E-015  0.9000798E+02  0.7816164E-02  0.1186339E+00
        -11   -1    0    0    0    0  0.00000000000E+00  0.00000000000E+00  0.45593999997E+02  0.45594000000E+02  0.51100000000E-03 0.  1.
         11   -1    0    0    0    0 -0.00000000000E+00 -0.00000000000E+00 -0.45593999997E+02  0.45594000000E+02  0.51100000000E-03 0. -1.
    9900012    2    1    2    0    0 -0.83114087850E-01  0.81892313187E+00  0.84551922442E+00  0.90007980591E+02  0.90000245134E+02 0.  0.
         12    1    1    2    0    0  0.83114087850E-01 -0.81892313187E+00 -0.84551922442E+00  0.11800194093E+01  0.00000000000E+00 0. -1.
         11    1    3    3    0    0 -0.28934071477E+02 -0.55638973304E+01  0.19886281303E+02  0.35547174712E+02  0.51100000000E-03 0. -1.
        -11    1    3    3    0    0 -0.68569243449E+01 -0.53132528176E+01  0.48459511081E+01  0.99363629855E+01  0.51100000000E-03 0.  1.
        -12    1    3    3    0    0  0.35707881734E+02  0.11696073280E+02 -0.23886713186E+02  0.44524442893E+02  0.00000000000E+00 0.  1.
</event>
<event>
 7    1  0.1698110E-015  0.9000788E+02  0.7816164E-02  0.1186339E+00
        -11   -1    0    0    0    0  0.00000000000E+00  0.00000000000E+00  0.45593999997E+02  0.45594000000E+02  0.51100000000E-03 0.  1.
         11   -1    0    0    0    0 -0.00000000000E+00 -0.00000000000E+00 -0.45593999997E+02  0.45594000000E+02  0.51100000000E-03 0. -1.
    9900012    2    1    2    0    0  0.39947766749E+00 -0.89430140629E+00  0.65827233828E+00  0.90007881411E+02  0.90000144646E+02 0.  0.
         12    1    1    2    0    0 -0.39947766749E+00  0.89430140629E+00 -0.65827233828E+00  0.11801185887E+01  0.00000000000E+00 0. -1.
         11    1    3    3    0    0  0.57497567459E+01 -0.28291728264E+01  0.68864325064E+01  0.94067462199E+01  0.51100000000E-03 0. -1.
        -11    1    3    3    0    0 -0.25360731773E+02 -0.15717644370E+02 -0.31825862565E+02  0.43624495285E+02  0.51100000000E-03 0.  1.
         12    1    3    3    0    0  0.20010452695E+02  0.17652515790E+02  0.25597702397E+02  0.36976639906E+02  0.00000000000E+00 0. -1.
</event>
<event>
 7    1  0.1698110E-015  0.9000772E+02  0.7816164E-02  0.1186339E+00
        -11   -1    0    0    0    0  0.00000000000E+00  0.00000000000E+00  0.45593999997E+02  0.45594000000E+02  0.51100000000E-03 0.  1.
         11   -1    0    0    0    0 -0.00000000000E+00 -0.00000000000E+00 -0.45593999997E+02  0.45594000000E+02  0.51100000000E-03 0. -1.
    9900012    2    1    2    0    0 -0.87806258521E+00  0.77748939746E+00  0.13254470617E+00  0.90007723860E+02  0.89999985015E+02 0.  0.
         12    1    1    2    0    0  0.87806258521E+00 -0.77748939746E+00 -0.13254470617E+00  0.11802761397E+01  0.00000000000E+00 0. -1.
         11    1    3    3    0    0  0.86416027171E+01  0.35212489979E+01  0.96194639513E+00  0.93809292265E+01  0.51100000000E-03 0. -1.
        -11    1    3    3    0    0 -0.33006938341E+02  0.94441845238E+01  0.25907225898E+02  0.43009707672E+02  0.51100000000E-03 0.  1.
         12    1    3    3    0    0  0.23487273039E+02 -0.12187944124E+02 -0.26736627587E+02  0.37617086962E+02  0.00000000000E+00 0. -1.
</event>
<event>
 7    1  0.1698110E-015  0.9000773E+02  0.7816164E-02  0.1186339E+00
        -11   -1    0    0    0    0  0.00000000000E+00  0.00000000000E+00  0.45593999997E+02  0.45594000000E+02  0.51100000000E-03 0.  1.
         11   -1    0    0    0    0 -0.00000000000E+00 -0.00000000000E+00 -0.45593999997E+02  0.45594000000E+02  0.51100000000E-03 0. -1.
    9900012    2    1    2    0    0 -0.58619704134E+00 -0.99351890021E+00  0.24966170109E+00  0.90007729802E+02  0.89999991035E+02 0.  0.
         12    1    1    2    0    0  0.58619704134E+00  0.99351890021E+00 -0.24966170109E+00  0.11802701984E+01  0.00000000000E+00 0. -1.
         11    1    3    3    0    0  0.85719054678E+01  0.17485700205E+01  0.62758345102E+01  0.10766668915E+02  0.51100000000E-03 0. -1.
        -11    1    3    3    0    0 -0.85820048197E+01 -0.34492568345E+02  0.17597663187E+02  0.39661893899E+02  0.51100000000E-03 0.  1.
         12    1    3    3    0    0 -0.57609768943E+00  0.31750479424E+02 -0.23623835996E+02  0.39579166987E+02  0.00000000000E+00 0. -1.
</event>
<event>
 7    1  0.1698110E-015  0.9000775E+02  0.7816164E-02  0.1186339E+00
        -11   -1    0    0    0    0  0.00000000000E+00  0.00000000000E+00  0.45593999997E+02  0.45594000000E+02  0.51100000000E-03 0.  1.
         11   -1    0    0    0    0 -0.00000000000E+00 -0.00000000000E+00 -0.45593999997E+02  0.45594000000E+02  0.51100000000E-03 0. -1.
    9900012    2    1    2    0    0 -0.97557370435E+00 -0.15252147603E+00 -0.64652431436E+00  0.90007745560E+02  0.90000007002E+02 0.  0.
         12    1    1    2    0    0  0.97557370435E+00  0.15252147603E+00  0.64652431436E+00  0.11802544397E+01  0.00000000000E+00 0. -1.
         11    1    3    3    0    0  0.34413557886E+01  0.18727820272E+01 -0.36077444658E+02  0.36289561247E+02  0.51100000000E-03 0. -1.
        -11    1    3    3    0    0 -0.89872240744E+01 -0.85232637008E+01 -0.43682849881E+01  0.13133854525E+02  0.51100000000E-03 0.  1.
        -12    1    3    3    0    0  0.45702945815E+01  0.64979601975E+01  0.39799205332E+02  0.40584329788E+02  0.00000000000E+00 0.  1.
</event>
<event>
 7    1  0.1698110E-015  0.9000774E+02  0.7816164E-02  0.1186339E+00
        -11   -1    0    0    0    0  0.00000000000E+00  0.00000000000E+00  0.45593999997E+02  0.45594000000E+02  0.51100000000E-03 0.  1.
         11   -1    0    0    0    0 -0.00000000000E+00 -0.00000000000E+00 -0.45593999997E+02  0.45594000000E+02  0.51100000000E-03 0. -1.
    9900012    2    1    2    0    0  0.88346364149E-01  0.33153307482E+00  0.11292859296E+01  0.90007743261E+02  0.90000004672E+02 0.  0.
         12    1    1    2    0    0 -0.88346364149E-01 -0.33153307482E+00 -0.11292859296E+01  0.11802567392E+01  0.00000000000E+00 0. -1.
         11    1    3    3    0    0  0.29909488893E+02  0.10853144184E+02 -0.19124435020E+02  0.37122934685E+02  0.51100000000E-03 0. -1.
        -11    1    3    3    0    0  0.77495362125E+01 -0.60576928682E+01 -0.27362870450E+00  0.98400115510E+01  0.51100000000E-03 0.  1.
        -12    1    3    3    0    0 -0.37570678741E+02 -0.44639182408E+01  0.20527349654E+02  0.43044797025E+02  0.00000000000E+00 0.  1.
</event>
<event>
 7    1  0.1698110E-015  0.9000763E+02  0.7816164E-02  0.1186339E+00
        -11   -1    0    0    0    0  0.00000000000E+00  0.00000000000E+00  0.45593999997E+02  0.45594000000E+02  0.51100000000E-03 0. -1.
         11   -1    0    0    0    0 -0.00000000000E+00 -0.00000000000E+00 -0.45593999997E+02  0.45594000000E+02  0.51100000000E-03 0.  1.
    9900012    2    1    2    0    0 -0.11420240749E+01  0.93800381347E-01 -0.28330062534E+00  0.90007628557E+02  0.89999888454E+02 0.  0.
         12    1    1    2    0    0  0.11420240749E+01 -0.93800381347E-01  0.28330062534E+00  0.11803714430E+01  0.00000000000E+00 0. -1.
         11    1    3    3    0    0 -0.38657826005E+02  0.74228577240E+01  0.68059032968E+01  0.39948049366E+02  0.51100000000E-03 0. -1.
        -11    1    3    3    0    0 -0.23482658276E+01 -0.90885239411E+01  0.66400665826E+00  0.94104476476E+01  0.51100000000E-03 0.  1.
        -12    1    3    3    0    0  0.39864067758E+02  0.17594665984E+01 -0.77532105804E+01  0.40649131543E+02  0.00000000000E+00 0.  1.
</event>
<event>
 7    1  0.1698110E-015  0.9000738E+02  0.7816164E-02  0.1186340E+00
        -11   -1    0    0    0    0  0.00000000000E+00  0.00000000000E+00  0.45593999997E+02  0.45594000000E+02  0.51100000000E-03 0.  1.
         11   -1    0    0    0    0 -0.00000000000E+00 -0.00000000000E+00 -0.45593999997E+02  0.45594000000E+02  0.51100000000E-03 0. -1.
    9900012    2    1    2    0    0  0.10153437734E+01 -0.18725074329E+00  0.57259859787E+00  0.90007383647E+02  0.89999640310E+02 0.  0.
         12    1    1    2    0    0 -0.10153437734E+01  0.18725074329E+00 -0.57259859787E+00  0.11806163531E+01  0.00000000000E+00 0. -1.
         11    1    3    3    0    0 -0.88537598541E+01 -0.48111390023E+01  0.17719171288E+01  0.10231119813E+02  0.51100000000E-03 0. -1.
        -11    1    3    3    0    0 -0.25786393797E+02  0.26236288959E+02 -0.76835501759E+01  0.37580818338E+02  0.51100000000E-03 0.  1.
         12    1    3    3    0    0  0.35655497424E+02 -0.21612400700E+02  0.64842316450E+01  0.42195445496E+02  0.00000000000E+00 0. -1.
</event>
<event>
 7    1  0.1698110E-015  0.9000747E+02  0.7816164E-02  0.1186340E+00
        -11   -1    0    0    0    0  0.00000000000E+00  0.00000000000E+00  0.45593999997E+02  0.45594000000E+02  0.51100000000E-03 0.  1.
         11   -1    0    0    0    0 -0.00000000000E+00 -0.00000000000E+00 -0.45593999997E+02  0.45594000000E+02  0.51100000000E-03 0. -1.
    9900012    2    1    2    0    0 -0.87535411380E-01 -0.83006584709E+00 -0.83485467303E+00  0.90007468728E+02  0.89999726515E+02 0.  0.
         12    1    1    2    0    0  0.87535411380E-01  0.83006584709E+00  0.83485467303E+00  0.11805312719E+01  0.00000000000E+00 0. -1.
         11    1    3    3    0    0  0.29122665327E+02  0.23215811923E+02  0.23627031762E+00  0.37244588640E+02  0.51100000000E-03 0. -1.
        -11    1    3    3    0    0  0.64069416901E+01 -0.14110425914E+02 -0.27899648612E+01  0.15746013003E+02  0.51100000000E-03 0.  1.
        -12    1    3    3    0    0 -0.35617142428E+02 -0.99354518564E+01  0.17188398706E+01  0.37016867086E+02  0.00000000000E+00 0.  1.
</event>
<event>
 7    1  0.1698110E-015  0.9000801E+02  0.7816164E-02  0.1186338E+00
        -11   -1    0    0    0    0  0.00000000000E+00  0.00000000000E+00  0.45593999997E+02  0.45594000000E+02  0.51100000000E-03 0. -1.
         11   -1    0    0    0    0 -0.00000000000E+00 -0.00000000000E+00 -0.45593999997E+02  0.45594000000E+02  0.51100000000E-03 0.  1.
    9900012    2    1    2    0    0 -0.88342991086E+00 -0.60026009876E+00 -0.50160320883E+00  0.90008014249E+02  0.90000279237E+02 0.  0.
         12    1    1    2    0    0  0.88342991086E+00  0.60026009876E+00  0.50160320883E+00  0.11799857510E+01  0.00000000000E+00 0. -1.
         11    1    3    3    0    0 -0.31981758251E+02  0.26893525059E+02  0.90255602443E+01  0.42749915659E+02  0.51100000000E-03 0. -1.
        -11    1    3    3    0    0 -0.79519464988E+00 -0.58381942927E+01 -0.62169579984E+01  0.85654780454E+01  0.51100000000E-03 0.  1.
        -12    1    3    3    0    0  0.31893522990E+02 -0.21655590865E+02 -0.33102054548E+01  0.38692620544E+02  0.00000000000E+00 0.  1.
</event>
<event>
 7    1  0.1698110E-015  0.9000725E+02  0.7816164E-02  0.1186340E+00
        -11   -1    0    0    0    0  0.00000000000E+00  0.00000000000E+00  0.45593999997E+02  0.45594000000E+02  0.51100000000E-03 0.  1.
         11   -1    0    0    0    0 -0.00000000000E+00 -0.00000000000E+00 -0.45593999997E+02  0.45594000000E+02  0.51100000000E-03 0. -1.
    9900012    2    1    2    0    0  0.75262920866E+00  0.85818792791E+00  0.30204621521E+00  0.90007250593E+02  0.89999505500E+02 0.  0.
         12    1    1    2    0    0 -0.75262920866E+00 -0.85818792791E+00 -0.30204621521E+00  0.11807494067E+01  0.00000000000E+00 0. -1.
         11    1    3    3    0    0 -0.17197560766E+02  0.31175334823E+02  0.17693132478E+02  0.39758075089E+02  0.51100000000E-03 0. -1.
        -11    1    3    3    0    0  0.39533259786E+01  0.28309834441E+00  0.74398796198E+01  0.84297532576E+01  0.51100000000E-03 0.  1.
        -12    1    3    3    0    0  0.13996863996E+02 -0.30600245239E+02 -0.24830965882E+02  0.41819422247E+02  0.00000000000E+00 0.  1.
</event>
<event>
 7    1  0.1698110E-015  0.9000768E+02  0.7816164E-02  0.1186339E+00
        -11   -1    0    0    0    0  0.00000000000E+00  0.00000000000E+00  0.45593999997E+02  0.45594000000E+02  0.51100000000E-03 0.  1.
         11   -1    0    0    0    0 -0.00000000000E+00 -0.00000000000E+00 -0.45593999997E+02  0.45594000000E+02  0.51100000000E-03 0. -1.
    9900012    2    1    2    0    0 -0.47422760898E+00  0.27585835127E+00  0.10450624349E+01  0.90007684302E+02  0.89999944934E+02 0.  0.
         12    1    1    2    0    0  0.47422760898E+00 -0.27585835127E+00 -0.10450624349E+01  0.11803156984E+01  0.00000000000E+00 0. -1.
         11    1    3    3    0    0 -0.86445119077E+01 -0.45631140837E+01 -0.17952345334E+01  0.99384336570E+01  0.51100000000E-03 0. -1.
        -11    1    3    3    0    0  0.23775146190E+02  0.23619904937E+02  0.28975054011E+02  0.44302497004E+02  0.51100000000E-03 0.  1.
         12    1    3    3    0    0 -0.15604861891E+02 -0.18780932502E+02 -0.26134757043E+02  0.35766753640E+02  0.00000000000E+00 0. -1.
</event>
<event>
 7    1  0.1698110E-015  0.9000773E+02  0.7816164E-02  0.1186339E+00
        -11   -1    0    0    0    0  0.00000000000E+00  0.00000000000E+00  0.45593999997E+02  0.45594000000E+02  0.51100000000E-03 0.  1.
         11   -1    0    0    0    0 -0.00000000000E+00 -0.00000000000E+00 -0.45593999997E+02  0.45594000000E+02  0.51100000000E-03 0. -1.
    9900012    2    1    2    0    0 -0.43973429244E-01  0.65664769899E+00  0.97975373927E+00  0.90007730009E+02  0.89999991245E+02 0.  0.
         12    1    1    2    0    0  0.43973429244E-01 -0.65664769899E+00 -0.97975373927E+00  0.11802699914E+01  0.00000000000E+00 0. -1.
         11    1    3    3    0    0  0.69774523295E+01  0.12344943874E+01  0.72827694880E+01  0.10161080114E+02  0.51100000000E-03 0. -1.
        -11    1    3    3    0    0 -0.21688670080E+02 -0.21802932118E+02  0.24749056847E+02  0.39475081682E+02  0.51100000000E-03 0.  1.
         12    1    3    3    0    0  0.14667244321E+02  0.21225085429E+02 -0.31052072596E+02  0.40371568212E+02  0.00000000000E+00 0. -1.
</event>
<event>
 7    1  0.1698110E-015  0.9000774E+02  0.7816164E-02  0.1186339E+00
        -11   -1    0    0    0    0  0.00000000000E+00  0.00000000000E+00  0.45593999997E+02  0.45594000000E+02  0.51100000000E-03 0.  1.
         11   -1    0    0    0    0 -0.00000000000E+00 -0.00000000000E+00 -0.45593999997E+02  0.45594000000E+02  0.51100000000E-03 0. -1.
    9900012    2    1    2    0    0  0.10379469873E+00  0.10955704243E+01 -0.42658277886E+00  0.90007736995E+02  0.89999998323E+02 0.  0.
         12    1    1    2    0    0 -0.10379469873E+00 -0.10955704243E+01  0.42658277886E+00  0.11802630051E+01  0.00000000000E+00 0. -1.
         11    1    3    3    0    0 -0.13985087100E+02 -0.48388981594E+01  0.28780388417E+02  0.32362143845E+02  0.51100000000E-03 0. -1.
        -11    1    3    3    0    0 -0.59928465214E+01 -0.36963387392E+01  0.10191828942E+02  0.12387514155E+02  0.51100000000E-03 0.  1.
        -12    1    3    3    0    0  0.20081728320E+02  0.96308073228E+01 -0.39398800137E+02  0.45258078994E+02  0.00000000000E+00 0.  1.
</event>
<event>
 7    1  0.2457674E-015  0.9000778E+02  0.7816164E-02  0.1186339E+00
        -11   -1    0    0    0    0  0.00000000000E+00  0.00000000000E+00  0.45593999997E+02  0.45594000000E+02  0.51100000000E-03 0. -1.
         11   -1    0    0    0    0 -0.00000000000E+00 -0.00000000000E+00 -0.45593999997E+02  0.45594000000E+02  0.51100000000E-03 0.  1.
    9900012    2    1    2    0    0  0.10715216608E+01  0.39012555475E+00 -0.30425001732E+00  0.90007777694E+02  0.90000039560E+02 0.  0.
         12    1    1    2    0    0 -0.10715216608E+01 -0.39012555475E+00  0.30425001732E+00  0.11802223058E+01  0.00000000000E+00 0. -1.
         11    1    3    3    0    0 -0.61240201756E+00 -0.56130167298E+01  0.76462389130E+01  0.95050493326E+01  0.51100000000E-03 0. -1.
        -11    1    3    3    0    0  0.33978500509E+02  0.63874290179E+01 -0.26224638561E+02  0.43394347722E+02  0.51100000000E-03 0.  1.
         12    1    3    3    0    0 -0.32294576830E+02 -0.38428673337E+00  0.18274149631E+02  0.37108380640E+02  0.00000000000E+00 0. -1.
</event>
<event>
 7    1  0.1698110E-015  0.9000775E+02  0.7816164E-02  0.1186339E+00
        -11   -1    0    0    0    0  0.00000000000E+00  0.00000000000E+00  0.45593999997E+02  0.45594000000E+02  0.51100000000E-03 0.  1.
         11   -1    0    0    0    0 -0.00000000000E+00 -0.00000000000E+00 -0.45593999997E+02  0.45594000000E+02  0.51100000000E-03 0. -1.
    9900012    2    1    2    0    0  0.28017709341E+00 -0.46687260885E+00  0.10471494495E+01  0.90007749515E+02  0.90000011009E+02 0.  0.
         12    1    1    2    0    0 -0.28017709341E+00  0.46687260885E+00 -0.10471494495E+01  0.11802504845E+01  0.00000000000E+00 0. -1.
         11    1    3    3    0    0  0.66719725632E+01 -0.69425749500E+01 -0.45148901073E+01  0.10634791853E+02  0.51100000000E-03 0. -1.
        -11    1    3    3    0    0  0.17460300168E+02 -0.27507093855E+02 -0.11408534839E+02  0.34520384727E+02  0.51100000000E-03 0.  1.
         12    1    3    3    0    0 -0.23852095638E+02  0.33982796196E+02  0.16970574396E+02  0.44852572935E+02  0.00000000000E+00 0. -1.
</event>
<event>
 7    1  0.1698110E-015  0.9000777E+02  0.7816164E-02  0.1186339E+00
        -11   -1    0    0    0    0  0.00000000000E+00  0.00000000000E+00  0.45593999997E+02  0.45594000000E+02  0.51100000000E-03 0.  1.
         11   -1    0    0    0    0 -0.00000000000E+00 -0.00000000000E+00 -0.45593999997E+02  0.45594000000E+02  0.51100000000E-03 0. -1.
    9900012    2    1    2    0    0  0.78347831904E+00  0.27087996241E+00  0.84007058143E+00  0.90007774254E+02  0.90000036074E+02 0.  0.
         12    1    1    2    0    0 -0.78347831904E+00 -0.27087996241E+00 -0.84007058143E+00  0.11802257463E+01  0.00000000000E+00 0. -1.
         11    1    3    3    0    0  0.87243948768E+01 -0.16080037679E+01 -0.32463750431E+00  0.88772817829E+01  0.51100000000E-03 0. -1.
        -11    1    3    3    0    0  0.68106433194E+01 -0.15533049494E+02  0.35822164948E+02  0.39634429362E+02  0.51100000000E-03 0.  1.
         12    1    3    3    0    0 -0.14751559877E+02  0.17411933225E+02 -0.34657456862E+02  0.41496063109E+02  0.00000000000E+00 0. -1.
</event>
<event>
 7    1  0.1698110E-015  0.9000782E+02  0.7816164E-02  0.1186339E+00
        -11   -1    0    0    0    0  0.00000000000E+00  0.00000000000E+00  0.45593999997E+02  0.45594000000E+02  0.51100000000E-03 0.  1.
         11   -1    0    0    0    0 -0.00000000000E+00 -0.00000000000E+00 -0.45593999997E+02  0.45594000000E+02  0.51100000000E-03 0. -1.
    9900012    2    1    2    0    0 -0.95336076650E+00 -0.63409371686E+00  0.28608681342E+00  0.90007823209E+02  0.90000085675E+02 0.  0.
         12    1    1    2    0    0  0.95336076650E+00  0.63409371686E+00 -0.28608681342E+00  0.11801767909E+01  0.00000000000E+00 0. -1.
         11    1    3    3    0    0 -0.25154557902E+00 -0.10088825011E+02  0.29267270920E+01  0.10507777929E+02  0.51100000000E-03 0. -1.
        -11    1    3    3    0    0  0.82563465697E+00 -0.48066744098E+01  0.37012590538E+02  0.37332528043E+02  0.51100000000E-03 0.  1.
         12    1    3    3    0    0 -0.15274498445E+01  0.14261405704E+02 -0.39653230817E+02  0.42167517237E+02  0.00000000000E+00 0. -1.
</event>
<event>
 7    1  0.1698110E-015  0.9000771E+02  0.7816164E-02  0.1186339E+00
        -11   -1    0    0    0    0  0.00000000000E+00  0.00000000000E+00  0.45593999997E+02  0.45594000000E+02  0.51100000000E-03 0. -1.
         11   -1    0    0    0    0 -0.00000000000E+00 -0.00000000000E+00 -0.45593999997E+02  0.45594000000E+02  0.51100000000E-03 0.  1.
    9900012    2    1    2    0    0 -0.82894756262E+00 -0.12938185248E+00 -0.83017978730E+00  0.90007706729E+02  0.89999967658E+02 0.  0.
         12    1    1    2    0    0  0.82894756262E+00  0.12938185248E+00  0.83017978730E+00  0.11802932706E+01  0.00000000000E+00 0. -1.
         11    1    3    3    0    0  0.12850888778E+02  0.22021633241E+02  0.24060681557E+02  0.35057296961E+02  0.51100000000E-03 0. -1.
        -11    1    3    3    0    0 -0.10268470604E+02  0.67305141275E+01  0.49903274078E+01  0.13253100651E+02  0.51100000000E-03 0.  1.
        -12    1    3    3    0    0 -0.34113657362E+01 -0.28881529221E+02 -0.29881188753E+02  0.41697309117E+02  0.00000000000E+00 0.  1.
</event>
<event>
 7    1  0.1698110E-015  0.9000777E+02  0.7816164E-02  0.1186339E+00
        -11   -1    0    0    0    0  0.00000000000E+00  0.00000000000E+00  0.45593999997E+02  0.45594000000E+02  0.51100000000E-03 0.  1.
         11   -1    0    0    0    0 -0.00000000000E+00 -0.00000000000E+00 -0.45593999997E+02  0.45594000000E+02  0.51100000000E-03 0. -1.
    9900012    2    1    2    0    0  0.18443614148E+00 -0.39056993667E+00  0.10983503057E+01  0.90007773344E+02  0.90000035152E+02 0.  0.
         12    1    1    2    0    0 -0.18443614148E+00  0.39056993667E+00 -0.10983503057E+01  0.11802266561E+01  0.00000000000E+00 0. -1.
         11    1    3    3    0    0  0.20801332514E+02  0.23599109768E+02 -0.19568038645E+02  0.37047557988E+02  0.51100000000E-03 0. -1.
        -11    1    3    3    0    0  0.10761337950E+02 -0.50638475986E+01  0.29264611396E+01  0.12247984407E+02  0.51100000000E-03 0.  1.
        -12    1    3    3    0    0 -0.31378234322E+02 -0.18925832106E+02  0.17739927811E+02  0.40712230949E+02  0.00000000000E+00 0.  1.
</event>
<event>
 7    1  0.1698110E-015  0.9000852E+02  0.7816164E-02  0.1186337E+00
        -11   -1    0    0    0    0  0.00000000000E+00  0.00000000000E+00  0.45593999997E+02  0.45594000000E+02  0.51100000000E-03 0.  1.
         11   -1    0    0    0    0 -0.00000000000E+00 -0.00000000000E+00 -0.45593999997E+02  0.45594000000E+02  0.51100000000E-03 0. -1.
    9900012    2    1    2    0    0 -0.61469832138E+00 -0.86164941263E+00  0.52046776666E+00  0.90008516879E+02  0.90000788498E+02 0.  0.
         12    1    1    2    0    0  0.61469832138E+00  0.86164941263E+00 -0.52046776666E+00  0.11794831210E+01  0.00000000000E+00 0. -1.
         11    1    3    3    0    0 -0.47953986212E+01 -0.22394820960E+02 -0.28413375327E+02  0.36494434528E+02  0.51100000000E-03 0. -1.
        -11    1    3    3    0    0 -0.76430624792E+01  0.73667770536E+01 -0.72788302981E+01  0.12871176286E+02  0.51100000000E-03 0.  1.
        -12    1    3    3    0    0  0.11823762779E+02  0.14166394494E+02  0.36212673392E+02  0.40642906065E+02  0.00000000000E+00 0.  1.
</event>
<event>
 7    1  0.1698110E-015  0.9000778E+02  0.7816164E-02  0.1186339E+00
        -11   -1    0    0    0    0  0.00000000000E+00  0.00000000000E+00  0.45593999997E+02  0.45594000000E+02  0.51100000000E-03 0.  1.
         11   -1    0    0    0    0 -0.00000000000E+00 -0.00000000000E+00 -0.45593999997E+02  0.45594000000E+02  0.51100000000E-03 0. -1.
    9900012    2    1    2    0    0  0.63989795908E+00 -0.80760456470E+00  0.57551324961E+00  0.90007783905E+02  0.90000045852E+02 0.  0.
         12    1    1    2    0    0 -0.63989795908E+00  0.80760456470E+00 -0.57551324961E+00  0.11802160952E+01  0.00000000000E+00 0. -1.
         11    1    3    3    0    0 -0.24336865942E+02  0.16207967114E+02  0.15730912645E+02  0.33203054901E+02  0.51100000000E-03 0. -1.
        -11    1    3    3    0    0  0.31423286885E+00 -0.13862170349E+02  0.13164141025E+02  0.19119443461E+02  0.51100000000E-03 0.  1.
         12    1    3    3    0    0  0.24662531032E+02 -0.31534013294E+01 -0.28319540420E+02  0.37685285543E+02  0.00000000000E+00 0. -1.
</event>
<event>
 7    1  0.1698110E-015  0.9000781E+02  0.7816164E-02  0.1186339E+00
        -11   -1    0    0    0    0  0.00000000000E+00  0.00000000000E+00  0.45593999997E+02  0.45594000000E+02  0.51100000000E-03 0.  1.
         11   -1    0    0    0    0 -0.00000000000E+00 -0.00000000000E+00 -0.45593999997E+02  0.45594000000E+02  0.51100000000E-03 0. -1.
    9900012    2    1    2    0    0  0.14803606174E-01  0.10948901465E+01 -0.44026981058E+00  0.90007813114E+02  0.90000075447E+02 0.  0.
         12    1    1    2    0    0 -0.14803606174E-01 -0.10948901465E+01  0.44026981058E+00  0.11801868859E+01  0.00000000000E+00 0. -1.
         11    1    3    3    0    0  0.20448878540E+02  0.23248514400E+02  0.56692029188E+01  0.31476815553E+02  0.51100000000E-03 0. -1.
        -11    1    3    3    0    0  0.29035080180E+00 -0.56659151159E+01  0.20331445211E+02  0.21108163405E+02  0.51100000000E-03 0.  1.
         12    1    3    3    0    0 -0.20724425736E+02 -0.16487709138E+02 -0.26440917941E+02  0.37422834156E+02  0.00000000000E+00 0. -1.
</event>
<event>
 7    1  0.1698110E-015  0.9000774E+02  0.7816164E-02  0.1186339E+00
        -11   -1    0    0    0    0  0.00000000000E+00  0.00000000000E+00  0.45593999997E+02  0.45594000000E+02  0.51100000000E-03 0. -1.
         11   -1    0    0    0    0 -0.00000000000E+00 -0.00000000000E+00 -0.45593999997E+02  0.45594000000E+02  0.51100000000E-03 0.  1.
    9900012    2    1    2    0    0 -0.36982291464E+00 -0.18792415207E+00 -0.11049560139E+01  0.90007740593E+02  0.90000001969E+02 0.  0.
         12    1    1    2    0    0  0.36982291464E+00  0.18792415207E+00  0.11049560139E+01  0.11802594070E+01  0.00000000000E+00 0. -1.
         11    1    3    3    0    0 -0.25190994733E+02  0.34278656985E+02  0.10923124978E+01  0.42553562567E+02  0.51100000000E-03 0. -1.
        -11    1    3    3    0    0  0.58499668665E+01 -0.28808724124E+00 -0.57432663293E+01  0.82030613181E+01  0.51100000000E-03 0.  1.
        -12    1    3    3    0    0  0.18971204952E+02 -0.34178493896E+02  0.35459978176E+01  0.39251116708E+02  0.00000000000E+00 0.  1.
</event>
<event>
 7    1  0.1698110E-015  0.9000773E+02  0.7816164E-02  0.1186339E+00
        -11   -1    0    0    0    0  0.00000000000E+00  0.00000000000E+00  0.45593999997E+02  0.45594000000E+02  0.51100000000E-03 0.  1.
         11   -1    0    0    0    0 -0.00000000000E+00 -0.00000000000E+00 -0.45593999997E+02  0.45594000000E+02  0.51100000000E-03 0. -1.
    9900012    2    1    2    0    0  0.10163720167E+01  0.51404317547E+00 -0.30950542429E+00  0.90007726273E+02  0.89999987460E+02 0.  0.
         12    1    1    2    0    0 -0.10163720167E+01 -0.51404317547E+00  0.30950542429E+00  0.11802737269E+01  0.00000000000E+00 0. -1.
         11    1    3    3    0    0  0.41866686335E+01 -0.38812288112E+02 -0.36525109189E+01  0.39207942295E+02  0.51100000000E-03 0. -1.
        -11    1    3    3    0    0 -0.79694867345E+01 -0.31135064675E+00 -0.57723957946E+01  0.98453141904E+01  0.51100000000E-03 0.  1.
        -12    1    3    3    0    0  0.47991901177E+01  0.39637681934E+02  0.91154012892E+01  0.40954469788E+02  0.00000000000E+00 0.  1.
</event>
<event>
 7    1  0.1698110E-015  0.9000783E+02  0.7816164E-02  0.1186339E+00
        -11   -1    0    0    0    0  0.00000000000E+00  0.00000000000E+00  0.45593999997E+02  0.45594000000E+02  0.51100000000E-03 0.  1.
         11   -1    0    0    0    0 -0.00000000000E+00 -0.00000000000E+00 -0.45593999997E+02  0.45594000000E+02  0.51100000000E-03 0. -1.
    9900012    2    1    2    0    0 -0.33891866006E+00 -0.10334340796E+01 -0.45820170327E+00  0.90007830243E+02  0.90000092802E+02 0.  0.
         12    1    1    2    0    0  0.33891866006E+00  0.10334340796E+01  0.45820170327E+00  0.11801697572E+01  0.00000000000E+00 0. -1.
         11    1    3    3    0    0  0.15520714790E+01  0.73818307870E+01 -0.35219927402E+01  0.83249495354E+01  0.51100000000E-03 0. -1.
        -11    1    3    3    0    0 -0.35150118619E+02  0.12316805862E+02  0.15821940208E+02  0.40466879516E+02  0.51100000000E-03 0.  1.
         12    1    3    3    0    0  0.33259128480E+02 -0.20732070729E+02 -0.12758149171E+02  0.41216001191E+02  0.00000000000E+00 0. -1.
</event>
<event>
 7    1  0.1698110E-015  0.9000771E+02  0.7816164E-02  0.1186339E+00
        -11   -1    0    0    0    0  0.00000000000E+00  0.00000000000E+00  0.45593999997E+02  0.45594000000E+02  0.51100000000E-03 0. -1.
         11   -1    0    0    0    0 -0.00000000000E+00 -0.00000000000E+00 -0.45593999997E+02  0.45594000000E+02  0.51100000000E-03 0.  1.
    9900012    2    1    2    0    0 -0.22972543090E+00 -0.10959410526E+01 -0.37312021929E+00  0.90007712212E+02  0.89999973213E+02 0.  0.
         12    1    1    2    0    0  0.22972543090E+00  0.10959410526E+01  0.37312021929E+00  0.11802877880E+01  0.00000000000E+00 0. -1.
         11    1    3    3    0    0  0.79215639963E+01 -0.41771463560E+01 -0.55228761186E+01  0.10521496505E+02  0.51100000000E-03 0. -1.
        -11    1    3    3    0    0  0.80637006717E+01  0.29128955845E+02 -0.22895738853E+02  0.37917465568E+02  0.51100000000E-03 0.  1.
         12    1    3    3    0    0 -0.16214990099E+02 -0.26047750542E+02  0.28045494753E+02  0.41568750139E+02  0.00000000000E+00 0. -1.
</event>
<event>
 7    1  0.1698110E-015  0.9000769E+02  0.7816164E-02  0.1186339E+00
        -11   -1    0    0    0    0  0.00000000000E+00  0.00000000000E+00  0.45593999997E+02  0.45594000000E+02  0.51100000000E-03 0.  1.
         11   -1    0    0    0    0 -0.00000000000E+00 -0.00000000000E+00 -0.45593999997E+02  0.45594000000E+02  0.51100000000E-03 0. -1.
    9900012    2    1    2    0    0  0.11269975872E+01 -0.11922212252E+00  0.32985095311E+00  0.90007686852E+02  0.89999947518E+02 0.  0.
         12    1    1    2    0    0 -0.11269975872E+01  0.11922212252E+00 -0.32985095311E+00  0.11803131480E+01  0.00000000000E+00 0. -1.
         11    1    3    3    0    0 -0.53859819565E+01  0.38680855477E+02 -0.96455616792E+01  0.40227530901E+02  0.51100000000E-03 0. -1.
        -11    1    3    3    0    0 -0.44327404733E+01 -0.43560812660E+01 -0.74128628886E+01  0.96734258961E+01  0.51100000000E-03 0.  1.
        -12    1    3    3    0    0  0.10945720017E+02 -0.34443996333E+02  0.17388275521E+02  0.40106730055E+02  0.00000000000E+00 0.  1.
</event>
<event>
 7    1  0.1698110E-015  0.9000774E+02  0.7816164E-02  0.1186339E+00
        -11   -1    0    0    0    0  0.00000000000E+00  0.00000000000E+00  0.45593999997E+02  0.45594000000E+02  0.51100000000E-03 0.  1.
         11   -1    0    0    0    0 -0.00000000000E+00 -0.00000000000E+00 -0.45593999997E+02  0.45594000000E+02  0.51100000000E-03 0. -1.
    9900012    2    1    2    0    0  0.62313688617E+00 -0.36235325153E+00  0.93456673434E+00  0.90007739673E+02  0.90000001037E+02 0.  0.
         12    1    1    2    0    0 -0.62313688617E+00  0.36235325153E+00 -0.93456673434E+00  0.11802603267E+01  0.00000000000E+00 0. -1.
         11    1    3    3    0    0  0.33261588935E+02 -0.22915561704E+02 -0.10100477279E+02  0.41635032223E+02  0.51100000000E-03 0. -1.
        -11    1    3    3    0    0  0.21458227786E+01  0.83801386498E+01  0.58799592824E+01  0.10459694097E+02  0.51100000000E-03 0.  1.
        -12    1    3    3    0    0 -0.34784274828E+02  0.14173069802E+02  0.51550847306E+01  0.37913013353E+02  0.00000000000E+00 0.  1.
</event>
<event>
 7    1  0.1698110E-015  0.9000782E+02  0.7816164E-02  0.1186339E+00
        -11   -1    0    0    0    0  0.00000000000E+00  0.00000000000E+00  0.45593999997E+02  0.45594000000E+02  0.51100000000E-03 0.  1.
         11   -1    0    0    0    0 -0.00000000000E+00 -0.00000000000E+00 -0.45593999997E+02  0.45594000000E+02  0.51100000000E-03 0. -1.
    9900012    2    1    2    0    0 -0.39592446630E+00  0.62717750846E+00  0.91799628733E+00  0.90007819932E+02  0.90000082355E+02 0.  0.
         12    1    1    2    0    0  0.39592446630E+00 -0.62717750846E+00 -0.91799628733E+00  0.11801800683E+01  0.00000000000E+00 0. -1.
         11    1    3    3    0    0 -0.40608570638E+01 -0.35947961216E-03 -0.33733060029E+02  0.33976608121E+02  0.51100000000E-03 0. -1.
        -11    1    3    3    0    0  0.27747480005E+01  0.32078737504E+01 -0.10226262810E+02  0.11070958937E+02  0.51100000000E-03 0.  1.
        -12    1    3    3    0    0  0.89018459703E+00 -0.25803367623E+01  0.44877319127E+02  0.44960252873E+02  0.00000000000E+00 0.  1.
</event>
<event>
 7    1  0.1698110E-015  0.9000778E+02  0.7816164E-02  0.1186339E+00
        -11   -1    0    0    0    0  0.00000000000E+00  0.00000000000E+00  0.45593999997E+02  0.45594000000E+02  0.51100000000E-03 0.  1.
         11   -1    0    0    0    0 -0.00000000000E+00 -0.00000000000E+00 -0.45593999997E+02  0.45594000000E+02  0.51100000000E-03 0. -1.
    9900012    2    1    2    0    0 -0.45638837702E+00 -0.50565689661E+00  0.96381647736E+00  0.90007779067E+02  0.90000040951E+02 0.  0.
         12    1    1    2    0    0  0.45638837702E+00  0.50565689661E+00 -0.96381647736E+00  0.11802209326E+01  0.00000000000E+00 0. -1.
         11    1    3    3    0    0 -0.22215309274E+02  0.92007618666E+01 -0.28399931935E+02  0.37211962045E+02  0.51100000000E-03 0. -1.
        -11    1    3    3    0    0  0.25840405490E+01  0.88207358100E+01 -0.40529029670E+01  0.10045330682E+02  0.51100000000E-03 0.  1.
        -12    1    3    3    0    0  0.19174880348E+02 -0.18527154573E+02  0.33416651379E+02  0.42750486340E+02  0.00000000000E+00 0.  1.
</event>
<event>
 7    1  0.1891277E-015  0.9000785E+02  0.7816164E-02  0.1186339E+00
        -11   -1    0    0    0    0  0.00000000000E+00  0.00000000000E+00  0.45593999997E+02  0.45594000000E+02  0.51100000000E-03 0. -1.
         11   -1    0    0    0    0 -0.00000000000E+00 -0.00000000000E+00 -0.45593999997E+02  0.45594000000E+02  0.51100000000E-03 0.  1.
    9900012    2    1    2    0    0  0.18747976277E+00  0.11639939339E+01  0.52086349595E-01  0.90007854447E+02  0.90000117325E+02 0.  0.
         12    1    1    2    0    0 -0.18747976277E+00 -0.11639939339E+01 -0.52086349595E-01  0.11801455535E+01  0.00000000000E+00 0. -1.
         11    1    3    3    0    0 -0.66780322258E+01  0.28248267110E+00 -0.65494393613E+01  0.93579413910E+01  0.51100000000E-03 0. -1.
        -11    1    3    3    0    0 -0.85448229681E+00 -0.37623238767E+02 -0.84903344537E+01  0.38578802661E+02  0.51100000000E-03 0.  1.
         12    1    3    3    0    0  0.77199942854E+01  0.38504750030E+02  0.15091860165E+02  0.42071110395E+02  0.00000000000E+00 0. -1.
</event>
<event>
 7    1  0.1698110E-015  0.9000773E+02  0.7816164E-02  0.1186339E+00
        -11   -1    0    0    0    0  0.00000000000E+00  0.00000000000E+00  0.45593999997E+02  0.45594000000E+02  0.51100000000E-03 0.  1.
         11   -1    0    0    0    0 -0.00000000000E+00 -0.00000000000E+00 -0.45593999997E+02  0.45594000000E+02  0.51100000000E-03 0. -1.
    9900012    2    1    2    0    0  0.24956535312E+00 -0.11528579906E+01 -0.40765933004E-01  0.90007734660E+02  0.89999995957E+02 0.  0.
         12    1    1    2    0    0 -0.24956535312E+00  0.11528579906E+01  0.40765933004E-01  0.11802653402E+01  0.00000000000E+00 0. -1.
         11    1    3    3    0    0  0.38985336309E+01  0.84782776896E+01  0.32211068979E+01  0.98719444367E+01  0.51100000000E-03 0. -1.
        -11    1    3    3    0    0  0.10191464479E+02 -0.34219209414E+02  0.22272117437E+02  0.42081676019E+02  0.51100000000E-03 0.  1.
         12    1    3    3    0    0 -0.13840432757E+02  0.24588073734E+02 -0.25533990268E+02  0.38054114204E+02  0.00000000000E+00 0. -1.
</event>
<event>
 7    1  0.1698110E-015  0.9000760E+02  0.7816164E-02  0.1186339E+00
        -11   -1    0    0    0    0  0.00000000000E+00  0.00000000000E+00  0.45593999997E+02  0.45594000000E+02  0.51100000000E-03 0. -1.
         11   -1    0    0    0    0 -0.00000000000E+00 -0.00000000000E+00 -0.45593999997E+02  0.45594000000E+02  0.51100000000E-03 0.  1.
    9900012    2    1    2    0    0 -0.65981041958E+00 -0.97437173483E+00 -0.92722346381E-01  0.90007598585E+02  0.89999858086E+02 0.  0.
         12    1    1    2    0    0  0.65981041958E+00  0.97437173483E+00  0.92722346381E-01  0.11804014152E+01  0.00000000000E+00 0. -1.
         11    1    3    3    0    0 -0.34265696448E+02 -0.12732598341E+02  0.12826949805E+02  0.38740000712E+02  0.51100000000E-03 0. -1.
        -11    1    3    3    0    0 -0.30770952835E+01  0.10189438747E+02  0.32775997070E+01  0.11137137759E+02  0.51100000000E-03 0.  1.
        -12    1    3    3    0    0  0.36682981312E+02  0.15687878590E+01 -0.16197271859E+02  0.40130460114E+02  0.00000000000E+00 0.  1.
</event>
<event>
 7    1  0.1698110E-015  0.9000778E+02  0.7816164E-02  0.1186339E+00
        -11   -1    0    0    0    0  0.00000000000E+00  0.00000000000E+00  0.45593999997E+02  0.45594000000E+02  0.51100000000E-03 0.  1.
         11   -1    0    0    0    0 -0.00000000000E+00 -0.00000000000E+00 -0.45593999997E+02  0.45594000000E+02  0.51100000000E-03 0. -1.
    9900012    2    1    2    0    0 -0.32890225726E+00  0.74723826577E+00  0.85227258740E+00  0.90007783798E+02  0.90000045744E+02 0.  0.
         12    1    1    2    0    0  0.32890225726E+00 -0.74723826577E+00 -0.85227258740E+00  0.11802162022E+01  0.00000000000E+00 0. -1.
         11    1    3    3    0    0  0.19679330141E+02 -0.26907324139E+02  0.13622499834E+02  0.36011840124E+02  0.51100000000E-03 0. -1.
        -11    1    3    3    0    0  0.30728080583E+01 -0.51373199053E+01  0.70633547636E+01  0.92587896591E+01  0.51100000000E-03 0.  1.
        -12    1    3    3    0    0 -0.23081040456E+02  0.32791882310E+02 -0.19833582010E+02  0.44737154015E+02  0.00000000000E+00 0.  1.
</event>
<event>
 7    1  0.1698110E-015  0.9000776E+02  0.7816164E-02  0.1186339E+00
        -11   -1    0    0    0    0  0.00000000000E+00  0.00000000000E+00  0.45593999997E+02  0.45594000000E+02  0.51100000000E-03 0. -1.
         11   -1    0    0    0    0 -0.00000000000E+00 -0.00000000000E+00 -0.45593999997E+02  0.45594000000E+02  0.51100000000E-03 0.  1.
    9900012    2    1    2    0    0  0.39150753683E+00 -0.33634123189E+00 -0.10613965865E+01  0.90007760071E+02  0.90000021704E+02 0.  0.
         12    1    1    2    0    0 -0.39150753683E+00  0.33634123189E+00  0.10613965865E+01  0.11802399288E+01  0.00000000000E+00 0. -1.
         11    1    3    3    0    0 -0.65136910774E+01 -0.74491968594E+01 -0.77512203803E+01  0.12569809981E+02  0.51100000000E-03 0. -1.
        -11    1    3    3    0    0 -0.15875503275E+02 -0.17127697847E+02 -0.23052990468E+02  0.32815088108E+02  0.51100000000E-03 0.  1.
         12    1    3    3    0    0  0.22780701889E+02  0.24240553475E+02  0.29742814262E+02  0.44622861983E+02  0.00000000000E+00 0. -1.
</event>
<event>
 7    1  0.1698110E-015  0.9000769E+02  0.7816164E-02  0.1186339E+00
        -11   -1    0    0    0    0  0.00000000000E+00  0.00000000000E+00  0.45593999997E+02  0.45594000000E+02  0.51100000000E-03 0. -1.
         11   -1    0    0    0    0 -0.00000000000E+00 -0.00000000000E+00 -0.45593999997E+02  0.45594000000E+02  0.51100000000E-03 0.  1.
    9900012    2    1    2    0    0  0.51908185350E+00  0.80723466463E+00  0.68707122546E+00  0.90007686210E+02  0.89999946868E+02 0.  0.
         12    1    1    2    0    0 -0.51908185350E+00 -0.80723466463E+00 -0.68707122546E+00  0.11803137902E+01  0.00000000000E+00 0. -1.
         11    1    3    3    0    0  0.11194287966E+01  0.71862012625E+01 -0.69427652879E+01  0.10054680478E+02  0.51100000000E-03 0. -1.
        -11    1    3    3    0    0 -0.23583313684E+02 -0.75996019998E+01 -0.28092634943E+02  0.37458280436E+02  0.51100000000E-03 0.  1.
         12    1    3    3    0    0  0.22982966741E+02  0.12206354019E+01  0.35722471457E+02  0.42494725296E+02  0.00000000000E+00 0. -1.
</event>
<event>
 7    1  0.1698110E-015  0.9000772E+02  0.7816164E-02  0.1186339E+00
        -11   -1    0    0    0    0  0.00000000000E+00  0.00000000000E+00  0.45593999997E+02  0.45594000000E+02  0.51100000000E-03 0.  1.
         11   -1    0    0    0    0 -0.00000000000E+00 -0.00000000000E+00 -0.45593999997E+02  0.45594000000E+02  0.51100000000E-03 0. -1.
    9900012    2    1    2    0    0 -0.87521876372E+00  0.70752377102E+00 -0.35561974786E+00  0.90007719027E+02  0.89999980118E+02 0.  0.
         12    1    1    2    0    0  0.87521876372E+00 -0.70752377102E+00  0.35561974786E+00  0.11802809733E+01  0.00000000000E+00 0. -1.
         11    1    3    3    0    0  0.55551516582E+01  0.25623506554E+02 -0.32835599208E+02  0.42019047748E+02  0.51100000000E-03 0. -1.
        -11    1    3    3    0    0 -0.75354922530E+01  0.23191573716E+01  0.53315117246E+01  0.95177282973E+01  0.51100000000E-03 0.  1.
        -12    1    3    3    0    0  0.11051218311E+01 -0.27235140155E+02  0.27148467735E+02  0.38470942981E+02  0.00000000000E+00 0.  1.
</event>
<event>
 7    1  0.1698110E-015  0.9000770E+02  0.7816164E-02  0.1186339E+00
        -11   -1    0    0    0    0  0.00000000000E+00  0.00000000000E+00  0.45593999997E+02  0.45594000000E+02  0.51100000000E-03 0.  1.
         11   -1    0    0    0    0 -0.00000000000E+00 -0.00000000000E+00 -0.45593999997E+02  0.45594000000E+02  0.51100000000E-03 0. -1.
    9900012    2    1    2    0    0 -0.77143338652E+00  0.40135092386E+00  0.79807610517E+00  0.90007696012E+02  0.89999956800E+02 0.  0.
         12    1    1    2    0    0  0.77143338652E+00 -0.40135092386E+00 -0.79807610517E+00  0.11803039878E+01  0.00000000000E+00 0. -1.
         11    1    3    3    0    0 -0.68926941843E+01  0.75687784024E+01  0.12232429107E+01  0.10309799373E+02  0.51100000000E-03 0. -1.
        -11    1    3    3    0    0 -0.35106401366E+02 -0.14165251139E+02 -0.11568134182E+01  0.37874159716E+02  0.51100000000E-03 0.  1.
         12    1    3    3    0    0  0.41227662163E+02  0.69978236606E+01  0.73164661267E+00  0.41823736923E+02  0.00000000000E+00 0. -1.
</event>
<event>
 7    1  0.1698110E-015  0.9000751E+02  0.7816164E-02  0.1186340E+00
        -11   -1    0    0    0    0  0.00000000000E+00  0.00000000000E+00  0.45593999997E+02  0.45594000000E+02  0.51100000000E-03 0.  1.
         11   -1    0    0    0    0 -0.00000000000E+00 -0.00000000000E+00 -0.45593999997E+02  0.45594000000E+02  0.51100000000E-03 0. -1.
    9900012    2    1    2    0    0  0.14169849104E+00  0.23500032803E+00  0.11481553683E+01  0.90007506728E+02  0.89999765016E+02 0.  0.
         12    1    1    2    0    0 -0.14169849104E+00 -0.23500032803E+00 -0.11481553683E+01  0.11804932724E+01  0.00000000000E+00 0. -1.
         11    1    3    3    0    0  0.53515436013E+01 -0.23884349591E+00  0.27809265907E+01  0.60356953283E+01  0.51100000000E-03 0. -1.
        -11    1    3    3    0    0 -0.27920719243E+02 -0.15308745888E+02  0.28739926522E+02  0.42894144594E+02  0.51100000000E-03 0.  1.
         12    1    3    3    0    0  0.22710874133E+02  0.15782589712E+02 -0.30372697745E+02  0.41077666805E+02  0.00000000000E+00 0. -1.
</event>
<event>
 7    1  0.1698110E-015  0.9000778E+02  0.7816164E-02  0.1186339E+00
        -11   -1    0    0    0    0  0.00000000000E+00  0.00000000000E+00  0.45593999997E+02  0.45594000000E+02  0.51100000000E-03 0.  1.
         11   -1    0    0    0    0 -0.00000000000E+00 -0.00000000000E+00 -0.45593999997E+02  0.45594000000E+02  0.51100000000E-03 0. -1.
    9900012    2    1    2    0    0  0.83770105165E+00 -0.83114822705E+00 -0.18939352330E-01  0.90007784288E+02  0.90000046241E+02 0.  0.
         12    1    1    2    0    0 -0.83770105165E+00  0.83114822705E+00  0.18939352330E-01  0.11802157118E+01  0.00000000000E+00 0. -1.
         11    1    3    3    0    0  0.17742643057E+02 -0.29655320764E+02 -0.18755159081E+02  0.39319148321E+02  0.51100000000E-03 0. -1.
        -11    1    3    3    0    0  0.81025456814E+01  0.16125152153E+01 -0.17330640355E+01  0.84412654887E+01  0.51100000000E-03 0.  1.
        -12    1    3    3    0    0 -0.25007487686E+02  0.27211657322E+02  0.20469283764E+02  0.42247370479E+02  0.00000000000E+00 0.  1.
</event>
<event>
 7    1  0.1698110E-015  0.9000770E+02  0.7816164E-02  0.1186339E+00
        -11   -1    0    0    0    0  0.00000000000E+00  0.00000000000E+00  0.45593999997E+02  0.45594000000E+02  0.51100000000E-03 0.  1.
         11   -1    0    0    0    0 -0.00000000000E+00 -0.00000000000E+00 -0.45593999997E+02  0.45594000000E+02  0.51100000000E-03 0. -1.
    9900012    2    1    2    0    0  0.35580528795E+00 -0.84451877043E+00  0.74384509875E+00  0.90007697120E+02  0.89999957922E+02 0.  0.
         12    1    1    2    0    0 -0.35580528795E+00  0.84451877043E+00 -0.74384509875E+00  0.11803028796E+01  0.00000000000E+00 0. -1.
         11    1    3    3    0    0 -0.93666090826E+01 -0.38334536847E+02 -0.13075328274E+02  0.41572037365E+02  0.51100000000E-03 0. -1.
        -11    1    3    3    0    0 -0.31430719106E+01  0.29503557242E+01  0.10593247781E+02  0.11436800197E+02  0.51100000000E-03 0.  1.
        -12    1    3    3    0    0  0.12865486281E+02  0.34539662352E+02  0.32259255912E+01  0.36998859558E+02  0.00000000000E+00 0.  1.
</event>
<event>
 7    1  0.1698110E-015  0.9000778E+02  0.7816164E-02  0.1186339E+00
        -11   -1    0    0    0    0  0.00000000000E+00  0.00000000000E+00  0.45593999997E+02  0.45594000000E+02  0.51100000000E-03 0.  1.
         11   -1    0    0    0    0 -0.00000000000E+00 -0.00000000000E+00 -0.45593999997E+02  0.45594000000E+02  0.51100000000E-03 0. -1.
    9900012    2    1    2    0    0 -0.10819948549E+01  0.29949087887E+00  0.36403618600E+00  0.90007775446E+02  0.90000037282E+02 0.  0.
         12    1    1    2    0    0  0.10819948549E+01 -0.29949087887E+00 -0.36403618600E+00  0.11802245537E+01  0.00000000000E+00 0. -1.
         11    1    3    3    0    0  0.11114766751E+02  0.38113004746E+02  0.17731901690E+01  0.39740198468E+02  0.51100000000E-03 0. -1.
        -11    1    3    3    0    0 -0.64275988084E+01  0.31344157824E+01  0.45678595940E+01  0.84855129645E+01  0.51100000000E-03 0.  1.
        -12    1    3    3    0    0 -0.57691627972E+01 -0.40947929649E+02 -0.59770135771E+01  0.41782064014E+02  0.00000000000E+00 0.  1.
</event>
<event>
 7    1  0.1698110E-015  0.9000767E+02  0.7816164E-02  0.1186339E+00
        -11   -1    0    0    0    0  0.00000000000E+00  0.00000000000E+00  0.45593999997E+02  0.45594000000E+02  0.51100000000E-03 0.  1.
         11   -1    0    0    0    0 -0.00000000000E+00 -0.00000000000E+00 -0.45593999997E+02  0.45594000000E+02  0.51100000000E-03 0. -1.
    9900012    2    1    2    0    0  0.10138162250E+01 -0.31691439777E+00  0.51470327972E+00  0.90007670580E+02  0.89999931032E+02 0.  0.
         12    1    1    2    0    0 -0.10138162250E+01  0.31691439777E+00 -0.51470327972E+00  0.11803294201E+01  0.00000000000E+00 0. -1.
         11    1    3    3    0    0  0.18055695217E+02  0.43096629645E+01 -0.28313123238E+02  0.33855786394E+02  0.51100000000E-03 0. -1.
        -11    1    3    3    0    0  0.74022857512E+01  0.19368876896E+01 -0.82545473465E+01  0.11255350746E+02  0.51100000000E-03 0.  1.
        -12    1    3    3    0    0 -0.24444164743E+02 -0.65634650519E+01  0.37082373864E+02  0.44896533439E+02  0.00000000000E+00 0.  1.
</event>
<event>
 7    1  0.1698110E-015  0.9000795E+02  0.7816164E-02  0.1186339E+00
        -11   -1    0    0    0    0  0.00000000000E+00  0.00000000000E+00  0.45593999997E+02  0.45594000000E+02  0.51100000000E-03 0.  1.
         11   -1    0    0    0    0 -0.00000000000E+00 -0.00000000000E+00 -0.45593999997E+02  0.45594000000E+02  0.51100000000E-03 0. -1.
    9900012    2    1    2    0    0 -0.68507212564E+00  0.57069796714E+00  0.77297635445E+00  0.90007952360E+02  0.90000216531E+02 0.  0.
         12    1    1    2    0    0  0.68507212564E+00 -0.57069796714E+00 -0.77297635445E+00  0.11800476395E+01  0.00000000000E+00 0. -1.
         11    1    3    3    0    0 -0.98188473971E+01 -0.10884284738E+01 -0.33184696756E+01  0.10421452970E+02  0.51100000000E-03 0. -1.
        -11    1    3    3    0    0 -0.25629472252E+02  0.19345566633E+02  0.19591435972E+02  0.37615756804E+02  0.51100000000E-03 0.  1.
         12    1    3    3    0    0  0.34763247524E+02 -0.17686440192E+02 -0.15499989942E+02  0.41970742586E+02  0.00000000000E+00 0. -1.
</event>
<event>
 7    1  0.1698110E-015  0.9000778E+02  0.7816164E-02  0.1186339E+00
        -11   -1    0    0    0    0  0.00000000000E+00  0.00000000000E+00  0.45593999997E+02  0.45594000000E+02  0.51100000000E-03 0.  1.
         11   -1    0    0    0    0 -0.00000000000E+00 -0.00000000000E+00 -0.45593999997E+02  0.45594000000E+02  0.51100000000E-03 0. -1.
    9900012    2    1    2    0    0 -0.36534757978E+00 -0.69965938308E+00  0.87744646654E+00  0.90007782051E+02  0.90000043974E+02 0.  0.
         12    1    1    2    0    0  0.36534757978E+00  0.69965938308E+00 -0.87744646654E+00  0.11802179494E+01  0.00000000000E+00 0. -1.
         11    1    3    3    0    0 -0.13981889572E+01  0.71071993474E+01 -0.68786398109E+01  0.99891391438E+01  0.51100000000E-03 0. -1.
        -11    1    3    3    0    0 -0.99402214505E+01  0.26429839780E+02  0.27147300498E+02  0.39170401553E+02  0.51100000000E-03 0.  1.
         12    1    3    3    0    0  0.10973062828E+02 -0.34236698511E+02 -0.19391214220E+02  0.40848241353E+02  0.00000000000E+00 0. -1.
</event>
<event>
 7    1  0.1698110E-015  0.9000776E+02  0.7816164E-02  0.1186339E+00
        -11   -1    0    0    0    0  0.00000000000E+00  0.00000000000E+00  0.45593999997E+02  0.45594000000E+02  0.51100000000E-03 0.  1.
         11   -1    0    0    0    0 -0.00000000000E+00 -0.00000000000E+00 -0.45593999997E+02  0.45594000000E+02  0.51100000000E-03 0. -1.
    9900012    2    1    2    0    0 -0.56600504987E-01  0.92188850177E+00  0.73477207656E+00  0.90007757639E+02  0.90000019240E+02 0.  0.
         12    1    1    2    0    0  0.56600504987E-01 -0.92188850177E+00 -0.73477207656E+00  0.11802423613E+01  0.00000000000E+00 0. -1.
         11    1    3    3    0    0  0.14803476759E+02  0.33415399688E+00  0.40894856472E+00  0.14812893783E+02  0.51100000000E-03 0. -1.
        -11    1    3    3    0    0  0.13343917602E+02  0.12692890185E+02  0.28235368469E+02  0.33710615999E+02  0.51100000000E-03 0.  1.
         12    1    3    3    0    0 -0.28203994866E+02 -0.12105155680E+02 -0.27909544957E+02  0.41484247856E+02  0.00000000000E+00 0. -1.
</event>
<event>
 7    1  0.1698110E-015  0.9000776E+02  0.7816164E-02  0.1186339E+00
        -11   -1    0    0    0    0  0.00000000000E+00  0.00000000000E+00  0.45593999997E+02  0.45594000000E+02  0.51100000000E-03 0.  1.
         11   -1    0    0    0    0 -0.00000000000E+00 -0.00000000000E+00 -0.45593999997E+02  0.45594000000E+02  0.51100000000E-03 0. -1.
    9900012    2    1    2    0    0  0.27696415641E+00 -0.58309511988E+00  0.98806023335E+00  0.90007757615E+02  0.90000019215E+02 0.  0.
         12    1    1    2    0    0 -0.27696415641E+00  0.58309511988E+00 -0.98806023335E+00  0.11802423851E+01  0.00000000000E+00 0. -1.
         11    1    3    3    0    0 -0.14418547671E+02 -0.34347496975E+02  0.10095611988E+01  0.37264786052E+02  0.51100000000E-03 0. -1.
        -11    1    3    3    0    0  0.47521466988E+01 -0.81488582169E+01 -0.19112853789E+01  0.96249571711E+01  0.51100000000E-03 0.  1.
        -12    1    3    3    0    0  0.99433651290E+01  0.41913260072E+02  0.18897844134E+01  0.43118014392E+02  0.00000000000E+00 0.  1.
</event>
<event>
 7    1  0.1698110E-015  0.9000800E+02  0.7816164E-02  0.1186339E+00
        -11   -1    0    0    0    0  0.00000000000E+00  0.00000000000E+00  0.45593999997E+02  0.45594000000E+02  0.51100000000E-03 0.  1.
         11   -1    0    0    0    0 -0.00000000000E+00 -0.00000000000E+00 -0.45593999997E+02  0.45594000000E+02  0.51100000000E-03 0. -1.
    9900012    2    1    2    0    0  0.10655023638E+01  0.43507674935E+00 -0.26038996947E+00  0.90008004237E+02  0.90000269092E+02 0.  0.
         12    1    1    2    0    0 -0.10655023638E+01 -0.43507674935E+00  0.26038996947E+00  0.11799957632E+01  0.00000000000E+00 0. -1.
         11    1    3    3    0    0 -0.18802251308E+02  0.99991988912E+01 -0.32754014755E+02  0.39068326245E+02  0.51100000000E-03 0. -1.
        -11    1    3    3    0    0 -0.45036064317E+01 -0.71521722510E+01 -0.19527560145E+01  0.86746351574E+01  0.51100000000E-03 0.  1.
        -12    1    3    3    0    0  0.24371360104E+02 -0.24119498909E+01  0.34446380800E+02  0.42265042835E+02  0.00000000000E+00 0.  1.
</event>
<event>
 7    1  0.1698110E-015  0.9000772E+02  0.7816164E-02  0.1186339E+00
        -11   -1    0    0    0    0  0.00000000000E+00  0.00000000000E+00  0.45593999997E+02  0.45594000000E+02  0.51100000000E-03 0.  1.
         11   -1    0    0    0    0 -0.00000000000E+00 -0.00000000000E+00 -0.45593999997E+02  0.45594000000E+02  0.51100000000E-03 0. -1.
    9900012    2    1    2    0    0 -0.31543248034E+00 -0.25792556641E-01  0.11370544882E+01  0.90007722145E+02  0.89999983277E+02 0.  0.
         12    1    1    2    0    0  0.31543248034E+00  0.25792556641E-01 -0.11370544882E+01  0.11802778549E+01  0.00000000000E+00 0. -1.
         11    1    3    3    0    0  0.25746519985E+02 -0.45151822120E+01 -0.24972769536E+02  0.36151201644E+02  0.51100000000E-03 0. -1.
        -11    1    3    3    0    0  0.20056252560E+01 -0.22629910825E+01 -0.83627994990E+01  0.88926979612E+01  0.51100000000E-03 0.  1.
        -12    1    3    3    0    0 -0.28067577722E+02  0.67523807379E+01  0.34472623523E+02  0.44963822540E+02  0.00000000000E+00 0.  1.
</event>
<event>
 7    1  0.1698110E-015  0.9000825E+02  0.7816164E-02  0.1186338E+00
        -11   -1    0    0    0    0  0.00000000000E+00  0.00000000000E+00  0.45593999997E+02  0.45594000000E+02  0.51100000000E-03 0.  1.
         11   -1    0    0    0    0 -0.00000000000E+00 -0.00000000000E+00 -0.45593999997E+02  0.45594000000E+02  0.51100000000E-03 0. -1.
    9900012    2    1    2    0    0 -0.63154681159E+00 -0.11659177223E+00  0.98963239995E+00  0.90008246931E+02  0.90000514989E+02 0.  0.
         12    1    1    2    0    0  0.63154681159E+00  0.11659177223E+00 -0.98963239995E+00  0.11797530689E+01  0.00000000000E+00 0. -1.
         11    1    3    3    0    0  0.10597100324E+02 -0.59410011106E+01 -0.34344732647E+02  0.36430134372E+02  0.51100000000E-03 0. -1.
        -11    1    3    3    0    0 -0.10467274674E+01  0.18478751622E+01 -0.83144564153E+01  0.85814023766E+01  0.51100000000E-03 0.  1.
        -12    1    3    3    0    0 -0.10181919668E+02  0.39765341762E+01  0.43648821463E+02  0.44996710183E+02  0.00000000000E+00 0.  1.
</event>
<event>
 7    1  0.1698110E-015  0.9000772E+02  0.7816164E-02  0.1186339E+00
        -11   -1    0    0    0    0  0.00000000000E+00  0.00000000000E+00  0.45593999997E+02  0.45594000000E+02  0.51100000000E-03 0. -1.
         11   -1    0    0    0    0 -0.00000000000E+00 -0.00000000000E+00 -0.45593999997E+02  0.45594000000E+02  0.51100000000E-03 0.  1.
    9900012    2    1    2    0    0  0.29696110708E+00  0.50579685416E-01 -0.11411942964E+01  0.90007716718E+02  0.89999977779E+02 0.  0.
         12    1    1    2    0    0 -0.29696110708E+00 -0.50579685416E-01  0.11411942964E+01  0.11802832821E+01  0.00000000000E+00 0. -1.
         11    1    3    3    0    0 -0.23238471283E+01 -0.19490371330E+02  0.27997565102E+02  0.34192667225E+02  0.51100000000E-03 0. -1.
        -11    1    3    3    0    0  0.31225816230E+01 -0.52139085664E+01  0.86896046053E+01  0.10603989202E+02  0.51100000000E-03 0.  1.
        -12    1    3    3    0    0 -0.50177338759E+00  0.24754859582E+02 -0.37828364004E+02  0.45211060291E+02  0.00000000000E+00 0.  1.
</event>
<event>
 7    1  0.1698110E-015  0.9000774E+02  0.7816164E-02  0.1186339E+00
        -11   -1    0    0    0    0  0.00000000000E+00  0.00000000000E+00  0.45593999997E+02  0.45594000000E+02  0.51100000000E-03 0. -1.
         11   -1    0    0    0    0 -0.00000000000E+00 -0.00000000000E+00 -0.45593999997E+02  0.45594000000E+02  0.51100000000E-03 0.  1.
    9900012    2    1    2    0    0 -0.85860601923E+00 -0.21858308939E-01 -0.80952215317E+00  0.90007742317E+02  0.90000003716E+02 0.  0.
         12    1    1    2    0    0  0.85860601923E+00  0.21858308939E-01  0.80952215317E+00  0.11802576831E+01  0.00000000000E+00 0. -1.
         11    1    3    3    0    0 -0.28041763566E+01 -0.10418006510E+02  0.10840697465E+01  0.10843130182E+02  0.51100000000E-03 0. -1.
        -11    1    3    3    0    0  0.20749953028E+02 -0.21856818307E+02 -0.21475499126E+02  0.37006460519E+02  0.51100000000E-03 0.  1.
         12    1    3    3    0    0 -0.18804382691E+02  0.32252966508E+02  0.19581907226E+02  0.42158151615E+02  0.00000000000E+00 0. -1.
</event>
<event>
 7    1  0.1698110E-015  0.9000771E+02  0.7816164E-02  0.1186339E+00
        -11   -1    0    0    0    0  0.00000000000E+00  0.00000000000E+00  0.45593999997E+02  0.45594000000E+02  0.51100000000E-03 0. -1.
         11   -1    0    0    0    0 -0.00000000000E+00 -0.00000000000E+00 -0.45593999997E+02  0.45594000000E+02  0.51100000000E-03 0.  1.
    9900012    2    1    2    0    0  0.66694571280E+00 -0.12689582066E+00 -0.96548277990E+00  0.90007713538E+02  0.89999974557E+02 0.  0.
         12    1    1    2    0    0 -0.66694571280E+00  0.12689582066E+00  0.96548277990E+00  0.11802864616E+01  0.00000000000E+00 0. -1.
         11    1    3    3    0    0 -0.25064527499E+01 -0.74056185617E+01 -0.33126196071E+01  0.84911095029E+01  0.51100000000E-03 0. -1.
        -11    1    3    3    0    0 -0.10580402390E+01  0.17864191145E+02 -0.36704720698E+02  0.40834853938E+02  0.51100000000E-03 0.  1.
         12    1    3    3    0    0  0.42314387017E+01 -0.10585468404E+02  0.39051857525E+02  0.40681750097E+02  0.00000000000E+00 0. -1.
</event>
<event>
 7    1  0.1698110E-015  0.9000767E+02  0.7816164E-02  0.1186339E+00
        -11   -1    0    0    0    0  0.00000000000E+00  0.00000000000E+00  0.45593999997E+02  0.45594000000E+02  0.51100000000E-03 0. -1.
         11   -1    0    0    0    0 -0.00000000000E+00 -0.00000000000E+00 -0.45593999997E+02  0.45594000000E+02  0.51100000000E-03 0.  1.
    9900012    2    1    2    0    0 -0.30496576451E+00 -0.95041129596E+00 -0.62998795051E+00  0.90007673534E+02  0.89999934024E+02 0.  0.
         12    1    1    2    0    0  0.30496576451E+00  0.95041129596E+00  0.62998795051E+00  0.11803264662E+01  0.00000000000E+00 0. -1.
         11    1    3    3    0    0  0.32952661701E+01 -0.68468287289E+01 -0.56617552438E+01  0.94759334884E+01  0.51100000000E-03 0. -1.
        -11    1    3    3    0    0 -0.24921575805E+02 -0.28638564514E+02 -0.60895053047E+01  0.38449114335E+02  0.51100000000E-03 0.  1.
         12    1    3    3    0    0  0.21321343871E+02  0.34534981947E+02  0.11121272598E+02  0.42082625711E+02  0.00000000000E+00 0. -1.
</event>
<event>
 7    1  0.1698110E-015  0.9000772E+02  0.7816164E-02  0.1186339E+00
        -11   -1    0    0    0    0  0.00000000000E+00  0.00000000000E+00  0.45593999997E+02  0.45594000000E+02  0.51100000000E-03 0.  1.
         11   -1    0    0    0    0 -0.00000000000E+00 -0.00000000000E+00 -0.45593999997E+02  0.45594000000E+02  0.51100000000E-03 0. -1.
    9900012    2    1    2    0    0 -0.20779012446E+00 -0.54436255335E+00  0.10264230466E+01  0.90007723932E+02  0.89999985088E+02 0.  0.
         12    1    1    2    0    0  0.20779012446E+00  0.54436255335E+00 -0.10264230466E+01  0.11802760677E+01  0.00000000000E+00 0. -1.
         11    1    3    3    0    0 -0.42566042474E+02  0.11437402087E+02  0.86530635163E+01  0.44917231069E+02  0.51100000000E-03 0. -1.
        -11    1    3    3    0    0  0.80210913645E+01 -0.39597521692E+01 -0.34280970241E+01  0.95796343034E+01  0.51100000000E-03 0.  1.
        -12    1    3    3    0    0  0.34337160985E+02 -0.80220124709E+01 -0.41985434456E+01  0.35510858560E+02  0.00000000000E+00 0.  1.
</event>
<event>
 7    1  0.1815935E-015  0.9000775E+02  0.7816164E-02  0.1186339E+00
        -11   -1    0    0    0    0  0.00000000000E+00  0.00000000000E+00  0.45593999997E+02  0.45594000000E+02  0.51100000000E-03 0. -1.
         11   -1    0    0    0    0 -0.00000000000E+00 -0.00000000000E+00 -0.45593999997E+02  0.45594000000E+02  0.51100000000E-03 0.  1.
    9900012    2    1    2    0    0  0.11095473888E+01  0.35364350442E+00  0.19188351661E+00  0.90007754932E+02  0.90000016497E+02 0.  0.
         12    1    1    2    0    0 -0.11095473888E+01 -0.35364350442E+00 -0.19188351661E+00  0.11802450679E+01  0.00000000000E+00 0. -1.
         11    1    3    3    0    0 -0.58347597312E+01 -0.67611133543E+01  0.20161992238E+01  0.91554428883E+01  0.51100000000E-03 0. -1.
        -11    1    3    3    0    0 -0.26427943578E+02 -0.22157484557E+02 -0.95695134850E+01  0.35790584128E+02  0.51100000000E-03 0.  1.
         12    1    3    3    0    0  0.33372250698E+02  0.29272241415E+02  0.77451977779E+01  0.45061727916E+02  0.00000000000E+00 0. -1.
</event>
<event>
 7    1  0.1698110E-015  0.9000784E+02  0.7816164E-02  0.1186339E+00
        -11   -1    0    0    0    0  0.00000000000E+00  0.00000000000E+00  0.45593999997E+02  0.45594000000E+02  0.51100000000E-03 0. -1.
         11   -1    0    0    0    0 -0.00000000000E+00 -0.00000000000E+00 -0.45593999997E+02  0.45594000000E+02  0.51100000000E-03 0.  1.
    9900012    2    1    2    0    0 -0.63039761548E+00 -0.22779256288E+00 -0.97132864984E+00  0.90007843251E+02  0.90000105982E+02 0.  0.
         12    1    1    2    0    0  0.63039761548E+00  0.22779256288E+00  0.97132864984E+00  0.11801567486E+01  0.00000000000E+00 0. -1.
         11    1    3    3    0    0  0.59302628005E+01  0.34955789209E+02  0.76024232315E+01  0.36261164562E+02  0.51100000000E-03 0. -1.
        -11    1    3    3    0    0  0.21675647007E+01  0.82868484281E+01 -0.29198363496E+01  0.90496208855E+01  0.51100000000E-03 0.  1.
        -12    1    3    3    0    0 -0.87282251166E+01 -0.43470430200E+02 -0.56539155318E+01  0.44697057804E+02  0.00000000000E+00 0.  1.
</event>
<event>
 7    1  0.1698110E-015  0.9000773E+02  0.7816164E-02  0.1186339E+00
        -11   -1    0    0    0    0  0.00000000000E+00  0.00000000000E+00  0.45593999997E+02  0.45594000000E+02  0.51100000000E-03 0. -1.
         11   -1    0    0    0    0 -0.00000000000E+00 -0.00000000000E+00 -0.45593999997E+02  0.45594000000E+02  0.51100000000E-03 0.  1.
    9900012    2    1    2    0    0  0.87979169512E+00 -0.57410348393E+00 -0.53796029746E+00  0.90007733285E+02  0.89999994564E+02 0.  0.
         12    1    1    2    0    0 -0.87979169512E+00  0.57410348393E+00  0.53796029746E+00  0.11802667151E+01  0.00000000000E+00 0. -1.
         11    1    3    3    0    0  0.63810290687E+01 -0.23771883914E+01 -0.13246846577E+02  0.14894546019E+02  0.51100000000E-03 0. -1.
        -11    1    3    3    0    0  0.31657285057E+01  0.32711046241E+02  0.24419976296E+02  0.40943493081E+02  0.51100000000E-03 0.  1.
         12    1    3    3    0    0 -0.86669658792E+01 -0.30907961333E+02 -0.11711090016E+02  0.34169694185E+02  0.00000000000E+00 0. -1.
</event>
<event>
 7    1  0.1698110E-015  0.9000773E+02  0.7816164E-02  0.1186339E+00
        -11   -1    0    0    0    0  0.00000000000E+00  0.00000000000E+00  0.45593999997E+02  0.45594000000E+02  0.51100000000E-03 0. -1.
         11   -1    0    0    0    0 -0.00000000000E+00 -0.00000000000E+00 -0.45593999997E+02  0.45594000000E+02  0.51100000000E-03 0.  1.
    9900012    2    1    2    0    0 -0.36274476107E+00  0.10998486110E+00 -0.11177514466E+01  0.90007725147E+02  0.89999986319E+02 0.  0.
         12    1    1    2    0    0  0.36274476107E+00 -0.10998486110E+00  0.11177514466E+01  0.11802748526E+01  0.00000000000E+00 0. -1.
         11    1    3    3    0    0 -0.12051770817E+02 -0.31633340444E+02  0.18854286912E+02  0.38747871460E+02  0.51100000000E-03 0. -1.
        -11    1    3    3    0    0 -0.12316784313E+01  0.40872275712E+01  0.85033969626E+01  0.95147370505E+01  0.51100000000E-03 0.  1.
        -12    1    3    3    0    0  0.12920704487E+02  0.27656097733E+02 -0.28475435321E+02  0.41745116637E+02  0.00000000000E+00 0.  1.
</event>
<event>
 7    1  0.1698110E-015  0.9000752E+02  0.7816164E-02  0.1186339E+00
        -11   -1    0    0    0    0  0.00000000000E+00  0.00000000000E+00  0.45593999997E+02  0.45594000000E+02  0.51100000000E-03 0.  1.
         11   -1    0    0    0    0 -0.00000000000E+00 -0.00000000000E+00 -0.45593999997E+02  0.45594000000E+02  0.51100000000E-03 0. -1.
    9900012    2    1    2    0    0  0.35392643797E+00 -0.10478847065E+01  0.41256649380E+00  0.90007518152E+02  0.89999776591E+02 0.  0.
         12    1    1    2    0    0 -0.35392643797E+00  0.10478847065E+01 -0.41256649380E+00  0.11804818480E+01  0.00000000000E+00 0. -1.
         11    1    3    3    0    0 -0.26752146859E+02 -0.29193904268E+02 -0.11284003087E+02  0.41173901126E+02  0.51100000000E-03 0. -1.
        -11    1    3    3    0    0  0.79912486363E+01 -0.27298475142E+01 -0.39127592334E+01  0.93070837160E+01  0.51100000000E-03 0.  1.
        -12    1    3    3    0    0  0.19114824660E+02  0.30875867076E+02  0.15609328814E+02  0.39526533310E+02  0.00000000000E+00 0.  1.
</event>
<event>
 7    1  0.1698110E-015  0.9000767E+02  0.7816164E-02  0.1186339E+00
        -11   -1    0    0    0    0  0.00000000000E+00  0.00000000000E+00  0.45593999997E+02  0.45594000000E+02  0.51100000000E-03 0. -1.
         11   -1    0    0    0    0 -0.00000000000E+00 -0.00000000000E+00 -0.45593999997E+02  0.45594000000E+02  0.51100000000E-03 0.  1.
    9900012    2    1    2    0    0  0.11124492429E+01 -0.32445212191E+00  0.22439981334E+00  0.90007674717E+02  0.89999935223E+02 0.  0.
         12    1    1    2    0    0 -0.11124492429E+01  0.32445212191E+00 -0.22439981334E+00  0.11803252830E+01  0.00000000000E+00 0. -1.
         11    1    3    3    0    0 -0.13775844701E+02  0.10755762079E+02  0.29314009769E+02  0.34128748646E+02  0.51100000000E-03 0. -1.
        -11    1    3    3    0    0  0.88314805390E+01  0.72193982292E+01  0.81003278128E+01  0.13990356330E+02  0.51100000000E-03 0.  1.
        -12    1    3    3    0    0  0.60568134053E+01 -0.18299612431E+02 -0.37189937768E+02  0.41888569741E+02  0.00000000000E+00 0.  1.
</event>
<event>
 7    1  0.1698110E-015  0.9000785E+02  0.7816164E-02  0.1186339E+00
        -11   -1    0    0    0    0  0.00000000000E+00  0.00000000000E+00  0.45593999997E+02  0.45594000000E+02  0.51100000000E-03 0.  1.
         11   -1    0    0    0    0 -0.00000000000E+00 -0.00000000000E+00 -0.45593999997E+02  0.45594000000E+02  0.51100000000E-03 0. -1.
    9900012    2    1    2    0    0 -0.43568638319E+00  0.92453463374E+00  0.59006295742E+00  0.90007846956E+02  0.90000109736E+02 0.  0.
         12    1    1    2    0    0  0.43568638319E+00 -0.92453463374E+00 -0.59006295742E+00  0.11801530440E+01  0.00000000000E+00 0. -1.
         11    1    3    3    0    0  0.31818530210E+02  0.40164104965E+01 -0.22148936543E+02  0.38975964494E+02  0.51100000000E-03 0. -1.
        -11    1    3    3    0    0 -0.80098272618E+01  0.95436139676E+01 -0.37022582241E+01  0.12997869693E+02  0.51100000000E-03 0.  1.
        -12    1    3    3    0    0 -0.24244389331E+02 -0.12635489830E+02  0.26441257725E+02  0.38034012770E+02  0.00000000000E+00 0.  1.
</event>
<event>
 7    1  0.1698110E-015  0.9000768E+02  0.7816164E-02  0.1186339E+00
        -11   -1    0    0    0    0  0.00000000000E+00  0.00000000000E+00  0.45593999997E+02  0.45594000000E+02  0.51100000000E-03 0.  1.
         11   -1    0    0    0    0 -0.00000000000E+00 -0.00000000000E+00 -0.45593999997E+02  0.45594000000E+02  0.51100000000E-03 0. -1.
    9900012    2    1    2    0    0 -0.89690732996E+00 -0.63624084527E+00  0.42883559834E+00  0.90007684304E+02  0.89999944937E+02 0.  0.
         12    1    1    2    0    0  0.89690732996E+00  0.63624084527E+00 -0.42883559834E+00  0.11803156960E+01  0.00000000000E+00 0. -1.
         11    1    3    3    0    0  0.25058498985E+02 -0.71471084389E+01 -0.30615399993E+02  0.40203386019E+02  0.51100000000E-03 0. -1.
        -11    1    3    3    0    0  0.60845949364E+01  0.95996150879E+00  0.72362273629E+01  0.95029894427E+01  0.51100000000E-03 0.  1.
        -12    1    3    3    0    0 -0.32040001252E+02  0.55509060848E+01  0.23808008229E+02  0.40301308842E+02  0.00000000000E+00 0.  1.
</event>
<event>
 7    1  0.1698110E-015  0.9000657E+02  0.7816164E-02  0.1186341E+00
        -11   -1    0    0    0    0  0.00000000000E+00  0.00000000000E+00  0.45593999997E+02  0.45594000000E+02  0.51100000000E-03 0.  1.
         11   -1    0    0    0    0 -0.00000000000E+00 -0.00000000000E+00 -0.45593999997E+02  0.45594000000E+02  0.51100000000E-03 0. -1.
    9900012    2    1    2    0    0  0.83771731412E+00  0.13976906983E+00 -0.82126454296E+00  0.90006568182E+02  0.89998814074E+02 0.  0.
         12    1    1    2    0    0 -0.83771731412E+00 -0.13976906983E+00  0.82126454296E+00  0.11814318181E+01  0.00000000000E+00 0. -1.
         11    1    3    3    0    0 -0.32670493934E+01 -0.78413358779E+01  0.24478547879E+01  0.88403706604E+01  0.51100000000E-03 0. -1.
        -11    1    3    3    0    0 -0.20469062800E+02 -0.11802896788E+02  0.28074892008E+02  0.36694556354E+02  0.51100000000E-03 0.  1.
         12    1    3    3    0    0  0.24573829508E+02  0.19784001736E+02 -0.31344011339E+02  0.44471641168E+02  0.00000000000E+00 0. -1.
</event>
<event>
 7    1  0.1698110E-015  0.9000772E+02  0.7816164E-02  0.1186339E+00
        -11   -1    0    0    0    0  0.00000000000E+00  0.00000000000E+00  0.45593999997E+02  0.45594000000E+02  0.51100000000E-03 0.  1.
         11   -1    0    0    0    0 -0.00000000000E+00 -0.00000000000E+00 -0.45593999997E+02  0.45594000000E+02  0.51100000000E-03 0. -1.
    9900012    2    1    2    0    0 -0.30518317928E-01  0.11611764028E+01  0.20930851309E+00  0.90007715263E+02  0.89999976305E+02 0.  0.
         12    1    1    2    0    0  0.30518317928E-01 -0.11611764028E+01 -0.20930851309E+00  0.11802847367E+01  0.00000000000E+00 0. -1.
         11    1    3    3    0    0 -0.31776191171E+02 -0.13837107770E+02  0.66111157054E+01  0.35283122423E+02  0.51100000000E-03 0. -1.
        -11    1    3    3    0    0 -0.91560577289E+01 -0.29475738871E+01 -0.12023936206E+00  0.96195656201E+01  0.51100000000E-03 0.  1.
        -12    1    3    3    0    0  0.40901730582E+02  0.17945858060E+02 -0.62815678302E+01  0.45105027220E+02  0.00000000000E+00 0.  1.
</event>
<event>
 7    1  0.1698110E-015  0.9000772E+02  0.7816164E-02  0.1186339E+00
        -11   -1    0    0    0    0  0.00000000000E+00  0.00000000000E+00  0.45593999997E+02  0.45594000000E+02  0.51100000000E-03 0. -1.
         11   -1    0    0    0    0 -0.00000000000E+00 -0.00000000000E+00 -0.45593999997E+02  0.45594000000E+02  0.51100000000E-03 0.  1.
    9900012    2    1    2    0    0  0.28278628568E-01  0.87122201896E+00  0.79575663631E+00  0.90007722019E+02  0.89999983150E+02 0.  0.
         12    1    1    2    0    0 -0.28278628568E-01 -0.87122201896E+00 -0.79575663631E+00  0.11802779806E+01  0.00000000000E+00 0. -1.
         11    1    3    3    0    0  0.11984902913E+02 -0.37462364323E+02  0.11340944492E+02  0.40935115253E+02  0.51100000000E-03 0. -1.
        -11    1    3    3    0    0  0.76143790551E+01  0.11139522869E+02 -0.74812805573E+01  0.15428457382E+02  0.51100000000E-03 0.  1.
        -12    1    3    3    0    0 -0.19571003340E+02  0.27194063473E+02 -0.30639072982E+01  0.33644149385E+02  0.00000000000E+00 0.  1.
</event>
<event>
 7    1  0.1698110E-015  0.9000787E+02  0.7816164E-02  0.1186339E+00
        -11   -1    0    0    0    0  0.00000000000E+00  0.00000000000E+00  0.45593999997E+02  0.45594000000E+02  0.51100000000E-03 0.  1.
         11   -1    0    0    0    0 -0.00000000000E+00 -0.00000000000E+00 -0.45593999997E+02  0.45594000000E+02  0.51100000000E-03 0. -1.
    9900012    2    1    2    0    0 -0.57210765765E+00 -0.10043443296E+01  0.23810484160E+00  0.90007869236E+02  0.90000132310E+02 0.  0.
         12    1    1    2    0    0  0.57210765765E+00  0.10043443296E+01 -0.23810484160E+00  0.11801307639E+01  0.00000000000E+00 0. -1.
         11    1    3    3    0    0  0.30196558070E+01 -0.10600091643E+02 -0.26847554261E+01  0.11344081099E+02  0.51100000000E-03 0. -1.
        -11    1    3    3    0    0 -0.15091050153E+02 -0.31792793551E+02  0.55483369734E+01  0.35627314801E+02  0.51100000000E-03 0.  1.
         12    1    3    3    0    0  0.11499286688E+02  0.41388540864E+02 -0.26254767057E+01  0.43036473336E+02  0.00000000000E+00 0. -1.
</event>
<event>
 7    1  0.1698110E-015  0.9000785E+02  0.7816164E-02  0.1186339E+00
        -11   -1    0    0    0    0  0.00000000000E+00  0.00000000000E+00  0.45593999997E+02  0.45594000000E+02  0.51100000000E-03 0.  1.
         11   -1    0    0    0    0 -0.00000000000E+00 -0.00000000000E+00 -0.45593999997E+02  0.45594000000E+02  0.51100000000E-03 0. -1.
    9900012    2    1    2    0    0 -0.82604070760E+00  0.75424466128E+00  0.37619736548E+00  0.90007850553E+02  0.90000113380E+02 0.  0.
         12    1    1    2    0    0  0.82604070760E+00 -0.75424466128E+00 -0.37619736548E+00  0.11801494471E+01  0.00000000000E+00 0. -1.
         11    1    3    3    0    0 -0.13699526338E+01  0.94692130228E+01  0.23220506862E+01  0.98455413838E+01  0.51100000000E-03 0. -1.
        -11    1    3    3    0    0 -0.94732691732E+01  0.21140272449E+02 -0.30057833008E+02  0.37949008860E+02  0.51100000000E-03 0.  1.
         12    1    3    3    0    0  0.10017181099E+02 -0.29855240810E+02  0.28111979688E+02  0.42213300309E+02  0.00000000000E+00 0. -1.
</event>
<event>
 7    1  0.1698110E-015  0.9000719E+02  0.7816164E-02  0.1186340E+00
        -11   -1    0    0    0    0  0.00000000000E+00  0.00000000000E+00  0.45593999997E+02  0.45594000000E+02  0.51100000000E-03 0. -1.
         11   -1    0    0    0    0 -0.00000000000E+00 -0.00000000000E+00 -0.45593999997E+02  0.45594000000E+02  0.51100000000E-03 0.  1.
    9900012    2    1    2    0    0  0.97137463704E+00 -0.21972576853E+00  0.63440826330E+00  0.90007185898E+02  0.89999439950E+02 0.  0.
         12    1    1    2    0    0 -0.97137463704E+00  0.21972576853E+00 -0.63440826330E+00  0.11808141020E+01  0.00000000000E+00 0. -1.
         11    1    3    3    0    0  0.55070655761E+01 -0.64041216590E+01 -0.50157543042E+01  0.98233567066E+01  0.51100000000E-03 0. -1.
        -11    1    3    3    0    0  0.15442335949E+02  0.61258267831E+01 -0.32848310172E+02  0.36810365046E+02  0.51100000000E-03 0.  1.
         12    1    3    3    0    0 -0.19978026888E+02  0.58569107323E-01  0.38498472740E+02  0.43373464146E+02  0.00000000000E+00 0. -1.
</event>
<event>
 7    1  0.1698110E-015  0.9000774E+02  0.7816164E-02  0.1186339E+00
        -11   -1    0    0    0    0  0.00000000000E+00  0.00000000000E+00  0.45593999997E+02  0.45594000000E+02  0.51100000000E-03 0.  1.
         11   -1    0    0    0    0 -0.00000000000E+00 -0.00000000000E+00 -0.45593999997E+02  0.45594000000E+02  0.51100000000E-03 0. -1.
    9900012    2    1    2    0    0  0.72295872551E+00  0.91226935931E+00  0.19522463572E+00  0.90007738435E+02  0.89999999783E+02 0.  0.
         12    1    1    2    0    0 -0.72295872551E+00 -0.91226935931E+00 -0.19522463572E+00  0.11802615647E+01  0.00000000000E+00 0. -1.
         11    1    3    3    0    0  0.78873516369E+00  0.78654582926E+01  0.28869671415E+01  0.84155877304E+01  0.51100000000E-03 0. -1.
        -11    1    3    3    0    0 -0.68542104871E+01 -0.16790878248E+02  0.36424901003E+02  0.40690136484E+02  0.51100000000E-03 0.  1.
         12    1    3    3    0    0  0.67884340489E+01  0.98376893142E+01 -0.39116643509E+02  0.40902014221E+02  0.00000000000E+00 0. -1.
</event>
<event>
 7    1  0.1698110E-015  0.9000777E+02  0.7816164E-02  0.1186339E+00
        -11   -1    0    0    0    0  0.00000000000E+00  0.00000000000E+00  0.45593999997E+02  0.45594000000E+02  0.51100000000E-03 0.  1.
         11   -1    0    0    0    0 -0.00000000000E+00 -0.00000000000E+00 -0.45593999997E+02  0.45594000000E+02  0.51100000000E-03 0. -1.
    9900012    2    1    2    0    0 -0.11177601865E+01  0.12719299991E+00 -0.35688625273E+00  0.90007773881E+02  0.90000035697E+02 0.  0.
         12    1    1    2    0    0  0.11177601865E+01 -0.12719299991E+00  0.35688625273E+00  0.11802261187E+01  0.00000000000E+00 0. -1.
         11    1    3    3    0    0 -0.80062828623E+00  0.10455160880E+02  0.18343241255E+00  0.10487375382E+02  0.51100000000E-03 0. -1.
        -11    1    3    3    0    0  0.86293312611E+01  0.32103774540E+02 -0.10809192814E+02  0.34956492205E+02  0.51100000000E-03 0.  1.
         12    1    3    3    0    0 -0.89464631614E+01 -0.42431742421E+02  0.10268874149E+02  0.44563906294E+02  0.00000000000E+00 0. -1.
</event>
<event>
 7    1  0.1698110E-015  0.9000783E+02  0.7816164E-02  0.1186339E+00
        -11   -1    0    0    0    0  0.00000000000E+00  0.00000000000E+00  0.45593999997E+02  0.45594000000E+02  0.51100000000E-03 0. -1.
         11   -1    0    0    0    0 -0.00000000000E+00 -0.00000000000E+00 -0.45593999997E+02  0.45594000000E+02  0.51100000000E-03 0.  1.
    9900012    2    1    2    0    0  0.72839854621E+00 -0.90792924381E+00 -0.19467095688E+00  0.90007831904E+02  0.90000094485E+02 0.  0.
         12    1    1    2    0    0 -0.72839854621E+00  0.90792924381E+00  0.19467095688E+00  0.11801680962E+01  0.00000000000E+00 0. -1.
         11    1    3    3    0    0  0.44293329982E+01 -0.82837137304E+01  0.78043407229E+00  0.94259207284E+01  0.51100000000E-03 0. -1.
        -11    1    3    3    0    0  0.19390166047E+02  0.23575540006E+02 -0.28070240010E+02  0.41469543045E+02  0.51100000000E-03 0.  1.
         12    1    3    3    0    0 -0.23091100499E+02 -0.16199755519E+02  0.27095134981E+02  0.39112368130E+02  0.00000000000E+00 0. -1.
</event>
<event>
 7    1  0.1698110E-015  0.9000769E+02  0.7816164E-02  0.1186339E+00
        -11   -1    0    0    0    0  0.00000000000E+00  0.00000000000E+00  0.45593999997E+02  0.45594000000E+02  0.51100000000E-03 0.  1.
         11   -1    0    0    0    0 -0.00000000000E+00 -0.00000000000E+00 -0.45593999997E+02  0.45594000000E+02  0.51100000000E-03 0. -1.
    9900012    2    1    2    0    0  0.83556336889E+00  0.12997867342E+00  0.82345469754E+00  0.90007687229E+02  0.89999947900E+02 0.  0.
         12    1    1    2    0    0 -0.83556336889E+00 -0.12997867342E+00 -0.82345469754E+00  0.11803127712E+01  0.00000000000E+00 0. -1.
         11    1    3    3    0    0  0.19933645433E+00  0.14646926489E+01 -0.97438663763E+01  0.98553534588E+01  0.51100000000E-03 0. -1.
        -11    1    3    3    0    0  0.21295430315E+02  0.92978567312E+01  0.37789871528E+02  0.44362370118E+02  0.51100000000E-03 0.  1.
         12    1    3    3    0    0 -0.20659203400E+02 -0.10632570707E+02 -0.27222550455E+02  0.35789963652E+02  0.00000000000E+00 0. -1.
</event>
<event>
 7    1  0.1698110E-015  0.9000770E+02  0.7816164E-02  0.1186339E+00
        -11   -1    0    0    0    0  0.00000000000E+00  0.00000000000E+00  0.45593999997E+02  0.45594000000E+02  0.51100000000E-03 0. -1.
         11   -1    0    0    0    0 -0.00000000000E+00 -0.00000000000E+00 -0.45593999997E+02  0.45594000000E+02  0.51100000000E-03 0.  1.
    9900012    2    1    2    0    0 -0.91482018152E+00 -0.63548201602E+00  0.39036079756E+00  0.90007697111E+02  0.89999957913E+02 0.  0.
         12    1    1    2    0    0  0.91482018152E+00  0.63548201602E+00 -0.39036079756E+00  0.11803028889E+01  0.00000000000E+00 0. -1.
         11    1    3    3    0    0  0.39546702042E+02  0.14320978338E+01  0.39616332292E+01  0.39770429778E+02  0.51100000000E-03 0. -1.
        -11    1    3    3    0    0  0.82459481385E+00 -0.18519760399E+01 -0.84257243835E+01  0.86661758294E+01  0.51100000000E-03 0.  1.
        -12    1    3    3    0    0 -0.41286117038E+02 -0.21560380989E+00  0.48544519518E+01  0.41571091504E+02  0.00000000000E+00 0.  1.
</event>
<event>
 7    1  0.1698110E-015  0.9000777E+02  0.7816164E-02  0.1186339E+00
        -11   -1    0    0    0    0  0.00000000000E+00  0.00000000000E+00  0.45593999997E+02  0.45594000000E+02  0.51100000000E-03 0.  1.
         11   -1    0    0    0    0 -0.00000000000E+00 -0.00000000000E+00 -0.45593999997E+02  0.45594000000E+02  0.51100000000E-03 0. -1.
    9900012    2    1    2    0    0  0.60547791564E+00  0.38025871085E+00  0.93901470729E+00  0.90007767475E+02  0.90000029205E+02 0.  0.
         12    1    1    2    0    0 -0.60547791564E+00 -0.38025871085E+00 -0.93901470729E+00  0.11802325254E+01  0.00000000000E+00 0. -1.
         11    1    3    3    0    0 -0.23735674503E+02 -0.14162635559E+01 -0.27734456533E+02  0.36532015083E+02  0.51100000000E-03 0. -1.
        -11    1    3    3    0    0 -0.53432154357E+01 -0.46329117012E+01 -0.45906144982E+01  0.84313441251E+01  0.51100000000E-03 0.  1.
        -12    1    3    3    0    0  0.29684367854E+02  0.64294339679E+01  0.33264085738E+02  0.45044408267E+02  0.00000000000E+00 0.  1.
</event>
<event>
 7    1  0.1698110E-015  0.9000776E+02  0.7816164E-02  0.1186339E+00
        -11   -1    0    0    0    0  0.00000000000E+00  0.00000000000E+00  0.45593999997E+02  0.45594000000E+02  0.51100000000E-03 0. -1.
         11   -1    0    0    0    0 -0.00000000000E+00 -0.00000000000E+00 -0.45593999997E+02  0.45594000000E+02  0.51100000000E-03 0.  1.
    9900012    2    1    2    0    0 -0.81729545587E+00  0.20396663180E+00 -0.82667109075E+00  0.90007763015E+02  0.90000024687E+02 0.  0.
         12    1    1    2    0    0  0.81729545587E+00 -0.20396663180E+00  0.82667109075E+00  0.11802369853E+01  0.00000000000E+00 0. -1.
         11    1    3    3    0    0 -0.11556603490E+01 -0.97483769590E+01  0.33622684303E+01  0.10376475964E+02  0.51100000000E-03 0. -1.
        -11    1    3    3    0    0  0.91964057823E+01 -0.33182415293E+02 -0.82554389251E+01  0.35409021959E+02  0.51100000000E-03 0.  1.
         12    1    3    3    0    0 -0.88580408892E+01  0.43134758884E+02  0.40664994040E+01  0.44222265091E+02  0.00000000000E+00 0. -1.
</event>
<event>
 7    1  0.1698110E-015  0.9000771E+02  0.7816164E-02  0.1186339E+00
        -11   -1    0    0    0    0  0.00000000000E+00  0.00000000000E+00  0.45593999997E+02  0.45594000000E+02  0.51100000000E-03 0. -1.
         11   -1    0    0    0    0 -0.00000000000E+00 -0.00000000000E+00 -0.45593999997E+02  0.45594000000E+02  0.51100000000E-03 0.  1.
    9900012    2    1    2    0    0 -0.98872534456E+00 -0.35176743590E+00  0.54016312348E+00  0.90007705827E+02  0.89999966743E+02 0.  0.
         12    1    1    2    0    0  0.98872534456E+00  0.35176743590E+00 -0.54016312348E+00  0.11802941735E+01  0.00000000000E+00 0. -1.
         11    1    3    3    0    0 -0.27277275711E+01 -0.21410114406E+02  0.33066369432E+02  0.39486938147E+02  0.51100000000E-03 0. -1.
        -11    1    3    3    0    0  0.33328584267E+01  0.55926714030E+01  0.60759437691E+01  0.89052238411E+01  0.51100000000E-03 0.  1.
        -12    1    3    3    0    0 -0.15938562001E+01  0.15465675567E+02 -0.38602150077E+02  0.41615543838E+02  0.00000000000E+00 0.  1.
</event>
<event>
 7    1  0.1698110E-015  0.9000777E+02  0.7816164E-02  0.1186339E+00
        -11   -1    0    0    0    0  0.00000000000E+00  0.00000000000E+00  0.45593999997E+02  0.45594000000E+02  0.51100000000E-03 0.  1.
         11   -1    0    0    0    0 -0.00000000000E+00 -0.00000000000E+00 -0.45593999997E+02  0.45594000000E+02  0.51100000000E-03 0. -1.
    9900012    2    1    2    0    0 -0.97266727093E+00  0.61149601829E+00  0.27005741280E+00  0.90007771206E+02  0.90000032986E+02 0.  0.
         12    1    1    2    0    0  0.97266727093E+00 -0.61149601829E+00 -0.27005741280E+00  0.11802287941E+01  0.00000000000E+00 0. -1.
         11    1    3    3    0    0 -0.79743250724E+01 -0.38243890779E+01  0.23931932158E+01  0.91620514192E+01  0.51100000000E-03 0. -1.
        -11    1    3    3    0    0  0.39743345739E+02 -0.11031383643E+02  0.10388226753E+02  0.42533988891E+02  0.51100000000E-03 0.  1.
         12    1    3    3    0    0 -0.32741687938E+02  0.15467268739E+02 -0.12511362556E+02  0.38311730896E+02  0.00000000000E+00 0. -1.
</event>
<event>
 7    1  0.1698110E-015  0.9000767E+02  0.7816164E-02  0.1186339E+00
        -11   -1    0    0    0    0  0.00000000000E+00  0.00000000000E+00  0.45593999997E+02  0.45594000000E+02  0.51100000000E-03 0. -1.
         11   -1    0    0    0    0 -0.00000000000E+00 -0.00000000000E+00 -0.45593999997E+02  0.45594000000E+02  0.51100000000E-03 0.  1.
    9900012    2    1    2    0    0 -0.32044929449E+00  0.47363548010E+00 -0.10325553665E+01  0.90007665766E+02  0.89999926154E+02 0.  0.
         12    1    1    2    0    0  0.32044929449E+00 -0.47363548010E+00  0.10325553665E+01  0.11803342337E+01  0.00000000000E+00 0. -1.
         11    1    3    3    0    0 -0.19417873311E+02 -0.20241066614E+02  0.31512134814E+02  0.42187311154E+02  0.51100000000E-03 0. -1.
        -11    1    3    3    0    0  0.44921023215E+01 -0.35704473444E+01 -0.10312810624E+02  0.11801743123E+02  0.51100000000E-03 0.  1.
        -12    1    3    3    0    0  0.14605321695E+02  0.24285149438E+02 -0.22231879556E+02  0.36018611490E+02  0.00000000000E+00 0.  1.
</event>
<event>
 7    1  0.1698110E-015  0.9000769E+02  0.7816164E-02  0.1186339E+00
        -11   -1    0    0    0    0  0.00000000000E+00  0.00000000000E+00  0.45593999997E+02  0.45594000000E+02  0.51100000000E-03 0.  1.
         11   -1    0    0    0    0 -0.00000000000E+00 -0.00000000000E+00 -0.45593999997E+02  0.45594000000E+02  0.51100000000E-03 0. -1.
    9900012    2    1    2    0    0  0.10551634594E+01  0.41796074964E+00  0.32415210195E+00  0.90007688304E+02  0.89999948990E+02 0.  0.
         12    1    1    2    0    0 -0.10551634594E+01 -0.41796074964E+00 -0.32415210195E+00  0.11803116959E+01  0.00000000000E+00 0. -1.
         11    1    3    3    0    0 -0.36451942542E+02  0.68256444120E+01 -0.12897673919E+02  0.39264278034E+02  0.51100000000E-03 0. -1.
        -11    1    3    3    0    0  0.54148426286E+01 -0.86231791097E+01 -0.73512483348E+01  0.12558685878E+02  0.51100000000E-03 0.  1.
        -12    1    3    3    0    0  0.32092263373E+02  0.22154954473E+01  0.20573074356E+02  0.38184724392E+02  0.00000000000E+00 0.  1.
</event>
<event>
 7    1  0.1698110E-015  0.9000769E+02  0.7816164E-02  0.1186339E+00
        -11   -1    0    0    0    0  0.00000000000E+00  0.00000000000E+00  0.45593999997E+02  0.45594000000E+02  0.51100000000E-03 0.  1.
         11   -1    0    0    0    0 -0.00000000000E+00 -0.00000000000E+00 -0.45593999997E+02  0.45594000000E+02  0.51100000000E-03 0. -1.
    9900012    2    1    2    0    0  0.92973385282E+00  0.41985458844E-01  0.72592293335E+00  0.90007689905E+02  0.89999950611E+02 0.  0.
         12    1    1    2    0    0 -0.92973385282E+00 -0.41985458844E-01 -0.72592293335E+00  0.11803100953E+01  0.00000000000E+00 0. -1.
         11    1    3    3    0    0  0.13561435879E+01  0.31561428397E+02 -0.14476811193E+01  0.31623704223E+02  0.51100000000E-03 0. -1.
        -11    1    3    3    0    0  0.70557624434E+00  0.13243578918E+02  0.30066565432E+01  0.13598904523E+02  0.51100000000E-03 0.  1.
        -12    1    3    3    0    0 -0.11319859794E+01 -0.44763021856E+02 -0.83305249062E+00  0.44785081159E+02  0.00000000000E+00 0.  1.
</event>
<event>
 7    1  0.1698110E-015  0.9000784E+02  0.7816164E-02  0.1186339E+00
        -11   -1    0    0    0    0  0.00000000000E+00  0.00000000000E+00  0.45593999997E+02  0.45594000000E+02  0.51100000000E-03 0.  1.
         11   -1    0    0    0    0 -0.00000000000E+00 -0.00000000000E+00 -0.45593999997E+02  0.45594000000E+02  0.51100000000E-03 0. -1.
    9900012    2    1    2    0    0  0.34459449272E+00 -0.11267264131E+01  0.67210485527E-01  0.90007841102E+02  0.90000103805E+02 0.  0.
         12    1    1    2    0    0 -0.34459449272E+00  0.11267264131E+01 -0.67210485527E-01  0.11801588977E+01  0.00000000000E+00 0. -1.
         11    1    3    3    0    0 -0.18051791213E+01 -0.20806807122E+02 -0.30635408438E+02  0.37077083821E+02  0.51100000000E-03 0. -1.
        -11    1    3    3    0    0 -0.11060019165E+01 -0.71342185789E+01 -0.45393990083E+01  0.85279809210E+01  0.51100000000E-03 0.  1.
        -12    1    3    3    0    0  0.32557755306E+01  0.26814299287E+02  0.35242017932E+02  0.44402776360E+02  0.00000000000E+00 0.  1.
</event>
<event>
 7    1  0.1698110E-015  0.9000773E+02  0.7816164E-02  0.1186339E+00
        -11   -1    0    0    0    0  0.00000000000E+00  0.00000000000E+00  0.45593999997E+02  0.45594000000E+02  0.51100000000E-03 0.  1.
         11   -1    0    0    0    0 -0.00000000000E+00 -0.00000000000E+00 -0.45593999997E+02  0.45594000000E+02  0.51100000000E-03 0. -1.
    9900012    2    1    2    0    0  0.49308078335E+00 -0.49108065257E+00  0.95328311013E+00  0.90007729881E+02  0.89999991115E+02 0.  0.
         12    1    1    2    0    0 -0.49308078335E+00  0.49108065257E+00 -0.95328311013E+00  0.11802701192E+01  0.00000000000E+00 0. -1.
         11    1    3    3    0    0  0.16745254806E+00  0.68415882216E+01 -0.67764426347E+01  0.96309680091E+01  0.51100000000E-03 0. -1.
        -11    1    3    3    0    0 -0.28759243064E+01  0.27332010301E+02 -0.21521441511E+02  0.34906763996E+02  0.51100000000E-03 0.  1.
         12    1    3    3    0    0  0.32015525417E+01 -0.34664679175E+02  0.29251167255E+02  0.45469997876E+02  0.00000000000E+00 0. -1.
</event>
<event>
 7    1  0.1698110E-015  0.9000776E+02  0.7816164E-02  0.1186339E+00
        -11   -1    0    0    0    0  0.00000000000E+00  0.00000000000E+00  0.45593999997E+02  0.45594000000E+02  0.51100000000E-03 0.  1.
         11   -1    0    0    0    0 -0.00000000000E+00 -0.00000000000E+00 -0.45593999997E+02  0.45594000000E+02  0.51100000000E-03 0. -1.
    9900012    2    1    2    0    0  0.34813899978E+00 -0.20983783953E+00  0.11080294945E+01  0.90007761870E+02  0.90000023527E+02 0.  0.
         12    1    1    2    0    0 -0.34813899978E+00  0.20983783953E+00 -0.11080294945E+01  0.11802381297E+01  0.00000000000E+00 0. -1.
         11    1    3    3    0    0  0.75770328566E+01  0.33974658610E+01  0.20685094269E+01  0.85576242437E+01  0.51100000000E-03 0. -1.
        -11    1    3    3    0    0  0.34477477776E+02 -0.13956051642E+02  0.67223818434E+01  0.37797596076E+02  0.51100000000E-03 0.  1.
         12    1    3    3    0    0 -0.41706371633E+02  0.10348747942E+02 -0.76828617757E+01  0.43652541550E+02  0.00000000000E+00 0. -1.
</event>
<event>
 8    1  0.1698110E-015  0.9000771E+02  0.7816164E-02  0.1186339E+00
        -11   -1    0    0    0    0  0.00000000000E+00  0.00000000000E+00  0.45593999997E+02  0.45594000000E+02  0.51100000000E-03 0. -1.
         11   -1    0    0    0    0 -0.00000000000E+00 -0.00000000000E+00 -0.45593999997E+02  0.45594000000E+02  0.51100000000E-03 0.  1.
    9900012    2    1    2    0    0  0.62803779576E+00 -0.67262213493E+00 -0.73906837553E+00  0.90007714410E+02  0.89999975441E+02 0.  0.
         23    2    3    3    0    0  0.20675945130E+02 -0.17657999005E+02 -0.11914148185E+02  0.61454185300E+02  0.53808645477E+02 0.  0.
         12    1    1    2    0    0 -0.62803779576E+00  0.67262213493E+00  0.73906837553E+00  0.11802855896E+01  0.00000000000E+00 0. -1.
         11    1    4    4    0    0  0.14431233845E+02 -0.35372471296E+02 -0.17266114830E+02  0.41923632446E+02  0.51100000000E-03 0. -1.
        -11    1    4    4    0    0  0.62447112846E+01  0.17714472291E+02  0.53519666451E+01  0.19530552854E+02  0.51100000000E-03 0.  1.
        -12    1    3    3    0    0 -0.20047907334E+02  0.16985376870E+02  0.11175079810E+02  0.28553529110E+02  0.00000000000E+00 0.  1.
</event>
<event>
 7    1  0.1698110E-015  0.9000789E+02  0.7816164E-02  0.1186339E+00
        -11   -1    0    0    0    0  0.00000000000E+00  0.00000000000E+00  0.45593999997E+02  0.45594000000E+02  0.51100000000E-03 0.  1.
         11   -1    0    0    0    0 -0.00000000000E+00 -0.00000000000E+00 -0.45593999997E+02  0.45594000000E+02  0.51100000000E-03 0. -1.
    9900012    2    1    2    0    0 -0.89326809888E+00 -0.64626585325E+00  0.42079681808E+00  0.90007890932E+02  0.90000154292E+02 0.  0.
         12    1    1    2    0    0  0.89326809888E+00  0.64626585325E+00 -0.42079681808E+00  0.11801090677E+01  0.00000000000E+00 0. -1.
         11    1    3    3    0    0 -0.86916556838E+01  0.35953384644E+02 -0.70800339665E+01  0.37660557976E+02  0.51100000000E-03 0. -1.
        -11    1    3    3    0    0 -0.87098061856E+01  0.27012253600E+01  0.22949438898E+01  0.94034094856E+01  0.51100000000E-03 0.  1.
        -12    1    3    3    0    0  0.16508193770E+02 -0.39300875857E+02  0.52058868948E+01  0.42943923470E+02  0.00000000000E+00 0.  1.
</event>
<event>
 7    1  0.1698110E-015  0.9000671E+02  0.7816164E-02  0.1186341E+00
        -11   -1    0    0    0    0  0.00000000000E+00  0.00000000000E+00  0.45593999997E+02  0.45594000000E+02  0.51100000000E-03 0.  1.
         11   -1    0    0    0    0 -0.00000000000E+00 -0.00000000000E+00 -0.45593999997E+02  0.45594000000E+02  0.51100000000E-03 0. -1.
    9900012    2    1    2    0    0 -0.85273033073E+00 -0.12021300033E+00  0.80860797469E+00  0.90006709587E+02  0.89998957348E+02 0.  0.
         12    1    1    2    0    0  0.85273033073E+00  0.12021300033E+00 -0.80860797469E+00  0.11812904127E+01  0.00000000000E+00 0. -1.
         11    1    3    3    0    0 -0.98985478155E+01  0.31466121726E+02 -0.21221561380E+02  0.39223114779E+02  0.51100000000E-03 0. -1.
        -11    1    3    3    0    0 -0.87537103346E+01  0.24396714473E+00  0.74882141641E+01  0.11522166299E+02  0.51100000000E-03 0.  1.
        -12    1    3    3    0    0  0.17799527819E+02 -0.31830301871E+02  0.14541955191E+02  0.39261428509E+02  0.00000000000E+00 0.  1.
</event>
<event>
 7    1  0.1715063E-015  0.9000769E+02  0.7816164E-02  0.1186339E+00
        -11   -1    0    0    0    0  0.00000000000E+00  0.00000000000E+00  0.45593999997E+02  0.45594000000E+02  0.51100000000E-03 0.  1.
         11   -1    0    0    0    0 -0.00000000000E+00 -0.00000000000E+00 -0.45593999997E+02  0.45594000000E+02  0.51100000000E-03 0. -1.
    9900012    2    1    2    0    0 -0.79613896021E+00 -0.73708620959E+00  0.46475187000E+00  0.90007691725E+02  0.89999952455E+02 0.  0.
         12    1    1    2    0    0  0.79613896021E+00  0.73708620959E+00 -0.46475187000E+00  0.11803082754E+01  0.00000000000E+00 0. -1.
         11    1    3    3    0    0  0.34059749679E+01  0.89036474840E+01 -0.16747276946E+01  0.96788592878E+01  0.51100000000E-03 0. -1.
        -11    1    3    3    0    0 -0.31763509917E+02 -0.12481345659E+02  0.26677871012E+02  0.43317587118E+02  0.51100000000E-03 0.  1.
         12    1    3    3    0    0  0.27561395989E+02  0.28406119656E+01 -0.24538391447E+02  0.37011245319E+02  0.00000000000E+00 0. -1.
</event>
<event>
 7    1  0.1698110E-015  0.9000770E+02  0.7816164E-02  0.1186339E+00
        -11   -1    0    0    0    0  0.00000000000E+00  0.00000000000E+00  0.45593999997E+02  0.45594000000E+02  0.51100000000E-03 0.  1.
         11   -1    0    0    0    0 -0.00000000000E+00 -0.00000000000E+00 -0.45593999997E+02  0.45594000000E+02  0.51100000000E-03 0. -1.
    9900012    2    1    2    0    0 -0.91362727515E+00  0.65697217747E+00  0.35606281366E+00  0.90007700052E+02  0.89999960893E+02 0.  0.
         12    1    1    2    0    0  0.91362727515E+00 -0.65697217747E+00 -0.35606281366E+00  0.11802999480E+01  0.00000000000E+00 0. -1.
         11    1    3    3    0    0  0.19747703258E+02 -0.20298998399E+02 -0.98400493407E+01  0.29980788703E+02  0.51100000000E-03 0. -1.
        -11    1    3    3    0    0  0.90948601491E+01  0.25448364163E+02 -0.29542323997E+01  0.27185717005E+02  0.51100000000E-03 0.  1.
        -12    1    3    3    0    0 -0.29756190682E+02 -0.44923935865E+01  0.13150344554E+02  0.32841194344E+02  0.00000000000E+00 0.  1.
</event>
<event>
 7    1  0.1698110E-015  0.9000775E+02  0.7816164E-02  0.1186339E+00
        -11   -1    0    0    0    0  0.00000000000E+00  0.00000000000E+00  0.45593999997E+02  0.45594000000E+02  0.51100000000E-03 0.  1.
         11   -1    0    0    0    0 -0.00000000000E+00 -0.00000000000E+00 -0.45593999997E+02  0.45594000000E+02  0.51100000000E-03 0. -1.
    9900012    2    1    2    0    0 -0.53028681188E+00  0.51480904022E+00  0.92019742428E+00  0.90007747590E+02  0.90000009059E+02 0.  0.
         12    1    1    2    0    0  0.53028681188E+00 -0.51480904022E+00 -0.92019742428E+00  0.11802524096E+01  0.00000000000E+00 0. -1.
         11    1    3    3    0    0  0.70606808019E+01  0.20408415135E+01  0.35339744072E+01  0.81551960639E+01  0.51100000000E-03 0. -1.
        -11    1    3    3    0    0  0.22256313386E+02  0.13261217744E+02  0.26901139270E+02  0.37348021044E+02  0.51100000000E-03 0.  1.
         12    1    3    3    0    0 -0.29847281000E+02 -0.14787250218E+02 -0.29514916253E+02  0.44504530483E+02  0.00000000000E+00 0. -1.
</event>
<event>
 7    1  0.1827719E-015  0.9000776E+02  0.7816164E-02  0.1186339E+00
        -11   -1    0    0    0    0  0.00000000000E+00  0.00000000000E+00  0.45593999997E+02  0.45594000000E+02  0.51100000000E-03 0.  1.
         11   -1    0    0    0    0 -0.00000000000E+00 -0.00000000000E+00 -0.45593999997E+02  0.45594000000E+02  0.51100000000E-03 0. -1.
    9900012    2    1    2    0    0  0.12199896468E+00  0.11237545403E+01  0.33949610902E+00  0.90007760354E+02  0.90000021991E+02 0.  0.
         12    1    1    2    0    0 -0.12199896468E+00 -0.11237545403E+01 -0.33949610902E+00  0.11802396461E+01  0.00000000000E+00 0. -1.
         11    1    3    3    0    0 -0.24896685123E+00  0.73306669144E+00  0.91863886585E+01  0.92189537429E+01  0.51100000000E-03 0. -1.
        -11    1    3    3    0    0  0.34067803719E+02 -0.17186310041E+02  0.83711844499E+01  0.39064833705E+02  0.51100000000E-03 0.  1.
         12    1    3    3    0    0 -0.33696837903E+02  0.17576997890E+02 -0.17218076999E+02  0.41723972906E+02  0.00000000000E+00 0. -1.
</event>
<event>
 7    1  0.1698110E-015  0.9000776E+02  0.7816164E-02  0.1186339E+00
        -11   -1    0    0    0    0  0.00000000000E+00  0.00000000000E+00  0.45593999997E+02  0.45594000000E+02  0.51100000000E-03 0. -1.
         11   -1    0    0    0    0 -0.00000000000E+00 -0.00000000000E+00 -0.45593999997E+02  0.45594000000E+02  0.51100000000E-03 0.  1.
    9900012    2    1    2    0    0  0.14630504854E-01  0.18339570237E+00 -0.11658144791E+01  0.90007757891E+02  0.90000019496E+02 0.  0.
         12    1    1    2    0    0 -0.14630504854E-01 -0.18339570237E+00  0.11658144791E+01  0.11802421086E+01  0.00000000000E+00 0. -1.
         11    1    3    3    0    0  0.27774461845E+01 -0.20683913828E+02 -0.26920333218E+02  0.34062337550E+02  0.51100000000E-03 0. -1.
        -11    1    3    3    0    0 -0.53946497655E+00 -0.42131719970E+01 -0.10773293546E+02  0.11580401324E+02  0.51100000000E-03 0.  1.
        -12    1    3    3    0    0 -0.22233507031E+01  0.25080481527E+02  0.36527812286E+02  0.44365019017E+02  0.00000000000E+00 0.  1.
</event>
<event>
 7    1  0.1698110E-015  0.9000741E+02  0.7816164E-02  0.1186340E+00
        -11   -1    0    0    0    0  0.00000000000E+00  0.00000000000E+00  0.45593999997E+02  0.45594000000E+02  0.51100000000E-03 0.  1.
         11   -1    0    0    0    0 -0.00000000000E+00 -0.00000000000E+00 -0.45593999997E+02  0.45594000000E+02  0.51100000000E-03 0. -1.
    9900012    2    1    2    0    0 -0.20970427528E+00  0.61797524226E+00  0.98382953868E+00  0.90007411230E+02  0.89999668257E+02 0.  0.
         12    1    1    2    0    0  0.20970427528E+00 -0.61797524226E+00 -0.98382953868E+00  0.11805887702E+01  0.00000000000E+00 0. -1.
         11    1    3    3    0    0  0.16578808197E+02  0.62353333182E+01 -0.38998442704E+02  0.42832403580E+02  0.51100000000E-03 0. -1.
        -11    1    3    3    0    0  0.28574272424E+01  0.15428235919E+01  0.10779266791E+02  0.11257787878E+02  0.51100000000E-03 0.  1.
        -12    1    3    3    0    0 -0.19645939715E+02 -0.71601816679E+01  0.29203005451E+02  0.35917219772E+02  0.00000000000E+00 0.  1.
</event>
<event>
 7    1  0.1698110E-015  0.9000773E+02  0.7816164E-02  0.1186339E+00
        -11   -1    0    0    0    0  0.00000000000E+00  0.00000000000E+00  0.45593999997E+02  0.45594000000E+02  0.51100000000E-03 0.  1.
         11   -1    0    0    0    0 -0.00000000000E+00 -0.00000000000E+00 -0.45593999997E+02  0.45594000000E+02  0.51100000000E-03 0. -1.
    9900012    2    1    2    0    0  0.19913496605E+00 -0.11471265695E+01  0.19357679021E+00  0.90007734744E+02  0.89999996042E+02 0.  0.
         12    1    1    2    0    0 -0.19913496605E+00  0.11471265695E+01 -0.19357679021E+00  0.11802652562E+01  0.00000000000E+00 0. -1.
         11    1    3    3    0    0  0.37222416848E+02 -0.53295971128E+01 -0.97227394529E+01  0.38838699568E+02  0.51100000000E-03 0. -1.
        -11    1    3    3    0    0 -0.53598983557E+01 -0.12721186415E+02 -0.44204188902E+00  0.13811317659E+02  0.51100000000E-03 0.  1.
        -12    1    3    3    0    0 -0.31663383526E+02  0.16903656958E+02  0.10358358132E+02  0.37357717517E+02  0.00000000000E+00 0.  1.
</event>
<event>
 7    1  0.1698110E-015  0.9000774E+02  0.7816164E-02  0.1186339E+00
        -11   -1    0    0    0    0  0.00000000000E+00  0.00000000000E+00  0.45593999997E+02  0.45594000000E+02  0.51100000000E-03 0.  1.
         11   -1    0    0    0    0 -0.00000000000E+00 -0.00000000000E+00 -0.45593999997E+02  0.45594000000E+02  0.51100000000E-03 0. -1.
    9900012    2    1    2    0    0 -0.73603603924E+00 -0.27530509840E+00  0.88061096276E+00  0.90007738327E+02  0.89999999673E+02 0.  0.
         12    1    1    2    0    0  0.73603603924E+00  0.27530509840E+00 -0.88061096276E+00  0.11802616727E+01  0.00000000000E+00 0. -1.
         11    1    3    3    0    0 -0.88900033981E+01  0.24794383836E+01  0.61376047864E+01  0.11083770473E+02  0.51100000000E-03 0. -1.
        -11    1    3    3    0    0  0.31955470728E+02  0.17967778627E+02  0.16895682008E+02  0.40366536253E+02  0.51100000000E-03 0.  1.
         12    1    3    3    0    0 -0.23801503369E+02 -0.20722522109E+02 -0.22152675832E+02  0.38557431602E+02  0.00000000000E+00 0. -1.
</event>
<event>
 7    1  0.1698110E-015  0.9000774E+02  0.7816164E-02  0.1186339E+00
        -11   -1    0    0    0    0  0.00000000000E+00  0.00000000000E+00  0.45593999997E+02  0.45594000000E+02  0.51100000000E-03 0. -1.
         11   -1    0    0    0    0 -0.00000000000E+00 -0.00000000000E+00 -0.45593999997E+02  0.45594000000E+02  0.51100000000E-03 0.  1.
    9900012    2    1    2    0    0 -0.14059428346E+00  0.10411523341E+01 -0.53782561425E+00  0.90007736755E+02  0.89999998080E+02 0.  0.
         12    1    1    2    0    0  0.14059428346E+00 -0.10411523341E+01  0.53782561425E+00  0.11802632447E+01  0.00000000000E+00 0. -1.
         11    1    3    3    0    0 -0.30863901327E+01  0.77803968619E+01  0.33727281787E+01  0.90241717076E+01  0.51100000000E-03 0. -1.
        -11    1    3    3    0    0  0.55223434472E+01  0.10048038839E+02 -0.39724790540E+02  0.41346322029E+02  0.51100000000E-03 0.  1.
         12    1    3    3    0    0 -0.25765475980E+01 -0.16787283367E+02  0.35814236747E+02  0.39637243019E+02  0.00000000000E+00 0. -1.
</event>
<event>
 7    1  0.1698110E-015  0.9000779E+02  0.7816164E-02  0.1186339E+00
        -11   -1    0    0    0    0  0.00000000000E+00  0.00000000000E+00  0.45593999997E+02  0.45594000000E+02  0.51100000000E-03 0. -1.
         11   -1    0    0    0    0 -0.00000000000E+00 -0.00000000000E+00 -0.45593999997E+02  0.45594000000E+02  0.51100000000E-03 0.  1.
    9900012    2    1    2    0    0  0.79694122635E+00  0.40994650759E+00 -0.76793704029E+00  0.90007788682E+02  0.90000050693E+02 0.  0.
         12    1    1    2    0    0 -0.79694122635E+00 -0.40994650759E+00  0.76793704029E+00  0.11802113180E+01  0.00000000000E+00 0. -1.
         11    1    3    3    0    0  0.82442458011E+01 -0.28134963543E+01 -0.56109582148E+01  0.10361766399E+02  0.51100000000E-03 0. -1.
        -11    1    3    3    0    0  0.32632894270E+02 -0.59547201884E+01 -0.11911933700E+02  0.35245689747E+02  0.51100000000E-03 0.  1.
         12    1    3    3    0    0 -0.40080198845E+02  0.91781630503E+01  0.16754954875E+02  0.44400332536E+02  0.00000000000E+00 0. -1.
</event>
<event>
 7    1  0.1754023E-015  0.9000775E+02  0.7816164E-02  0.1186339E+00
        -11   -1    0    0    0    0  0.00000000000E+00  0.00000000000E+00  0.45593999997E+02  0.45594000000E+02  0.51100000000E-03 0.  1.
         11   -1    0    0    0    0 -0.00000000000E+00 -0.00000000000E+00 -0.45593999997E+02  0.45594000000E+02  0.51100000000E-03 0. -1.
    9900012    2    1    2    0    0 -0.98707036793E+00 -0.48871729382E+00 -0.42408126584E+00  0.90007746881E+02  0.90000008340E+02 0.  0.
         12    1    1    2    0    0  0.98707036793E+00  0.48871729382E+00  0.42408126584E+00  0.11802531189E+01  0.00000000000E+00 0. -1.
         11    1    3    3    0    0 -0.89569828816E+01  0.25188626003E+01  0.88695425766E+00  0.93465982719E+01  0.51100000000E-03 0. -1.
        -11    1    3    3    0    0  0.24068768838E+01  0.63230506115E+01  0.38656254693E+02  0.39243853691E+02  0.51100000000E-03 0.  1.
         12    1    3    3    0    0  0.55630356299E+01 -0.93306305056E+01 -0.39967290217E+02  0.41417294918E+02  0.00000000000E+00 0. -1.
</event>
<event>
 7    1  0.1698110E-015  0.9000792E+02  0.7816164E-02  0.1186339E+00
        -11   -1    0    0    0    0  0.00000000000E+00  0.00000000000E+00  0.45593999997E+02  0.45594000000E+02  0.51100000000E-03 0.  1.
         11   -1    0    0    0    0 -0.00000000000E+00 -0.00000000000E+00 -0.45593999997E+02  0.45594000000E+02  0.51100000000E-03 0. -1.
    9900012    2    1    2    0    0 -0.94071030653E+00  0.71232598635E+00  0.15317780588E-01  0.90007924229E+02  0.90000188028E+02 0.  0.
         12    1    1    2    0    0  0.94071030653E+00 -0.71232598635E+00 -0.15317780588E-01  0.11800757713E+01  0.00000000000E+00 0. -1.
         11    1    3    3    0    0  0.17108374338E+02  0.14570972967E+02 -0.26144217623E+02  0.34475061147E+02  0.51100000000E-03 0. -1.
        -11    1    3    3    0    0  0.34133930505E+00 -0.18637780543E+02 -0.47621993463E+01  0.19239592485E+02  0.51100000000E-03 0.  1.
        -12    1    3    3    0    0 -0.18390423950E+02  0.47791335623E+01  0.30921734750E+02  0.36293270597E+02  0.00000000000E+00 0.  1.
</event>
<event>
 7    1  0.1698110E-015  0.9000777E+02  0.7816164E-02  0.1186339E+00
        -11   -1    0    0    0    0  0.00000000000E+00  0.00000000000E+00  0.45593999997E+02  0.45594000000E+02  0.51100000000E-03 0. -1.
         11   -1    0    0    0    0 -0.00000000000E+00 -0.00000000000E+00 -0.45593999997E+02  0.45594000000E+02  0.51100000000E-03 0.  1.
    9900012    2    1    2    0    0 -0.32839247173E+00 -0.11320935579E+01  0.58900543869E-01  0.90007768365E+02  0.90000030107E+02 0.  0.
         12    1    1    2    0    0  0.32839247173E+00  0.11320935579E+01 -0.58900543869E-01  0.11802316355E+01  0.00000000000E+00 0. -1.
         11    1    3    3    0    0 -0.14622278910E+01  0.60575462099E+01 -0.44082809702E+01  0.76331460005E+01  0.51100000000E-03 0. -1.
        -11    1    3    3    0    0 -0.39782483671E+01  0.29744639537E+02 -0.21517936758E+02  0.36926841780E+02  0.51100000000E-03 0.  1.
         12    1    3    3    0    0  0.51120837864E+01 -0.36934279305E+02  0.25985118272E+02  0.45447780584E+02  0.00000000000E+00 0. -1.
</event>
<event>
 7    1  0.1698110E-015  0.9000771E+02  0.7816164E-02  0.1186339E+00
        -11   -1    0    0    0    0  0.00000000000E+00  0.00000000000E+00  0.45593999997E+02  0.45594000000E+02  0.51100000000E-03 0. -1.
         11   -1    0    0    0    0 -0.00000000000E+00 -0.00000000000E+00 -0.45593999997E+02  0.45594000000E+02  0.51100000000E-03 0.  1.
    9900012    2    1    2    0    0 -0.12713144355E+00  0.10650153578E+01 -0.49261797189E+00  0.90007706569E+02  0.89999967496E+02 0.  0.
         12    1    1    2    0    0  0.12713144355E+00 -0.10650153578E+01  0.49261797189E+00  0.11802934307E+01  0.00000000000E+00 0. -1.
         11    1    3    3    0    0 -0.28570510067E+02 -0.11673915352E+02 -0.26845202934E+02  0.40905002945E+02  0.51100000000E-03 0. -1.
        -11    1    3    3    0    0  0.32153910682E+01 -0.77971661833E+01  0.26058126401E+01  0.88275024774E+01  0.51100000000E-03 0.  1.
        -12    1    3    3    0    0  0.25227987555E+02  0.20536096893E+02  0.23746772322E+02  0.40275201147E+02  0.00000000000E+00 0.  1.
</event>
<event>
 7    1  0.1698110E-015  0.9000773E+02  0.7816164E-02  0.1186339E+00
        -11   -1    0    0    0    0  0.00000000000E+00  0.00000000000E+00  0.45593999997E+02  0.45594000000E+02  0.51100000000E-03 0.  1.
         11   -1    0    0    0    0 -0.00000000000E+00 -0.00000000000E+00 -0.45593999997E+02  0.45594000000E+02  0.51100000000E-03 0. -1.
    9900012    2    1    2    0    0 -0.68418544924E+00 -0.91437589628E+00  0.29807330270E+00  0.90007728547E+02  0.89999989764E+02 0.  0.
         12    1    1    2    0    0  0.68418544924E+00  0.91437589628E+00 -0.29807330270E+00  0.11802714529E+01  0.00000000000E+00 0. -1.
         11    1    3    3    0    0  0.25762025866E+00 -0.51573303310E+01  0.57180982275E+01  0.77046136789E+01  0.51100000000E-03 0. -1.
        -11    1    3    3    0    0 -0.30992655709E+02  0.87203518830E-01  0.24641259689E+02  0.39594747022E+02  0.51100000000E-03 0.  1.
         12    1    3    3    0    0  0.30050850001E+02  0.41557509159E+01 -0.30061284614E+02  0.42708367847E+02  0.00000000000E+00 0. -1.
</event>
<event>
 7    1  0.1698110E-015  0.9000775E+02  0.7816164E-02  0.1186339E+00
        -11   -1    0    0    0    0  0.00000000000E+00  0.00000000000E+00  0.45593999997E+02  0.45594000000E+02  0.51100000000E-03 0.  1.
         11   -1    0    0    0    0 -0.00000000000E+00 -0.00000000000E+00 -0.45593999997E+02  0.45594000000E+02  0.51100000000E-03 0. -1.
    9900012    2    1    2    0    0  0.33455225196E+00  0.42656198134E+00  0.10483829623E+01  0.90007751226E+02  0.90000012742E+02 0.  0.
         12    1    1    2    0    0 -0.33455225196E+00 -0.42656198134E+00 -0.10483829623E+01  0.11802487742E+01  0.00000000000E+00 0. -1.
         11    1    3    3    0    0  0.26928779602E+02  0.24120708473E+02 -0.16186192289E+02  0.39610106907E+02  0.51100000000E-03 0. -1.
        -11    1    3    3    0    0 -0.31417561748E+01  0.67567217803E+01 -0.15603145499E+01  0.76130481960E+01  0.51100000000E-03 0.  1.
        -12    1    3    3    0    0 -0.23452471175E+02 -0.30450868272E+02  0.18794889801E+02  0.42784596123E+02  0.00000000000E+00 0.  1.
</event>
<event>
 7    1  0.1698110E-015  0.9000783E+02  0.7816164E-02  0.1186339E+00
        -11   -1    0    0    0    0  0.00000000000E+00  0.00000000000E+00  0.45593999997E+02  0.45594000000E+02  0.51100000000E-03 0. -1.
         11   -1    0    0    0    0 -0.00000000000E+00 -0.00000000000E+00 -0.45593999997E+02  0.45594000000E+02  0.51100000000E-03 0.  1.
    9900012    2    1    2    0    0 -0.47471740502E+00 -0.10786321083E+01 -0.63191342963E-01  0.90007831798E+02  0.90000094377E+02 0.  0.
         12    1    1    2    0    0  0.47471740502E+00  0.10786321083E+01  0.63191342963E-01  0.11801682022E+01  0.00000000000E+00 0. -1.
         11    1    3    3    0    0  0.26690909612E+02 -0.13733507196E+02  0.15663465594E+02  0.33857909423E+02  0.51100000000E-03 0. -1.
        -11    1    3    3    0    0  0.96441740775E+01  0.13005019640E+02 -0.18423004165E+00  0.16191805658E+02  0.51100000000E-03 0.  1.
        -12    1    3    3    0    0 -0.36809801094E+02 -0.35014455321E+00 -0.15542426896E+02  0.39958116717E+02  0.00000000000E+00 0.  1.
</event>
<event>
 7    1  0.1698110E-015  0.9000775E+02  0.7816164E-02  0.1186339E+00
        -11   -1    0    0    0    0  0.00000000000E+00  0.00000000000E+00  0.45593999997E+02  0.45594000000E+02  0.51100000000E-03 0.  1.
         11   -1    0    0    0    0 -0.00000000000E+00 -0.00000000000E+00 -0.45593999997E+02  0.45594000000E+02  0.51100000000E-03 0. -1.
    9900012    2    1    2    0    0  0.34730280900E+00  0.11241969659E+01 -0.92435700889E-01  0.90007753239E+02  0.90000014781E+02 0.  0.
         12    1    1    2    0    0 -0.34730280900E+00 -0.11241969659E+01  0.92435700889E-01  0.11802467615E+01  0.00000000000E+00 0. -1.
         11    1    3    3    0    0 -0.47881415209E+01 -0.35341588825E+02 -0.13252554965E+02  0.38047134101E+02  0.51100000000E-03 0. -1.
        -11    1    3    3    0    0 -0.51786495527E+01  0.83517913376E+00 -0.77660205096E+01  0.93716065961E+01  0.51100000000E-03 0.  1.
        -12    1    3    3    0    0  0.10314093883E+02  0.35630606658E+02  0.20926139774E+02  0.42589012541E+02  0.00000000000E+00 0.  1.
</event>
<event>
 7    1  0.1698110E-015  0.9000765E+02  0.7816164E-02  0.1186339E+00
        -11   -1    0    0    0    0  0.00000000000E+00  0.00000000000E+00  0.45593999997E+02  0.45594000000E+02  0.51100000000E-03 0.  1.
         11   -1    0    0    0    0 -0.00000000000E+00 -0.00000000000E+00 -0.45593999997E+02  0.45594000000E+02  0.51100000000E-03 0. -1.
    9900012    2    1    2    0    0 -0.65531092481E+00 -0.40394804572E-01  0.98089932298E+00  0.90007649361E+02  0.89999909533E+02 0.  0.
         12    1    1    2    0    0  0.65531092481E+00  0.40394804572E-01 -0.98089932298E+00  0.11803506387E+01  0.00000000000E+00 0. -1.
         11    1    3    3    0    0  0.19287824886E+00 -0.20948775741E+01  0.11804693238E+01  0.24123063974E+01  0.51100000000E-03 0. -1.
        -11    1    3    3    0    0 -0.34561889525E+02 -0.25475856995E+02  0.69203289362E+01  0.43490624852E+02  0.51100000000E-03 0.  1.
         12    1    3    3    0    0  0.33713700351E+02  0.27530339764E+02 -0.71198989370E+01  0.44104718112E+02  0.00000000000E+00 0. -1.
</event>
<event>
 7    1  0.1698110E-015  0.9000784E+02  0.7816164E-02  0.1186339E+00
        -11   -1    0    0    0    0  0.00000000000E+00  0.00000000000E+00  0.45593999997E+02  0.45594000000E+02  0.51100000000E-03 0. -1.
         11   -1    0    0    0    0 -0.00000000000E+00 -0.00000000000E+00 -0.45593999997E+02  0.45594000000E+02  0.51100000000E-03 0.  1.
    9900012    2    1    2    0    0  0.44361876031E+00 -0.10889307889E+01 -0.10107684195E+00  0.90007837132E+02  0.90000099782E+02 0.  0.
         12    1    1    2    0    0 -0.44361876031E+00  0.10889307889E+01  0.10107684195E+00  0.11801628682E+01  0.00000000000E+00 0. -1.
         11    1    3    3    0    0 -0.11764432032E+02  0.20615394249E+01 -0.58358008318E+00  0.11957941789E+02  0.51100000000E-03 0. -1.
        -11    1    3    3    0    0  0.11277841663E+02  0.22999180365E+02 -0.28958225928E+02  0.38661749303E+02  0.51100000000E-03 0.  1.
         12    1    3    3    0    0  0.93020913019E+00 -0.26149650579E+02  0.29440729169E+02  0.39388146040E+02  0.00000000000E+00 0. -1.
</event>
<event>
 7    1  0.1698110E-015  0.9000788E+02  0.7816164E-02  0.1186339E+00
        -11   -1    0    0    0    0  0.00000000000E+00  0.00000000000E+00  0.45593999997E+02  0.45594000000E+02  0.51100000000E-03 0.  1.
         11   -1    0    0    0    0 -0.00000000000E+00 -0.00000000000E+00 -0.45593999997E+02  0.45594000000E+02  0.51100000000E-03 0. -1.
    9900012    2    1    2    0    0 -0.66789401294E+00  0.84335522953E+00 -0.48513019069E+00  0.90007880617E+02  0.90000143841E+02 0.  0.
         12    1    1    2    0    0  0.66789401294E+00 -0.84335522953E+00  0.48513019069E+00  0.11801193828E+01  0.00000000000E+00 0. -1.
         11    1    3    3    0    0  0.13529214305E+02 -0.78974357678E+01 -0.11615039059E+01  0.15708539811E+02  0.51100000000E-03 0. -1.
        -11    1    3    3    0    0 -0.15283247173E+02 -0.30966608894E+02  0.15499715465E+01  0.34567483602E+02  0.51100000000E-03 0.  1.
         12    1    3    3    0    0  0.10861388546E+01  0.39707399891E+02 -0.87359783132E+00  0.39731857204E+02  0.00000000000E+00 0. -1.
</event>
<event>
 7    1  0.1698110E-015  0.9000794E+02  0.7816164E-02  0.1186339E+00
        -11   -1    0    0    0    0  0.00000000000E+00  0.00000000000E+00  0.45593999997E+02  0.45594000000E+02  0.51100000000E-03 0. -1.
         11   -1    0    0    0    0 -0.00000000000E+00 -0.00000000000E+00 -0.45593999997E+02  0.45594000000E+02  0.51100000000E-03 0.  1.
    9900012    2    1    2    0    0 -0.57315865122E+00 -0.10183411586E+01  0.16431961657E+00  0.90007944708E+02  0.90000208778E+02 0.  0.
         12    1    1    2    0    0  0.57315865122E+00  0.10183411586E+01 -0.16431961657E+00  0.11800552915E+01  0.00000000000E+00 0. -1.
         11    1    3    3    0    0  0.17229681004E+01 -0.13845687839E+02 -0.33329781049E+01  0.14345049115E+02  0.51100000000E-03 0. -1.
        -11    1    3    3    0    0  0.33784217989E+02  0.18853030823E+02 -0.16427013591E+01  0.38723489310E+02  0.51100000000E-03 0.  1.
         12    1    3    3    0    0 -0.36080344741E+02 -0.60256841433E+01  0.51399990805E+01  0.36939406283E+02  0.00000000000E+00 0. -1.
</event>
<event>
 7    1  0.1698110E-015  0.9000774E+02  0.7816164E-02  0.1186339E+00
        -11   -1    0    0    0    0  0.00000000000E+00  0.00000000000E+00  0.45593999997E+02  0.45594000000E+02  0.51100000000E-03 0. -1.
         11   -1    0    0    0    0 -0.00000000000E+00 -0.00000000000E+00 -0.45593999997E+02  0.45594000000E+02  0.51100000000E-03 0.  1.
    9900012    2    1    2    0    0  0.58842485366E+00 -0.22449057830E+00 -0.99818624499E+00  0.90007739178E+02  0.90000000535E+02 0.  0.
         12    1    1    2    0    0 -0.58842485366E+00  0.22449057830E+00  0.99818624499E+00  0.11802608220E+01  0.00000000000E+00 0. -1.
         11    1    3    3    0    0  0.25071955928E+02  0.62666755505E+00 -0.13612400220E+01  0.25116700837E+02  0.51100000000E-03 0. -1.
        -11    1    3    3    0    0  0.14103135128E+01 -0.49315780088E+01 -0.26715232016E+02  0.27203181207E+02  0.51100000000E-03 0.  1.
        -12    1    3    3    0    0 -0.25893844587E+02  0.40804198754E+01  0.27078285793E+02  0.37687857134E+02  0.00000000000E+00 0.  1.
</event>
<event>
 7    1  0.1698110E-015  0.9000775E+02  0.7816164E-02  0.1186339E+00
        -11   -1    0    0    0    0  0.00000000000E+00  0.00000000000E+00  0.45593999997E+02  0.45594000000E+02  0.51100000000E-03 0.  1.
         11   -1    0    0    0    0 -0.00000000000E+00 -0.00000000000E+00 -0.45593999997E+02  0.45594000000E+02  0.51100000000E-03 0. -1.
    9900012    2    1    2    0    0 -0.10914863917E+01  0.38228848903E+00  0.23559437535E+00  0.90007749289E+02  0.90000010779E+02 0.  0.
         12    1    1    2    0    0  0.10914863917E+01 -0.38228848903E+00 -0.23559437535E+00  0.11802507114E+01  0.00000000000E+00 0. -1.
         11    1    3    3    0    0 -0.20982752131E+01 -0.34643103816E+02 -0.20207227469E+02  0.40160670352E+02  0.51100000000E-03 0. -1.
        -11    1    3    3    0    0  0.93142253338E+01  0.47342393326E+00  0.11100847607E+01  0.93920824223E+01  0.51100000000E-03 0.  1.
        -12    1    3    3    0    0 -0.83074365125E+01  0.34551968372E+02  0.19332737084E+02  0.40454996514E+02  0.00000000000E+00 0.  1.
</event>
<event>
 7    1  0.1698110E-015  0.9000786E+02  0.7816164E-02  0.1186339E+00
        -11   -1    0    0    0    0  0.00000000000E+00  0.00000000000E+00  0.45593999997E+02  0.45594000000E+02  0.51100000000E-03 0.  1.
         11   -1    0    0    0    0 -0.00000000000E+00 -0.00000000000E+00 -0.45593999997E+02  0.45594000000E+02  0.51100000000E-03 0. -1.
    9900012    2    1    2    0    0  0.71493475025E+00 -0.69368609631E+00 -0.63277080281E+00  0.90007859760E+02  0.90000122709E+02 0.  0.
         12    1    1    2    0    0 -0.71493475025E+00  0.69368609631E+00  0.63277080281E+00  0.11801402401E+01  0.00000000000E+00 0. -1.
         11    1    3    3    0    0 -0.90343041456E+01  0.33427161694E+02  0.24047427430E+02  0.42157710524E+02  0.51100000000E-03 0. -1.
        -11    1    3    3    0    0  0.98843367091E+01 -0.58671721249E+01 -0.21068166982E+01  0.11685995798E+02  0.51100000000E-03 0.  1.
        -12    1    3    3    0    0 -0.13509781327E+00 -0.28253675666E+02 -0.22573381534E+02  0.36164153439E+02  0.00000000000E+00 0.  1.
</event>
<event>
 7    1  0.1698110E-015  0.9000766E+02  0.7816164E-02  0.1186339E+00
        -11   -1    0    0    0    0  0.00000000000E+00  0.00000000000E+00  0.45593999997E+02  0.45594000000E+02  0.51100000000E-03 0.  1.
         11   -1    0    0    0    0 -0.00000000000E+00 -0.00000000000E+00 -0.45593999997E+02  0.45594000000E+02  0.51100000000E-03 0. -1.
    9900012    2    1    2    0    0  0.89734101542E+00 -0.41876123584E-01  0.76564887318E+00  0.90007664156E+02  0.89999924523E+02 0.  0.
         12    1    1    2    0    0 -0.89734101542E+00  0.41876123584E-01 -0.76564887318E+00  0.11803358440E+01  0.00000000000E+00 0. -1.
         11    1    3    3    0    0 -0.30058937792E+01 -0.53542120516E+01  0.65577243872E+01  0.89836926431E+01  0.51100000000E-03 0. -1.
        -11    1    3    3    0    0 -0.18776190834E+02  0.30033250700E+02  0.18159258577E+02  0.39803268235E+02  0.51100000000E-03 0.  1.
         12    1    3    3    0    0  0.22679425629E+02 -0.24720914772E+02 -0.23951334091E+02  0.41220703278E+02  0.00000000000E+00 0. -1.
</event>
<event>
 7    1  0.1698110E-015  0.9000777E+02  0.7816164E-02  0.1186339E+00
        -11   -1    0    0    0    0  0.00000000000E+00  0.00000000000E+00  0.45593999997E+02  0.45594000000E+02  0.51100000000E-03 0.  1.
         11   -1    0    0    0    0 -0.00000000000E+00 -0.00000000000E+00 -0.45593999997E+02  0.45594000000E+02  0.51100000000E-03 0. -1.
    9900012    2    1    2    0    0 -0.10628593512E+01  0.50035891245E+00  0.11369071063E+00  0.90007765015E+02  0.90000026713E+02 0.  0.
         12    1    1    2    0    0  0.10628593512E+01 -0.50035891245E+00 -0.11369071063E+00  0.11802349848E+01  0.00000000000E+00 0. -1.
         11    1    3    3    0    0  0.12027249365E+02  0.44940143416E+01  0.30288962493E+01  0.13191857525E+02  0.51100000000E-03 0. -1.
        -11    1    3    3    0    0 -0.89297384022E+01 -0.26912530558E+02 -0.29873645233E+02  0.41188095474E+02  0.51100000000E-03 0.  1.
         12    1    3    3    0    0 -0.41603703143E+01  0.22918875129E+02  0.26958439695E+02  0.35627812017E+02  0.00000000000E+00 0. -1.
</event>
<event>
 7    1  0.1698110E-015  0.9000775E+02  0.7816164E-02  0.1186339E+00
        -11   -1    0    0    0    0  0.00000000000E+00  0.00000000000E+00  0.45593999997E+02  0.45594000000E+02  0.51100000000E-03 0. -1.
         11   -1    0    0    0    0 -0.00000000000E+00 -0.00000000000E+00 -0.45593999997E+02  0.45594000000E+02  0.51100000000E-03 0.  1.
    9900012    2    1    2    0    0 -0.61360009525E+00 -0.95079590339E+00 -0.33537019970E+00  0.90007749561E+02  0.90000011056E+02 0.  0.
         12    1    1    2    0    0  0.61360009525E+00  0.95079590339E+00  0.33537019970E+00  0.11802504385E+01  0.00000000000E+00 0. -1.
         11    1    3    3    0    0  0.32352456903E+01 -0.38773494617E+02  0.47785406251E+01  0.39200575892E+02  0.51100000000E-03 0. -1.
        -11    1    3    3    0    0 -0.16802190302E+01 -0.30804356672E+01  0.72220320577E+01  0.80293192235E+01  0.51100000000E-03 0.  1.
        -12    1    3    3    0    0 -0.21686267553E+01  0.40903134381E+02 -0.12335942883E+02  0.42777854446E+02  0.00000000000E+00 0.  1.
</event>
<event>
 7    1  0.1698110E-015  0.9000780E+02  0.7816164E-02  0.1186339E+00
        -11   -1    0    0    0    0  0.00000000000E+00  0.00000000000E+00  0.45593999997E+02  0.45594000000E+02  0.51100000000E-03 0. -1.
         11   -1    0    0    0    0 -0.00000000000E+00 -0.00000000000E+00 -0.45593999997E+02  0.45594000000E+02  0.51100000000E-03 0.  1.
    9900012    2    1    2    0    0 -0.89194681627E+00  0.76936548517E+00 -0.73379252806E-01  0.90007797946E+02  0.90000060079E+02 0.  0.
         12    1    1    2    0    0  0.89194681627E+00 -0.76936548517E+00  0.73379252806E-01  0.11802020537E+01  0.00000000000E+00 0. -1.
         11    1    3    3    0    0 -0.68913581235E+01  0.27637627575E+02 -0.25800353228E+02  0.38431595097E+02  0.51100000000E-03 0. -1.
        -11    1    3    3    0    0 -0.16828071956E+01 -0.29752431864E+01 -0.84838567153E+01  0.91465696905E+01  0.51100000000E-03 0.  1.
        -12    1    3    3    0    0  0.76822185028E+01 -0.23893018903E+02  0.34210830691E+02  0.42429633159E+02  0.00000000000E+00 0.  1.
</event>
<event>
 7    1  0.2262996E-015  0.9000773E+02  0.7816164E-02  0.1186339E+00
        -11   -1    0    0    0    0  0.00000000000E+00  0.00000000000E+00  0.45593999997E+02  0.45594000000E+02  0.51100000000E-03 0. -1.
         11   -1    0    0    0    0 -0.00000000000E+00 -0.00000000000E+00 -0.45593999997E+02  0.45594000000E+02  0.51100000000E-03 0.  1.
    9900012    2    1    2    0    0 -0.10857603414E+00 -0.40934164902E+00 -0.11016779505E+01  0.90007727300E+02  0.89999988500E+02 0.  0.
         12    1    1    2    0    0  0.10857603414E+00  0.40934164902E+00  0.11016779505E+01  0.11802727005E+01  0.00000000000E+00 0. -1.
         11    1    3    3    0    0 -0.46322626885E+01  0.49497505274E+01 -0.69946189165E+01  0.97407690634E+01  0.51100000000E-03 0. -1.
        -11    1    3    3    0    0  0.97861328494E+01 -0.33188084451E+02 -0.21604829664E+02  0.40791984638E+02  0.51100000000E-03 0.  1.
         12    1    3    3    0    0 -0.52624461950E+01  0.27828992274E+02  0.27497770630E+02  0.39474973598E+02  0.00000000000E+00 0. -1.
</event>
<event>
 7    1  0.1698110E-015  0.9000780E+02  0.7816164E-02  0.1186339E+00
        -11   -1    0    0    0    0  0.00000000000E+00  0.00000000000E+00  0.45593999997E+02  0.45594000000E+02  0.51100000000E-03 0. -1.
         11   -1    0    0    0    0 -0.00000000000E+00 -0.00000000000E+00 -0.45593999997E+02  0.45594000000E+02  0.51100000000E-03 0.  1.
    9900012    2    1    2    0    0  0.77823350001E+00  0.50851940083E+00 -0.72706425514E+00  0.90007804341E+02  0.90000066559E+02 0.  0.
         12    1    1    2    0    0 -0.77823350001E+00 -0.50851940083E+00  0.72706425514E+00  0.11801956586E+01  0.00000000000E+00 0. -1.
         11    1    3    3    0    0  0.31594904159E+02  0.31242752859E+02 -0.14252593179E+01  0.44456483660E+02  0.51100000000E-03 0. -1.
        -11    1    3    3    0    0 -0.26448723780E+01 -0.72509583800E+01 -0.37959062568E+01  0.86012006078E+01  0.51100000000E-03 0.  1.
        -12    1    3    3    0    0 -0.28171798281E+02 -0.23483275078E+02  0.44941013195E+01  0.36950120074E+02  0.00000000000E+00 0.  1.
</event>
<event>
 7    1  0.1698110E-015  0.9000779E+02  0.7816164E-02  0.1186339E+00
        -11   -1    0    0    0    0  0.00000000000E+00  0.00000000000E+00  0.45593999997E+02  0.45594000000E+02  0.51100000000E-03 0.  1.
         11   -1    0    0    0    0 -0.00000000000E+00 -0.00000000000E+00 -0.45593999997E+02  0.45594000000E+02  0.51100000000E-03 0. -1.
    9900012    2    1    2    0    0  0.82079749576E+00  0.83097127125E+00  0.16936065085E+00  0.90007786116E+02  0.90000048092E+02 0.  0.
         12    1    1    2    0    0 -0.82079749576E+00 -0.83097127125E+00 -0.16936065085E+00  0.11802138843E+01  0.00000000000E+00 0. -1.
         11    1    3    3    0    0 -0.34534057768E+02  0.25383851385E+02  0.11815465057E+01  0.42875833630E+02  0.51100000000E-03 0. -1.
        -11    1    3    3    0    0  0.58307161799E+01 -0.10702555534E+01 -0.67393177061E+01  0.89755836314E+01  0.51100000000E-03 0.  1.
        -12    1    3    3    0    0  0.29524139084E+02 -0.23482624560E+02  0.57271318513E+01  0.38156368854E+02  0.00000000000E+00 0.  1.
</event>
<event>
 7    1  0.1698110E-015  0.9000779E+02  0.7816164E-02  0.1186339E+00
        -11   -1    0    0    0    0  0.00000000000E+00  0.00000000000E+00  0.45593999997E+02  0.45594000000E+02  0.51100000000E-03 0.  1.
         11   -1    0    0    0    0 -0.00000000000E+00 -0.00000000000E+00 -0.45593999997E+02  0.45594000000E+02  0.51100000000E-03 0. -1.
    9900012    2    1    2    0    0  0.10801787804E+01 -0.73873238945E-01  0.46974005472E+00  0.90007788505E+02  0.90000050514E+02 0.  0.
         12    1    1    2    0    0 -0.10801787804E+01  0.73873238945E-01 -0.46974005472E+00  0.11802114947E+01  0.00000000000E+00 0. -1.
         11    1    3    3    0    0 -0.19207441472E+02  0.25018065734E+02 -0.20714608789E+02  0.37734923327E+02  0.51100000000E-03 0. -1.
        -11    1    3    3    0    0  0.52152729994E+01  0.29888196952E+01 -0.73502746958E+01  0.94951910983E+01  0.51100000000E-03 0.  1.
        -12    1    3    3    0    0  0.15072347253E+02 -0.28080758669E+02  0.28534623540E+02  0.42777674080E+02  0.00000000000E+00 0.  1.
</event>
<event>
 7    1  0.1698110E-015  0.9000788E+02  0.7816164E-02  0.1186339E+00
        -11   -1    0    0    0    0  0.00000000000E+00  0.00000000000E+00  0.45593999997E+02  0.45594000000E+02  0.51100000000E-03 0.  1.
         11   -1    0    0    0    0 -0.00000000000E+00 -0.00000000000E+00 -0.45593999997E+02  0.45594000000E+02  0.51100000000E-03 0. -1.
    9900012    2    1    2    0    0  0.91775000534E-01  0.62651358977E-01  0.11748808363E+01  0.90007875929E+02  0.90000139091E+02 0.  0.
         12    1    1    2    0    0 -0.91775000534E-01 -0.62651358977E-01 -0.11748808363E+01  0.11801240710E+01  0.00000000000E+00 0. -1.
         11    1    3    3    0    0 -0.28850966872E+01  0.30692745294E+02  0.16332697985E+01  0.30871280619E+02  0.51100000000E-03 0. -1.
        -11    1    3    3    0    0  0.89318821585E+01  0.12499436349E+02  0.21867700208E+01  0.15517615516E+02  0.51100000000E-03 0.  1.
        -12    1    3    3    0    0 -0.59550104707E+01 -0.43129530284E+02 -0.26451589831E+01  0.43618979794E+02  0.00000000000E+00 0.  1.
</event>
<event>
 7    1  0.1698110E-015  0.9000769E+02  0.7816164E-02  0.1186339E+00
        -11   -1    0    0    0    0  0.00000000000E+00  0.00000000000E+00  0.45593999997E+02  0.45594000000E+02  0.51100000000E-03 0.  1.
         11   -1    0    0    0    0 -0.00000000000E+00 -0.00000000000E+00 -0.45593999997E+02  0.45594000000E+02  0.51100000000E-03 0. -1.
    9900012    2    1    2    0    0  0.11659771157E+01  0.14981615880E+00 -0.10571582079E+00  0.90007693535E+02  0.89999954290E+02 0.  0.
         12    1    1    2    0    0 -0.11659771157E+01 -0.14981615880E+00  0.10571582079E+00  0.11803064646E+01  0.00000000000E+00 0. -1.
         11    1    3    3    0    0 -0.50100301983E+01  0.54668498719E+01 -0.57007719100E+01  0.93533764354E+01  0.51100000000E-03 0. -1.
        -11    1    3    3    0    0  0.23287003567E+02 -0.33848017877E+02 -0.12288892909E+02  0.42883443641E+02  0.51100000000E-03 0.  1.
         12    1    3    3    0    0 -0.17110996253E+02  0.28530984164E+02  0.17883948998E+02  0.37770873459E+02  0.00000000000E+00 0. -1.
</event>
<event>
 7    1  0.1698110E-015  0.9000775E+02  0.7816164E-02  0.1186339E+00
        -11   -1    0    0    0    0  0.00000000000E+00  0.00000000000E+00  0.45593999997E+02  0.45594000000E+02  0.51100000000E-03 0. -1.
         11   -1    0    0    0    0 -0.00000000000E+00 -0.00000000000E+00 -0.45593999997E+02  0.45594000000E+02  0.51100000000E-03 0.  1.
    9900012    2    1    2    0    0 -0.98209659344E-01  0.22521337245E+00 -0.11543887970E+01  0.90007754392E+02  0.90000015950E+02 0.  0.
         12    1    1    2    0    0  0.98209659344E-01 -0.22521337245E+00  0.11543887970E+01  0.11802456079E+01  0.00000000000E+00 0. -1.
         11    1    3    3    0    0  0.14121012237E+02 -0.36784867631E+02 -0.12527898538E+02  0.41345830688E+02  0.51100000000E-03 0. -1.
        -11    1    3    3    0    0 -0.45562861322E+01 -0.14275473745E+01  0.74309397421E+01  0.88326949759E+01  0.51100000000E-03 0.  1.
        -12    1    3    3    0    0 -0.96629357644E+01  0.38437628378E+02  0.39425699987E+01  0.39829228728E+02  0.00000000000E+00 0.  1.
</event>
<event>
 8    1  0.1698110E-015  0.9000773E+02  0.7816164E-02  0.1186339E+00
        -11   -1    0    0    0    0  0.00000000000E+00  0.00000000000E+00  0.45593999997E+02  0.45594000000E+02  0.51100000000E-03 0. -1.
         11   -1    0    0    0    0 -0.00000000000E+00 -0.00000000000E+00 -0.45593999997E+02  0.45594000000E+02  0.51100000000E-03 0.  1.
    9900012    2    1    2    0    0 -0.13688973041E+00 -0.50478234619E-01 -0.11712145362E+01  0.90007732937E+02  0.89999994212E+02 0.  0.
         23    2    3    3    0    0  0.27392691427E+02  0.63852117666E+00  0.70111647683E+01  0.61279630146E+02  0.54362389448E+02 0.  0.
         12    1    1    2    0    0  0.13688973041E+00  0.50478234619E-01  0.11712145362E+01  0.11802670632E+01  0.00000000000E+00 0. -1.
         11    1    4    4    0    0  0.36763488434E+02 -0.16554590565E+02  0.98219309375E+01  0.41497938241E+02  0.51100000000E-03 0. -1.
        -11    1    4    4    0    0 -0.93707970068E+01  0.17193111742E+02 -0.28107661692E+01  0.19781691905E+02  0.51100000000E-03 0.  1.
        -12    1    3    3    0    0 -0.27529581158E+02 -0.68899941128E+00 -0.81823793046E+01  0.28728102791E+02  0.00000000000E+00 0.  1.
</event>
<event>
 7    1  0.1698110E-015  0.9000777E+02  0.7816164E-02  0.1186339E+00
        -11   -1    0    0    0    0  0.00000000000E+00  0.00000000000E+00  0.45593999997E+02  0.45594000000E+02  0.51100000000E-03 0.  1.
         11   -1    0    0    0    0 -0.00000000000E+00 -0.00000000000E+00 -0.45593999997E+02  0.45594000000E+02  0.51100000000E-03 0. -1.
    9900012    2    1    2    0    0  0.81566760806E+00  0.79684106398E+00  0.30443520408E+00  0.90007766921E+02  0.90000028644E+02 0.  0.
         12    1    1    2    0    0 -0.81566760806E+00 -0.79684106398E+00 -0.30443520408E+00  0.11802330793E+01  0.00000000000E+00 0. -1.
         11    1    3    3    0    0 -0.22174693571E+02  0.59393091269E+01 -0.29956831468E+02  0.37741279519E+02  0.51100000000E-03 0. -1.
        -11    1    3    3    0    0  0.56716584750E+01 -0.20884487432E+01 -0.80765815031E+01  0.10087640807E+02  0.51100000000E-03 0.  1.
        -12    1    3    3    0    0  0.17318702704E+02 -0.30540193198E+01  0.38337848175E+02  0.42178846595E+02  0.00000000000E+00 0.  1.
</event>
<event>
 7    1  0.1698110E-015  0.9000779E+02  0.7816164E-02  0.1186339E+00
        -11   -1    0    0    0    0  0.00000000000E+00  0.00000000000E+00  0.45593999997E+02  0.45594000000E+02  0.51100000000E-03 0. -1.
         11   -1    0    0    0    0 -0.00000000000E+00 -0.00000000000E+00 -0.45593999997E+02  0.45594000000E+02  0.51100000000E-03 0.  1.
    9900012    2    1    2    0    0 -0.70380976948E+00 -0.88444784093E+00  0.33955853609E+00  0.90007789775E+02  0.90000051800E+02 0.  0.
         12    1    1    2    0    0  0.70380976948E+00  0.88444784093E+00 -0.33955853609E+00  0.11802102247E+01  0.00000000000E+00 0. -1.
         11    1    3    3    0    0 -0.75421349225E+01 -0.37361628059E+02  0.42020903885E+01  0.38346220339E+02  0.51100000000E-03 0. -1.
        -11    1    3    3    0    0 -0.74937485926E+01  0.38319075934E+01 -0.12413357430E+02  0.14997707382E+02  0.51100000000E-03 0.  1.
        -12    1    3    3    0    0  0.14332073746E+02  0.32645272625E+02  0.85508255781E+01  0.36663862053E+02  0.00000000000E+00 0.  1.
</event>
<event>
 7    1  0.1698110E-015  0.9000772E+02  0.7816164E-02  0.1186339E+00
        -11   -1    0    0    0    0  0.00000000000E+00  0.00000000000E+00  0.45593999997E+02  0.45594000000E+02  0.51100000000E-03 0. -1.
         11   -1    0    0    0    0 -0.00000000000E+00 -0.00000000000E+00 -0.45593999997E+02  0.45594000000E+02  0.51100000000E-03 0.  1.
    9900012    2    1    2    0    0  0.35860906203E+00 -0.89581180251E+00  0.67969241374E+00  0.90007719939E+02  0.89999981042E+02 0.  0.
         12    1    1    2    0    0 -0.35860906203E+00  0.89581180251E+00 -0.67969241374E+00  0.11802800609E+01  0.00000000000E+00 0. -1.
         11    1    3    3    0    0 -0.23957631956E+02 -0.31181704618E+02  0.94934781019E+01  0.40452354178E+02  0.51100000000E-03 0. -1.
        -11    1    3    3    0    0 -0.26719191580E+01  0.10358234805E+01 -0.93230428525E+01  0.97535229820E+01  0.51100000000E-03 0.  1.
        -12    1    3    3    0    0  0.26988160176E+02  0.29250069335E+02  0.50925716433E+00  0.39801842779E+02  0.00000000000E+00 0.  1.
</event>
<event>
 7    1  0.1698110E-015  0.9000777E+02  0.7816164E-02  0.1186339E+00
        -11   -1    0    0    0    0  0.00000000000E+00  0.00000000000E+00  0.45593999997E+02  0.45594000000E+02  0.51100000000E-03 0.  1.
         11   -1    0    0    0    0 -0.00000000000E+00 -0.00000000000E+00 -0.45593999997E+02  0.45594000000E+02  0.51100000000E-03 0. -1.
    9900012    2    1    2    0    0  0.54567146398E+00  0.31457746541E+00  0.99810889318E+00  0.90007772187E+02  0.90000033980E+02 0.  0.
         12    1    1    2    0    0 -0.54567146398E+00 -0.31457746541E+00 -0.99810889318E+00  0.11802278132E+01  0.00000000000E+00 0. -1.
         11    1    3    3    0    0 -0.61432504641E+01  0.40022518388E+02 -0.13706928193E+02  0.42748349502E+02  0.51100000000E-03 0. -1.
        -11    1    3    3    0    0  0.78261669945E+01 -0.42578739304E+01  0.12233984728E+00  0.89102944694E+01  0.51100000000E-03 0.  1.
        -12    1    3    3    0    0 -0.11372450664E+01 -0.35450066993E+02  0.14582697239E+02  0.38349128215E+02  0.00000000000E+00 0.  1.
</event>
<event>
 7    1  0.1698110E-015  0.9000777E+02  0.7816164E-02  0.1186339E+00
        -11   -1    0    0    0    0  0.00000000000E+00  0.00000000000E+00  0.45593999997E+02  0.45594000000E+02  0.51100000000E-03 0. -1.
         11   -1    0    0    0    0 -0.00000000000E+00 -0.00000000000E+00 -0.45593999997E+02  0.45594000000E+02  0.51100000000E-03 0.  1.
    9900012    2    1    2    0    0  0.11569278935E+00 -0.80604760076E+00 -0.85430677119E+00  0.90007772219E+02  0.90000034012E+02 0.  0.
         12    1    1    2    0    0 -0.11569278935E+00  0.80604760076E+00  0.85430677119E+00  0.11802277812E+01  0.00000000000E+00 0. -1.
         11    1    3    3    0    0 -0.16092837367E+02 -0.39213438458E+02  0.11415913862E+02  0.43897565534E+02  0.51100000000E-03 0. -1.
        -11    1    3    3    0    0 -0.22158481375E+01  0.90215991521E+01  0.88319680024E-01  0.92901579565E+01  0.51100000000E-03 0.  1.
        -12    1    3    3    0    0  0.18424378294E+02  0.29385791705E+02 -0.12358540313E+02  0.36820048728E+02  0.00000000000E+00 0.  1.
</event>
<event>
 7    1  0.1698110E-015  0.9000774E+02  0.7816164E-02  0.1186339E+00
        -11   -1    0    0    0    0  0.00000000000E+00  0.00000000000E+00  0.45593999997E+02  0.45594000000E+02  0.51100000000E-03 0. -1.
         11   -1    0    0    0    0 -0.00000000000E+00 -0.00000000000E+00 -0.45593999997E+02  0.45594000000E+02  0.51100000000E-03 0.  1.
    9900012    2    1    2    0    0 -0.32467585375E+00 -0.10313703667E+01 -0.47315055171E+00  0.90007741262E+02  0.90000002647E+02 0.  0.
         12    1    1    2    0    0  0.32467585375E+00  0.10313703667E+01  0.47315055171E+00  0.11802587377E+01  0.00000000000E+00 0. -1.
         11    1    3    3    0    0 -0.13139404055E+02 -0.60831731408E+01 -0.11292702869E+02  0.18362300312E+02  0.51100000000E-03 0. -1.
        -11    1    3    3    0    0  0.10658183280E+02  0.14981619860E+02 -0.26898949656E+02  0.32582192949E+02  0.51100000000E-03 0.  1.
         12    1    3    3    0    0  0.21565449211E+01 -0.99298170863E+01  0.37718501973E+02  0.39063248002E+02  0.00000000000E+00 0. -1.
</event>
<event>
 7    1  0.1698110E-015  0.9000770E+02  0.7816164E-02  0.1186339E+00
        -11   -1    0    0    0    0  0.00000000000E+00  0.00000000000E+00  0.45593999997E+02  0.45594000000E+02  0.51100000000E-03 0. -1.
         11   -1    0    0    0    0 -0.00000000000E+00 -0.00000000000E+00 -0.45593999997E+02  0.45594000000E+02  0.51100000000E-03 0.  1.
    9900012    2    1    2    0    0  0.95499634458E+00  0.87040954972E-01  0.68813061272E+00  0.90007695850E+02  0.89999956635E+02 0.  0.
         12    1    1    2    0    0 -0.95499634458E+00 -0.87040954972E-01 -0.68813061272E+00  0.11803041499E+01  0.00000000000E+00 0. -1.
         11    1    3    3    0    0 -0.28317881587E+01 -0.95594812703E+01  0.18750961164E+01  0.10144885019E+02  0.51100000000E-03 0. -1.
        -11    1    3    3    0    0 -0.18440309675E+02 -0.25519665110E+02 -0.16482555489E+02  0.35538330911E+02  0.51100000000E-03 0.  1.
         12    1    3    3    0    0  0.22227094178E+02  0.35166187335E+02  0.15295589985E+02  0.44324479921E+02  0.00000000000E+00 0. -1.
</event>
<event>
 7    1  0.1698110E-015  0.9000778E+02  0.7816164E-02  0.1186339E+00
        -11   -1    0    0    0    0  0.00000000000E+00  0.00000000000E+00  0.45593999997E+02  0.45594000000E+02  0.51100000000E-03 0.  1.
         11   -1    0    0    0    0 -0.00000000000E+00 -0.00000000000E+00 -0.45593999997E+02  0.45594000000E+02  0.51100000000E-03 0. -1.
    9900012    2    1    2    0    0 -0.10986900960E+01  0.28319297112E+00 -0.32496527474E+00  0.90007779421E+02  0.90000041309E+02 0.  0.
         12    1    1    2    0    0  0.10986900960E+01 -0.28319297112E+00  0.32496527474E+00  0.11802205793E+01  0.00000000000E+00 0. -1.
         11    1    3    3    0    0 -0.28574932912E+01  0.17301933758E+01  0.15420181105E+02  0.15777858619E+02  0.51100000000E-03 0. -1.
        -11    1    3    3    0    0 -0.17831958648E+02  0.15405834709E+02  0.19457665176E+02  0.30560092059E+02  0.51100000000E-03 0.  1.
         12    1    3    3    0    0  0.19590761843E+02 -0.16852835113E+02 -0.35202811556E+02  0.43669828743E+02  0.00000000000E+00 0. -1.
</event>
<event>
 7    1  0.1698110E-015  0.9000777E+02  0.7816164E-02  0.1186339E+00
        -11   -1    0    0    0    0  0.00000000000E+00  0.00000000000E+00  0.45593999997E+02  0.45594000000E+02  0.51100000000E-03 0.  1.
         11   -1    0    0    0    0 -0.00000000000E+00 -0.00000000000E+00 -0.45593999997E+02  0.45594000000E+02  0.51100000000E-03 0. -1.
    9900012    2    1    2    0    0 -0.36600376808E+00  0.19642555876E+00  0.11047206878E+01  0.90007767160E+02  0.90000028887E+02 0.  0.
         12    1    1    2    0    0  0.36600376808E+00 -0.19642555876E+00 -0.11047206878E+01  0.11802328399E+01  0.00000000000E+00 0. -1.
         11    1    3    3    0    0 -0.22945206816E+01  0.73804042167E+01  0.53404468408E+01  0.93944432662E+01  0.51100000000E-03 0. -1.
        -11    1    3    3    0    0  0.39765674704E+02 -0.12259460360E+02 -0.75566542372E+01  0.42293099632E+02  0.51100000000E-03 0.  1.
         12    1    3    3    0    0 -0.37837157790E+02  0.50754817018E+01  0.33209280842E+01  0.38320224262E+02  0.00000000000E+00 0. -1.
</event>
<event>
 7    1  0.1698110E-015  0.9000773E+02  0.7816164E-02  0.1186339E+00
        -11   -1    0    0    0    0  0.00000000000E+00  0.00000000000E+00  0.45593999997E+02  0.45594000000E+02  0.51100000000E-03 0.  1.
         11   -1    0    0    0    0 -0.00000000000E+00 -0.00000000000E+00 -0.45593999997E+02  0.45594000000E+02  0.51100000000E-03 0. -1.
    9900012    2    1    2    0    0  0.61271182946E+00 -0.99215979801E+00 -0.18232839234E+00  0.90007728636E+02  0.89999989854E+02 0.  0.
         12    1    1    2    0    0 -0.61271182946E+00  0.99215979801E+00  0.18232839234E+00  0.11802713643E+01  0.00000000000E+00 0. -1.
         11    1    3    3    0    0 -0.16503877277E+01 -0.27231082784E+01 -0.99564697548E+01  0.10453247753E+02  0.51100000000E-03 0. -1.
        -11    1    3    3    0    0  0.31813284604E+02 -0.23898899579E+02  0.35820655093E+01  0.39950890753E+02  0.51100000000E-03 0.  1.
         12    1    3    3    0    0 -0.29550185047E+02  0.25629848059E+02  0.61920758531E+01  0.39603590130E+02  0.00000000000E+00 0. -1.
</event>
<event>
 7    1  0.1698110E-015  0.9000772E+02  0.7816164E-02  0.1186339E+00
        -11   -1    0    0    0    0  0.00000000000E+00  0.00000000000E+00  0.45593999997E+02  0.45594000000E+02  0.51100000000E-03 0.  1.
         11   -1    0    0    0    0 -0.00000000000E+00 -0.00000000000E+00 -0.45593999997E+02  0.45594000000E+02  0.51100000000E-03 0. -1.
    9900012    2    1    2    0    0 -0.58288432015E-01 -0.11278970653E+01  0.34280292211E+00  0.90007719027E+02  0.89999980118E+02 0.  0.
         12    1    1    2    0    0  0.58288432015E-01  0.11278970653E+01 -0.34280292211E+00  0.11802809727E+01  0.00000000000E+00 0. -1.
         11    1    3    3    0    0  0.23585264031E+00 -0.90995820148E+01  0.69212861824E+01  0.11435131044E+02  0.51100000000E-03 0. -1.
        -11    1    3    3    0    0 -0.23049765572E+02 -0.27326780475E+02  0.16021833132E+01  0.35785634209E+02  0.51100000000E-03 0.  1.
         12    1    3    3    0    0  0.22755624500E+02  0.35298465425E+02 -0.81806665735E+01  0.42786953775E+02  0.00000000000E+00 0. -1.
</event>
<event>
 7    1  0.1698110E-015  0.9000774E+02  0.7816164E-02  0.1186339E+00
        -11   -1    0    0    0    0  0.00000000000E+00  0.00000000000E+00  0.45593999997E+02  0.45594000000E+02  0.51100000000E-03 0. -1.
         11   -1    0    0    0    0 -0.00000000000E+00 -0.00000000000E+00 -0.45593999997E+02  0.45594000000E+02  0.51100000000E-03 0.  1.
    9900012    2    1    2    0    0 -0.96494818615E-01  0.11716921722E+01  0.10410563204E+00  0.90007740800E+02  0.90000002179E+02 0.  0.
         12    1    1    2    0    0  0.96494818615E-01 -0.11716921722E+01 -0.10410563204E+00  0.11802592000E+01  0.00000000000E+00 0. -1.
         11    1    3    3    0    0  0.51212354836E+01 -0.96460681886E+01 -0.33518881159E+01  0.11424046506E+02  0.51100000000E-03 0. -1.
        -11    1    3    3    0    0 -0.10770910438E+02 -0.19787358104E+02 -0.26922641118E+02  0.35105279624E+02  0.51100000000E-03 0.  1.
         12    1    3    3    0    0  0.55531801358E+01  0.30605118465E+02  0.30378634866E+02  0.43478414670E+02  0.00000000000E+00 0. -1.
</event>
<event>
 7    1  0.1842646E-015  0.9000775E+02  0.7816164E-02  0.1186339E+00
        -11   -1    0    0    0    0  0.00000000000E+00  0.00000000000E+00  0.45593999997E+02  0.45594000000E+02  0.51100000000E-03 0. -1.
         11   -1    0    0    0    0 -0.00000000000E+00 -0.00000000000E+00 -0.45593999997E+02  0.45594000000E+02  0.51100000000E-03 0.  1.
    9900012    2    1    2    0    0 -0.10776651637E+01  0.37017396207E+00 -0.30755556479E+00  0.90007753673E+02  0.90000015221E+02 0.  0.
         12    1    1    2    0    0  0.10776651637E+01 -0.37017396207E+00  0.30755556479E+00  0.11802463271E+01  0.00000000000E+00 0. -1.
         11    1    3    3    0    0  0.49164372751E+01 -0.57858354650E+01 -0.47929126696E+01  0.89788228420E+01  0.51100000000E-03 0. -1.
        -11    1    3    3    0    0 -0.18825092507E+02 -0.27536152278E+02 -0.18626420826E+02  0.38204284357E+02  0.51100000000E-03 0.  1.
         12    1    3    3    0    0  0.12830990068E+02  0.33692161705E+02  0.23111777931E+02  0.42824646474E+02  0.00000000000E+00 0. -1.
</event>
<event>
 7    1  0.1698110E-015  0.9000782E+02  0.7816164E-02  0.1186339E+00
        -11   -1    0    0    0    0  0.00000000000E+00  0.00000000000E+00  0.45593999997E+02  0.45594000000E+02  0.51100000000E-03 0. -1.
         11   -1    0    0    0    0 -0.00000000000E+00 -0.00000000000E+00 -0.45593999997E+02  0.45594000000E+02  0.51100000000E-03 0.  1.
    9900012    2    1    2    0    0  0.11555985734E+01 -0.23917076630E+00  0.14398348847E-01  0.90007822882E+02  0.90000085344E+02 0.  0.
         12    1    1    2    0    0 -0.11555985734E+01  0.23917076630E+00 -0.14398348847E-01  0.11801771184E+01  0.00000000000E+00 0. -1.
         11    1    3    3    0    0 -0.90655125241E+01 -0.14185822002E+02  0.32814787197E+02  0.36881313998E+02  0.51100000000E-03 0. -1.
        -11    1    3    3    0    0 -0.27399459613E+01 -0.43919535487E+01  0.62281321108E+01  0.80985300948E+01  0.51100000000E-03 0.  1.
        -12    1    3    3    0    0  0.12961057059E+02  0.18338604785E+02 -0.39028520959E+02  0.45027978788E+02  0.00000000000E+00 0.  1.
</event>
<event>
 7    1  0.1698110E-015  0.9000772E+02  0.7816164E-02  0.1186339E+00
        -11   -1    0    0    0    0  0.00000000000E+00  0.00000000000E+00  0.45593999997E+02  0.45594000000E+02  0.51100000000E-03 0.  1.
         11   -1    0    0    0    0 -0.00000000000E+00 -0.00000000000E+00 -0.45593999997E+02  0.45594000000E+02  0.51100000000E-03 0. -1.
    9900012    2    1    2    0    0 -0.79166308194E+00 -0.82318158802E+00  0.29783016030E+00  0.90007719878E+02  0.89999980980E+02 0.  0.
         12    1    1    2    0    0  0.79166308194E+00  0.82318158802E+00 -0.29783016030E+00  0.11802801221E+01  0.00000000000E+00 0. -1.
         11    1    3    3    0    0 -0.82630766175E+01 -0.57872388217E+01  0.29731752476E+01  0.10517145035E+02  0.51100000000E-03 0. -1.
        -11    1    3    3    0    0  0.53375141924E+01  0.41749201247E+02  0.30591090924E+01  0.42200035678E+02  0.51100000000E-03 0.  1.
         12    1    3    3    0    0  0.21338993431E+01 -0.36785144013E+02 -0.57344541797E+01  0.37290539165E+02  0.00000000000E+00 0. -1.
</event>
<event>
 7    1  0.1698110E-015  0.9000790E+02  0.7816164E-02  0.1186339E+00
        -11   -1    0    0    0    0  0.00000000000E+00  0.00000000000E+00  0.45593999997E+02  0.45594000000E+02  0.51100000000E-03 0. -1.
         11   -1    0    0    0    0 -0.00000000000E+00 -0.00000000000E+00 -0.45593999997E+02  0.45594000000E+02  0.51100000000E-03 0.  1.
    9900012    2    1    2    0    0  0.39607191070E+00 -0.32752079649E+00 -0.10623045045E+01  0.90007900983E+02  0.90000164475E+02 0.  0.
         12    1    1    2    0    0 -0.39607191070E+00  0.32752079649E+00  0.10623045045E+01  0.11800990174E+01  0.00000000000E+00 0. -1.
         11    1    3    3    0    0  0.35311733643E+00 -0.26245280515E+02  0.27525805446E+02  0.38034318804E+02  0.51100000000E-03 0. -1.
        -11    1    3    3    0    0 -0.14813233677E+02  0.39993925653E+01 -0.40405165970E+01  0.15866720124E+02  0.51100000000E-03 0.  1.
        -12    1    3    3    0    0  0.14856188251E+02  0.21918367153E+02 -0.24547593353E+02  0.36106862055E+02  0.00000000000E+00 0.  1.
</event>
<event>
 7    1  0.1698110E-015  0.9000773E+02  0.7816164E-02  0.1186339E+00
        -11   -1    0    0    0    0  0.00000000000E+00  0.00000000000E+00  0.45593999997E+02  0.45594000000E+02  0.51100000000E-03 0.  1.
         11   -1    0    0    0    0 -0.00000000000E+00 -0.00000000000E+00 -0.45593999997E+02  0.45594000000E+02  0.51100000000E-03 0. -1.
    9900012    2    1    2    0    0 -0.22901062600E+00  0.80029579475E+00  0.83673604461E+00  0.90007726119E+02  0.89999987304E+02 0.  0.
         12    1    1    2    0    0  0.22901062600E+00 -0.80029579475E+00 -0.83673604461E+00  0.11802738810E+01  0.00000000000E+00 0. -1.
         11    1    3    3    0    0  0.16595355573E+02  0.24906350982E+02  0.17075270378E+02  0.34457176387E+02  0.51100000000E-03 0. -1.
        -11    1    3    3    0    0  0.19647528618E+01  0.10032324636E+02  0.47696929465E+01  0.11280858233E+02  0.51100000000E-03 0.  1.
        -12    1    3    3    0    0 -0.18789119061E+02 -0.34138379823E+02 -0.21008227280E+02  0.44269691499E+02  0.00000000000E+00 0.  1.
</event>
<event>
 7    1  0.1698110E-015  0.9000784E+02  0.7816164E-02  0.1186339E+00
        -11   -1    0    0    0    0  0.00000000000E+00  0.00000000000E+00  0.45593999997E+02  0.45594000000E+02  0.51100000000E-03 0.  1.
         11   -1    0    0    0    0 -0.00000000000E+00 -0.00000000000E+00 -0.45593999997E+02  0.45594000000E+02  0.51100000000E-03 0. -1.
    9900012    2    1    2    0    0  0.12893056562E+00  0.75771280951E+00  0.89555568458E+00  0.90007842478E+02  0.90000105199E+02 0.  0.
         12    1    1    2    0    0 -0.12893056562E+00 -0.75771280951E+00 -0.89555568458E+00  0.11801575220E+01  0.00000000000E+00 0. -1.
         11    1    3    3    0    0  0.10811802865E+02  0.36451708620E+02 -0.13415862041E+02  0.40318823111E+02  0.51100000000E-03 0. -1.
        -11    1    3    3    0    0 -0.94641780463E+00  0.24357029903E+00  0.12366559504E+02  0.12405112953E+02  0.51100000000E-03 0.  1.
        -12    1    3    3    0    0 -0.97364544945E+01 -0.35937566109E+02  0.19448582213E+01  0.37283906414E+02  0.00000000000E+00 0.  1.
</event>
<event>
 7    1  0.1698110E-015  0.9000776E+02  0.7816164E-02  0.1186339E+00
        -11   -1    0    0    0    0  0.00000000000E+00  0.00000000000E+00  0.45593999997E+02  0.45594000000E+02  0.51100000000E-03 0. -1.
         11   -1    0    0    0    0 -0.00000000000E+00 -0.00000000000E+00 -0.45593999997E+02  0.45594000000E+02  0.51100000000E-03 0.  1.
    9900012    2    1    2    0    0 -0.59303928540E+00  0.72215434712E+00 -0.72095198634E+00  0.90007756694E+02  0.90000018282E+02 0.  0.
         12    1    1    2    0    0  0.59303928540E+00 -0.72215434712E+00  0.72095198634E+00  0.11802433061E+01  0.00000000000E+00 0. -1.
         11    1    3    3    0    0 -0.17758423548E+01  0.41280906673E+01 -0.10306193126E+02  0.11243325381E+02  0.51100000000E-03 0. -1.
        -11    1    3    3    0    0 -0.16002416421E+02  0.33689100839E+02  0.45388377801E+01  0.37571716694E+02  0.51100000000E-03 0.  1.
         12    1    3    3    0    0  0.17185219490E+02 -0.37095037159E+02  0.50464033592E+01  0.41192714619E+02  0.00000000000E+00 0. -1.
</event>
<event>
 7    1  0.1698110E-015  0.9000775E+02  0.7816164E-02  0.1186339E+00
        -11   -1    0    0    0    0  0.00000000000E+00  0.00000000000E+00  0.45593999997E+02  0.45594000000E+02  0.51100000000E-03 0. -1.
         11   -1    0    0    0    0 -0.00000000000E+00 -0.00000000000E+00 -0.45593999997E+02  0.45594000000E+02  0.51100000000E-03 0.  1.
    9900012    2    1    2    0    0 -0.71367785858E+00 -0.66212987275E+00 -0.66726784891E+00  0.90007746452E+02  0.90000007906E+02 0.  0.
         12    1    1    2    0    0  0.71367785858E+00  0.66212987275E+00  0.66726784891E+00  0.11802535475E+01  0.00000000000E+00 0. -1.
         11    1    3    3    0    0  0.29242138522E+02 -0.10786250590E+02  0.19247910169E+02  0.36632334259E+02  0.51100000000E-03 0. -1.
        -11    1    3    3    0    0 -0.40426914688E+01 -0.12307794521E+02  0.13750270796E+01  0.13027503982E+02  0.51100000000E-03 0.  1.
        -12    1    3    3    0    0 -0.25913124912E+02  0.22431915238E+02 -0.21290205097E+02  0.40347908211E+02  0.00000000000E+00 0.  1.
</event>
<event>
 7    1  0.1698110E-015  0.9000774E+02  0.7816164E-02  0.1186339E+00
        -11   -1    0    0    0    0  0.00000000000E+00  0.00000000000E+00  0.45593999997E+02  0.45594000000E+02  0.51100000000E-03 0. -1.
         11   -1    0    0    0    0 -0.00000000000E+00 -0.00000000000E+00 -0.45593999997E+02  0.45594000000E+02  0.51100000000E-03 0.  1.
    9900012    2    1    2    0    0  0.64019670129E+00  0.78213247290E+00 -0.60944550248E+00  0.90007742892E+02  0.90000004298E+02 0.  0.
         12    1    1    2    0    0 -0.64019670129E+00 -0.78213247290E+00  0.60944550248E+00  0.11802571084E+01  0.00000000000E+00 0. -1.
         11    1    3    3    0    0 -0.54621223765E+00 -0.10744322144E+01  0.87459664847E+01  0.88286285687E+01  0.51100000000E-03 0. -1.
        -11    1    3    3    0    0  0.11727267420E+02  0.38627583775E+02 -0.13817278394E+02  0.42667742053E+02  0.51100000000E-03 0.  1.
         12    1    3    3    0    0 -0.10540858481E+02 -0.36771019088E+02  0.44618664071E+01  0.38511372270E+02  0.00000000000E+00 0. -1.
</event>
<event>
 7    1  0.1698110E-015  0.9000772E+02  0.7816164E-02  0.1186339E+00
        -11   -1    0    0    0    0  0.00000000000E+00  0.00000000000E+00  0.45593999997E+02  0.45594000000E+02  0.51100000000E-03 0.  1.
         11   -1    0    0    0    0 -0.00000000000E+00 -0.00000000000E+00 -0.45593999997E+02  0.45594000000E+02  0.51100000000E-03 0. -1.
    9900012    2    1    2    0    0  0.42038574610E+00  0.91439950939E+00  0.61660426732E+00  0.90007723990E+02  0.89999985146E+02 0.  0.
         12    1    1    2    0    0 -0.42038574610E+00 -0.91439950939E+00 -0.61660426732E+00  0.11802760104E+01  0.00000000000E+00 0. -1.
         11    1    3    3    0    0  0.84144908457E+01 -0.27760372074E+02 -0.22328937785E+02  0.36606329736E+02  0.51100000000E-03 0. -1.
        -11    1    3    3    0    0 -0.20016189823E+01 -0.12215895647E+00 -0.94408738122E+01  0.96515024716E+01  0.51100000000E-03 0.  1.
        -12    1    3    3    0    0 -0.59924861173E+01  0.28796930539E+02  0.32386415865E+02  0.43749891782E+02  0.00000000000E+00 0.  1.
</event>
<event>
 7    1  0.1698110E-015  0.9000787E+02  0.7816164E-02  0.1186339E+00
        -11   -1    0    0    0    0  0.00000000000E+00  0.00000000000E+00  0.45593999997E+02  0.45594000000E+02  0.51100000000E-03 0.  1.
         11   -1    0    0    0    0 -0.00000000000E+00 -0.00000000000E+00 -0.45593999997E+02  0.45594000000E+02  0.51100000000E-03 0. -1.
    9900012    2    1    2    0    0 -0.72275446068E+00 -0.35161495982E+00  0.86411358738E+00  0.90007873150E+02  0.90000136275E+02 0.  0.
         12    1    1    2    0    0  0.72275446068E+00  0.35161495982E+00 -0.86411358738E+00  0.11801268501E+01  0.00000000000E+00 0. -1.
         11    1    3    3    0    0 -0.89098561372E+01 -0.47439807928E+01  0.39817903331E+01  0.10851061914E+02  0.51100000000E-03 0. -1.
        -11    1    3    3    0    0 -0.16612358119E+02  0.57195364088E+01  0.31786551118E+02  0.36318980867E+02  0.51100000000E-03 0.  1.
         12    1    3    3    0    0  0.24799459795E+02 -0.13271705758E+01 -0.34904227864E+02  0.42837830368E+02  0.00000000000E+00 0. -1.
</event>
<event>
 7    1  0.1698110E-015  0.9000795E+02  0.7816164E-02  0.1186339E+00
        -11   -1    0    0    0    0  0.00000000000E+00  0.00000000000E+00  0.45593999997E+02  0.45594000000E+02  0.51100000000E-03 0. -1.
         11   -1    0    0    0    0 -0.00000000000E+00 -0.00000000000E+00 -0.45593999997E+02  0.45594000000E+02  0.51100000000E-03 0.  1.
    9900012    2    1    2    0    0  0.71818759151E+00 -0.92925620339E+00 -0.11491678864E+00  0.90007950689E+02  0.90000214838E+02 0.  0.
         12    1    1    2    0    0 -0.71818759151E+00  0.92925620339E+00  0.11491678864E+00  0.11800493110E+01  0.00000000000E+00 0. -1.
         11    1    3    3    0    0 -0.15591103012E+01 -0.48340730810E+01 -0.84758400122E+01  0.98812424147E+01  0.51100000000E-03 0. -1.
        -11    1    3    3    0    0  0.10077592311E+02  0.40327832839E+02 -0.14989313245E+01  0.41594936755E+02  0.51100000000E-03 0.  1.
         12    1    3    3    0    0 -0.78002944180E+01 -0.36423015961E+02  0.98598545481E+01  0.38531771519E+02  0.00000000000E+00 0. -1.
</event>
<event>
 7    1  0.1769920E-015  0.9000775E+02  0.7816164E-02  0.1186339E+00
        -11   -1    0    0    0    0  0.00000000000E+00  0.00000000000E+00  0.45593999997E+02  0.45594000000E+02  0.51100000000E-03 0. -1.
         11   -1    0    0    0    0 -0.00000000000E+00 -0.00000000000E+00 -0.45593999997E+02  0.45594000000E+02  0.51100000000E-03 0.  1.
    9900012    2    1    2    0    0 -0.41015918985E+00  0.64062873333E+00 -0.90241097091E+00  0.90007753714E+02  0.90000015263E+02 0.  0.
         12    1    1    2    0    0  0.41015918985E+00 -0.64062873333E+00  0.90241097091E+00  0.11802462859E+01  0.00000000000E+00 0. -1.
         11    1    3    3    0    0  0.10474408401E+02  0.62728478155E+00  0.41520683603E+00  0.10501386314E+02  0.51100000000E-03 0. -1.
        -11    1    3    3    0    0  0.12352695543E+02 -0.37218309591E+01 -0.35632359310E+02  0.37895991122E+02  0.51100000000E-03 0.  1.
         12    1    3    3    0    0 -0.23237263133E+02  0.37351749109E+01  0.34314741503E+02  0.41610376278E+02  0.00000000000E+00 0. -1.
</event>
<event>
 7    1  0.1698110E-015  0.9000779E+02  0.7816164E-02  0.1186339E+00
        -11   -1    0    0    0    0  0.00000000000E+00  0.00000000000E+00  0.45593999997E+02  0.45594000000E+02  0.51100000000E-03 0.  1.
         11   -1    0    0    0    0 -0.00000000000E+00 -0.00000000000E+00 -0.45593999997E+02  0.45594000000E+02  0.51100000000E-03 0. -1.
    9900012    2    1    2    0    0 -0.10997163374E+01 -0.34229638951E+00 -0.25760290759E+00  0.90007787265E+02  0.90000049257E+02 0.  0.
         12    1    1    2    0    0  0.10997163374E+01  0.34229638951E+00  0.25760290759E+00  0.11802127346E+01  0.00000000000E+00 0. -1.
         11    1    3    3    0    0  0.79515761084E+01  0.47917903152E+01  0.63790764611E+01  0.11264165916E+02  0.51100000000E-03 0. -1.
        -11    1    3    3    0    0  0.37515001046E+01  0.32275950482E+00  0.34814984043E+02  0.35018010236E+02  0.51100000000E-03 0.  1.
         12    1    3    3    0    0 -0.12802792550E+02 -0.54568462095E+01 -0.41451663411E+02  0.43725611113E+02  0.00000000000E+00 0. -1.
</event>
<event>
 7    1  0.1698110E-015  0.9000774E+02  0.7816164E-02  0.1186339E+00
        -11   -1    0    0    0    0  0.00000000000E+00  0.00000000000E+00  0.45593999997E+02  0.45594000000E+02  0.51100000000E-03 0.  1.
         11   -1    0    0    0    0 -0.00000000000E+00 -0.00000000000E+00 -0.45593999997E+02  0.45594000000E+02  0.51100000000E-03 0. -1.
    9900012    2    1    2    0    0  0.52780943705E+00  0.10237425411E+01  0.25765412149E+00  0.90007738487E+02  0.89999999835E+02 0.  0.
         12    1    1    2    0    0 -0.52780943705E+00 -0.10237425411E+01 -0.25765412149E+00  0.11802615128E+01  0.00000000000E+00 0. -1.
         11    1    3    3    0    0 -0.29074164164E+02 -0.37908637132E+01 -0.22433922861E+02  0.36918268713E+02  0.51100000000E-03 0. -1.
        -11    1    3    3    0    0 -0.40811559073E+01  0.67164315115E+01 -0.51091681390E+01  0.93738938079E+01  0.51100000000E-03 0.  1.
        -12    1    3    3    0    0  0.33683129508E+02 -0.19018252572E+01  0.27800745122E+02  0.43715575967E+02  0.00000000000E+00 0.  1.
</event>
<event>
 7    1  0.1698110E-015  0.9000769E+02  0.7816164E-02  0.1186339E+00
        -11   -1    0    0    0    0  0.00000000000E+00  0.00000000000E+00  0.45593999997E+02  0.45594000000E+02  0.51100000000E-03 0.  1.
         11   -1    0    0    0    0 -0.00000000000E+00 -0.00000000000E+00 -0.45593999997E+02  0.45594000000E+02  0.51100000000E-03 0. -1.
    9900012    2    1    2    0    0  0.95181489979E+00 -0.50497579560E+00 -0.48185304782E+00  0.90007688805E+02  0.89999949497E+02 0.  0.
         12    1    1    2    0    0 -0.95181489979E+00  0.50497579560E+00  0.48185304782E+00  0.11803111951E+01  0.00000000000E+00 0. -1.
         11    1    3    3    0    0  0.10560374174E+02  0.24063980030E+01  0.18105433791E+01  0.10981362467E+02  0.51100000000E-03 0. -1.
        -11    1    3    3    0    0 -0.20828339175E+02  0.28374479441E+02  0.18557710575E+02  0.39790946437E+02  0.51100000000E-03 0.  1.
         12    1    3    3    0    0  0.11219779901E+02 -0.31285853239E+02 -0.20850107002E+02  0.39235379900E+02  0.00000000000E+00 0. -1.
</event>
<event>
 7    1  0.1698110E-015  0.9000769E+02  0.7816164E-02  0.1186339E+00
        -11   -1    0    0    0    0  0.00000000000E+00  0.00000000000E+00  0.45593999997E+02  0.45594000000E+02  0.51100000000E-03 0.  1.
         11   -1    0    0    0    0 -0.00000000000E+00 -0.00000000000E+00 -0.45593999997E+02  0.45594000000E+02  0.51100000000E-03 0. -1.
    9900012    2    1    2    0    0  0.54986732859E+00 -0.10095518508E+01  0.26756651088E+00  0.90007686120E+02  0.89999946776E+02 0.  0.
         12    1    1    2    0    0 -0.54986732859E+00  0.10095518508E+01 -0.26756651088E+00  0.11803138804E+01  0.00000000000E+00 0. -1.
         11    1    3    3    0    0 -0.26387527971E+02 -0.95591967734E+01 -0.16349758111E+00  0.28066111363E+02  0.51100000000E-03 0. -1.
        -11    1    3    3    0    0 -0.15278285328E+02  0.85265361189E+01  0.76803276277E+01  0.19107989258E+02  0.51100000000E-03 0.  1.
        -12    1    3    3    0    0  0.42215680627E+02  0.23108803752E-01 -0.72492635357E+01  0.42833585498E+02  0.00000000000E+00 0.  1.
</event>
<event>
 7    1  0.1698110E-015  0.9000767E+02  0.7816164E-02  0.1186339E+00
        -11   -1    0    0    0    0  0.00000000000E+00  0.00000000000E+00  0.45593999997E+02  0.45594000000E+02  0.51100000000E-03 0.  1.
         11   -1    0    0    0    0 -0.00000000000E+00 -0.00000000000E+00 -0.45593999997E+02  0.45594000000E+02  0.51100000000E-03 0. -1.
    9900012    2    1    2    0    0  0.11417780879E+01 -0.29256495249E+00  0.62614471888E-01  0.90007672916E+02  0.89999933398E+02 0.  0.
         12    1    1    2    0    0 -0.11417780879E+01  0.29256495249E+00 -0.62614471888E-01  0.11803270842E+01  0.00000000000E+00 0. -1.
         11    1    3    3    0    0  0.33153771063E+02 -0.81181643804E+00 -0.23105353016E+02  0.40418917846E+02  0.51100000000E-03 0. -1.
        -11    1    3    3    0    0  0.11535974761E+01 -0.78035558432E+01 -0.65316757439E+00  0.79153584301E+01  0.51100000000E-03 0.  1.
        -12    1    3    3    0    0 -0.33165590451E+02  0.83228073288E+01  0.23821135062E+02  0.41673396639E+02  0.00000000000E+00 0.  1.
</event>
<event>
 7    1  0.1698110E-015  0.9000774E+02  0.7816164E-02  0.1186339E+00
        -11   -1    0    0    0    0  0.00000000000E+00  0.00000000000E+00  0.45593999997E+02  0.45594000000E+02  0.51100000000E-03 0.  1.
         11   -1    0    0    0    0 -0.00000000000E+00 -0.00000000000E+00 -0.45593999997E+02  0.45594000000E+02  0.51100000000E-03 0. -1.
    9900012    2    1    2    0    0  0.30656283486E+00  0.10391652947E+01 -0.46814669350E+00  0.90007742991E+02  0.90000004398E+02 0.  0.
         12    1    1    2    0    0 -0.30656283486E+00 -0.10391652947E+01  0.46814669350E+00  0.11802570093E+01  0.00000000000E+00 0. -1.
         11    1    3    3    0    0  0.16338858740E+00 -0.60445345568E+01  0.29132573902E+02  0.29753486455E+02  0.51100000000E-03 0. -1.
        -11    1    3    3    0    0  0.65077275204E+01 -0.18114492752E+02  0.19855236556E+01  0.19350133581E+02  0.51100000000E-03 0.  1.
         12    1    3    3    0    0 -0.63645532729E+01  0.25198192604E+02 -0.31586244251E+02  0.40904122955E+02  0.00000000000E+00 0. -1.
</event>
<event>
 7    1  0.2499948E-015  0.9000778E+02  0.7816164E-02  0.1186339E+00
        -11   -1    0    0    0    0  0.00000000000E+00  0.00000000000E+00  0.45593999997E+02  0.45594000000E+02  0.51100000000E-03 0.  1.
         11   -1    0    0    0    0 -0.00000000000E+00 -0.00000000000E+00 -0.45593999997E+02  0.45594000000E+02  0.51100000000E-03 0. -1.
    9900012    2    1    2    0    0  0.10446831804E+01  0.47859414884E+00  0.26927862847E+00  0.90007777018E+02  0.90000038875E+02 0.  0.
         12    1    1    2    0    0 -0.10446831804E+01 -0.47859414884E+00 -0.26927862847E+00  0.11802229817E+01  0.00000000000E+00 0. -1.
         11    1    3    3    0    0  0.86185160930E+00  0.76863710306E+01  0.58387527997E+01  0.96909299003E+01  0.51100000000E-03 0. -1.
        -11    1    3    3    0    0  0.17679862089E+02  0.26137851942E+02  0.17570839719E+02  0.36117852044E+02  0.51100000000E-03 0.  1.
         12    1    3    3    0    0 -0.17497030517E+02 -0.33345628824E+02 -0.23140313890E+02  0.44198995074E+02  0.00000000000E+00 0. -1.
</event>
<event>
 7    1  0.1698110E-015  0.9000775E+02  0.7816164E-02  0.1186339E+00
        -11   -1    0    0    0    0  0.00000000000E+00  0.00000000000E+00  0.45593999997E+02  0.45594000000E+02  0.51100000000E-03 0. -1.
         11   -1    0    0    0    0 -0.00000000000E+00 -0.00000000000E+00 -0.45593999997E+02  0.45594000000E+02  0.51100000000E-03 0.  1.
    9900012    2    1    2    0    0 -0.11224949628E+01  0.25859882628E+00 -0.25712512016E+00  0.90007753576E+02  0.90000015123E+02 0.  0.
         12    1    1    2    0    0  0.11224949628E+01 -0.25859882628E+00  0.25712512016E+00  0.11802464242E+01  0.00000000000E+00 0. -1.
         11    1    3    3    0    0 -0.37198488093E+02  0.20604888094E+02 -0.79411473464E+00  0.42531394854E+02  0.51100000000E-03 0. -1.
        -11    1    3    3    0    0  0.25529038327E+01 -0.29245304914E+01 -0.78673785035E+01  0.87730178019E+01  0.51100000000E-03 0.  1.
        -12    1    3    3    0    0  0.33523089297E+02 -0.17421758776E+02  0.84043681180E+01  0.38703340920E+02  0.00000000000E+00 0.  1.
</event>
<event>
 7    1  0.1698110E-015  0.9000779E+02  0.7816164E-02  0.1186339E+00
        -11   -1    0    0    0    0  0.00000000000E+00  0.00000000000E+00  0.45593999997E+02  0.45594000000E+02  0.51100000000E-03 0.  1.
         11   -1    0    0    0    0 -0.00000000000E+00 -0.00000000000E+00 -0.45593999997E+02  0.45594000000E+02  0.51100000000E-03 0. -1.
    9900012    2    1    2    0    0 -0.44939138368E+00  0.10226378527E+01  0.38100226790E+00  0.90007786663E+02  0.90000048647E+02 0.  0.
         12    1    1    2    0    0  0.44939138368E+00 -0.10226378527E+01 -0.38100226790E+00  0.11802133373E+01  0.00000000000E+00 0. -1.
         11    1    3    3    0    0 -0.12917216015E+02  0.10920795342E+02 -0.35684572424E+02  0.39490593182E+02  0.51100000000E-03 0. -1.
        -11    1    3    3    0    0  0.80480130632E+01  0.33213294814E+01 -0.28656478453E+01  0.91658977533E+01  0.51100000000E-03 0.  1.
        -12    1    3    3    0    0  0.44198115683E+01 -0.13219486971E+02  0.38931222538E+02  0.41351295727E+02  0.00000000000E+00 0.  1.
</event>
<event>
 7    1  0.1698110E-015  0.9000777E+02  0.7816164E-02  0.1186339E+00
        -11   -1    0    0    0    0  0.00000000000E+00  0.00000000000E+00  0.45593999997E+02  0.45594000000E+02  0.51100000000E-03 0. -1.
         11   -1    0    0    0    0 -0.00000000000E+00 -0.00000000000E+00 -0.45593999997E+02  0.45594000000E+02  0.51100000000E-03 0.  1.
    9900012    2    1    2    0    0  0.58626910333E+00 -0.88007136594E+00 -0.52412541175E+00  0.90007769295E+02  0.90000031049E+02 0.  0.
         12    1    1    2    0    0 -0.58626910333E+00  0.88007136594E+00  0.52412541175E+00  0.11802307054E+01  0.00000000000E+00 0. -1.
         11    1    3    3    0    0  0.14606247064E+00 -0.55570040449E+01 -0.68896373313E+01  0.88526115366E+01  0.51100000000E-03 0. -1.
        -11    1    3    3    0    0 -0.34519672511E+02 -0.15387496833E+02 -0.74954322112E+01  0.38530044813E+02  0.51100000000E-03 0.  1.
         12    1    3    3    0    0  0.34959879143E+02  0.20064429512E+02  0.13860944131E+02  0.42625112945E+02  0.00000000000E+00 0. -1.
</event>
<event>
 7    1  0.1698110E-015  0.9000773E+02  0.7816164E-02  0.1186339E+00
        -11   -1    0    0    0    0  0.00000000000E+00  0.00000000000E+00  0.45593999997E+02  0.45594000000E+02  0.51100000000E-03 0.  1.
         11   -1    0    0    0    0 -0.00000000000E+00 -0.00000000000E+00 -0.45593999997E+02  0.45594000000E+02  0.51100000000E-03 0. -1.
    9900012    2    1    2    0    0 -0.91027313622E+00  0.24810551502E+00 -0.70913934760E+00  0.90007732173E+02  0.89999993438E+02 0.  0.
         12    1    1    2    0    0  0.91027313622E+00 -0.24810551502E+00  0.70913934760E+00  0.11802678270E+01  0.00000000000E+00 0. -1.
         11    1    3    3    0    0 -0.35500563096E+02 -0.18619468898E+01  0.14726910009E+02  0.38479068401E+02  0.51100000000E-03 0. -1.
        -11    1    3    3    0    0 -0.60894428793E+01 -0.22467340654E+01 -0.73844372496E+01  0.98315330593E+01  0.51100000000E-03 0.  1.
        -12    1    3    3    0    0  0.40679732839E+02  0.43567864702E+01 -0.80516121069E+01  0.41697130713E+02  0.00000000000E+00 0.  1.
</event>
<event>
 7    1  0.1698110E-015  0.9000780E+02  0.7816164E-02  0.1186339E+00
        -11   -1    0    0    0    0  0.00000000000E+00  0.00000000000E+00  0.45593999997E+02  0.45594000000E+02  0.51100000000E-03 0.  1.
         11   -1    0    0    0    0 -0.00000000000E+00 -0.00000000000E+00 -0.45593999997E+02  0.45594000000E+02  0.51100000000E-03 0. -1.
    9900012    2    1    2    0    0  0.32787993372E+00  0.79498392799E+00  0.80830413254E+00  0.90007804988E+02  0.90000067213E+02 0.  0.
         12    1    1    2    0    0 -0.32787993372E+00 -0.79498392799E+00 -0.80830413254E+00  0.11801950124E+01  0.00000000000E+00 0. -1.
         11    1    3    3    0    0  0.37015600599E+01  0.61978448956E+01 -0.45717278064E+01  0.85449121484E+01  0.51100000000E-03 0. -1.
        -11    1    3    3    0    0  0.35686091919E+02 -0.18337942651E+02  0.18195832428E+01  0.40163269048E+02  0.51100000000E-03 0.  1.
         12    1    3    3    0    0 -0.39059772045E+02  0.12935081684E+02  0.35604486962E+01  0.41299623792E+02  0.00000000000E+00 0. -1.
</event>
<event>
 7    1  0.1698110E-015  0.9000768E+02  0.7816164E-02  0.1186339E+00
        -11   -1    0    0    0    0  0.00000000000E+00  0.00000000000E+00  0.45593999997E+02  0.45594000000E+02  0.51100000000E-03 0. -1.
         11   -1    0    0    0    0 -0.00000000000E+00 -0.00000000000E+00 -0.45593999997E+02  0.45594000000E+02  0.51100000000E-03 0.  1.
    9900012    2    1    2    0    0 -0.29994352675E-02 -0.11788196570E+01  0.59455509318E-01  0.90007678121E+02  0.89999938672E+02 0.  0.
         12    1    1    2    0    0  0.29994352675E-02  0.11788196570E+01 -0.59455509318E-01  0.11803218789E+01  0.00000000000E+00 0. -1.
         11    1    3    3    0    0 -0.38455902061E+01  0.67657742397E+01  0.62216824247E+01  0.99636136793E+01  0.51100000000E-03 0. -1.
        -11    1    3    3    0    0 -0.17937319040E+02 -0.29690377370E+02 -0.26067289099E+02  0.43390891717E+02  0.51100000000E-03 0.  1.
         12    1    3    3    0    0  0.21779909811E+02  0.21745783474E+02  0.19905062184E+02  0.36653172725E+02  0.00000000000E+00 0. -1.
</event>
<event>
 7    1  0.3089858E-015  0.9000734E+02  0.7816164E-02  0.1186340E+00
        -11   -1    0    0    0    0  0.00000000000E+00  0.00000000000E+00  0.45593999997E+02  0.45594000000E+02  0.51100000000E-03 0.  1.
         11   -1    0    0    0    0 -0.00000000000E+00 -0.00000000000E+00 -0.45593999997E+02  0.45594000000E+02  0.51100000000E-03 0. -1.
    9900012    2    1    2    0    0 -0.10570088623E+00  0.10465234130E+01  0.53625144552E+00  0.90007343596E+02  0.89999599731E+02 0.  0.
         12    1    1    2    0    0  0.10570088623E+00 -0.10465234130E+01 -0.53625144552E+00  0.11806564039E+01  0.00000000000E+00 0. -1.
         11    1    3    3    0    0 -0.40823857444E+01 -0.85151722115E+01  0.73015129142E+00  0.94713859771E+01  0.51100000000E-03 0. -1.
        -11    1    3    3    0    0 -0.30246530898E+02 -0.18737997441E+02  0.45705437690E+01  0.35872761952E+02  0.51100000000E-03 0.  1.
         12    1    3    3    0    0  0.34223215756E+02  0.28299693065E+02 -0.47644436149E+01  0.44663195667E+02  0.00000000000E+00 0. -1.
</event>
<event>
 7    1  0.1698110E-015  0.9000715E+02  0.7816164E-02  0.1186340E+00
        -11   -1    0    0    0    0  0.00000000000E+00  0.00000000000E+00  0.45593999997E+02  0.45594000000E+02  0.51100000000E-03 0. -1.
         11   -1    0    0    0    0 -0.00000000000E+00 -0.00000000000E+00 -0.45593999997E+02  0.45594000000E+02  0.51100000000E-03 0.  1.
    9900012    2    1    2    0    0 -0.69620152211E-01  0.11301331057E+01 -0.33520086590E+00  0.90007149704E+02  0.89999403278E+02 0.  0.
         12    1    1    2    0    0  0.69620152211E-01 -0.11301331057E+01  0.33520086590E+00  0.11808502964E+01  0.00000000000E+00 0. -1.
         11    1    3    3    0    0 -0.78737993441E+01  0.77890063747E+01  0.90317120287E+00  0.11112202972E+02  0.51100000000E-03 0. -1.
        -11    1    3    3    0    0  0.37206995493E+01 -0.34956074268E+00 -0.39614226076E+02  0.39790108139E+02  0.51100000000E-03 0.  1.
         12    1    3    3    0    0  0.40834796426E+01 -0.63093125263E+01  0.38375854007E+02  0.39104838592E+02  0.00000000000E+00 0. -1.
</event>
<event>
 7    1  0.1698110E-015  0.9000775E+02  0.7816164E-02  0.1186339E+00
        -11   -1    0    0    0    0  0.00000000000E+00  0.00000000000E+00  0.45593999997E+02  0.45594000000E+02  0.51100000000E-03 0. -1.
         11   -1    0    0    0    0 -0.00000000000E+00 -0.00000000000E+00 -0.45593999997E+02  0.45594000000E+02  0.51100000000E-03 0.  1.
    9900012    2    1    2    0    0 -0.38868939609E+00 -0.27439784818E+00 -0.10800974981E+01  0.90007752470E+02  0.90000014003E+02 0.  0.
         12    1    1    2    0    0  0.38868939609E+00  0.27439784818E+00  0.10800974981E+01  0.11802475296E+01  0.00000000000E+00 0. -1.
         11    1    3    3    0    0  0.26801263304E+01 -0.10636085800E+02  0.53822409353E+01  0.12217934197E+02  0.51100000000E-03 0. -1.
        -11    1    3    3    0    0  0.34007353917E+01 -0.32547640836E+02 -0.10087664514E+02  0.34244341150E+02  0.51100000000E-03 0.  1.
         12    1    3    3    0    0 -0.64695511181E+01  0.42909328788E+02  0.36253260807E+01  0.43545477123E+02  0.00000000000E+00 0. -1.
</event>
<event>
 7    1  0.1698110E-015  0.9000779E+02  0.7816164E-02  0.1186339E+00
        -11   -1    0    0    0    0  0.00000000000E+00  0.00000000000E+00  0.45593999997E+02  0.45594000000E+02  0.51100000000E-03 0. -1.
         11   -1    0    0    0    0 -0.00000000000E+00 -0.00000000000E+00 -0.45593999997E+02  0.45594000000E+02  0.51100000000E-03 0.  1.
    9900012    2    1    2    0    0  0.52264631510E+00 -0.47226329906E+00 -0.94694803766E+00  0.90007787146E+02  0.90000049136E+02 0.  0.
         12    1    1    2    0    0 -0.52264631510E+00  0.47226329906E+00  0.94694803766E+00  0.11802128538E+01  0.00000000000E+00 0. -1.
         11    1    3    3    0    0 -0.17772290186E+02  0.36980391576E+01  0.73214162586E+01  0.19573781657E+02  0.51100000000E-03 0. -1.
        -11    1    3    3    0    0  0.48857940728E+01 -0.66980035797E+01 -0.37377195717E+02  0.38285623877E+02  0.51100000000E-03 0.  1.
         12    1    3    3    0    0  0.13409142428E+02  0.25277011230E+01  0.29108831421E+02  0.32148381613E+02  0.00000000000E+00 0. -1.
</event>
<event>
 7    1  0.1698110E-015  0.9000774E+02  0.7816164E-02  0.1186339E+00
        -11   -1    0    0    0    0  0.00000000000E+00  0.00000000000E+00  0.45593999997E+02  0.45594000000E+02  0.51100000000E-03 0.  1.
         11   -1    0    0    0    0 -0.00000000000E+00 -0.00000000000E+00 -0.45593999997E+02  0.45594000000E+02  0.51100000000E-03 0. -1.
    9900012    2    1    2    0    0  0.47823394898E-01  0.11790633350E+01 -0.23108734253E-01  0.90007740944E+02  0.90000002325E+02 0.  0.
         12    1    1    2    0    0 -0.47823394898E-01 -0.11790633350E+01  0.23108734253E-01  0.11802590558E+01  0.00000000000E+00 0. -1.
         11    1    3    3    0    0 -0.11555476513E+02  0.15364971367E+01 -0.70118500262E+01  0.13603525350E+02  0.51100000000E-03 0. -1.
        -11    1    3    3    0    0  0.36704073046E+02 -0.19002498051E+02 -0.73929174946E+01  0.41987368812E+02  0.51100000000E-03 0.  1.
         12    1    3    3    0    0 -0.25100773138E+02  0.18645064250E+02  0.14381658787E+02  0.34416846783E+02  0.00000000000E+00 0. -1.
</event>
<event>
 7    1  0.1698110E-015  0.9000778E+02  0.7816164E-02  0.1186339E+00
        -11   -1    0    0    0    0  0.00000000000E+00  0.00000000000E+00  0.45593999997E+02  0.45594000000E+02  0.51100000000E-03 0.  1.
         11   -1    0    0    0    0 -0.00000000000E+00 -0.00000000000E+00 -0.45593999997E+02  0.45594000000E+02  0.51100000000E-03 0. -1.
    9900012    2    1    2    0    0 -0.49258147503E+00 -0.10095774404E+00  0.10677494120E+01  0.90007780621E+02  0.90000042525E+02 0.  0.
         12    1    1    2    0    0  0.49258147503E+00  0.10095774404E+00 -0.10677494120E+01  0.11802193790E+01  0.00000000000E+00 0. -1.
         11    1    3    3    0    0  0.26635842958E+02 -0.29173152072E+02  0.13563500198E+02  0.41767325385E+02  0.51100000000E-03 0. -1.
        -11    1    3    3    0    0 -0.20025608810E+01 -0.16494910205E+00 -0.93484692304E+01  0.95619734104E+01  0.51100000000E-03 0.  1.
        -12    1    3    3    0    0 -0.25125863552E+02  0.29237143430E+02 -0.31472815557E+01  0.38678481826E+02  0.00000000000E+00 0.  1.
</event>
<event>
 7    1  0.1698110E-015  0.9000779E+02  0.7816164E-02  0.1186339E+00
        -11   -1    0    0    0    0  0.00000000000E+00  0.00000000000E+00  0.45593999997E+02  0.45594000000E+02  0.51100000000E-03 0.  1.
         11   -1    0    0    0    0 -0.00000000000E+00 -0.00000000000E+00 -0.45593999997E+02  0.45594000000E+02  0.51100000000E-03 0. -1.
    9900012    2    1    2    0    0  0.89346463654E+00  0.61157380511E+00  0.46966854873E+00  0.90007792340E+02  0.90000054399E+02 0.  0.
         12    1    1    2    0    0 -0.89346463654E+00 -0.61157380511E+00 -0.46966854873E+00  0.11802076603E+01  0.00000000000E+00 0. -1.
         11    1    3    3    0    0  0.26227059600E+01 -0.49239209179E+01  0.34468322109E+01  0.65577615319E+01  0.51100000000E-03 0. -1.
        -11    1    3    3    0    0  0.82026759974E+01 -0.32012371626E+02  0.19702200804E+02  0.38474050312E+02  0.51100000000E-03 0.  1.
         12    1    3    3    0    0 -0.99319173209E+01  0.37547866349E+02 -0.22679364466E+02  0.44975980496E+02  0.00000000000E+00 0. -1.
</event>
<event>
 7    1  0.1698110E-015  0.9000767E+02  0.7816164E-02  0.1186339E+00
        -11   -1    0    0    0    0  0.00000000000E+00  0.00000000000E+00  0.45593999997E+02  0.45594000000E+02  0.51100000000E-03 0.  1.
         11   -1    0    0    0    0 -0.00000000000E+00 -0.00000000000E+00 -0.45593999997E+02  0.45594000000E+02  0.51100000000E-03 0. -1.
    9900012    2    1    2    0    0 -0.91688820041E+00  0.13405479350E+00  0.73111559317E+00  0.90007667559E+02  0.89999927971E+02 0.  0.
         12    1    1    2    0    0  0.91688820041E+00 -0.13405479350E+00 -0.73111559317E+00  0.11803324406E+01  0.00000000000E+00 0. -1.
         11    1    3    3    0    0 -0.78906152455E+01  0.54547991669E+01 -0.10440622785E+02  0.14178266724E+02  0.51100000000E-03 0. -1.
        -11    1    3    3    0    0 -0.15847610114E+02 -0.14953102116E+02 -0.24253157639E+02  0.32603031530E+02  0.51100000000E-03 0.  1.
        -12    1    3    3    0    0  0.22821337159E+02  0.96323577431E+01  0.35424896017E+02  0.43226369305E+02  0.00000000000E+00 0.  1.
</event>
<event>
 7    1  0.1698110E-015  0.9000774E+02  0.7816164E-02  0.1186339E+00
        -11   -1    0    0    0    0  0.00000000000E+00  0.00000000000E+00  0.45593999997E+02  0.45594000000E+02  0.51100000000E-03 0. -1.
         11   -1    0    0    0    0 -0.00000000000E+00 -0.00000000000E+00 -0.45593999997E+02  0.45594000000E+02  0.51100000000E-03 0.  1.
    9900012    2    1    2    0    0  0.10298489172E+01 -0.12129783228E-01 -0.57644007322E+00  0.90007737706E+02  0.89999999044E+02 0.  0.
         12    1    1    2    0    0 -0.10298489172E+01  0.12129783228E-01  0.57644007322E+00  0.11802622937E+01  0.00000000000E+00 0. -1.
         11    1    3    3    0    0 -0.88149422371E+01  0.79221796855E+01 -0.45297553485E+00  0.11860409972E+02  0.51100000000E-03 0. -1.
        -11    1    3    3    0    0  0.11216448065E+01 -0.16276902960E+02 -0.36414033416E+02  0.39902098779E+02  0.51100000000E-03 0.  1.
         12    1    3    3    0    0  0.87231463478E+01  0.83425934912E+01  0.36290568878E+02  0.38245228955E+02  0.00000000000E+00 0. -1.
</event>
<event>
 7    1  0.2157086E-015  0.9000773E+02  0.7816164E-02  0.1186339E+00
        -11   -1    0    0    0    0  0.00000000000E+00  0.00000000000E+00  0.45593999997E+02  0.45594000000E+02  0.51100000000E-03 0.  1.
         11   -1    0    0    0    0 -0.00000000000E+00 -0.00000000000E+00 -0.45593999997E+02  0.45594000000E+02  0.51100000000E-03 0. -1.
    9900012    2    1    2    0    0  0.32264058120E+00  0.65861849088E+00  0.92474888353E+00  0.90007730641E+02  0.89999991886E+02 0.  0.
         12    1    1    2    0    0 -0.32264058120E+00 -0.65861849088E+00 -0.92474888353E+00  0.11802693586E+01  0.00000000000E+00 0. -1.
         11    1    3    3    0    0  0.33298576025E+01  0.72505018170E+01  0.52110162049E+01  0.95295549949E+01  0.51100000000E-03 0. -1.
        -11    1    3    3    0    0  0.16865238102E+02 -0.29208943094E+02  0.22200005360E+02  0.40378693035E+02  0.51100000000E-03 0.  1.
         12    1    3    3    0    0 -0.19872455124E+02  0.22617059768E+02 -0.26486272681E+02  0.40099482612E+02  0.00000000000E+00 0. -1.
</event>
<event>
 7    1  0.1698110E-015  0.9000773E+02  0.7816164E-02  0.1186339E+00
        -11   -1    0    0    0    0  0.00000000000E+00  0.00000000000E+00  0.45593999997E+02  0.45594000000E+02  0.51100000000E-03 0.  1.
         11   -1    0    0    0    0 -0.00000000000E+00 -0.00000000000E+00 -0.45593999997E+02  0.45594000000E+02  0.51100000000E-03 0. -1.
    9900012    2    1    2    0    0 -0.91521065027E+00  0.74232059104E+00  0.66271910155E-01  0.90007727845E+02  0.89999989052E+02 0.  0.
         12    1    1    2    0    0  0.91521065027E+00 -0.74232059104E+00 -0.66271910155E-01  0.11802721552E+01  0.00000000000E+00 0. -1.
         11    1    3    3    0    0  0.22288485063E+02 -0.12501877871E+02  0.31650989987E+02  0.40679954328E+02  0.51100000000E-03 0. -1.
        -11    1    3    3    0    0 -0.38987387890E+01 -0.15422833914E+01  0.42832881260E+01  0.59937767422E+01  0.51100000000E-03 0.  1.
        -12    1    3    3    0    0 -0.19304956924E+02  0.14786481854E+02 -0.35868006203E+02  0.43333996774E+02  0.00000000000E+00 0.  1.
</event>
<event>
 7    1  0.1698110E-015  0.9000779E+02  0.7816164E-02  0.1186339E+00
        -11   -1    0    0    0    0  0.00000000000E+00  0.00000000000E+00  0.45593999997E+02  0.45594000000E+02  0.51100000000E-03 0. -1.
         11   -1    0    0    0    0 -0.00000000000E+00 -0.00000000000E+00 -0.45593999997E+02  0.45594000000E+02  0.51100000000E-03 0.  1.
    9900012    2    1    2    0    0 -0.11738806393E+01  0.87746653626E-01 -0.84832209571E-01  0.90007791656E+02  0.90000053706E+02 0.  0.
         12    1    1    2    0    0  0.11738806393E+01 -0.87746653626E-01  0.84832209571E-01  0.11802083436E+01  0.00000000000E+00 0. -1.
         11    1    3    3    0    0  0.13526009170E+02  0.33106541401E+02  0.11455367013E+02  0.37552915216E+02  0.51100000000E-03 0. -1.
        -11    1    3    3    0    0  0.76040439619E+01  0.30766241433E+01 -0.47663323724E+01  0.94870978302E+01  0.51100000000E-03 0.  1.
        -12    1    3    3    0    0 -0.22303933771E+02 -0.36095418891E+02 -0.67738668497E+01  0.42967778610E+02  0.00000000000E+00 0.  1.
</event>
<event>
 7    1  0.1698110E-015  0.9000757E+02  0.7816164E-02  0.1186339E+00
        -11   -1    0    0    0    0  0.00000000000E+00  0.00000000000E+00  0.45593999997E+02  0.45594000000E+02  0.51100000000E-03 0.  1.
         11   -1    0    0    0    0 -0.00000000000E+00 -0.00000000000E+00 -0.45593999997E+02  0.45594000000E+02  0.51100000000E-03 0. -1.
    9900012    2    1    2    0    0  0.67575488808E+00 -0.90196599754E+00  0.35103769854E+00  0.90007570080E+02  0.89999829205E+02 0.  0.
         12    1    1    2    0    0 -0.67575488808E+00  0.90196599754E+00 -0.35103769854E+00  0.11804299197E+01  0.00000000000E+00 0. -1.
         11    1    3    3    0    0  0.10396387596E+02 -0.12434560061E+02 -0.11473930342E+02  0.19858354330E+02  0.51100000000E-03 0. -1.
        -11    1    3    3    0    0  0.18602032814E+02  0.27210596196E+02  0.17444098174E+02  0.37292743685E+02  0.51100000000E-03 0.  1.
         12    1    3    3    0    0 -0.28322665522E+02 -0.15678002133E+02 -0.56191301337E+01  0.32856472066E+02  0.00000000000E+00 0. -1.
</event>
<event>
 7    1  0.1804002E-015  0.9000773E+02  0.7816164E-02  0.1186339E+00
        -11   -1    0    0    0    0  0.00000000000E+00  0.00000000000E+00  0.45593999997E+02  0.45594000000E+02  0.51100000000E-03 0.  1.
         11   -1    0    0    0    0 -0.00000000000E+00 -0.00000000000E+00 -0.45593999997E+02  0.45594000000E+02  0.51100000000E-03 0. -1.
    9900012    2    1    2    0    0  0.84614303262E+00 -0.81982953414E+00  0.70410392385E-01  0.90007730488E+02  0.89999991731E+02 0.  0.
         12    1    1    2    0    0 -0.84614303262E+00  0.81982953414E+00 -0.70410392385E-01  0.11802695116E+01  0.00000000000E+00 0. -1.
         11    1    3    3    0    0 -0.58595159241E+01 -0.46954325545E+01  0.53357908106E+01  0.92114970322E+01  0.51100000000E-03 0. -1.
        -11    1    3    3    0    0 -0.61717653131E+01 -0.20001509522E+02  0.29828009075E+02  0.36439829800E+02  0.51100000000E-03 0.  1.
         12    1    3    3    0    0  0.12877424270E+02  0.23877112543E+02 -0.35093389493E+02  0.44356403656E+02  0.00000000000E+00 0. -1.
</event>
<event>
 8    1  0.1698110E-015  0.9000771E+02  0.7816164E-02  0.1186339E+00
        -11   -1    0    0    0    0  0.00000000000E+00  0.00000000000E+00  0.45593999997E+02  0.45594000000E+02  0.51100000000E-03 0.  1.
         11   -1    0    0    0    0 -0.00000000000E+00 -0.00000000000E+00 -0.45593999997E+02  0.45594000000E+02  0.51100000000E-03 0. -1.
    9900012    2    1    2    0    0 -0.85628690649E+00 -0.19668007157E+00  0.78813963551E+00  0.90007714271E+02  0.89999975299E+02 0.  0.
         23    2    3    3    0    0  0.99628370774E+01  0.19247620713E+02  0.55215524426E+01  0.67258220352E+02  0.63430683724E+02 0.  0.
         12    1    1    2    0    0  0.85628690649E+00  0.19668007157E+00 -0.78813963551E+00  0.11802857289E+01  0.00000000000E+00 0. -1.
         11    1    4    4    0    0  0.23857940332E+02  0.10725182703E+02  0.28757748666E+02  0.38874657163E+02  0.51100000000E-03 0. -1.
        -11    1    4    4    0    0 -0.13895103255E+02  0.85224380105E+01 -0.23236196223E+02  0.28383563189E+02  0.51100000000E-03 0.  1.
        -12    1    3    3    0    0 -0.10819123984E+02 -0.19444300785E+02 -0.47334128071E+01  0.22749493920E+02  0.00000000000E+00 0.  1.
</event>
<event>
 7    1  0.2908594E-015  0.9000773E+02  0.7816164E-02  0.1186339E+00
        -11   -1    0    0    0    0  0.00000000000E+00  0.00000000000E+00  0.45593999997E+02  0.45594000000E+02  0.51100000000E-03 0. -1.
         11   -1    0    0    0    0 -0.00000000000E+00 -0.00000000000E+00 -0.45593999997E+02  0.45594000000E+02  0.51100000000E-03 0.  1.
    9900012    2    1    2    0    0  0.56197636431E+00 -0.33659190767E+00 -0.98179535672E+00  0.90007731527E+02  0.89999992783E+02 0.  0.
         12    1    1    2    0    0 -0.56197636431E+00  0.33659190767E+00  0.98179535672E+00  0.11802684732E+01  0.00000000000E+00 0. -1.
         11    1    3    3    0    0  0.95631402822E+00  0.51604830925E+01 -0.80494577192E+01  0.96093127800E+01  0.51100000000E-03 0. -1.
        -11    1    3    3    0    0  0.13821793523E+02  0.24927544060E+02 -0.21982301356E+02  0.35995083028E+02  0.51100000000E-03 0.  1.
         12    1    3    3    0    0 -0.14216131187E+02 -0.30424619060E+02  0.29049963719E+02  0.44403335718E+02  0.00000000000E+00 0. -1.
</event>
<event>
 7    1  0.1698110E-015  0.9000774E+02  0.7816164E-02  0.1186339E+00
        -11   -1    0    0    0    0  0.00000000000E+00  0.00000000000E+00  0.45593999997E+02  0.45594000000E+02  0.51100000000E-03 0. -1.
         11   -1    0    0    0    0 -0.00000000000E+00 -0.00000000000E+00 -0.45593999997E+02  0.45594000000E+02  0.51100000000E-03 0.  1.
    9900012    2    1    2    0    0  0.93228027754E+00 -0.18082342448E+00  0.70083563480E+00  0.90007739769E+02  0.90000001134E+02 0.  0.
         12    1    1    2    0    0 -0.93228027754E+00  0.18082342448E+00 -0.70083563480E+00  0.11802602314E+01  0.00000000000E+00 0. -1.
         11    1    3    3    0    0  0.13919570711E+02  0.38344307160E+02  0.12826818775E+02  0.42761754180E+02  0.51100000000E-03 0. -1.
        -11    1    3    3    0    0  0.50067320531E+01 -0.67777210229E+01 -0.57489531419E+01  0.10200751473E+02  0.51100000000E-03 0.  1.
        -12    1    3    3    0    0 -0.17994022486E+02 -0.31747409562E+02 -0.63770299987E+01  0.37045234116E+02  0.00000000000E+00 0.  1.
</event>
<event>
 7    1  0.1698110E-015  0.9000771E+02  0.7816164E-02  0.1186339E+00
        -11   -1    0    0    0    0  0.00000000000E+00  0.00000000000E+00  0.45593999997E+02  0.45594000000E+02  0.51100000000E-03 0. -1.
         11   -1    0    0    0    0 -0.00000000000E+00 -0.00000000000E+00 -0.45593999997E+02  0.45594000000E+02  0.51100000000E-03 0.  1.
    9900012    2    1    2    0    0 -0.61427868793E+00 -0.78327683848E+00 -0.63420979762E+00  0.90007710637E+02  0.89999971618E+02 0.  0.
         12    1    1    2    0    0  0.61427868793E+00  0.78327683848E+00  0.63420979762E+00  0.11802893626E+01  0.00000000000E+00 0. -1.
         11    1    3    3    0    0  0.80228994111E+01  0.39685731919E+01  0.37567410026E+01  0.97071927642E+01  0.51100000000E-03 0. -1.
        -11    1    3    3    0    0  0.33163135691E+02  0.44038173039E+01  0.10386475901E+02  0.35029502674E+02  0.51100000000E-03 0.  1.
         12    1    3    3    0    0 -0.41800313790E+02 -0.91556673343E+01 -0.14777426701E+02  0.45271015199E+02  0.00000000000E+00 0. -1.
</event>
<event>
 7    1  0.1698110E-015  0.9000789E+02  0.7816164E-02  0.1186339E+00
        -11   -1    0    0    0    0  0.00000000000E+00  0.00000000000E+00  0.45593999997E+02  0.45594000000E+02  0.51100000000E-03 0. -1.
         11   -1    0    0    0    0 -0.00000000000E+00 -0.00000000000E+00 -0.45593999997E+02  0.45594000000E+02  0.51100000000E-03 0.  1.
    9900012    2    1    2    0    0  0.96276289031E+00  0.37832192339E+00 -0.56800283177E+00  0.90007886837E+02  0.90000150143E+02 0.  0.
         12    1    1    2    0    0 -0.96276289031E+00 -0.37832192339E+00  0.56800283177E+00  0.11801131630E+01  0.00000000000E+00 0. -1.
         11    1    3    3    0    0 -0.10494925093E+00 -0.42846807642E+01  0.18122351925E+02  0.18622275456E+02  0.51100000000E-03 0. -1.
        -11    1    3    3    0    0 -0.29507104561E+02 -0.11698564945E+02  0.51386294388E+00  0.31745703595E+02  0.51100000000E-03 0.  1.
        -12    1    3    3    0    0  0.30574816702E+02  0.16361567633E+02 -0.19204217701E+02  0.39639907786E+02  0.00000000000E+00 0.  1.
</event>
<event>
 7    1  0.1698110E-015  0.9000782E+02  0.7816164E-02  0.1186339E+00
        -11   -1    0    0    0    0  0.00000000000E+00  0.00000000000E+00  0.45593999997E+02  0.45594000000E+02  0.51100000000E-03 0. -1.
         11   -1    0    0    0    0 -0.00000000000E+00 -0.00000000000E+00 -0.45593999997E+02  0.45594000000E+02  0.51100000000E-03 0.  1.
    9900012    2    1    2    0    0 -0.43882122090E+00  0.10813421710E+01 -0.17594540801E+00  0.90007821310E+02  0.90000083751E+02 0.  0.
         12    1    1    2    0    0  0.43882122090E+00 -0.10813421710E+01  0.17594540801E+00  0.11801786905E+01  0.00000000000E+00 0. -1.
         11    1    3    3    0    0  0.59078124700E+01  0.12430065252E+01 -0.67223816008E+01  0.90353598739E+01  0.51100000000E-03 0. -1.
        -11    1    3    3    0    0 -0.37863448532E+02 -0.14794902665E+02 -0.10904310030E+02  0.42088405257E+02  0.51100000000E-03 0.  1.
         12    1    3    3    0    0  0.31516814841E+02  0.14633238311E+02  0.17450746223E+02  0.38884056179E+02  0.00000000000E+00 0. -1.
</event>
<event>
 7    1  0.1698110E-015  0.9000770E+02  0.7816164E-02  0.1186339E+00
        -11   -1    0    0    0    0  0.00000000000E+00  0.00000000000E+00  0.45593999997E+02  0.45594000000E+02  0.51100000000E-03 0.  1.
         11   -1    0    0    0    0 -0.00000000000E+00 -0.00000000000E+00 -0.45593999997E+02  0.45594000000E+02  0.51100000000E-03 0. -1.
    9900012    2    1    2    0    0 -0.68255373220E+00 -0.90014569527E+00 -0.34198978418E+00  0.90007703900E+02  0.89999964792E+02 0.  0.
         12    1    1    2    0    0  0.68255373220E+00  0.90014569527E+00  0.34198978418E+00  0.11802960995E+01  0.00000000000E+00 0. -1.
         11    1    3    3    0    0  0.21619897360E+01  0.32250814992E+02 -0.96438622240E+01  0.33731192480E+02  0.51100000000E-03 0. -1.
        -11    1    3    3    0    0 -0.48830478435E+01  0.10174366746E+02  0.59909552155E+01  0.12777066939E+02  0.51100000000E-03 0.  1.
        -12    1    3    3    0    0  0.20385043753E+01 -0.43325327433E+02  0.33109172243E+01  0.43499444481E+02  0.00000000000E+00 0.  1.
</event>
<event>
 7    1  0.1698110E-015  0.9000776E+02  0.7816164E-02  0.1186339E+00
        -11   -1    0    0    0    0  0.00000000000E+00  0.00000000000E+00  0.45593999997E+02  0.45594000000E+02  0.51100000000E-03 0.  1.
         11   -1    0    0    0    0 -0.00000000000E+00 -0.00000000000E+00 -0.45593999997E+02  0.45594000000E+02  0.51100000000E-03 0. -1.
    9900012    2    1    2    0    0 -0.13635715706E+00  0.98788558501E+00  0.63124236799E+00  0.90007755055E+02  0.90000016622E+02 0.  0.
         12    1    1    2    0    0  0.13635715706E+00 -0.98788558501E+00 -0.63124236799E+00  0.11802449451E+01  0.00000000000E+00 0. -1.
         11    1    3    3    0    0 -0.11513123927E+02  0.20914420558E+02 -0.31633569919E+02  0.39631398612E+02  0.51100000000E-03 0. -1.
        -11    1    3    3    0    0  0.13382138307E+01  0.84249175547E+01  0.58119204692E+01  0.10322231923E+02  0.51100000000E-03 0.  1.
        -12    1    3    3    0    0  0.10038552939E+02 -0.28351452528E+02  0.26452891818E+02  0.40054124520E+02  0.00000000000E+00 0.  1.
</event>
<event>
 7    1  0.1698110E-015  0.9000773E+02  0.7816164E-02  0.1186339E+00
        -11   -1    0    0    0    0  0.00000000000E+00  0.00000000000E+00  0.45593999997E+02  0.45594000000E+02  0.51100000000E-03 0.  1.
         11   -1    0    0    0    0 -0.00000000000E+00 -0.00000000000E+00 -0.45593999997E+02  0.45594000000E+02  0.51100000000E-03 0. -1.
    9900012    2    1    2    0    0 -0.17477171394E-01  0.35423099018E-01  0.11796042045E+01  0.90007734637E+02  0.89999995934E+02 0.  0.
         12    1    1    2    0    0  0.17477171394E-01 -0.35423099018E-01 -0.11796042045E+01  0.11802653629E+01  0.00000000000E+00 0. -1.
         11    1    3    3    0    0 -0.14706990879E+02 -0.22031467380E+01 -0.10713926251E+02  0.18328602026E+02  0.51100000000E-03 0. -1.
        -11    1    3    3    0    0  0.87016000021E+01  0.35526062881E+02  0.94044502104E+01  0.37765892952E+02  0.51100000000E-03 0.  1.
         12    1    3    3    0    0  0.59879137057E+01 -0.33287493044E+02  0.24890802448E+01  0.33913239659E+02  0.00000000000E+00 0. -1.
</event>
<event>
 7    1  0.1708324E-015  0.9000802E+02  0.7816164E-02  0.1186338E+00
        -11   -1    0    0    0    0  0.00000000000E+00  0.00000000000E+00  0.45593999997E+02  0.45594000000E+02  0.51100000000E-03 0.  1.
         11   -1    0    0    0    0 -0.00000000000E+00 -0.00000000000E+00 -0.45593999997E+02  0.45594000000E+02  0.51100000000E-03 0. -1.
    9900012    2    1    2    0    0 -0.81968090220E+00 -0.79649805038E+00  0.29337950843E+00  0.90008018025E+02  0.90000283062E+02 0.  0.
         12    1    1    2    0    0  0.81968090220E+00  0.79649805038E+00 -0.29337950843E+00  0.11799819751E+01  0.00000000000E+00 0. -1.
         11    1    3    3    0    0  0.13048071925E+01  0.28934378402E+01  0.90129546501E+01  0.95555144357E+01  0.51100000000E-03 0. -1.
        -11    1    3    3    0    0  0.37425705569E+02 -0.11291780788E+01  0.64904630376E+01  0.38001113025E+02  0.51100000000E-03 0.  1.
         12    1    3    3    0    0 -0.39550193664E+02 -0.25607578118E+01 -0.15210038179E+02  0.42451390564E+02  0.00000000000E+00 0. -1.
</event>
<event>
 7    1  0.1698110E-015  0.9000774E+02  0.7816164E-02  0.1186339E+00
        -11   -1    0    0    0    0  0.00000000000E+00  0.00000000000E+00  0.45593999997E+02  0.45594000000E+02  0.51100000000E-03 0. -1.
         11   -1    0    0    0    0 -0.00000000000E+00 -0.00000000000E+00 -0.45593999997E+02  0.45594000000E+02  0.51100000000E-03 0.  1.
    9900012    2    1    2    0    0  0.10361820247E+01 -0.39146668089E+00  0.40755544824E+00  0.90007736981E+02  0.89999998309E+02 0.  0.
         12    1    1    2    0    0 -0.10361820247E+01  0.39146668089E+00 -0.40755544824E+00  0.11802630190E+01  0.00000000000E+00 0. -1.
         11    1    3    3    0    0  0.63486495479E+01  0.85735817448E+01  0.52642112776E+01  0.11896368171E+02  0.51100000000E-03 0. -1.
        -11    1    3    3    0    0  0.29561611531E+02 -0.25179102349E+02 -0.75484626535E+01  0.39558252743E+02  0.51100000000E-03 0.  1.
         12    1    3    3    0    0 -0.34874079054E+02  0.16214053923E+02  0.26918068242E+01  0.38553116067E+02  0.00000000000E+00 0. -1.
</event>
<event>
 7    1  0.1698110E-015  0.9000784E+02  0.7816164E-02  0.1186339E+00
        -11   -1    0    0    0    0  0.00000000000E+00  0.00000000000E+00  0.45593999997E+02  0.45594000000E+02  0.51100000000E-03 0.  1.
         11   -1    0    0    0    0 -0.00000000000E+00 -0.00000000000E+00 -0.45593999997E+02  0.45594000000E+02  0.51100000000E-03 0. -1.
    9900012    2    1    2    0    0 -0.85862819191E+00 -0.16276907385E+00  0.79312725454E+00  0.90007836035E+02  0.90000098670E+02 0.  0.
         12    1    1    2    0    0  0.85862819191E+00  0.16276907385E+00 -0.79312725454E+00  0.11801639654E+01  0.00000000000E+00 0. -1.
         11    1    3    3    0    0 -0.15027993061E+02  0.30186034978E+02 -0.98496356930E+01  0.35129084911E+02  0.51100000000E-03 0. -1.
        -11    1    3    3    0    0 -0.26539779893E+01  0.78963638095E+01 -0.56141874206E+01  0.10045658825E+02  0.51100000000E-03 0.  1.
        -12    1    3    3    0    0  0.16823342859E+02 -0.38245167862E+02  0.16256950368E+02  0.44833092298E+02  0.00000000000E+00 0.  1.
</event>
<event>
 7    1  0.1698110E-015  0.9000771E+02  0.7816164E-02  0.1186339E+00
        -11   -1    0    0    0    0  0.00000000000E+00  0.00000000000E+00  0.45593999997E+02  0.45594000000E+02  0.51100000000E-03 0.  1.
         11   -1    0    0    0    0 -0.00000000000E+00 -0.00000000000E+00 -0.45593999997E+02  0.45594000000E+02  0.51100000000E-03 0. -1.
    9900012    2    1    2    0    0  0.79516986404E+00 -0.72770928995E+00  0.48085578807E+00  0.90007712657E+02  0.89999973664E+02 0.  0.
         12    1    1    2    0    0 -0.79516986404E+00  0.72770928995E+00 -0.48085578807E+00  0.11802873431E+01  0.00000000000E+00 0. -1.
         11    1    3    3    0    0  0.64945426569E+01  0.14718889284E+02  0.21805899053E+02  0.27098376701E+02  0.51100000000E-03 0. -1.
        -11    1    3    3    0    0  0.17171653983E+01  0.20360789531E+02  0.28266111725E+00  0.20435026423E+02  0.51100000000E-03 0.  1.
        -12    1    3    3    0    0 -0.74165381911E+01 -0.35807388105E+02 -0.21607704382E+02  0.42474309533E+02  0.00000000000E+00 0.  1.
</event>
<event>
 7    1  0.1698110E-015  0.9000775E+02  0.7816164E-02  0.1186339E+00
        -11   -1    0    0    0    0  0.00000000000E+00  0.00000000000E+00  0.45593999997E+02  0.45594000000E+02  0.51100000000E-03 0.  1.
         11   -1    0    0    0    0 -0.00000000000E+00 -0.00000000000E+00 -0.45593999997E+02  0.45594000000E+02  0.51100000000E-03 0. -1.
    9900012    2    1    2    0    0  0.68881633965E+00 -0.18473911156E-01  0.95821538986E+00  0.90007751734E+02  0.90000013257E+02 0.  0.
         12    1    1    2    0    0 -0.68881633965E+00  0.18473911156E-01 -0.95821538986E+00  0.11802482656E+01  0.00000000000E+00 0. -1.
         11    1    3    3    0    0 -0.22296656834E+01  0.38102981439E+02  0.72850071627E+01  0.38857173511E+02  0.51100000000E-03 0. -1.
        -11    1    3    3    0    0  0.71887432594E+01  0.27508378733E+01  0.41455254388E+01  0.87424550373E+01  0.51100000000E-03 0.  1.
        -12    1    3    3    0    0 -0.42702612364E+01 -0.40872293224E+02 -0.10472317212E+02  0.42408123186E+02  0.00000000000E+00 0.  1.
</event>
<event>
 7    1  0.1698110E-015  0.9000770E+02  0.7816164E-02  0.1186339E+00
        -11   -1    0    0    0    0  0.00000000000E+00  0.00000000000E+00  0.45593999997E+02  0.45594000000E+02  0.51100000000E-03 0. -1.
         11   -1    0    0    0    0 -0.00000000000E+00 -0.00000000000E+00 -0.45593999997E+02  0.45594000000E+02  0.51100000000E-03 0.  1.
    9900012    2    1    2    0    0 -0.56294661440E+00  0.91381431763E-01  0.10333668616E+01  0.90007700662E+02  0.89999961511E+02 0.  0.
         12    1    1    2    0    0  0.56294661440E+00 -0.91381431763E-01 -0.10333668616E+01  0.11802993380E+01  0.00000000000E+00 0. -1.
         11    1    3    3    0    0 -0.56182124585E+01 -0.84461769142E+01 -0.60188534739E+00  0.10161913301E+02  0.51100000000E-03 0. -1.
        -11    1    3    3    0    0  0.28609881422E+02 -0.25564192093E+02  0.15836667869E+01  0.38400016056E+02  0.51100000000E-03 0.  1.
         12    1    3    3    0    0 -0.23554615578E+02  0.34101750439E+02  0.51585422086E-01  0.41445771305E+02  0.00000000000E+00 0. -1.
</event>
<event>
 7    1  0.1846422E-015  0.9000771E+02  0.7816164E-02  0.1186339E+00
        -11   -1    0    0    0    0  0.00000000000E+00  0.00000000000E+00  0.45593999997E+02  0.45594000000E+02  0.51100000000E-03 0.  1.
         11   -1    0    0    0    0 -0.00000000000E+00 -0.00000000000E+00 -0.45593999997E+02  0.45594000000E+02  0.51100000000E-03 0. -1.
    9900012    2    1    2    0    0 -0.10785470797E+01 -0.48843984485E-01  0.47690063954E+00  0.90007710308E+02  0.89999971284E+02 0.  0.
         12    1    1    2    0    0  0.10785470797E+01  0.48843984485E-01 -0.47690063954E+00  0.11802896924E+01  0.00000000000E+00 0. -1.
         11    1    3    3    0    0 -0.24954728716E+01 -0.29974743137E+01  0.90855028081E+01  0.98872948095E+01  0.51100000000E-03 0. -1.
        -11    1    3    3    0    0  0.10022652583E+02 -0.28420933208E+02  0.20517374779E+02  0.36457724522E+02  0.51100000000E-03 0.  1.
         12    1    3    3    0    0 -0.86057267911E+01  0.31369563538E+02 -0.29125976947E+02  0.43662690976E+02  0.00000000000E+00 0. -1.
</event>
<event>
 7    1  0.1698110E-015  0.9000776E+02  0.7816164E-02  0.1186339E+00
        -11   -1    0    0    0    0  0.00000000000E+00  0.00000000000E+00  0.45593999997E+02  0.45594000000E+02  0.51100000000E-03 0.  1.
         11   -1    0    0    0    0 -0.00000000000E+00 -0.00000000000E+00 -0.45593999997E+02  0.45594000000E+02  0.51100000000E-03 0. -1.
    9900012    2    1    2    0    0  0.28910433345E+00 -0.63589154046E+00  0.95132824347E+00  0.90007760705E+02  0.90000022346E+02 0.  0.
         12    1    1    2    0    0 -0.28910433345E+00  0.63589154046E+00 -0.95132824347E+00  0.11802392951E+01  0.00000000000E+00 0. -1.
         11    1    3    3    0    0 -0.12049786266E+02 -0.17320034517E+01  0.26415033755E+00  0.12176492133E+02  0.51100000000E-03 0. -1.
        -11    1    3    3    0    0 -0.46870157756E+01 -0.26073687674E+02  0.25894805941E+02  0.37045192411E+02  0.51100000000E-03 0.  1.
         12    1    3    3    0    0  0.17025906375E+02  0.27169799585E+02 -0.25207628035E+02  0.40786076160E+02  0.00000000000E+00 0. -1.
</event>
<event>
 7    1  0.1698110E-015  0.9000776E+02  0.7816164E-02  0.1186339E+00
        -11   -1    0    0    0    0  0.00000000000E+00  0.00000000000E+00  0.45593999997E+02  0.45594000000E+02  0.51100000000E-03 0. -1.
         11   -1    0    0    0    0 -0.00000000000E+00 -0.00000000000E+00 -0.45593999997E+02  0.45594000000E+02  0.51100000000E-03 0.  1.
    9900012    2    1    2    0    0 -0.11766710081E+01 -0.22853783622E-01  0.88852652077E-01  0.90007757758E+02  0.90000019360E+02 0.  0.
         12    1    1    2    0    0  0.11766710081E+01  0.22853783622E-01 -0.88852652077E-01  0.11802422423E+01  0.00000000000E+00 0. -1.
         11    1    3    3    0    0 -0.20452020221E+01  0.11764637786E+02  0.70725685433E+01  0.13878428571E+02  0.51100000000E-03 0. -1.
        -11    1    3    3    0    0  0.27056575707E+02  0.20521593804E+02 -0.73107403060E-02  0.33958712504E+02  0.51100000000E-03 0.  1.
         12    1    3    3    0    0 -0.26188044693E+02 -0.32309085374E+02 -0.69764051509E+01  0.42170616682E+02  0.00000000000E+00 0. -1.
</event>
<event>
 7    1  0.1698110E-015  0.9000770E+02  0.7816164E-02  0.1186339E+00
        -11   -1    0    0    0    0  0.00000000000E+00  0.00000000000E+00  0.45593999997E+02  0.45594000000E+02  0.51100000000E-03 0.  1.
         11   -1    0    0    0    0 -0.00000000000E+00 -0.00000000000E+00 -0.45593999997E+02  0.45594000000E+02  0.51100000000E-03 0. -1.
    9900012    2    1    2    0    0 -0.58628046814E+00 -0.26911347761E+00  0.98841101323E+00  0.90007702079E+02  0.89999962946E+02 0.  0.
         12    1    1    2    0    0  0.58628046814E+00  0.26911347761E+00 -0.98841101323E+00  0.11802979210E+01  0.00000000000E+00 0. -1.
         11    1    3    3    0    0  0.22904429890E+02 -0.30508417611E+02 -0.69825261065E+01  0.38783142276E+02  0.51100000000E-03 0. -1.
        -11    1    3    3    0    0 -0.14621011134E+02  0.47794070958E+01 -0.10428223633E+02  0.18583986310E+02  0.51100000000E-03 0.  1.
        -12    1    3    3    0    0 -0.88696992245E+01  0.25459897038E+02  0.18399160753E+02  0.32640573493E+02  0.00000000000E+00 0.  1.
</event>
<event>
 7    1  0.1698110E-015  0.9000775E+02  0.7816164E-02  0.1186339E+00
        -11   -1    0    0    0    0  0.00000000000E+00  0.00000000000E+00  0.45593999997E+02  0.45594000000E+02  0.51100000000E-03 0. -1.
         11   -1    0    0    0    0 -0.00000000000E+00 -0.00000000000E+00 -0.45593999997E+02  0.45594000000E+02  0.51100000000E-03 0.  1.
    9900012    2    1    2    0    0 -0.62080482650E+00  0.68441538378E+00  0.73427722179E+00  0.90007751684E+02  0.90000013206E+02 0.  0.
         12    1    1    2    0    0  0.62080482650E+00 -0.68441538378E+00 -0.73427722179E+00  0.11802483165E+01  0.00000000000E+00 0. -1.
         11    1    3    3    0    0 -0.11445866424E+02 -0.62822084510E+01 -0.30678120108E+01  0.13412138980E+02  0.51100000000E-03 0. -1.
        -11    1    3    3    0    0 -0.25755011083E+02 -0.13032896824E+02  0.16201015187E+02  0.33100602545E+02  0.51100000000E-03 0.  1.
         12    1    3    3    0    0  0.36580072680E+02  0.19999520659E+02 -0.12398925955E+02  0.43495010159E+02  0.00000000000E+00 0. -1.
</event>
<event>
 7    1  0.1698110E-015  0.9000778E+02  0.7816164E-02  0.1186339E+00
        -11   -1    0    0    0    0  0.00000000000E+00  0.00000000000E+00  0.45593999997E+02  0.45594000000E+02  0.51100000000E-03 0. -1.
         11   -1    0    0    0    0 -0.00000000000E+00 -0.00000000000E+00 -0.45593999997E+02  0.45594000000E+02  0.51100000000E-03 0.  1.
    9900012    2    1    2    0    0 -0.28644205140E+00 -0.28765372956E+00 -0.11082096577E+01  0.90007778681E+02  0.90000040559E+02 0.  0.
         12    1    1    2    0    0  0.28644205140E+00  0.28765372956E+00  0.11082096577E+01  0.11802213192E+01  0.00000000000E+00 0. -1.
         11    1    3    3    0    0 -0.33918882778E+02 -0.12149643752E+02  0.54537312736E+01  0.36439643758E+02  0.51100000000E-03 0. -1.
        -11    1    3    3    0    0 -0.85089247152E+01  0.60595305941E+01 -0.30613448037E+01  0.10885382083E+02  0.51100000000E-03 0.  1.
        -12    1    3    3    0    0  0.42141365441E+02  0.58024594285E+01 -0.35005961276E+01  0.42682752839E+02  0.00000000000E+00 0.  1.
</event>
<event>
 7    1  0.1698110E-015  0.9000772E+02  0.7816164E-02  0.1186339E+00
        -11   -1    0    0    0    0  0.00000000000E+00  0.00000000000E+00  0.45593999997E+02  0.45594000000E+02  0.51100000000E-03 0. -1.
         11   -1    0    0    0    0 -0.00000000000E+00 -0.00000000000E+00 -0.45593999997E+02  0.45594000000E+02  0.51100000000E-03 0.  1.
    9900012    2    1    2    0    0 -0.98331877642E+00 -0.51179432868E+00 -0.40522861964E+00  0.90007720590E+02  0.89999981702E+02 0.  0.
         12    1    1    2    0    0  0.98331877642E+00  0.51179432868E+00  0.40522861964E+00  0.11802794098E+01  0.00000000000E+00 0. -1.
         11    1    3    3    0    0 -0.32936830471E+02  0.22940992616E+02 -0.85338185042E+01  0.41035959868E+02  0.51100000000E-03 0. -1.
        -11    1    3    3    0    0  0.46088010978E+01  0.33702875281E+01  0.89992400016E+01  0.10657682978E+02  0.51100000000E-03 0.  1.
        -12    1    3    3    0    0  0.27344710597E+02 -0.26823074473E+02 -0.87065011704E+00  0.38314077745E+02  0.00000000000E+00 0.  1.
</event>
<event>
 7    1  0.1698110E-015  0.9000766E+02  0.7816164E-02  0.1186339E+00
        -11   -1    0    0    0    0  0.00000000000E+00  0.00000000000E+00  0.45593999997E+02  0.45594000000E+02  0.51100000000E-03 0.  1.
         11   -1    0    0    0    0 -0.00000000000E+00 -0.00000000000E+00 -0.45593999997E+02  0.45594000000E+02  0.51100000000E-03 0. -1.
    9900012    2    1    2    0    0  0.65839430011E+00 -0.94273785697E+00 -0.26639659886E+00  0.90007659003E+02  0.89999919302E+02 0.  0.
         12    1    1    2    0    0 -0.65839430011E+00  0.94273785697E+00  0.26639659886E+00  0.11803409970E+01  0.00000000000E+00 0. -1.
         11    1    3    3    0    0 -0.39679982367E+01 -0.15319566555E+02 -0.37485255636E+02  0.40688800914E+02  0.51100000000E-03 0. -1.
        -11    1    3    3    0    0 -0.92860122702E+00 -0.80116370468E+01  0.43506006394E+01  0.91638613364E+01  0.51100000000E-03 0.  1.
        -12    1    3    3    0    0  0.55549937638E+01  0.22388465744E+02  0.32868258398E+02  0.40154996753E+02  0.00000000000E+00 0.  1.
</event>
<event>
 7    1  0.1698110E-015  0.9000779E+02  0.7816164E-02  0.1186339E+00
        -11   -1    0    0    0    0  0.00000000000E+00  0.00000000000E+00  0.45593999997E+02  0.45594000000E+02  0.51100000000E-03 0. -1.
         11   -1    0    0    0    0 -0.00000000000E+00 -0.00000000000E+00 -0.45593999997E+02  0.45594000000E+02  0.51100000000E-03 0.  1.
    9900012    2    1    2    0    0  0.78221705511E+00  0.71312134572E+00 -0.52199643712E+00  0.90007794147E+02  0.90000056230E+02 0.  0.
         12    1    1    2    0    0 -0.78221705511E+00 -0.71312134572E+00  0.52199643712E+00  0.11802058530E+01  0.00000000000E+00 0. -1.
         11    1    3    3    0    0 -0.24329280746E+01 -0.34783850889E+01  0.88963655244E+01  0.98571609324E+01  0.51100000000E-03 0. -1.
        -11    1    3    3    0    0  0.17136256467E+02 -0.25239365835E+02  0.19829484226E+02  0.36385234895E+02  0.51100000000E-03 0.  1.
         12    1    3    3    0    0 -0.13921111337E+02  0.29430872270E+02 -0.29247846188E+02  0.43765398319E+02  0.00000000000E+00 0. -1.
</event>
<event>
 7    1  0.1698110E-015  0.9000775E+02  0.7816164E-02  0.1186339E+00
        -11   -1    0    0    0    0  0.00000000000E+00  0.00000000000E+00  0.45593999997E+02  0.45594000000E+02  0.51100000000E-03 0.  1.
         11   -1    0    0    0    0 -0.00000000000E+00 -0.00000000000E+00 -0.45593999997E+02  0.45594000000E+02  0.51100000000E-03 0. -1.
    9900012    2    1    2    0    0  0.86675208285E+00  0.75566054569E+00 -0.26589458036E+00  0.90007753432E+02  0.90000014977E+02 0.  0.
         12    1    1    2    0    0 -0.86675208285E+00 -0.75566054569E+00  0.26589458036E+00  0.11802465680E+01  0.00000000000E+00 0. -1.
         11    1    3    3    0    0 -0.22113175655E+02  0.21723569335E+02 -0.58025620364E+01  0.31536894721E+02  0.51100000000E-03 0. -1.
        -11    1    3    3    0    0 -0.13893096893E+02 -0.59850805144E+01 -0.71019059615E+01  0.16711564816E+02  0.51100000000E-03 0.  1.
        -12    1    3    3    0    0  0.36873024631E+02 -0.14982828275E+02  0.12638573418E+02  0.41759293895E+02  0.00000000000E+00 0.  1.
</event>
<event>
 7    1  0.2543771E-015  0.9000772E+02  0.7816164E-02  0.1186339E+00
        -11   -1    0    0    0    0  0.00000000000E+00  0.00000000000E+00  0.45593999997E+02  0.45594000000E+02  0.51100000000E-03 0.  1.
         11   -1    0    0    0    0 -0.00000000000E+00 -0.00000000000E+00 -0.45593999997E+02  0.45594000000E+02  0.51100000000E-03 0. -1.
    9900012    2    1    2    0    0 -0.75628641793E+00  0.12095564774E+00  0.89802567963E+00  0.90007724805E+02  0.89999985972E+02 0.  0.
         12    1    1    2    0    0  0.75628641793E+00 -0.12095564774E+00 -0.89802567963E+00  0.11802751950E+01  0.00000000000E+00 0. -1.
         11    1    3    3    0    0 -0.56864142690E+01  0.59069509668E+01  0.61156136245E+01  0.10228788160E+02  0.51100000000E-03 0. -1.
        -11    1    3    3    0    0  0.33581822943E+02  0.13597734263E+02  0.15555277544E+02  0.39428465213E+02  0.51100000000E-03 0.  1.
         12    1    3    3    0    0 -0.28651695092E+02 -0.19383729582E+02 -0.20772865489E+02  0.40350471432E+02  0.00000000000E+00 0. -1.
</event>
<event>
 7    1  0.1698110E-015  0.9000775E+02  0.7816164E-02  0.1186339E+00
        -11   -1    0    0    0    0  0.00000000000E+00  0.00000000000E+00  0.45593999997E+02  0.45594000000E+02  0.51100000000E-03 0. -1.
         11   -1    0    0    0    0 -0.00000000000E+00 -0.00000000000E+00 -0.45593999997E+02  0.45594000000E+02  0.51100000000E-03 0.  1.
    9900012    2    1    2    0    0 -0.11200539450E+01 -0.34552429042E+00 -0.13812903916E+00  0.90007751083E+02  0.90000012597E+02 0.  0.
         12    1    1    2    0    0  0.11200539450E+01  0.34552429042E+00  0.13812903916E+00  0.11802489171E+01  0.00000000000E+00 0. -1.
         11    1    3    3    0    0  0.30813575448E+01  0.60754349406E+01  0.39899399628E+02  0.40476755861E+02  0.51100000000E-03 0. -1.
        -11    1    3    3    0    0  0.71933095643E+01 -0.37226639536E+01 -0.30108889670E+00  0.81050961860E+01  0.51100000000E-03 0.  1.
        -12    1    3    3    0    0 -0.11394721054E+02 -0.26982952775E+01 -0.39736439771E+02  0.41425899036E+02  0.00000000000E+00 0.  1.
</event>
<event>
 7    1  0.1698110E-015  0.9000775E+02  0.7816164E-02  0.1186339E+00
        -11   -1    0    0    0    0  0.00000000000E+00  0.00000000000E+00  0.45593999997E+02  0.45594000000E+02  0.51100000000E-03 0. -1.
         11   -1    0    0    0    0 -0.00000000000E+00 -0.00000000000E+00 -0.45593999997E+02  0.45594000000E+02  0.51100000000E-03 0.  1.
    9900012    2    1    2    0    0  0.89426279704E-01  0.74430398138E+00 -0.91159210613E+00  0.90007751872E+02  0.90000013396E+02 0.  0.
         12    1    1    2    0    0 -0.89426279704E-01 -0.74430398138E+00  0.91159210613E+00  0.11802481282E+01  0.00000000000E+00 0. -1.
         11    1    3    3    0    0  0.23044885852E+02  0.15284778133E+02  0.19158645355E+02  0.33641416418E+02  0.51100000000E-03 0. -1.
        -11    1    3    3    0    0  0.38231446538E+01 -0.51584402398E+01  0.11960626089E+02  0.13575069704E+02  0.51100000000E-03 0.  1.
        -12    1    3    3    0    0 -0.26778604227E+02 -0.93820339118E+01 -0.32030863551E+02  0.42791265750E+02  0.00000000000E+00 0.  1.
</event>
<event>
 7    1  0.1698110E-015  0.9000771E+02  0.7816164E-02  0.1186339E+00
        -11   -1    0    0    0    0  0.00000000000E+00  0.00000000000E+00  0.45593999997E+02  0.45594000000E+02  0.51100000000E-03 0. -1.
         11   -1    0    0    0    0 -0.00000000000E+00 -0.00000000000E+00 -0.45593999997E+02  0.45594000000E+02  0.51100000000E-03 0.  1.
    9900012    2    1    2    0    0 -0.71876430664E+00 -0.68587426590E+00  0.63722033679E+00  0.90007705378E+02  0.89999966289E+02 0.  0.
         12    1    1    2    0    0  0.71876430664E+00  0.68587426590E+00 -0.63722033679E+00  0.11802946220E+01  0.00000000000E+00 0. -1.
         11    1    3    3    0    0 -0.22047221357E+02 -0.24534939122E+02  0.16942646541E+02  0.37082293341E+02  0.51100000000E-03 0. -1.
        -11    1    3    3    0    0 -0.26716202935E+01 -0.82754471024E+01  0.18765687029E+01  0.88961840188E+01  0.51100000000E-03 0.  1.
        -12    1    3    3    0    0  0.24000077344E+02  0.32124511959E+02 -0.18181994907E+02  0.44029228019E+02  0.00000000000E+00 0.  1.
</event>
<event>
 7    1  0.1698110E-015  0.9000777E+02  0.7816164E-02  0.1186339E+00
        -11   -1    0    0    0    0  0.00000000000E+00  0.00000000000E+00  0.45593999997E+02  0.45594000000E+02  0.51100000000E-03 0.  1.
         11   -1    0    0    0    0 -0.00000000000E+00 -0.00000000000E+00 -0.45593999997E+02  0.45594000000E+02  0.51100000000E-03 0. -1.
    9900012    2    1    2    0    0 -0.35064756222E+00 -0.10951037548E+01 -0.26595909996E+00  0.90007771128E+02  0.90000032907E+02 0.  0.
         12    1    1    2    0    0  0.35064756222E+00  0.10951037548E+01  0.26595909996E+00  0.11802288717E+01  0.00000000000E+00 0. -1.
         11    1    3    3    0    0  0.54092604864E+01 -0.81775998868E+01 -0.11057118787E+02  0.14778129619E+02  0.51100000000E-03 0. -1.
        -11    1    3    3    0    0  0.84251807668E+01 -0.20888125875E+02  0.30704543670E+02  0.38079738389E+02  0.51100000000E-03 0.  1.
         12    1    3    3    0    0 -0.14185088815E+02  0.27970622007E+02 -0.19913383983E+02  0.37149903120E+02  0.00000000000E+00 0. -1.
</event>
<event>
 7    1  0.1698110E-015  0.9000774E+02  0.7816164E-02  0.1186339E+00
        -11   -1    0    0    0    0  0.00000000000E+00  0.00000000000E+00  0.45593999997E+02  0.45594000000E+02  0.51100000000E-03 0. -1.
         11   -1    0    0    0    0 -0.00000000000E+00 -0.00000000000E+00 -0.45593999997E+02  0.45594000000E+02  0.51100000000E-03 0.  1.
    9900012    2    1    2    0    0  0.10290424654E+01 -0.38091292644E+00 -0.43472904175E+00  0.90007740540E+02  0.90000001915E+02 0.  0.
         12    1    1    2    0    0 -0.10290424654E+01  0.38091292644E+00  0.43472904175E+00  0.11802594600E+01  0.00000000000E+00 0. -1.
         11    1    3    3    0    0 -0.24216908385E+02 -0.26497462838E+02  0.14717978727E+02  0.38796817997E+02  0.51100000000E-03 0. -1.
        -11    1    3    3    0    0  0.35095995773E+01 -0.74861458411E+01  0.39341493266E+00  0.82773452458E+01  0.51100000000E-03 0.  1.
        -12    1    3    3    0    0  0.21736351273E+02  0.33602695753E+02 -0.15546122702E+02  0.42933577298E+02  0.00000000000E+00 0.  1.
</event>
<event>
 7    1  0.1698110E-015  0.9000776E+02  0.7816164E-02  0.1186339E+00
        -11   -1    0    0    0    0  0.00000000000E+00  0.00000000000E+00  0.45593999997E+02  0.45594000000E+02  0.51100000000E-03 0. -1.
         11   -1    0    0    0    0 -0.00000000000E+00 -0.00000000000E+00 -0.45593999997E+02  0.45594000000E+02  0.51100000000E-03 0.  1.
    9900012    2    1    2    0    0 -0.58936263747E+00  0.69262425585E+00 -0.75225829879E+00  0.90007758827E+02  0.90000020444E+02 0.  0.
         12    1    1    2    0    0  0.58936263747E+00 -0.69262425585E+00  0.75225829879E+00  0.11802411730E+01  0.00000000000E+00 0. -1.
         11    1    3    3    0    0 -0.83303715263E+01 -0.41496586238E+01  0.46156665795E+01  0.10388413483E+02  0.51100000000E-03 0. -1.
        -11    1    3    3    0    0 -0.71677140072E+00 -0.36779461744E+02 -0.51590478183E+01  0.37146444542E+02  0.51100000000E-03 0.  1.
         12    1    3    3    0    0  0.84577802896E+01  0.41621744624E+02 -0.20887706004E+00  0.42472900802E+02  0.00000000000E+00 0. -1.
</event>
<event>
 7    1  0.1698110E-015  0.9000780E+02  0.7816164E-02  0.1186339E+00
        -11   -1    0    0    0    0  0.00000000000E+00  0.00000000000E+00  0.45593999997E+02  0.45594000000E+02  0.51100000000E-03 0.  1.
         11   -1    0    0    0    0 -0.00000000000E+00 -0.00000000000E+00 -0.45593999997E+02  0.45594000000E+02  0.51100000000E-03 0. -1.
    9900012    2    1    2    0    0 -0.40317531273E+00  0.92891812957E+00  0.60616526636E+00  0.90007798511E+02  0.90000060651E+02 0.  0.
         12    1    1    2    0    0  0.40317531273E+00 -0.92891812957E+00 -0.60616526636E+00  0.11802014889E+01  0.00000000000E+00 0. -1.
         11    1    3    3    0    0  0.10684497987E+01 -0.89400164002E+01 -0.54259223474E+00  0.90199714413E+01  0.51100000000E-03 0. -1.
        -11    1    3    3    0    0 -0.65143887277E+01 -0.33584944839E+02 -0.10375823176E+02  0.35749734085E+02  0.51100000000E-03 0.  1.
         12    1    3    3    0    0  0.50427636163E+01  0.43453879369E+02  0.11524580677E+02  0.45238092984E+02  0.00000000000E+00 0. -1.
</event>
<event>
 7    1  0.1698110E-015  0.9000770E+02  0.7816164E-02  0.1186339E+00
        -11   -1    0    0    0    0  0.00000000000E+00  0.00000000000E+00  0.45593999997E+02  0.45594000000E+02  0.51100000000E-03 0.  1.
         11   -1    0    0    0    0 -0.00000000000E+00 -0.00000000000E+00 -0.45593999997E+02  0.45594000000E+02  0.51100000000E-03 0. -1.
    9900012    2    1    2    0    0  0.38623743401E+00  0.53167953251E+00  0.98043669266E+00  0.90007695552E+02  0.89999956334E+02 0.  0.
         12    1    1    2    0    0 -0.38623743401E+00 -0.53167953251E+00 -0.98043669266E+00  0.11803044476E+01  0.00000000000E+00 0. -1.
         11    1    3    3    0    0 -0.54111289415E+01  0.57254380667E+01  0.43883532825E+01  0.90176827550E+01  0.51100000000E-03 0. -1.
        -11    1    3    3    0    0 -0.31222718541E+02  0.17596626993E+02  0.64444790407E+01  0.36414705066E+02  0.51100000000E-03 0.  1.
         12    1    3    3    0    0  0.37020084917E+02 -0.22790385528E+02 -0.98523956305E+01  0.44575307732E+02  0.00000000000E+00 0. -1.
</event>
<event>
 7    1  0.1698110E-015  0.9000783E+02  0.7816164E-02  0.1186339E+00
        -11   -1    0    0    0    0  0.00000000000E+00  0.00000000000E+00  0.45593999997E+02  0.45594000000E+02  0.51100000000E-03 0.  1.
         11   -1    0    0    0    0 -0.00000000000E+00 -0.00000000000E+00 -0.45593999997E+02  0.45594000000E+02  0.51100000000E-03 0. -1.
    9900012    2    1    2    0    0  0.77189319947E-01 -0.76753700913E+00  0.89316147780E+00  0.90007826845E+02  0.90000089359E+02 0.  0.
         12    1    1    2    0    0 -0.77189319947E-01  0.76753700913E+00 -0.89316147780E+00  0.11801731555E+01  0.00000000000E+00 0. -1.
         11    1    3    3    0    0 -0.13909410754E+02 -0.50294102434E+01 -0.20218583131E+00  0.14792145020E+02  0.51100000000E-03 0. -1.
        -11    1    3    3    0    0 -0.25040581937E+02  0.11108010205E+02  0.17308563110E+02  0.32403780515E+02  0.51100000000E-03 0.  1.
         12    1    3    3    0    0  0.39027182011E+02 -0.68461369702E+01 -0.16213215801E+02  0.42811901310E+02  0.00000000000E+00 0. -1.
</event>
<event>
 7    1  0.1698110E-015  0.9000749E+02  0.7816164E-02  0.1186340E+00
        -11   -1    0    0    0    0  0.00000000000E+00  0.00000000000E+00  0.45593999997E+02  0.45594000000E+02  0.51100000000E-03 0.  1.
         11   -1    0    0    0    0 -0.00000000000E+00 -0.00000000000E+00 -0.45593999997E+02  0.45594000000E+02  0.51100000000E-03 0. -1.
    9900012    2    1    2    0    0 -0.27650874460E+00  0.87578849826E+00  0.74172136535E+00  0.90007486060E+02  0.89999744075E+02 0.  0.
         12    1    1    2    0    0  0.27650874460E+00 -0.87578849826E+00 -0.74172136535E+00  0.11805139403E+01  0.00000000000E+00 0. -1.
         11    1    3    3    0    0 -0.16069413497E+02 -0.10829646805E+02 -0.37923229307E+01  0.19745607449E+02  0.51100000000E-03 0. -1.
        -11    1    3    3    0    0 -0.15412529413E+02 -0.42755937115E+01  0.24990526108E+02  0.29670745861E+02  0.51100000000E-03 0.  1.
         12    1    3    3    0    0  0.31205434165E+02  0.15981029014E+02 -0.20456481812E+02  0.40591132750E+02  0.00000000000E+00 0. -1.
</event>
<event>
 7    1  0.1698110E-015  0.9000779E+02  0.7816164E-02  0.1186339E+00
        -11   -1    0    0    0    0  0.00000000000E+00  0.00000000000E+00  0.45593999997E+02  0.45594000000E+02  0.51100000000E-03 0.  1.
         11   -1    0    0    0    0 -0.00000000000E+00 -0.00000000000E+00 -0.45593999997E+02  0.45594000000E+02  0.51100000000E-03 0. -1.
    9900012    2    1    2    0    0  0.68745467525E+00  0.82910242441E+00  0.48258749271E+00  0.90007790083E+02  0.90000052112E+02 0.  0.
         12    1    1    2    0    0 -0.68745467525E+00 -0.82910242441E+00 -0.48258749271E+00  0.11802099173E+01  0.00000000000E+00 0. -1.
         11    1    3    3    0    0  0.31913509520E+02  0.21883733177E+02  0.14877690372E+02  0.41457394259E+02  0.51100000000E-03 0. -1.
        -11    1    3    3    0    0 -0.24385052730E+00 -0.53949358014E+01 -0.12692674588E+02  0.13793795121E+02  0.51100000000E-03 0.  1.
        -12    1    3    3    0    0 -0.30982204318E+02 -0.15659694951E+02 -0.17024282919E+01  0.34756600703E+02  0.00000000000E+00 0.  1.
</event>
<event>
 7    1  0.1698110E-015  0.9000783E+02  0.7816164E-02  0.1186339E+00
        -11   -1    0    0    0    0  0.00000000000E+00  0.00000000000E+00  0.45593999997E+02  0.45594000000E+02  0.51100000000E-03 0. -1.
         11   -1    0    0    0    0 -0.00000000000E+00 -0.00000000000E+00 -0.45593999997E+02  0.45594000000E+02  0.51100000000E-03 0.  1.
    9900012    2    1    2    0    0 -0.20939883669E-01  0.62693934612E+00 -0.99965311841E+00  0.90007831461E+02  0.90000094037E+02 0.  0.
         12    1    1    2    0    0  0.20939883669E-01 -0.62693934612E+00  0.99965311841E+00  0.11801685386E+01  0.00000000000E+00 0. -1.
         11    1    3    3    0    0 -0.61383203873E+01  0.78205109125E+01 -0.80492973616E+01  0.12791815993E+02  0.51100000000E-03 0. -1.
        -11    1    3    3    0    0 -0.28072686483E+02 -0.67717864231E+01 -0.18707152736E+02  0.34407708169E+02  0.51100000000E-03 0.  1.
         12    1    3    3    0    0  0.34190066986E+02 -0.42178514326E+00  0.25756796979E+02  0.42808307300E+02  0.00000000000E+00 0. -1.
</event>
<event>
 7    1  0.1698110E-015  0.9000778E+02  0.7816164E-02  0.1186339E+00
        -11   -1    0    0    0    0  0.00000000000E+00  0.00000000000E+00  0.45593999997E+02  0.45594000000E+02  0.51100000000E-03 0.  1.
         11   -1    0    0    0    0 -0.00000000000E+00 -0.00000000000E+00 -0.45593999997E+02  0.45594000000E+02  0.51100000000E-03 0. -1.
    9900012    2    1    2    0    0  0.65066308752E+00 -0.80808022359E+00  0.56264003905E+00  0.90007779718E+02  0.90000041610E+02 0.  0.
         12    1    1    2    0    0 -0.65066308752E+00  0.80808022359E+00 -0.56264003905E+00  0.11802202823E+01  0.00000000000E+00 0. -1.
         11    1    3    3    0    0  0.91737017711E+01 -0.41370781972E+01  0.69104736853E+01  0.12207656082E+02  0.51100000000E-03 0. -1.
        -11    1    3    3    0    0 -0.76335310747E+00 -0.27602939994E+02  0.21864473340E+02  0.35221587116E+02  0.51100000000E-03 0.  1.
         12    1    3    3    0    0 -0.77596855761E+01  0.30931937968E+02 -0.28212306986E+02  0.42578536520E+02  0.00000000000E+00 0. -1.
</event>
<event>
 7    1  0.1698110E-015  0.9000774E+02  0.7816164E-02  0.1186339E+00
        -11   -1    0    0    0    0  0.00000000000E+00  0.00000000000E+00  0.45593999997E+02  0.45594000000E+02  0.51100000000E-03 0. -1.
         11   -1    0    0    0    0 -0.00000000000E+00 -0.00000000000E+00 -0.45593999997E+02  0.45594000000E+02  0.51100000000E-03 0.  1.
    9900012    2    1    2    0    0 -0.74283859307E+00 -0.19512980957E+00 -0.89617209416E+00  0.90007741876E+02  0.90000003268E+02 0.  0.
         12    1    1    2    0    0  0.74283859307E+00  0.19512980957E+00  0.89617209416E+00  0.11802581244E+01  0.00000000000E+00 0. -1.
         11    1    3    3    0    0  0.57418142482E+01 -0.37358068594E+02  0.10806359855E+02  0.39311208752E+02  0.51100000000E-03 0. -1.
        -11    1    3    3    0    0  0.63812377659E+01  0.19685338904E+01  0.62493255135E+01  0.91460040858E+01  0.51100000000E-03 0.  1.
        -12    1    3    3    0    0 -0.12865890607E+02  0.35194404894E+02 -0.17951857462E+02  0.41550529038E+02  0.00000000000E+00 0.  1.
</event>
<event>
 7    1  0.1698110E-015  0.9000777E+02  0.7816164E-02  0.1186339E+00
        -11   -1    0    0    0    0  0.00000000000E+00  0.00000000000E+00  0.45593999997E+02  0.45594000000E+02  0.51100000000E-03 0.  1.
         11   -1    0    0    0    0 -0.00000000000E+00 -0.00000000000E+00 -0.45593999997E+02  0.45594000000E+02  0.51100000000E-03 0. -1.
    9900012    2    1    2    0    0  0.29514270237E+00  0.10716454338E+01  0.39674193702E+00  0.90007772346E+02  0.90000034141E+02 0.  0.
         12    1    1    2    0    0 -0.29514270237E+00 -0.10716454338E+01 -0.39674193702E+00  0.11802276539E+01  0.00000000000E+00 0. -1.
         11    1    3    3    0    0  0.19683722092E+01 -0.87956217495E+01 -0.14922575302E+01  0.91358789348E+01  0.51100000000E-03 0. -1.
        -11    1    3    3    0    0  0.89309672008E+01 -0.33547388914E+02  0.83775678173E+01  0.35712366498E+02  0.51100000000E-03 0.  1.
         12    1    3    3    0    0 -0.10604196708E+02  0.43414656097E+02 -0.64885683501E+01  0.45159526914E+02  0.00000000000E+00 0. -1.
</event>
<event>
 7    1  0.1698110E-015  0.9000775E+02  0.7816164E-02  0.1186339E+00
        -11   -1    0    0    0    0  0.00000000000E+00  0.00000000000E+00  0.45593999997E+02  0.45594000000E+02  0.51100000000E-03 0.  1.
         11   -1    0    0    0    0 -0.00000000000E+00 -0.00000000000E+00 -0.45593999997E+02  0.45594000000E+02  0.51100000000E-03 0. -1.
    9900012    2    1    2    0    0 -0.93430635941E+00  0.71093794211E+00 -0.12098206999E+00  0.90007746725E+02  0.90000008182E+02 0.  0.
         12    1    1    2    0    0  0.93430635941E+00 -0.71093794211E+00  0.12098206999E+00  0.11802532745E+01  0.00000000000E+00 0. -1.
         11    1    3    3    0    0 -0.25670677816E+02 -0.25931113244E+00  0.92882883775E+01  0.27300608840E+02  0.51100000000E-03 0. -1.
        -11    1    3    3    0    0  0.58105877336E+01  0.28214411814E+02 -0.51255797804E+01  0.29258973532E+02  0.51100000000E-03 0.  1.
         12    1    3    3    0    0  0.18925783723E+02 -0.27244162739E+02 -0.42836906671E+01  0.33448164353E+02  0.00000000000E+00 0. -1.
</event>
<event>
 7    1  0.1698110E-015  0.9000776E+02  0.7816164E-02  0.1186339E+00
        -11   -1    0    0    0    0  0.00000000000E+00  0.00000000000E+00  0.45593999997E+02  0.45594000000E+02  0.51100000000E-03 0.  1.
         11   -1    0    0    0    0 -0.00000000000E+00 -0.00000000000E+00 -0.45593999997E+02  0.45594000000E+02  0.51100000000E-03 0. -1.
    9900012    2    1    2    0    0  0.67301836608E+00  0.86444351480E+00  0.43904044097E+00  0.90007757305E+02  0.90000018901E+02 0.  0.
         12    1    1    2    0    0 -0.67301836608E+00 -0.86444351480E+00 -0.43904044097E+00  0.11802426955E+01  0.00000000000E+00 0. -1.
         11    1    3    3    0    0  0.37971251921E+00 -0.51873427063E-01  0.10111045272E+02  0.10118305648E+02  0.51100000000E-03 0. -1.
        -11    1    3    3    0    0  0.97653936482E-01  0.15121208008E+02  0.32253591228E+02  0.35622389242E+02  0.51100000000E-03 0.  1.
         12    1    3    3    0    0  0.19565191039E+00 -0.14204891066E+02 -0.41925596059E+02  0.44267062414E+02  0.00000000000E+00 0. -1.
</event>
<event>
 7    1  0.1698110E-015  0.9000782E+02  0.7816164E-02  0.1186339E+00
        -11   -1    0    0    0    0  0.00000000000E+00  0.00000000000E+00  0.45593999997E+02  0.45594000000E+02  0.51100000000E-03 0. -1.
         11   -1    0    0    0    0 -0.00000000000E+00 -0.00000000000E+00 -0.45593999997E+02  0.45594000000E+02  0.51100000000E-03 0.  1.
    9900012    2    1    2    0    0 -0.11419025433E+01 -0.20231179593E+00 -0.21896178639E+00  0.90007823850E+02  0.90000086325E+02 0.  0.
         12    1    1    2    0    0  0.11419025433E+01  0.20231179593E+00  0.21896178639E+00  0.11801761500E+01  0.00000000000E+00 0. -1.
         11    1    3    3    0    0  0.15499594065E+01  0.58510708691E+01 -0.66768547634E+01  0.90120915591E+01  0.51100000000E-03 0. -1.
        -11    1    3    3    0    0  0.31533797780E+02 -0.73709342267E+01 -0.19694133889E+02  0.37902110544E+02  0.51100000000E-03 0.  1.
         12    1    3    3    0    0 -0.34225659730E+02  0.13175515617E+01  0.26152026866E+02  0.43093621747E+02  0.00000000000E+00 0. -1.
</event>
<event>
 7    1  0.1698110E-015  0.9000773E+02  0.7816164E-02  0.1186339E+00
        -11   -1    0    0    0    0  0.00000000000E+00  0.00000000000E+00  0.45593999997E+02  0.45594000000E+02  0.51100000000E-03 0.  1.
         11   -1    0    0    0    0 -0.00000000000E+00 -0.00000000000E+00 -0.45593999997E+02  0.45594000000E+02  0.51100000000E-03 0. -1.
    9900012    2    1    2    0    0 -0.77519087400E+00 -0.42870088946E+00  0.77995752339E+00  0.90007729234E+02  0.89999990459E+02 0.  0.
         12    1    1    2    0    0  0.77519087400E+00  0.42870088946E+00 -0.77995752339E+00  0.11802707664E+01  0.00000000000E+00 0. -1.
         11    1    3    3    0    0 -0.22636440976E+02  0.14324934064E+02 -0.26882241140E+02  0.37950850912E+02  0.51100000000E-03 0. -1.
        -11    1    3    3    0    0  0.44003212409E+01  0.83014532669E+01 -0.30428861407E+01  0.98760371451E+01  0.51100000000E-03 0.  1.
        -12    1    3    3    0    0  0.17460928861E+02 -0.23055088220E+02  0.30705084804E+02  0.42180841176E+02  0.00000000000E+00 0.  1.
</event>
<event>
 7    1  0.1698110E-015  0.9000777E+02  0.7816164E-02  0.1186339E+00
        -11   -1    0    0    0    0  0.00000000000E+00  0.00000000000E+00  0.45593999997E+02  0.45594000000E+02  0.51100000000E-03 0. -1.
         11   -1    0    0    0    0 -0.00000000000E+00 -0.00000000000E+00 -0.45593999997E+02  0.45594000000E+02  0.51100000000E-03 0.  1.
    9900012    2    1    2    0    0  0.93166979184E-01 -0.32019497883E-01 -0.11761155671E+01  0.90007765633E+02  0.90000027339E+02 0.  0.
         12    1    1    2    0    0 -0.93166979184E-01  0.32019497883E-01  0.11761155671E+01  0.11802343672E+01  0.00000000000E+00 0. -1.
         11    1    3    3    0    0  0.27574435471E+02 -0.17777791540E+02  0.16980041202E+02  0.36942132627E+02  0.51100000000E-03 0. -1.
        -11    1    3    3    0    0  0.90370560301E+01  0.47664860216E+01  0.11665179983E+00  0.10217699281E+02  0.51100000000E-03 0.  1.
        -12    1    3    3    0    0 -0.36518324522E+02  0.12979286020E+02 -0.18272808569E+02  0.42847933725E+02  0.00000000000E+00 0.  1.
</event>
<event>
 7    1  0.1698110E-015  0.9000774E+02  0.7816164E-02  0.1186339E+00
        -11   -1    0    0    0    0  0.00000000000E+00  0.00000000000E+00  0.45593999997E+02  0.45594000000E+02  0.51100000000E-03 0.  1.
         11   -1    0    0    0    0 -0.00000000000E+00 -0.00000000000E+00 -0.45593999997E+02  0.45594000000E+02  0.51100000000E-03 0. -1.
    9900012    2    1    2    0    0  0.27711649019E+00 -0.10739507816E+01 -0.40355610178E+00  0.90007736742E+02  0.89999998067E+02 0.  0.
         12    1    1    2    0    0 -0.27711649019E+00  0.10739507816E+01  0.40355610178E+00  0.11802632578E+01  0.00000000000E+00 0. -1.
         11    1    3    3    0    0  0.78858547629E+01 -0.24741563589E+02 -0.24505697742E+02  0.35705194248E+02  0.51100000000E-03 0. -1.
        -11    1    3    3    0    0 -0.16251176277E+01 -0.16533030900E+00 -0.11184417072E+02  0.11303075994E+02  0.51100000000E-03 0.  1.
        -12    1    3    3    0    0 -0.59836206450E+01  0.23832943117E+02  0.35286558712E+02  0.42999466501E+02  0.00000000000E+00 0.  1.
</event>
<event>
 7    1  0.1698110E-015  0.9000773E+02  0.7816164E-02  0.1186339E+00
        -11   -1    0    0    0    0  0.00000000000E+00  0.00000000000E+00  0.45593999997E+02  0.45594000000E+02  0.51100000000E-03 0.  1.
         11   -1    0    0    0    0 -0.00000000000E+00 -0.00000000000E+00 -0.45593999997E+02  0.45594000000E+02  0.51100000000E-03 0. -1.
    9900012    2    1    2    0    0 -0.46805099294E+00 -0.56801273597E+00  0.92267753803E+00  0.90007727133E+02  0.89999988332E+02 0.  0.
         12    1    1    2    0    0  0.46805099294E+00  0.56801273597E+00 -0.92267753803E+00  0.11802728665E+01  0.00000000000E+00 0. -1.
         11    1    3    3    0    0 -0.47779602747E+01 -0.11396455776E+02 -0.36131733960E+02  0.38186519976E+02  0.51100000000E-03 0. -1.
        -11    1    3    3    0    0  0.60172021252E+01 -0.62979257423E+01 -0.21788484530E+01  0.89787510776E+01  0.51100000000E-03 0.  1.
        -12    1    3    3    0    0 -0.17072928435E+01  0.17126368783E+02  0.39233259951E+02  0.42842456080E+02  0.00000000000E+00 0.  1.
</event>
<event>
 7    1  0.1698110E-015  0.9000667E+02  0.7816164E-02  0.1186341E+00
        -11   -1    0    0    0    0  0.00000000000E+00  0.00000000000E+00  0.45593999997E+02  0.45594000000E+02  0.51100000000E-03 0.  1.
         11   -1    0    0    0    0 -0.00000000000E+00 -0.00000000000E+00 -0.45593999997E+02  0.45594000000E+02  0.51100000000E-03 0. -1.
    9900012    2    1    2    0    0  0.86268961276E+00  0.78932955396E+00 -0.16815008470E+00  0.90006666447E+02  0.89998913637E+02 0.  0.
         12    1    1    2    0    0 -0.86268961276E+00 -0.78932955396E+00  0.16815008470E+00  0.11813335531E+01  0.00000000000E+00 0. -1.
         11    1    3    3    0    0  0.63507351119E+01  0.11146301152E+02 -0.28843371821E+01  0.13148812383E+02  0.51100000000E-03 0. -1.
        -11    1    3    3    0    0  0.16347112680E+02 -0.22058870002E+02  0.29550515784E+02  0.40336767621E+02  0.51100000000E-03 0.  1.
         12    1    3    3    0    0 -0.21835158179E+02  0.11701898403E+02 -0.26834328686E+02  0.36521086443E+02  0.00000000000E+00 0. -1.
</event>
<event>
 7    1  0.1698110E-015  0.9000768E+02  0.7816164E-02  0.1186339E+00
        -11   -1    0    0    0    0  0.00000000000E+00  0.00000000000E+00  0.45593999997E+02  0.45594000000E+02  0.51100000000E-03 0.  1.
         11   -1    0    0    0    0 -0.00000000000E+00 -0.00000000000E+00 -0.45593999997E+02  0.45594000000E+02  0.51100000000E-03 0. -1.
    9900012    2    1    2    0    0  0.69659911763E+00  0.37481334050E+00  0.87602095760E+00  0.90007683056E+02  0.89999943672E+02 0.  0.
         12    1    1    2    0    0 -0.69659911763E+00 -0.37481334050E+00 -0.87602095760E+00  0.11803169443E+01  0.00000000000E+00 0. -1.
         11    1    3    3    0    0  0.16475046680E+02  0.24004183619E+02 -0.20901119567E+02  0.35839709733E+02  0.51100000000E-03 0. -1.
        -11    1    3    3    0    0  0.63287076562E+01  0.82125259822E+01  0.16772969494E+01  0.10502925732E+02  0.51100000000E-03 0.  1.
        -12    1    3    3    0    0 -0.22107155219E+02 -0.31841896261E+02  0.20099843575E+02  0.43665047591E+02  0.00000000000E+00 0.  1.
</event>
<event>
 7    1  0.1698110E-015  0.9000782E+02  0.7816164E-02  0.1186339E+00
        -11   -1    0    0    0    0  0.00000000000E+00  0.00000000000E+00  0.45593999997E+02  0.45594000000E+02  0.51100000000E-03 0.  1.
         11   -1    0    0    0    0 -0.00000000000E+00 -0.00000000000E+00 -0.45593999997E+02  0.45594000000E+02  0.51100000000E-03 0. -1.
    9900012    2    1    2    0    0  0.90189198756E+00 -0.57762530560E+00 -0.49575192285E+00  0.90007817760E+02  0.90000080154E+02 0.  0.
         12    1    1    2    0    0 -0.90189198756E+00  0.57762530560E+00  0.49575192285E+00  0.11801822401E+01  0.00000000000E+00 0. -1.
         11    1    3    3    0    0 -0.95703991658E+01  0.23132602764E+00  0.82031999961E+00  0.96082764889E+01  0.51100000000E-03 0. -1.
        -11    1    3    3    0    0 -0.30185089623E+02 -0.71526356665E+01  0.16982241070E+02  0.35365185487E+02  0.51100000000E-03 0.  1.
         12    1    3    3    0    0  0.40657380776E+02  0.63436843333E+01 -0.18298312993E+02  0.45034355784E+02  0.00000000000E+00 0. -1.
</event>
<event>
 7    1  0.1698110E-015  0.9000768E+02  0.7816164E-02  0.1186339E+00
        -11   -1    0    0    0    0  0.00000000000E+00  0.00000000000E+00  0.45593999997E+02  0.45594000000E+02  0.51100000000E-03 0.  1.
         11   -1    0    0    0    0 -0.00000000000E+00 -0.00000000000E+00 -0.45593999997E+02  0.45594000000E+02  0.51100000000E-03 0. -1.
    9900012    2    1    2    0    0  0.86081227725E+00 -0.45827938531E+00  0.66493551570E+00  0.90007679276E+02  0.89999939842E+02 0.  0.
         12    1    1    2    0    0 -0.86081227725E+00  0.45827938531E+00 -0.66493551570E+00  0.11803207241E+01  0.00000000000E+00 0. -1.
         11    1    3    3    0    0 -0.48575864103E+01 -0.34171184181E+02  0.96888331052E+01  0.35848841840E+02  0.51100000000E-03 0. -1.
        -11    1    3    3    0    0 -0.22116966975E+01 -0.86119794858E+01  0.31115007283E+01  0.94201502106E+01  0.51100000000E-03 0.  1.
        -12    1    3    3    0    0  0.79300953851E+01  0.42324884282E+02 -0.12135398318E+02  0.44738687225E+02  0.00000000000E+00 0.  1.
</event>
<event>
 7    1  0.1698110E-015  0.9000774E+02  0.7816164E-02  0.1186339E+00
        -11   -1    0    0    0    0  0.00000000000E+00  0.00000000000E+00  0.45593999997E+02  0.45594000000E+02  0.51100000000E-03 0. -1.
         11   -1    0    0    0    0 -0.00000000000E+00 -0.00000000000E+00 -0.45593999997E+02  0.45594000000E+02  0.51100000000E-03 0.  1.
    9900012    2    1    2    0    0  0.70778390544E+00  0.69904426201E+00 -0.63513117119E+00  0.90007740477E+02  0.90000001851E+02 0.  0.
         12    1    1    2    0    0 -0.70778390544E+00 -0.69904426201E+00  0.63513117119E+00  0.11802595230E+01  0.00000000000E+00 0. -1.
         11    1    3    3    0    0  0.19074012051E+01 -0.68916327371E+01  0.14353617066E+01  0.72933561980E+01  0.51100000000E-03 0. -1.
        -11    1    3    3    0    0 -0.22396410787E+02 -0.62854595814E+01 -0.34470539914E+02  0.41585145671E+02  0.51100000000E-03 0.  1.
         12    1    3    3    0    0  0.21196793487E+02  0.13876136581E+02  0.32400047036E+02  0.41129238608E+02  0.00000000000E+00 0. -1.
</event>
<event>
 7    1  0.1698110E-015  0.9000775E+02  0.7816164E-02  0.1186339E+00
        -11   -1    0    0    0    0  0.00000000000E+00  0.00000000000E+00  0.45593999997E+02  0.45594000000E+02  0.51100000000E-03 0.  1.
         11   -1    0    0    0    0 -0.00000000000E+00 -0.00000000000E+00 -0.45593999997E+02  0.45594000000E+02  0.51100000000E-03 0. -1.
    9900012    2    1    2    0    0 -0.87285771708E+00 -0.69699110773E+00 -0.38119337464E+00  0.90007751896E+02  0.90000013421E+02 0.  0.
         12    1    1    2    0    0  0.87285771708E+00  0.69699110773E+00  0.38119337464E+00  0.11802481042E+01  0.00000000000E+00 0. -1.
         11    1    3    3    0    0  0.31554438561E+01  0.10257822003E+02 -0.36837227606E+02  0.38368751297E+02  0.51100000000E-03 0. -1.
        -11    1    3    3    0    0  0.62184257839E+01  0.72851962015E+01 -0.32438287008E-01  0.95783065010E+01  0.51100000000E-03 0.  1.
        -12    1    3    3    0    0 -0.10246727357E+02 -0.18240009312E+02  0.36488472518E+02  0.42060694097E+02  0.00000000000E+00 0.  1.
</event>
<event>
 7    1  0.1698110E-015  0.9000780E+02  0.7816164E-02  0.1186339E+00
        -11   -1    0    0    0    0  0.00000000000E+00  0.00000000000E+00  0.45593999997E+02  0.45594000000E+02  0.51100000000E-03 0.  1.
         11   -1    0    0    0    0 -0.00000000000E+00 -0.00000000000E+00 -0.45593999997E+02  0.45594000000E+02  0.51100000000E-03 0. -1.
    9900012    2    1    2    0    0 -0.43483795859E+00 -0.10448461910E+01  0.33480381220E+00  0.90007796117E+02  0.90000058226E+02 0.  0.
         12    1    1    2    0    0  0.43483795859E+00  0.10448461910E+01 -0.33480381220E+00  0.11802038831E+01  0.00000000000E+00 0. -1.
         11    1    3    3    0    0 -0.17410828243E+02 -0.28315206899E+02 -0.24095365705E+02  0.41054531182E+02  0.51100000000E-03 0. -1.
        -11    1    3    3    0    0 -0.26995069893E+01  0.74011005674E+01 -0.42047129055E+01  0.89299069688E+01  0.51100000000E-03 0.  1.
        -12    1    3    3    0    0  0.19675497273E+02  0.19869260141E+02  0.28634882423E+02  0.40023357966E+02  0.00000000000E+00 0.  1.
</event>
<event>
 7    1  0.1698110E-015  0.9000774E+02  0.7816164E-02  0.1186339E+00
        -11   -1    0    0    0    0  0.00000000000E+00  0.00000000000E+00  0.45593999997E+02  0.45594000000E+02  0.51100000000E-03 0.  1.
         11   -1    0    0    0    0 -0.00000000000E+00 -0.00000000000E+00 -0.45593999997E+02  0.45594000000E+02  0.51100000000E-03 0. -1.
    9900012    2    1    2    0    0  0.41627025040E+00 -0.10301250052E+01 -0.39822005225E+00  0.90007738310E+02  0.89999999655E+02 0.  0.
         12    1    1    2    0    0 -0.41627025040E+00  0.10301250052E+01  0.39822005225E+00  0.11802616904E+01  0.00000000000E+00 0. -1.
         11    1    3    3    0    0  0.49501651386E+01 -0.92013354276E+01 -0.30145376315E+01  0.10874564173E+02  0.51100000000E-03 0. -1.
        -11    1    3    3    0    0 -0.31015247051E+02 -0.17778525128E+02  0.16718466940E+02  0.39465537402E+02  0.51100000000E-03 0.  1.
         12    1    3    3    0    0  0.26481352163E+02  0.25949735550E+02 -0.14102149361E+02  0.39667636735E+02  0.00000000000E+00 0. -1.
</event>
<event>
 7    1  0.1698110E-015  0.9000767E+02  0.7816164E-02  0.1186339E+00
        -11   -1    0    0    0    0  0.00000000000E+00  0.00000000000E+00  0.45593999997E+02  0.45594000000E+02  0.51100000000E-03 0.  1.
         11   -1    0    0    0    0 -0.00000000000E+00 -0.00000000000E+00 -0.45593999997E+02  0.45594000000E+02  0.51100000000E-03 0. -1.
    9900012    2    1    2    0    0 -0.88307171204E+00  0.67569071750E+00  0.39598823234E+00  0.90007669422E+02  0.89999929858E+02 0.  0.
         12    1    1    2    0    0  0.88307171204E+00 -0.67569071750E+00 -0.39598823234E+00  0.11803305785E+01  0.00000000000E+00 0. -1.
         11    1    3    3    0    0 -0.10481170770E+02  0.16573201663E+02 -0.29341123754E+02  0.35290614864E+02  0.51100000000E-03 0. -1.
        -11    1    3    3    0    0 -0.51766548139E+01  0.53207160232E+01 -0.67260041764E+01  0.10017330308E+02  0.51100000000E-03 0.  1.
        -12    1    3    3    0    0  0.14774753872E+02 -0.21218226968E+02  0.36463116163E+02  0.44699724249E+02  0.00000000000E+00 0.  1.
</event>
<event>
 7    1  0.1698110E-015  0.9000777E+02  0.7816164E-02  0.1186339E+00
        -11   -1    0    0    0    0  0.00000000000E+00  0.00000000000E+00  0.45593999997E+02  0.45594000000E+02  0.51100000000E-03 0. -1.
         11   -1    0    0    0    0 -0.00000000000E+00 -0.00000000000E+00 -0.45593999997E+02  0.45594000000E+02  0.51100000000E-03 0.  1.
    9900012    2    1    2    0    0 -0.10546999417E+01  0.52957724076E+00 -0.97991695400E-02  0.90007771190E+02  0.90000032969E+02 0.  0.
         12    1    1    2    0    0  0.10546999417E+01 -0.52957724076E+00  0.97991695400E-02  0.11802288103E+01  0.00000000000E+00 0. -1.
         11    1    3    3    0    0 -0.18145561378E+02 -0.31183058739E+01  0.28379448170E+02  0.33828661043E+02  0.51100000000E-03 0. -1.
        -11    1    3    3    0    0 -0.11439519396E+01  0.12291819707E+02  0.79000622213E+01  0.14656344739E+02  0.51100000000E-03 0.  1.
        -12    1    3    3    0    0  0.18234813376E+02 -0.86439365927E+01 -0.36289309561E+02  0.41522765407E+02  0.00000000000E+00 0.  1.
</event>
<event>
 7    1  0.1698110E-015  0.9000777E+02  0.7816164E-02  0.1186339E+00
        -11   -1    0    0    0    0  0.00000000000E+00  0.00000000000E+00  0.45593999997E+02  0.45594000000E+02  0.51100000000E-03 0.  1.
         11   -1    0    0    0    0 -0.00000000000E+00 -0.00000000000E+00 -0.45593999997E+02  0.45594000000E+02  0.51100000000E-03 0. -1.
    9900012    2    1    2    0    0  0.11512594433E+01  0.18703239723E+00 -0.18045093355E+00  0.90007770377E+02  0.90000032146E+02 0.  0.
         12    1    1    2    0    0 -0.11512594433E+01 -0.18703239723E+00  0.18045093355E+00  0.11802296229E+01  0.00000000000E+00 0. -1.
         11    1    3    3    0    0  0.41609879843E+01 -0.33524281451E+02 -0.10043632134E+02  0.35242954111E+02  0.51100000000E-03 0. -1.
        -11    1    3    3    0    0  0.73117171228E+01 -0.78026914323E+01 -0.65385094243E+00  0.10713109828E+02  0.51100000000E-03 0.  1.
        -12    1    3    3    0    0 -0.10321445664E+02  0.41514005280E+02  0.10517032142E+02  0.44051706438E+02  0.00000000000E+00 0.  1.
</event>
<event>
 7    1  0.1698110E-015  0.9000771E+02  0.7816164E-02  0.1186339E+00
        -11   -1    0    0    0    0  0.00000000000E+00  0.00000000000E+00  0.45593999997E+02  0.45594000000E+02  0.51100000000E-03 0.  1.
         11   -1    0    0    0    0 -0.00000000000E+00 -0.00000000000E+00 -0.45593999997E+02  0.45594000000E+02  0.51100000000E-03 0. -1.
    9900012    2    1    2    0    0  0.45761459132E+00  0.54997797122E+00  0.93872495493E+00  0.90007707060E+02  0.89999967993E+02 0.  0.
         12    1    1    2    0    0 -0.45761459132E+00 -0.54997797122E+00 -0.93872495493E+00  0.11802929399E+01  0.00000000000E+00 0. -1.
         11    1    3    3    0    0  0.20408232359E+02  0.27884867134E+02 -0.15435507933E+02  0.37845959738E+02  0.51100000000E-03 0. -1.
        -11    1    3    3    0    0 -0.88436338640E+01  0.54267225097E+01 -0.49793001886E+01  0.11508805661E+02  0.51100000000E-03 0.  1.
        -12    1    3    3    0    0 -0.11106983904E+02 -0.32761611673E+02  0.21353533076E+02  0.40652941661E+02  0.00000000000E+00 0.  1.
</event>
<event>
 7    1  0.1698110E-015  0.9000778E+02  0.7816164E-02  0.1186339E+00
        -11   -1    0    0    0    0  0.00000000000E+00  0.00000000000E+00  0.45593999997E+02  0.45594000000E+02  0.51100000000E-03 0.  1.
         11   -1    0    0    0    0 -0.00000000000E+00 -0.00000000000E+00 -0.45593999997E+02  0.45594000000E+02  0.51100000000E-03 0. -1.
    9900012    2    1    2    0    0 -0.19703761681E+00 -0.49075652506E+00  0.10551082491E+01  0.90007780018E+02  0.90000041914E+02 0.  0.
         12    1    1    2    0    0  0.19703761681E+00  0.49075652506E+00 -0.10551082491E+01  0.11802199823E+01  0.00000000000E+00 0. -1.
         11    1    3    3    0    0  0.20017879819E+02 -0.30982816070E+02 -0.10354584168E+02  0.38312763117E+02  0.51100000000E-03 0. -1.
        -11    1    3    3    0    0  0.41265018249E+01 -0.38015926870E+01  0.76305756033E+01  0.94713150389E+01  0.51100000000E-03 0.  1.
        -12    1    3    3    0    0 -0.24341419260E+02  0.34293652232E+02  0.37791168135E+01  0.42223701862E+02  0.00000000000E+00 0.  1.
</event>
<event>
 7    1  0.1698110E-015  0.9000773E+02  0.7816164E-02  0.1186339E+00
        -11   -1    0    0    0    0  0.00000000000E+00  0.00000000000E+00  0.45593999997E+02  0.45594000000E+02  0.51100000000E-03 0. -1.
         11   -1    0    0    0    0 -0.00000000000E+00 -0.00000000000E+00 -0.45593999997E+02  0.45594000000E+02  0.51100000000E-03 0.  1.
    9900012    2    1    2    0    0 -0.31937561509E+00 -0.32853868792E-01 -0.11357640718E+01  0.90007728766E+02  0.89999989985E+02 0.  0.
         12    1    1    2    0    0  0.31937561509E+00  0.32853868792E-01  0.11357640718E+01  0.11802712345E+01  0.00000000000E+00 0. -1.
         11    1    3    3    0    0  0.47502641758E+01 -0.54823863372E+01  0.63704614490E+01  0.96542399506E+01  0.51100000000E-03 0. -1.
        -11    1    3    3    0    0  0.29313297327E+02  0.50344542021E+01  0.20402289882E+02  0.36067555531E+02  0.51100000000E-03 0.  1.
         12    1    3    3    0    0 -0.34382937118E+02  0.41507826629E+00 -0.27908515403E+02  0.44285933284E+02  0.00000000000E+00 0. -1.
</event>
<event>
 7    1  0.1698110E-015  0.9000779E+02  0.7816164E-02  0.1186339E+00
        -11   -1    0    0    0    0  0.00000000000E+00  0.00000000000E+00  0.45593999997E+02  0.45594000000E+02  0.51100000000E-03 0. -1.
         11   -1    0    0    0    0 -0.00000000000E+00 -0.00000000000E+00 -0.45593999997E+02  0.45594000000E+02  0.51100000000E-03 0.  1.
    9900012    2    1    2    0    0 -0.51878511945E+00 -0.89395170160E+00 -0.56975186851E+00  0.90007786106E+02  0.90000048082E+02 0.  0.
         12    1    1    2    0    0  0.51878511945E+00  0.89395170160E+00  0.56975186851E+00  0.11802138944E+01  0.00000000000E+00 0. -1.
         11    1    3    3    0    0 -0.98313613461E+01  0.20700752726E+02  0.31025047527E+02  0.38571108406E+02  0.51100000000E-03 0. -1.
        -11    1    3    3    0    0  0.70095835172E-01 -0.77479973020E+01  0.63387062588E+01  0.10010772843E+02  0.51100000000E-03 0.  1.
        -12    1    3    3    0    0  0.92424803915E+01 -0.13846707125E+02 -0.37933505654E+02  0.41425904857E+02  0.00000000000E+00 0.  1.
</event>
<event>
 7    1  0.1698110E-015  0.9000766E+02  0.7816164E-02  0.1186339E+00
        -11   -1    0    0    0    0  0.00000000000E+00  0.00000000000E+00  0.45593999997E+02  0.45594000000E+02  0.51100000000E-03 0.  1.
         11   -1    0    0    0    0 -0.00000000000E+00 -0.00000000000E+00 -0.45593999997E+02  0.45594000000E+02  0.51100000000E-03 0. -1.
    9900012    2    1    2    0    0 -0.36940838387E+00  0.11137577573E+01 -0.12764720990E+00  0.90007655683E+02  0.89999915938E+02 0.  0.
         12    1    1    2    0    0  0.36940838387E+00 -0.11137577573E+01  0.12764720990E+00  0.11803443168E+01  0.00000000000E+00 0. -1.
         11    1    3    3    0    0 -0.21275795830E+02  0.80911665323E+01 -0.29556423360E+02  0.37305611188E+02  0.51100000000E-03 0. -1.
        -11    1    3    3    0    0 -0.19712327597E+01  0.32190065330E-01 -0.80217014420E+01  0.82604170039E+01  0.51100000000E-03 0.  1.
        -12    1    3    3    0    0  0.22877620206E+02 -0.70095988403E+01  0.37450477592E+02  0.44441627491E+02  0.00000000000E+00 0.  1.
</event>
<event>
 7    1  0.1698110E-015  0.9000799E+02  0.7816164E-02  0.1186339E+00
        -11   -1    0    0    0    0  0.00000000000E+00  0.00000000000E+00  0.45593999997E+02  0.45594000000E+02  0.51100000000E-03 0. -1.
         11   -1    0    0    0    0 -0.00000000000E+00 -0.00000000000E+00 -0.45593999997E+02  0.45594000000E+02  0.51100000000E-03 0.  1.
    9900012    2    1    2    0    0  0.34780691018E+00 -0.15802999751E+00 -0.11164630299E+01  0.90007986092E+02  0.90000250708E+02 0.  0.
         12    1    1    2    0    0 -0.34780691018E+00  0.15802999751E+00  0.11164630299E+01  0.11800139084E+01  0.00000000000E+00 0. -1.
         11    1    3    3    0    0 -0.28596060299E+00  0.31071499408E+02  0.57941569488E+01  0.31608418245E+02  0.51100000000E-03 0. -1.
        -11    1    3    3    0    0  0.14491228232E+02 -0.14688668488E+00 -0.17534507619E+02  0.22748103857E+02  0.51100000000E-03 0.  1.
        -12    1    3    3    0    0 -0.13857460718E+02 -0.31082642721E+02  0.10623887640E+02  0.35651463990E+02  0.00000000000E+00 0.  1.
</event>
<event>
 7    1  0.1698110E-015  0.9000772E+02  0.7816164E-02  0.1186339E+00
        -11   -1    0    0    0    0  0.00000000000E+00  0.00000000000E+00  0.45593999997E+02  0.45594000000E+02  0.51100000000E-03 0.  1.
         11   -1    0    0    0    0 -0.00000000000E+00 -0.00000000000E+00 -0.45593999997E+02  0.45594000000E+02  0.51100000000E-03 0. -1.
    9900012    2    1    2    0    0 -0.45967672446E+00 -0.10858329024E+01 -0.52130767737E-01  0.90007723168E+02  0.89999984314E+02 0.  0.
         12    1    1    2    0    0  0.45967672446E+00  0.10858329024E+01  0.52130767737E-01  0.11802768319E+01  0.00000000000E+00 0. -1.
         11    1    3    3    0    0  0.85543890710E+01  0.20295227410E+02 -0.31919066360E+02  0.38780157626E+02  0.51100000000E-03 0. -1.
        -11    1    3    3    0    0  0.99325901827E+01 -0.40743884435E+01  0.56373465553E+00  0.10750571424E+02  0.51100000000E-03 0.  1.
        -12    1    3    3    0    0 -0.18946655978E+02 -0.17306671869E+02  0.31303200936E+02  0.40476994117E+02  0.00000000000E+00 0.  1.
</event>
<event>
 7    1  0.1698110E-015  0.9000749E+02  0.7816164E-02  0.1186340E+00
        -11   -1    0    0    0    0  0.00000000000E+00  0.00000000000E+00  0.45593999997E+02  0.45594000000E+02  0.51100000000E-03 0. -1.
         11   -1    0    0    0    0 -0.00000000000E+00 -0.00000000000E+00 -0.45593999997E+02  0.45594000000E+02  0.51100000000E-03 0.  1.
    9900012    2    1    2    0    0  0.36883306524E-01 -0.91326169215E+00 -0.74713202912E+00  0.90007485889E+02  0.89999743903E+02 0.  0.
         12    1    1    2    0    0 -0.36883306524E-01  0.91326169215E+00  0.74713202912E+00  0.11805141107E+01  0.00000000000E+00 0. -1.
         11    1    3    3    0    0 -0.81631524638E+01  0.35192449310E+02  0.16588663812E+02  0.39753356008E+02  0.51100000000E-03 0. -1.
        -11    1    3    3    0    0 -0.62076765267E+01  0.38192871332E+00 -0.76270397921E+01  0.98413847427E+01  0.51100000000E-03 0.  1.
        -12    1    3    3    0    0  0.14407712297E+02 -0.36487639715E+02 -0.97087560487E+01  0.40412745139E+02  0.00000000000E+00 0.  1.
</event>
<event>
 7    1  0.1698110E-015  0.9000771E+02  0.7816164E-02  0.1186339E+00
        -11   -1    0    0    0    0  0.00000000000E+00  0.00000000000E+00  0.45593999997E+02  0.45594000000E+02  0.51100000000E-03 0. -1.
         11   -1    0    0    0    0 -0.00000000000E+00 -0.00000000000E+00 -0.45593999997E+02  0.45594000000E+02  0.51100000000E-03 0.  1.
    9900012    2    1    2    0    0 -0.10860362870E+01  0.21232154658E+00 -0.41052061799E+00  0.90007710869E+02  0.89999971852E+02 0.  0.
         12    1    1    2    0    0  0.10860362870E+01 -0.21232154658E+00  0.41052061799E+00  0.11802891313E+01  0.00000000000E+00 0. -1.
         11    1    3    3    0    0  0.14464476226E+01  0.18751650830E+01 -0.10750052082E+01  0.26007866641E+01  0.51100000000E-03 0. -1.
        -11    1    3    3    0    0 -0.26351750373E+01  0.28580947293E+02 -0.31935569323E+02  0.42938272950E+02  0.51100000000E-03 0.  1.
         12    1    3    3    0    0  0.10269112769E+00 -0.30243790830E+02  0.32600053914E+02  0.44468651254E+02  0.00000000000E+00 0. -1.
</event>
<event>
 7    1  0.1843074E-015  0.9000787E+02  0.7816164E-02  0.1186339E+00
        -11   -1    0    0    0    0  0.00000000000E+00  0.00000000000E+00  0.45593999997E+02  0.45594000000E+02  0.51100000000E-03 0. -1.
         11   -1    0    0    0    0 -0.00000000000E+00 -0.00000000000E+00 -0.45593999997E+02  0.45594000000E+02  0.51100000000E-03 0.  1.
    9900012    2    1    2    0    0  0.78676816419E+00  0.73933270051E+00 -0.47653077181E+00  0.90007873497E+02  0.90000136627E+02 0.  0.
         12    1    1    2    0    0 -0.78676816419E+00 -0.73933270051E+00  0.47653077181E+00  0.11801265028E+01  0.00000000000E+00 0. -1.
         11    1    3    3    0    0 -0.25956316902E+01  0.38390697588E+01 -0.84936153508E+01  0.96756014011E+01  0.51100000000E-03 0. -1.
        -11    1    3    3    0    0 -0.11510156133E+02 -0.17628155744E+01 -0.33891533487E+02  0.35836116632E+02  0.51100000000E-03 0.  1.
         12    1    3    3    0    0  0.14892555987E+02 -0.13369214839E+01  0.41908618066E+02  0.44496155464E+02  0.00000000000E+00 0. -1.
</event>
<event>
 7    1  0.1698110E-015  0.9000675E+02  0.7816164E-02  0.1186341E+00
        -11   -1    0    0    0    0  0.00000000000E+00  0.00000000000E+00  0.45593999997E+02  0.45594000000E+02  0.51100000000E-03 0. -1.
         11   -1    0    0    0    0 -0.00000000000E+00 -0.00000000000E+00 -0.45593999997E+02  0.45594000000E+02  0.51100000000E-03 0.  1.
    9900012    2    1    2    0    0 -0.98541299998E+00 -0.42211467850E+00  0.49612696329E+00  0.90006745774E+02  0.89998994013E+02 0.  0.
         12    1    1    2    0    0  0.98541299998E+00  0.42211467850E+00 -0.49612696329E+00  0.11812542258E+01  0.00000000000E+00 0. -1.
         11    1    3    3    0    0 -0.11770078931E+02 -0.10854447299E+02 -0.55553264740E+01  0.16947431567E+02  0.51100000000E-03 0. -1.
        -11    1    3    3    0    0  0.14364155287E+02  0.26650894390E+02 -0.24059704785E+02  0.38671288102E+02  0.51100000000E-03 0.  1.
         12    1    3    3    0    0 -0.35794893557E+01 -0.16218561769E+02  0.30111158222E+02  0.34388026105E+02  0.00000000000E+00 0. -1.
</event>
<event>
 7    1  0.1698110E-015  0.9000768E+02  0.7816164E-02  0.1186339E+00
        -11   -1    0    0    0    0  0.00000000000E+00  0.00000000000E+00  0.45593999997E+02  0.45594000000E+02  0.51100000000E-03 0.  1.
         11   -1    0    0    0    0 -0.00000000000E+00 -0.00000000000E+00 -0.45593999997E+02  0.45594000000E+02  0.51100000000E-03 0. -1.
    9900012    2    1    2    0    0 -0.60207624010E+00 -0.42090533749E+00  0.92384576577E+00  0.90007683051E+02  0.89999943667E+02 0.  0.
         12    1    1    2    0    0  0.60207624010E+00  0.42090533749E+00 -0.92384576577E+00  0.11803169494E+01  0.00000000000E+00 0. -1.
         11    1    3    3    0    0 -0.75332191605E+01 -0.17863881679E+02 -0.57775023981E+01  0.20229858966E+02  0.51100000000E-03 0. -1.
        -11    1    3    3    0    0  0.16326751075E+02 -0.11161872267E+02  0.26998048054E+02  0.33467070265E+02  0.51100000000E-03 0.  1.
         12    1    3    3    0    0 -0.93956081549E+01  0.28604848609E+02 -0.20296699890E+02  0.36310753819E+02  0.00000000000E+00 0. -1.
</event>
<event>
 7    1  0.1698110E-015  0.9000772E+02  0.7816164E-02  0.1186339E+00
        -11   -1    0    0    0    0  0.00000000000E+00  0.00000000000E+00  0.45593999997E+02  0.45594000000E+02  0.51100000000E-03 0. -1.
         11   -1    0    0    0    0 -0.00000000000E+00 -0.00000000000E+00 -0.45593999997E+02  0.45594000000E+02  0.51100000000E-03 0.  1.
    9900012    2    1    2    0    0  0.74852452667E+00 -0.46521694412E+00 -0.78508213205E+00  0.90007716252E+02  0.89999977306E+02 0.  0.
         12    1    1    2    0    0 -0.74852452667E+00  0.46521694412E+00  0.78508213205E+00  0.11802837482E+01  0.00000000000E+00 0. -1.
         11    1    3    3    0    0  0.11168027426E+02  0.32589691193E+02  0.86112076199E+01  0.35510078929E+02  0.51100000000E-03 0. -1.
        -11    1    3    3    0    0  0.56157708044E+00  0.95884702259E+01 -0.86008888990E+00  0.96433336171E+01  0.51100000000E-03 0.  1.
        -12    1    3    3    0    0 -0.10981079980E+02 -0.42643378363E+02 -0.85362008621E+01  0.44854303705E+02  0.00000000000E+00 0.  1.
</event>
<event>
 7    1  0.1698110E-015  0.9000772E+02  0.7816164E-02  0.1186339E+00
        -11   -1    0    0    0    0  0.00000000000E+00  0.00000000000E+00  0.45593999997E+02  0.45594000000E+02  0.51100000000E-03 0.  1.
         11   -1    0    0    0    0 -0.00000000000E+00 -0.00000000000E+00 -0.45593999997E+02  0.45594000000E+02  0.51100000000E-03 0. -1.
    9900012    2    1    2    0    0 -0.82479661105E+00 -0.77908591971E+00 -0.32526386577E+00  0.90007719990E+02  0.89999981094E+02 0.  0.
         12    1    1    2    0    0  0.82479661105E+00  0.77908591971E+00  0.32526386577E+00  0.11802800101E+01  0.00000000000E+00 0. -1.
         11    1    3    3    0    0  0.14990584640E+02 -0.99680089274E+01 -0.30141478705E+02  0.35108226509E+02  0.51100000000E-03 0. -1.
        -11    1    3    3    0    0 -0.57483794873E+01  0.25463826469E+01 -0.10818445813E+02  0.12512661643E+02  0.51100000000E-03 0.  1.
        -12    1    3    3    0    0 -0.10067001763E+02  0.66425403608E+01  0.40634660652E+02  0.42386831838E+02  0.00000000000E+00 0.  1.
</event>
<event>
 7    1  0.1698110E-015  0.9000760E+02  0.7816164E-02  0.1186339E+00
        -11   -1    0    0    0    0  0.00000000000E+00  0.00000000000E+00  0.45593999997E+02  0.45594000000E+02  0.51100000000E-03 0.  1.
         11   -1    0    0    0    0 -0.00000000000E+00 -0.00000000000E+00 -0.45593999997E+02  0.45594000000E+02  0.51100000000E-03 0. -1.
    9900012    2    1    2    0    0  0.10098064214E+00 -0.11724642915E+01 -0.92089616778E-01  0.90007597483E+02  0.89999856970E+02 0.  0.
         12    1    1    2    0    0 -0.10098064214E+00  0.11724642915E+01  0.92089616778E-01  0.11804025171E+01  0.00000000000E+00 0. -1.
         11    1    3    3    0    0  0.53438484441E+01 -0.75510833770E+01  0.67324157096E+01  0.11441197398E+02  0.51100000000E-03 0. -1.
        -11    1    3    3    0    0 -0.88295536081E+01  0.80087955593E+00  0.35058253499E+02  0.36161907632E+02  0.51100000000E-03 0.  1.
         12    1    3    3    0    0  0.35866858061E+01  0.55777395296E+01 -0.41882758825E+02  0.42404492452E+02  0.00000000000E+00 0. -1.
</event>
<event>
 7    1  0.1698110E-015  0.9000781E+02  0.7816164E-02  0.1186339E+00
        -11   -1    0    0    0    0  0.00000000000E+00  0.00000000000E+00  0.45593999997E+02  0.45594000000E+02  0.51100000000E-03 0. -1.
         11   -1    0    0    0    0 -0.00000000000E+00 -0.00000000000E+00 -0.45593999997E+02  0.45594000000E+02  0.51100000000E-03 0.  1.
    9900012    2    1    2    0    0 -0.25032634634E+00 -0.10405546050E+01  0.49741441411E+00  0.90007814309E+02  0.90000076658E+02 0.  0.
         12    1    1    2    0    0  0.25032634634E+00  0.10405546050E+01 -0.49741441411E+00  0.11801856909E+01  0.00000000000E+00 0. -1.
         11    1    3    3    0    0  0.24053878145E+01 -0.10219070192E+02  0.12498067896E+01  0.10572478584E+02  0.51100000000E-03 0. -1.
        -11    1    3    3    0    0 -0.67545757637E+01  0.28249028509E+02  0.30803237414E+02  0.42337587802E+02  0.51100000000E-03 0.  1.
         12    1    3    3    0    0  0.40988616029E+01 -0.19070512922E+02 -0.31555629790E+02  0.37097747923E+02  0.00000000000E+00 0. -1.
</event>
<event>
 7    1  0.1698110E-015  0.9000774E+02  0.7816164E-02  0.1186339E+00
        -11   -1    0    0    0    0  0.00000000000E+00  0.00000000000E+00  0.45593999997E+02  0.45594000000E+02  0.51100000000E-03 0. -1.
         11   -1    0    0    0    0 -0.00000000000E+00 -0.00000000000E+00 -0.45593999997E+02  0.45594000000E+02  0.51100000000E-03 0.  1.
    9900012    2    1    2    0    0 -0.10504296681E+01  0.30298208747E+00 -0.44477452225E+00  0.90007735196E+02  0.89999996500E+02 0.  0.
         12    1    1    2    0    0  0.10504296681E+01 -0.30298208747E+00  0.44477452225E+00  0.11802648045E+01  0.00000000000E+00 0. -1.
         11    1    3    3    0    0 -0.38085368192E+01 -0.62462706754E+01 -0.61393997804E+01  0.95505539095E+01  0.51100000000E-03 0. -1.
        -11    1    3    3    0    0  0.27224347743E+02 -0.26263964075E+02  0.10466929003E+02  0.39249427028E+02  0.51100000000E-03 0.  1.
         12    1    3    3    0    0 -0.24466240592E+02  0.32813216838E+02 -0.47723037451E+01  0.41207754258E+02  0.00000000000E+00 0. -1.
</event>
<event>
 7    1  0.2019781E-015  0.9000776E+02  0.7816164E-02  0.1186339E+00
        -11   -1    0    0    0    0  0.00000000000E+00  0.00000000000E+00  0.45593999997E+02  0.45594000000E+02  0.51100000000E-03 0.  1.
         11   -1    0    0    0    0 -0.00000000000E+00 -0.00000000000E+00 -0.45593999997E+02  0.45594000000E+02  0.51100000000E-03 0. -1.
    9900012    2    1    2    0    0  0.24853657410E-01 -0.11750038615E+01  0.10826427257E+00  0.90007757257E+02  0.90000018853E+02 0.  0.
         12    1    1    2    0    0 -0.24853657410E-01  0.11750038615E+01 -0.10826427257E+00  0.11802427427E+01  0.00000000000E+00 0. -1.
         11    1    3    3    0    0 -0.40596073267E+00 -0.64433091842E+01  0.75623885726E+01  0.99433776225E+01  0.51100000000E-03 0. -1.
        -11    1    3    3    0    0 -0.19470432669E+02 -0.31720752592E+02 -0.79464988297E+01  0.38058517275E+02  0.51100000000E-03 0.  1.
         12    1    3    3    0    0  0.19901247059E+02  0.36989057914E+02  0.49237452973E+00  0.42005862359E+02  0.00000000000E+00 0. -1.
</event>
<event>
 7    1  0.1698110E-015  0.9000754E+02  0.7816164E-02  0.1186339E+00
        -11   -1    0    0    0    0  0.00000000000E+00  0.00000000000E+00  0.45593999997E+02  0.45594000000E+02  0.51100000000E-03 0.  1.
         11   -1    0    0    0    0 -0.00000000000E+00 -0.00000000000E+00 -0.45593999997E+02  0.45594000000E+02  0.51100000000E-03 0. -1.
    9900012    2    1    2    0    0 -0.52475130966E+00 -0.10185100536E+01  0.28417528973E+00  0.90007541504E+02  0.89999800251E+02 0.  0.
         12    1    1    2    0    0  0.52475130966E+00  0.10185100536E+01 -0.28417528973E+00  0.11804584963E+01  0.00000000000E+00 0. -1.
         11    1    3    3    0    0 -0.18047158509E+01  0.50379564578E+01 -0.55862537954E+01  0.77359056548E+01  0.51100000000E-03 0. -1.
        -11    1    3    3    0    0 -0.26943784363E+00  0.34175660641E+02 -0.14528921938E+02  0.37136746626E+02  0.51100000000E-03 0.  1.
         12    1    3    3    0    0  0.15494023849E+01 -0.40232127153E+02  0.20399351023E+02  0.45134889223E+02  0.00000000000E+00 0. -1.
</event>
<event>
 7    1  0.1698110E-015  0.9000776E+02  0.7816164E-02  0.1186339E+00
        -11   -1    0    0    0    0  0.00000000000E+00  0.00000000000E+00  0.45593999997E+02  0.45594000000E+02  0.51100000000E-03 0.  1.
         11   -1    0    0    0    0 -0.00000000000E+00 -0.00000000000E+00 -0.45593999997E+02  0.45594000000E+02  0.51100000000E-03 0. -1.
    9900012    2    1    2    0    0  0.54494597068E+00  0.34618460195E+00  0.98800148361E+00  0.90007764082E+02  0.90000025768E+02 0.  0.
         12    1    1    2    0    0 -0.54494597068E+00 -0.34618460195E+00 -0.98800148361E+00  0.11802359176E+01  0.00000000000E+00 0. -1.
         11    1    3    3    0    0  0.14725948157E+01 -0.21058911626E+02  0.14733542471E+02  0.25743417962E+02  0.51100000000E-03 0. -1.
        -11    1    3    3    0    0  0.13166614880E+02 -0.15519105849E+02  0.43250005572E+01  0.20806441883E+02  0.51100000000E-03 0.  1.
        -12    1    3    3    0    0 -0.14094263725E+02  0.36924202077E+02 -0.18070541544E+02  0.43457904237E+02  0.00000000000E+00 0.  1.
</event>
<event>
 7    1  0.1698110E-015  0.9000763E+02  0.7816164E-02  0.1186339E+00
        -11   -1    0    0    0    0  0.00000000000E+00  0.00000000000E+00  0.45593999997E+02  0.45594000000E+02  0.51100000000E-03 0. -1.
         11   -1    0    0    0    0 -0.00000000000E+00 -0.00000000000E+00 -0.45593999997E+02  0.45594000000E+02  0.51100000000E-03 0.  1.
    9900012    2    1    2    0    0 -0.67169780597E+00  0.42657815483E+00  0.87185282507E+00  0.90007629629E+02  0.89999889540E+02 0.  0.
         12    1    1    2    0    0  0.67169780597E+00 -0.42657815483E+00 -0.87185282507E+00  0.11803703712E+01  0.00000000000E+00 0. -1.
         11    1    3    3    0    0  0.30730884185E+01 -0.30758751108E+02  0.72762167279E+00  0.30920447534E+02  0.51100000000E-03 0. -1.
        -11    1    3    3    0    0  0.55167473545E+01 -0.11013881162E+02 -0.85795704031E+01  0.15011632429E+02  0.51100000000E-03 0.  1.
        -12    1    3    3    0    0 -0.92615335791E+01  0.42199210425E+02  0.87238015554E+01  0.44075549665E+02  0.00000000000E+00 0.  1.
</event>
<event>
 7    1  0.1698110E-015  0.9000724E+02  0.7816164E-02  0.1186340E+00
        -11   -1    0    0    0    0  0.00000000000E+00  0.00000000000E+00  0.45593999997E+02  0.45594000000E+02  0.51100000000E-03 0.  1.
         11   -1    0    0    0    0 -0.00000000000E+00 -0.00000000000E+00 -0.45593999997E+02  0.45594000000E+02  0.51100000000E-03 0. -1.
    9900012    2    1    2    0    0  0.18063008899E+00  0.99515325523E+00  0.60928920434E+00  0.90007241530E+02  0.89999496317E+02 0.  0.
         12    1    1    2    0    0 -0.18063008899E+00 -0.99515325523E+00 -0.60928920434E+00  0.11807584702E+01  0.00000000000E+00 0. -1.
         11    1    3    3    0    0 -0.15870918143E+02 -0.31786958019E+02  0.13356107831E+01  0.35553911166E+02  0.51100000000E-03 0. -1.
        -11    1    3    3    0    0 -0.28933504987E+01 -0.82574906274E+01  0.26054371094E+01  0.91293992882E+01  0.51100000000E-03 0.  1.
        -12    1    3    3    0    0  0.18944898731E+02  0.41039601902E+02 -0.33317586882E+01  0.45323931075E+02  0.00000000000E+00 0.  1.
</event>
<event>
 7    1  0.1698110E-015  0.9000780E+02  0.7816164E-02  0.1186339E+00
        -11   -1    0    0    0    0  0.00000000000E+00  0.00000000000E+00  0.45593999997E+02  0.45594000000E+02  0.51100000000E-03 0.  1.
         11   -1    0    0    0    0 -0.00000000000E+00 -0.00000000000E+00 -0.45593999997E+02  0.45594000000E+02  0.51100000000E-03 0. -1.
    9900012    2    1    2    0    0 -0.10430837366E+01  0.54746111578E+00  0.71685926714E-01  0.90007798226E+02  0.90000060363E+02 0.  0.
         12    1    1    2    0    0  0.10430837366E+01 -0.54746111578E+00 -0.71685926714E-01  0.11802017738E+01  0.00000000000E+00 0. -1.
         11    1    3    3    0    0 -0.34827283977E+01 -0.56121562481E+01  0.55146920937E+01  0.86045060285E+01  0.51100000000E-03 0. -1.
        -11    1    3    3    0    0 -0.31215387256E+02  0.26204319799E+02 -0.10005594959E+02  0.41966399755E+02  0.51100000000E-03 0.  1.
         12    1    3    3    0    0  0.33655031917E+02 -0.20044702435E+02  0.45625887924E+01  0.39436892443E+02  0.00000000000E+00 0. -1.
</event>
<event>
 7    1  0.1698110E-015  0.9000771E+02  0.7816164E-02  0.1186339E+00
        -11   -1    0    0    0    0  0.00000000000E+00  0.00000000000E+00  0.45593999997E+02  0.45594000000E+02  0.51100000000E-03 0.  1.
         11   -1    0    0    0    0 -0.00000000000E+00 -0.00000000000E+00 -0.45593999997E+02  0.45594000000E+02  0.51100000000E-03 0. -1.
    9900012    2    1    2    0    0 -0.26807100795E+00  0.22460480770E+00  0.11272879416E+01  0.90007708727E+02  0.89999969683E+02 0.  0.
         12    1    1    2    0    0  0.26807100795E+00 -0.22460480770E+00 -0.11272879416E+01  0.11802912726E+01  0.00000000000E+00 0. -1.
         11    1    3    3    0    0 -0.63362113567E+01 -0.10477184877E+02 -0.19924235970E+01  0.12405189614E+02  0.51100000000E-03 0. -1.
        -11    1    3    3    0    0  0.70086954676E+01 -0.13173905086E+02  0.34833303813E+02  0.37895021337E+02  0.51100000000E-03 0.  1.
         12    1    3    3    0    0 -0.94055511891E+00  0.23875694771E+02 -0.31713592274E+02  0.39707497776E+02  0.00000000000E+00 0. -1.
</event>
<event>
 7    1  0.1698110E-015  0.9000761E+02  0.7816164E-02  0.1186339E+00
        -11   -1    0    0    0    0  0.00000000000E+00  0.00000000000E+00  0.45593999997E+02  0.45594000000E+02  0.51100000000E-03 0.  1.
         11   -1    0    0    0    0 -0.00000000000E+00 -0.00000000000E+00 -0.45593999997E+02  0.45594000000E+02  0.51100000000E-03 0. -1.
    9900012    2    1    2    0    0  0.37493954154E+00  0.42671790286E+00  0.10347195292E+01  0.90007613482E+02  0.89999873180E+02 0.  0.
         12    1    1    2    0    0 -0.37493954154E+00 -0.42671790286E+00 -0.10347195292E+01  0.11803865183E+01  0.00000000000E+00 0. -1.
         11    1    3    3    0    0  0.18880447601E+02 -0.30592977127E+02  0.18242874705E+02  0.40313819329E+02  0.51100000000E-03 0. -1.
        -11    1    3    3    0    0  0.61765353151E+01  0.41350948375E+01 -0.10053316314E+02  0.12502710386E+02  0.51100000000E-03 0.  1.
        -12    1    3    3    0    0 -0.24682043374E+02  0.26884600192E+02 -0.71548388619E+01  0.37191083767E+02  0.00000000000E+00 0.  1.
</event>
<event>
 7    1  0.1698110E-015  0.9000856E+02  0.7816164E-02  0.1186337E+00
        -11   -1    0    0    0    0  0.00000000000E+00  0.00000000000E+00  0.45593999997E+02  0.45594000000E+02  0.51100000000E-03 0. -1.
         11   -1    0    0    0    0 -0.00000000000E+00 -0.00000000000E+00 -0.45593999997E+02  0.45594000000E+02  0.51100000000E-03 0.  1.
    9900012    2    1    2    0    0  0.11531614608E+01  0.10225272156E+00  0.22547926831E+00  0.90008560356E+02  0.90000832549E+02 0.  0.
         12    1    1    2    0    0 -0.11531614608E+01 -0.10225272156E+00 -0.22547926831E+00  0.11794396442E+01  0.00000000000E+00 0. -1.
         11    1    3    3    0    0  0.33477208162E+02 -0.22188909504E+01  0.11645921529E+02  0.35514425687E+02  0.51100000000E-03 0. -1.
        -11    1    3    3    0    0  0.70981612235E+01 -0.18518807205E+01  0.75669663736E+01  0.10539086076E+02  0.51100000000E-03 0.  1.
        -12    1    3    3    0    0 -0.39422207924E+02  0.41730243924E+01 -0.18987408634E+02  0.43955048593E+02  0.00000000000E+00 0.  1.
</event>
<event>
 7    1  0.1698110E-015  0.9000771E+02  0.7816164E-02  0.1186339E+00
        -11   -1    0    0    0    0  0.00000000000E+00  0.00000000000E+00  0.45593999997E+02  0.45594000000E+02  0.51100000000E-03 0.  1.
         11   -1    0    0    0    0 -0.00000000000E+00 -0.00000000000E+00 -0.45593999997E+02  0.45594000000E+02  0.51100000000E-03 0. -1.
    9900012    2    1    2    0    0  0.29585192461E+00 -0.23422498592E+00  0.11183447781E+01  0.90007709888E+02  0.89999970859E+02 0.  0.
         12    1    1    2    0    0 -0.29585192461E+00  0.23422498592E+00 -0.11183447781E+01  0.11802901118E+01  0.00000000000E+00 0. -1.
         11    1    3    3    0    0 -0.15704698554E+02 -0.10448559494E+01 -0.35322261374E+02  0.38670291303E+02  0.51100000000E-03 0. -1.
        -11    1    3    3    0    0  0.74975718214E+01 -0.62590151518E+01 -0.31258604127E+01  0.10254748045E+02  0.51100000000E-03 0.  1.
        -12    1    3    3    0    0  0.85029786569E+01  0.70696461153E+01  0.39566466565E+02  0.41082670540E+02  0.00000000000E+00 0.  1.
</event>
<event>
 7    1  0.1698110E-015  0.9000684E+02  0.7816164E-02  0.1186341E+00
        -11   -1    0    0    0    0  0.00000000000E+00  0.00000000000E+00  0.45593999997E+02  0.45594000000E+02  0.51100000000E-03 0. -1.
         11   -1    0    0    0    0 -0.00000000000E+00 -0.00000000000E+00 -0.45593999997E+02  0.45594000000E+02  0.51100000000E-03 0.  1.
    9900012    2    1    2    0    0  0.47956448026E+00 -0.96823103156E+00  0.47716259289E+00  0.90006840586E+02  0.89999090077E+02 0.  0.
         12    1    1    2    0    0 -0.47956448026E+00  0.96823103156E+00 -0.47716259289E+00  0.11811594140E+01  0.00000000000E+00 0. -1.
         11    1    3    3    0    0  0.71152069054E+01  0.40520642023E+01  0.40288170059E+01  0.91256101349E+01  0.51100000000E-03 0. -1.
        -11    1    3    3    0    0  0.78550575602E+01 -0.19106282363E+02 -0.36667434126E+02  0.42086252870E+02  0.51100000000E-03 0.  1.
         12    1    3    3    0    0 -0.14490699985E+02  0.14085987129E+02  0.33115779713E+02  0.38794977581E+02  0.00000000000E+00 0. -1.
</event>
<event>
 7    1  0.1934489E-015  0.9000668E+02  0.7816164E-02  0.1186341E+00
        -11   -1    0    0    0    0  0.00000000000E+00  0.00000000000E+00  0.45593999997E+02  0.45594000000E+02  0.51100000000E-03 0.  1.
         11   -1    0    0    0    0 -0.00000000000E+00 -0.00000000000E+00 -0.45593999997E+02  0.45594000000E+02  0.51100000000E-03 0. -1.
    9900012    2    1    2    0    0 -0.57313543448E+00  0.47090109144E+00  0.91939578041E+00  0.90006678424E+02  0.89998925773E+02 0.  0.
         12    1    1    2    0    0  0.57313543448E+00 -0.47090109144E+00 -0.91939578041E+00  0.11813215757E+01  0.00000000000E+00 0. -1.
         11    1    3    3    0    0  0.10383349961E+01  0.86968023904E+01  0.41149018107E+01  0.96770309783E+01  0.51100000000E-03 0. -1.
        -11    1    3    3    0    0 -0.27305334525E+01 -0.56054665565E+01  0.38265843873E+02  0.38770502651E+02  0.51100000000E-03 0.  1.
         12    1    3    3    0    0  0.11190630219E+01 -0.26204347424E+01 -0.41461349903E+02  0.41559144795E+02  0.00000000000E+00 0. -1.
</event>
<event>
 7    1  0.1698110E-015  0.9000768E+02  0.7816164E-02  0.1186339E+00
        -11   -1    0    0    0    0  0.00000000000E+00  0.00000000000E+00  0.45593999997E+02  0.45594000000E+02  0.51100000000E-03 0. -1.
         11   -1    0    0    0    0 -0.00000000000E+00 -0.00000000000E+00 -0.45593999997E+02  0.45594000000E+02  0.51100000000E-03 0.  1.
    9900012    2    1    2    0    0 -0.75708116284E+00  0.85036375615E+00 -0.31123519340E+00  0.90007678963E+02  0.89999939525E+02 0.  0.
         12    1    1    2    0    0  0.75708116284E+00 -0.85036375615E+00  0.31123519340E+00  0.11803210371E+01  0.00000000000E+00 0. -1.
         11    1    3    3    0    0 -0.14591762681E+01 -0.48028368502E+01 -0.80779213444E+01  0.95104810971E+01  0.51100000000E-03 0. -1.
        -11    1    3    3    0    0 -0.16815246226E+02  0.14845370878E+02 -0.30239573754E+02  0.37650622348E+02  0.51100000000E-03 0.  1.
         12    1    3    3    0    0  0.17517341331E+02 -0.91921702720E+01  0.38006259905E+02  0.42846575517E+02  0.00000000000E+00 0. -1.
</event>
<event>
 7    1  0.1698110E-015  0.9000755E+02  0.7816164E-02  0.1186339E+00
        -11   -1    0    0    0    0  0.00000000000E+00  0.00000000000E+00  0.45593999997E+02  0.45594000000E+02  0.51100000000E-03 0. -1.
         11   -1    0    0    0    0 -0.00000000000E+00 -0.00000000000E+00 -0.45593999997E+02  0.45594000000E+02  0.51100000000E-03 0.  1.
    9900012    2    1    2    0    0  0.10856466659E+01 -0.33828875961E+00 -0.31683439366E+00  0.90007554321E+02  0.89999813238E+02 0.  0.
         12    1    1    2    0    0 -0.10856466659E+01  0.33828875961E+00  0.31683439366E+00  0.11804456790E+01  0.00000000000E+00 0. -1.
         11    1    3    3    0    0  0.57199156942E+01 -0.18250907859E+02  0.28614989368E+02  0.34418464376E+02  0.51100000000E-03 0. -1.
        -11    1    3    3    0    0 -0.37867521453E+00 -0.86551922967E+01  0.66911522968E+01  0.10946564207E+02  0.51100000000E-03 0.  1.
        -12    1    3    3    0    0 -0.42555938137E+01  0.26567811396E+02 -0.35622976058E+02  0.44642525738E+02  0.00000000000E+00 0.  1.
</event>
<event>
 7    1  0.1698110E-015  0.9000763E+02  0.7816164E-02  0.1186339E+00
        -11   -1    0    0    0    0  0.00000000000E+00  0.00000000000E+00  0.45593999997E+02  0.45594000000E+02  0.51100000000E-03 0. -1.
         11   -1    0    0    0    0 -0.00000000000E+00 -0.00000000000E+00 -0.45593999997E+02  0.45594000000E+02  0.51100000000E-03 0.  1.
    9900012    2    1    2    0    0 -0.24991695952E+00  0.50047009342E+00 -0.10393934511E+01  0.90007632452E+02  0.89999892401E+02 0.  0.
         12    1    1    2    0    0  0.24991695952E+00 -0.50047009342E+00  0.10393934511E+01  0.11803675475E+01  0.00000000000E+00 0. -1.
         11    1    3    3    0    0 -0.33797476206E+01  0.10327066283E+02 -0.79398337432E+00  0.10895017295E+02  0.51100000000E-03 0. -1.
        -11    1    3    3    0    0 -0.36937683526E+02 -0.11780056120E+02  0.28700050214E+01  0.38876716882E+02  0.51100000000E-03 0.  1.
         12    1    3    3    0    0  0.40067514187E+02  0.19534599305E+01 -0.31154150982E+01  0.40235898276E+02  0.00000000000E+00 0. -1.
</event>
<event>
 7    1  0.1698110E-015  0.9000777E+02  0.7816164E-02  0.1186339E+00
        -11   -1    0    0    0    0  0.00000000000E+00  0.00000000000E+00  0.45593999997E+02  0.45594000000E+02  0.51100000000E-03 0. -1.
         11   -1    0    0    0    0 -0.00000000000E+00 -0.00000000000E+00 -0.45593999997E+02  0.45594000000E+02  0.51100000000E-03 0.  1.
    9900012    2    1    2    0    0  0.38800357704E-01  0.97284197333E-01 -0.11755699338E+01  0.90007773601E+02  0.90000035413E+02 0.  0.
         12    1    1    2    0    0 -0.38800357704E-01 -0.97284197333E-01  0.11755699338E+01  0.11802263986E+01  0.00000000000E+00 0. -1.
         11    1    3    3    0    0 -0.12452416443E+02 -0.11308750338E+02  0.37159509611E+02  0.40789455307E+02  0.51100000000E-03 0. -1.
        -11    1    3    3    0    0  0.21318779493E+00 -0.78932306451E+01 -0.81786538555E+01  0.11368329613E+02  0.51100000000E-03 0.  1.
        -12    1    3    3    0    0  0.12278029006E+02  0.19299265180E+02 -0.30156425689E+02  0.37849988681E+02  0.00000000000E+00 0.  1.
</event>
<event>
 7    1  0.1698110E-015  0.9000775E+02  0.7816164E-02  0.1186339E+00
        -11   -1    0    0    0    0  0.00000000000E+00  0.00000000000E+00  0.45593999997E+02  0.45594000000E+02  0.51100000000E-03 0.  1.
         11   -1    0    0    0    0 -0.00000000000E+00 -0.00000000000E+00 -0.45593999997E+02  0.45594000000E+02  0.51100000000E-03 0. -1.
    9900012    2    1    2    0    0 -0.19807179210E+00 -0.19729534109E+00  0.11466574243E+01  0.90007753782E+02  0.90000015332E+02 0.  0.
         12    1    1    2    0    0  0.19807179210E+00  0.19729534109E+00 -0.11466574243E+01  0.11802462180E+01  0.00000000000E+00 0. -1.
         11    1    3    3    0    0 -0.34898215002E+02 -0.16539808160E+02 -0.12952780410E+02  0.40733587921E+02  0.51100000000E-03 0. -1.
        -11    1    3    3    0    0  0.24641634085E+01  0.74943168719E+01 -0.63150623614E+01  0.10105290672E+02  0.51100000000E-03 0.  1.
        -12    1    3    3    0    0  0.32235979802E+02  0.88481959473E+01  0.20414500196E+02  0.39168875189E+02  0.00000000000E+00 0.  1.
</event>
<event>
 7    1  0.1698110E-015  0.9000774E+02  0.7816164E-02  0.1186339E+00
        -11   -1    0    0    0    0  0.00000000000E+00  0.00000000000E+00  0.45593999997E+02  0.45594000000E+02  0.51100000000E-03 0.  1.
         11   -1    0    0    0    0 -0.00000000000E+00 -0.00000000000E+00 -0.45593999997E+02  0.45594000000E+02  0.51100000000E-03 0. -1.
    9900012    2    1    2    0    0 -0.38048840513E+00 -0.72607169264E+00  0.84915220753E+00  0.90007741130E+02  0.90000002513E+02 0.  0.
         12    1    1    2    0    0  0.38048840513E+00  0.72607169264E+00 -0.84915220753E+00  0.11802588703E+01  0.00000000000E+00 0. -1.
         11    1    3    3    0    0  0.65037582970E+01  0.21802801878E+01 -0.10596771892E+02  0.12623156043E+02  0.51100000000E-03 0. -1.
        -11    1    3    3    0    0  0.33484277772E+02  0.77385834580E+01  0.91940441762E+01  0.35575454747E+02  0.51100000000E-03 0.  1.
         12    1    3    3    0    0 -0.40368524475E+02 -0.10644935338E+02  0.22518799234E+01  0.41809130340E+02  0.00000000000E+00 0. -1.
</event>
<event>
 7    1  0.1698110E-015  0.9000793E+02  0.7816164E-02  0.1186339E+00
        -11   -1    0    0    0    0  0.00000000000E+00  0.00000000000E+00  0.45593999997E+02  0.45594000000E+02  0.51100000000E-03 0.  1.
         11   -1    0    0    0    0 -0.00000000000E+00 -0.00000000000E+00 -0.45593999997E+02  0.45594000000E+02  0.51100000000E-03 0. -1.
    9900012    2    1    2    0    0 -0.13627039135E+00  0.37534738829E+00  0.11104507423E+01  0.90007933844E+02  0.90000197771E+02 0.  0.
         12    1    1    2    0    0  0.13627039135E+00 -0.37534738829E+00 -0.11104507423E+01  0.11800661560E+01  0.00000000000E+00 0. -1.
         11    1    3    3    0    0  0.50149076655E+01  0.35911026887E+02 -0.67598021820E+01  0.36884225311E+02  0.51100000000E-03 0. -1.
        -11    1    3    3    0    0  0.17069733958E+01  0.73475233712E+01  0.60290295245E+01  0.96565550344E+01  0.51100000000E-03 0.  1.
        -12    1    3    3    0    0 -0.68581514526E+01 -0.42883202870E+02  0.18412233998E+01  0.43467153499E+02  0.00000000000E+00 0.  1.
</event>
<event>
 7    1  0.1698110E-015  0.9000746E+02  0.7816164E-02  0.1186340E+00
        -11   -1    0    0    0    0  0.00000000000E+00  0.00000000000E+00  0.45593999997E+02  0.45594000000E+02  0.51100000000E-03 0. -1.
         11   -1    0    0    0    0 -0.00000000000E+00 -0.00000000000E+00 -0.45593999997E+02  0.45594000000E+02  0.51100000000E-03 0.  1.
    9900012    2    1    2    0    0 -0.62730743922E+00 -0.76694878504E+00  0.64182911446E+00  0.90007462125E+02  0.89999719825E+02 0.  0.
         12    1    1    2    0    0  0.62730743922E+00  0.76694878504E+00 -0.64182911446E+00  0.11805378750E+01  0.00000000000E+00 0. -1.
         11    1    3    3    0    0  0.71491483240E+01  0.68883388018E+01 -0.32873577698E+01  0.10457832212E+02  0.51100000000E-03 0. -1.
        -11    1    3    3    0    0  0.20249211799E+02  0.11900667889E+02 -0.25342547970E+02  0.34552875605E+02  0.51100000000E-03 0.  1.
         12    1    3    3    0    0 -0.28025667562E+02 -0.19555955476E+02  0.29271734855E+02  0.44996754308E+02  0.00000000000E+00 0. -1.
</event>
<event>
 7    1  0.1698110E-015  0.9000767E+02  0.7816164E-02  0.1186339E+00
        -11   -1    0    0    0    0  0.00000000000E+00  0.00000000000E+00  0.45593999997E+02  0.45594000000E+02  0.51100000000E-03 0. -1.
         11   -1    0    0    0    0 -0.00000000000E+00 -0.00000000000E+00 -0.45593999997E+02  0.45594000000E+02  0.51100000000E-03 0.  1.
    9900012    2    1    2    0    0  0.10889000822E+01 -0.30542605914E+00 -0.33793718435E+00  0.90007665299E+02  0.89999925681E+02 0.  0.
         12    1    1    2    0    0 -0.10889000822E+01  0.30542605914E+00  0.33793718435E+00  0.11803347014E+01  0.00000000000E+00 0. -1.
         11    1    3    3    0    0 -0.50823996259E+01  0.44282330375E+01  0.42031039151E+01  0.79439358364E+01  0.51100000000E-03 0. -1.
        -11    1    3    3    0    0  0.16581209648E+02  0.28431914193E+02 -0.25355337624E+02  0.41547604075E+02  0.51100000000E-03 0.  1.
         12    1    3    3    0    0 -0.10409909940E+02 -0.33165573290E+02  0.20814296525E+02  0.40516125387E+02  0.00000000000E+00 0. -1.
</event>
<event>
 7    1  0.1698110E-015  0.9000771E+02  0.7816164E-02  0.1186339E+00
        -11   -1    0    0    0    0  0.00000000000E+00  0.00000000000E+00  0.45593999997E+02  0.45594000000E+02  0.51100000000E-03 0.  1.
         11   -1    0    0    0    0 -0.00000000000E+00 -0.00000000000E+00 -0.45593999997E+02  0.45594000000E+02  0.51100000000E-03 0. -1.
    9900012    2    1    2    0    0 -0.76817669697E+00  0.43651687935E+00 -0.78258294665E+00  0.90007712538E+02  0.89999973544E+02 0.  0.
         12    1    1    2    0    0  0.76817669697E+00 -0.43651687935E+00  0.78258294665E+00  0.11802874616E+01  0.00000000000E+00 0. -1.
         11    1    3    3    0    0 -0.35809374571E+02 -0.10058520105E+01 -0.10469883196E+02  0.37322131502E+02  0.51100000000E-03 0. -1.
        -11    1    3    3    0    0 -0.61508883102E+01 -0.74113159397E+01  0.11908755729E+01  0.97045976658E+01  0.51100000000E-03 0.  1.
        -12    1    3    3    0    0  0.41192086184E+02  0.88536848295E+01  0.84964246767E+01  0.42980983371E+02  0.00000000000E+00 0.  1.
</event>
<event>
 7    1  0.1698110E-015  0.9000740E+02  0.7816164E-02  0.1186340E+00
        -11   -1    0    0    0    0  0.00000000000E+00  0.00000000000E+00  0.45593999997E+02  0.45594000000E+02  0.51100000000E-03 0.  1.
         11   -1    0    0    0    0 -0.00000000000E+00 -0.00000000000E+00 -0.45593999997E+02  0.45594000000E+02  0.51100000000E-03 0. -1.
    9900012    2    1    2    0    0  0.39517693284E+00 -0.18004603915E+00  0.10978330783E+01  0.90007398944E+02  0.89999655810E+02 0.  0.
         12    1    1    2    0    0 -0.39517693284E+00  0.18004603915E+00 -0.10978330783E+01  0.11806010555E+01  0.00000000000E+00 0. -1.
         11    1    3    3    0    0 -0.23303096382E+01  0.79009178856E+01 -0.10657188865E+02  0.13469614739E+02  0.51100000000E-03 0. -1.
        -11    1    3    3    0    0  0.16073185191E+02 -0.36609412731E+02  0.18925371045E+02  0.44235348446E+02  0.51100000000E-03 0.  1.
         12    1    3    3    0    0 -0.13347698620E+02  0.28528448807E+02 -0.71703491016E+01  0.32302435759E+02  0.00000000000E+00 0. -1.
</event>
<event>
 7    1  0.1698110E-015  0.9000774E+02  0.7816164E-02  0.1186339E+00
        -11   -1    0    0    0    0  0.00000000000E+00  0.00000000000E+00  0.45593999997E+02  0.45594000000E+02  0.51100000000E-03 0. -1.
         11   -1    0    0    0    0 -0.00000000000E+00 -0.00000000000E+00 -0.45593999997E+02  0.45594000000E+02  0.51100000000E-03 0.  1.
    9900012    2    1    2    0    0 -0.37691221477E+00  0.74655297957E+00  0.83283309813E+00  0.90007739377E+02  0.90000000737E+02 0.  0.
         12    1    1    2    0    0  0.37691221477E+00 -0.74655297957E+00 -0.83283309813E+00  0.11802606230E+01  0.00000000000E+00 0. -1.
         11    1    3    3    0    0  0.99985698574E+01 -0.25484618845E+00  0.20666200304E+00  0.10003951980E+02  0.51100000000E-03 0. -1.
        -11    1    3    3    0    0 -0.58680128482E+01 -0.34387533814E+02 -0.18541213006E+02  0.39505855725E+02  0.51100000000E-03 0.  1.
         12    1    3    3    0    0 -0.45074692240E+01  0.35388932982E+02  0.19167384101E+02  0.40497931672E+02  0.00000000000E+00 0. -1.
</event>
<event>
 7    1  0.1698110E-015  0.9000780E+02  0.7816164E-02  0.1186339E+00
        -11   -1    0    0    0    0  0.00000000000E+00  0.00000000000E+00  0.45593999997E+02  0.45594000000E+02  0.51100000000E-03 0. -1.
         11   -1    0    0    0    0 -0.00000000000E+00 -0.00000000000E+00 -0.45593999997E+02  0.45594000000E+02  0.51100000000E-03 0.  1.
    9900012    2    1    2    0    0  0.40810773904E+00 -0.11014340428E+01  0.11470747616E+00  0.90007802270E+02  0.90000064460E+02 0.  0.
         12    1    1    2    0    0 -0.40810773904E+00  0.11014340428E+01 -0.11470747616E+00  0.11801977302E+01  0.00000000000E+00 0. -1.
         11    1    3    3    0    0 -0.28781678425E+02  0.22393787495E+02  0.15496743357E+02  0.39623424717E+02  0.51100000000E-03 0. -1.
        -11    1    3    3    0    0  0.64361908767E+01  0.47519621340E+01  0.43358078429E+01  0.90997212615E+01  0.51100000000E-03 0.  1.
        -12    1    3    3    0    0  0.22753595288E+02 -0.28247183672E+02 -0.19717843724E+02  0.41284656291E+02  0.00000000000E+00 0.  1.
</event>
<event>
 7    1  0.1698110E-015  0.9000778E+02  0.7816164E-02  0.1186339E+00
        -11   -1    0    0    0    0  0.00000000000E+00  0.00000000000E+00  0.45593999997E+02  0.45594000000E+02  0.51100000000E-03 0.  1.
         11   -1    0    0    0    0 -0.00000000000E+00 -0.00000000000E+00 -0.45593999997E+02  0.45594000000E+02  0.51100000000E-03 0. -1.
    9900012    2    1    2    0    0 -0.74166321835E+00  0.73306806986E+00  0.55268981063E+00  0.90007780041E+02  0.90000041938E+02 0.  0.
         12    1    1    2    0    0  0.74166321835E+00 -0.73306806986E+00 -0.55268981063E+00  0.11802199589E+01  0.00000000000E+00 0. -1.
         11    1    3    3    0    0 -0.31060463917E+02 -0.18306753089E+01  0.52150829562E+00  0.31118736511E+02  0.51100000000E-03 0. -1.
        -11    1    3    3    0    0 -0.59774402868E+01  0.35619177652E+01  0.17325674802E+02  0.18670727307E+02  0.51100000000E-03 0.  1.
        -12    1    3    3    0    0  0.36296240986E+02 -0.99817438641E+00 -0.17294493287E+02  0.40218316224E+02  0.00000000000E+00 0.  1.
</event>
<event>
 7    1  0.1698110E-015  0.9000764E+02  0.7816164E-02  0.1186339E+00
        -11   -1    0    0    0    0  0.00000000000E+00  0.00000000000E+00  0.45593999997E+02  0.45594000000E+02  0.51100000000E-03 0. -1.
         11   -1    0    0    0    0 -0.00000000000E+00 -0.00000000000E+00 -0.45593999997E+02  0.45594000000E+02  0.51100000000E-03 0.  1.
    9900012    2    1    2    0    0  0.10939101304E+01  0.31364669935E+00  0.31341708872E+00  0.90007642471E+02  0.89999902551E+02 0.  0.
         12    1    1    2    0    0 -0.10939101304E+01 -0.31364669935E+00 -0.31341708872E+00  0.11803575293E+01  0.00000000000E+00 0. -1.
         11    1    3    3    0    0 -0.33658375009E+01 -0.68745903911E+01  0.44949813020E+01  0.88765822418E+01  0.51100000000E-03 0. -1.
        -11    1    3    3    0    0 -0.31871648958E+02  0.22420117679E+02  0.82297851348E+01  0.39827039153E+02  0.51100000000E-03 0.  1.
         12    1    3    3    0    0  0.36331396589E+02 -0.15231880589E+02 -0.12411349348E+02  0.41304021076E+02  0.00000000000E+00 0. -1.
</event>
<event>
 7    1  0.1698110E-015  0.9000764E+02  0.7816164E-02  0.1186339E+00
        -11   -1    0    0    0    0  0.00000000000E+00  0.00000000000E+00  0.45593999997E+02  0.45594000000E+02  0.51100000000E-03 0.  1.
         11   -1    0    0    0    0 -0.00000000000E+00 -0.00000000000E+00 -0.45593999997E+02  0.45594000000E+02  0.51100000000E-03 0. -1.
    9900012    2    1    2    0    0 -0.10010072472E+01  0.58709124430E+00  0.21579751563E+00  0.90007635562E+02  0.89999895552E+02 0.  0.
         12    1    1    2    0    0  0.10010072472E+01 -0.58709124430E+00 -0.21579751563E+00  0.11803644377E+01  0.00000000000E+00 0. -1.
         11    1    3    3    0    0  0.15860343390E+02  0.93004101988E+01 -0.16489130993E+02  0.24696954538E+02  0.51100000000E-03 0. -1.
        -11    1    3    3    0    0  0.11643202920E+02 -0.13565382048E+02 -0.14316786972E+02  0.22903147247E+02  0.51100000000E-03 0.  1.
        -12    1    3    3    0    0 -0.28504553557E+02  0.48520630938E+01  0.31021715480E+02  0.42407533777E+02  0.00000000000E+00 0.  1.
</event>
<event>
 7    1  0.1698110E-015  0.9000757E+02  0.7816164E-02  0.1186339E+00
        -11   -1    0    0    0    0  0.00000000000E+00  0.00000000000E+00  0.45593999997E+02  0.45594000000E+02  0.51100000000E-03 0. -1.
         11   -1    0    0    0    0 -0.00000000000E+00 -0.00000000000E+00 -0.45593999997E+02  0.45594000000E+02  0.51100000000E-03 0.  1.
    9900012    2    1    2    0    0 -0.18444672370E+00  0.87590471138E+00  0.76953109652E+00  0.90007573058E+02  0.89999832222E+02 0.  0.
         12    1    1    2    0    0  0.18444672370E+00 -0.87590471138E+00 -0.76953109652E+00  0.11804269422E+01  0.00000000000E+00 0. -1.
         11    1    3    3    0    0  0.28195978813E+01  0.18842838399E+02  0.31607620620E+02  0.36905885339E+02  0.51100000000E-03 0. -1.
        -11    1    3    3    0    0 -0.10585062686E+02  0.81796459999E+01 -0.21432850355E+01  0.13547834947E+02  0.51100000000E-03 0.  1.
        -12    1    3    3    0    0  0.75810180805E+01 -0.26146579688E+02 -0.28694804488E+02  0.39553852772E+02  0.00000000000E+00 0.  1.
</event>
<event>
 7    1  0.1698110E-015  0.9000775E+02  0.7816164E-02  0.1186339E+00
        -11   -1    0    0    0    0  0.00000000000E+00  0.00000000000E+00  0.45593999997E+02  0.45594000000E+02  0.51100000000E-03 0.  1.
         11   -1    0    0    0    0 -0.00000000000E+00 -0.00000000000E+00 -0.45593999997E+02  0.45594000000E+02  0.51100000000E-03 0. -1.
    9900012    2    1    2    0    0  0.60630957977E+00  0.27276886137E+00  0.97518554702E+00  0.90007745362E+02  0.90000006801E+02 0.  0.
         12    1    1    2    0    0 -0.60630957977E+00 -0.27276886137E+00 -0.97518554702E+00  0.11802546375E+01  0.00000000000E+00 0. -1.
         11    1    3    3    0    0 -0.26157420951E+02 -0.40197245737E+01 -0.25531753758E+02  0.36772806619E+02  0.51100000000E-03 0. -1.
        -11    1    3    3    0    0  0.53582661964E+01 -0.20792514023E+01 -0.93595004784E+01  0.10983376188E+02  0.51100000000E-03 0.  1.
        -12    1    3    3    0    0  0.21405464334E+02  0.63717448373E+01  0.35866439783E+02  0.42251562555E+02  0.00000000000E+00 0.  1.
</event>
<event>
 7    1  0.1698110E-015  0.9000773E+02  0.7816164E-02  0.1186339E+00
        -11   -1    0    0    0    0  0.00000000000E+00  0.00000000000E+00  0.45593999997E+02  0.45594000000E+02  0.51100000000E-03 0. -1.
         11   -1    0    0    0    0 -0.00000000000E+00 -0.00000000000E+00 -0.45593999997E+02  0.45594000000E+02  0.51100000000E-03 0.  1.
    9900012    2    1    2    0    0 -0.10592544264E+01  0.33312037445E+00  0.40007063335E+00  0.90007726457E+02  0.89999987647E+02 0.  0.
         12    1    1    2    0    0  0.10592544264E+01 -0.33312037445E+00 -0.40007063335E+00  0.11802735426E+01  0.00000000000E+00 0. -1.
         11    1    3    3    0    0 -0.90849438084E+01  0.34158342488E+01  0.36318186451E+02  0.37592749234E+02  0.51100000000E-03 0. -1.
        -11    1    3    3    0    0  0.72806873543E+01 -0.55309348826E+01  0.56631481509E+01  0.10755040505E+02  0.51100000000E-03 0.  1.
        -12    1    3    3    0    0  0.74500202763E+00  0.24482210083E+01 -0.41581263969E+02  0.41659936718E+02  0.00000000000E+00 0.  1.
</event>
<event>
 7    1  0.1698110E-015  0.9000772E+02  0.7816164E-02  0.1186339E+00
        -11   -1    0    0    0    0  0.00000000000E+00  0.00000000000E+00  0.45593999997E+02  0.45594000000E+02  0.51100000000E-03 0. -1.
         11   -1    0    0    0    0 -0.00000000000E+00 -0.00000000000E+00 -0.45593999997E+02  0.45594000000E+02  0.51100000000E-03 0.  1.
    9900012    2    1    2    0    0  0.35651749239E-01 -0.20419024278E+00 -0.11619351105E+01  0.90007721260E+02  0.89999982381E+02 0.  0.
         12    1    1    2    0    0 -0.35651749239E-01  0.20419024278E+00  0.11619351105E+01  0.11802787397E+01  0.00000000000E+00 0. -1.
         11    1    3    3    0    0  0.45503501868E+01 -0.71020202956E+01  0.20277094323E+00  0.84371497212E+01  0.51100000000E-03 0. -1.
        -11    1    3    3    0    0  0.23374090924E+02  0.25758070738E+02 -0.22863833106E+02  0.41624286171E+02  0.51100000000E-03 0.  1.
         12    1    3    3    0    0 -0.27888789361E+02 -0.18860240686E+02  0.21499127052E+02  0.39946285369E+02  0.00000000000E+00 0. -1.
</event>
<event>
 7    1  0.1698110E-015  0.9000766E+02  0.7816164E-02  0.1186339E+00
        -11   -1    0    0    0    0  0.00000000000E+00  0.00000000000E+00  0.45593999997E+02  0.45594000000E+02  0.51100000000E-03 0. -1.
         11   -1    0    0    0    0 -0.00000000000E+00 -0.00000000000E+00 -0.45593999997E+02  0.45594000000E+02  0.51100000000E-03 0.  1.
    9900012    2    1    2    0    0 -0.57003639935E+00 -0.99793698581E+00  0.26905778330E+00  0.90007656061E+02  0.89999916321E+02 0.  0.
         12    1    1    2    0    0  0.57003639935E+00  0.99793698581E+00 -0.26905778330E+00  0.11803439393E+01  0.00000000000E+00 0. -1.
         11    1    3    3    0    0  0.12792378763E+01 -0.51906294910E+01 -0.92811786328E+01  0.10710712447E+02  0.51100000000E-03 0. -1.
        -11    1    3    3    0    0 -0.33961323339E+02 -0.16643950377E+02 -0.53943040644E+01  0.38203286295E+02  0.51100000000E-03 0.  1.
         12    1    3    3    0    0  0.32112049064E+02  0.20836642882E+02  0.14944540480E+02  0.41093657319E+02  0.00000000000E+00 0. -1.
</event>
<event>
 7    1  0.1698110E-015  0.9000781E+02  0.7816164E-02  0.1186339E+00
        -11   -1    0    0    0    0  0.00000000000E+00  0.00000000000E+00  0.45593999997E+02  0.45594000000E+02  0.51100000000E-03 0. -1.
         11   -1    0    0    0    0 -0.00000000000E+00 -0.00000000000E+00 -0.45593999997E+02  0.45594000000E+02  0.51100000000E-03 0.  1.
    9900012    2    1    2    0    0 -0.23510424299E+00 -0.96344081868E-01 -0.11525155254E+01  0.90007810090E+02  0.90000072383E+02 0.  0.
         12    1    1    2    0    0  0.23510424299E+00  0.96344081868E-01  0.11525155254E+01  0.11801899099E+01  0.00000000000E+00 0. -1.
         11    1    3    3    0    0 -0.12095403363E+02  0.23871095178E+02 -0.25057088714E+02  0.36660410017E+02  0.51100000000E-03 0. -1.
        -11    1    3    3    0    0 -0.77149743937E+01  0.73587643653E+01  0.40068381783E+01  0.11389775912E+02  0.51100000000E-03 0.  1.
        -12    1    3    3    0    0  0.19575273514E+02 -0.31326203625E+02  0.19897735010E+02  0.41957624161E+02  0.00000000000E+00 0.  1.
</event>
<event>
 7    1  0.1698110E-015  0.9000775E+02  0.7816164E-02  0.1186339E+00
        -11   -1    0    0    0    0  0.00000000000E+00  0.00000000000E+00  0.45593999997E+02  0.45594000000E+02  0.51100000000E-03 0. -1.
         11   -1    0    0    0    0 -0.00000000000E+00 -0.00000000000E+00 -0.45593999997E+02  0.45594000000E+02  0.51100000000E-03 0.  1.
    9900012    2    1    2    0    0  0.67837768401E+00 -0.88332223965E+00  0.39056085930E+00  0.90007749075E+02  0.90000010563E+02 0.  0.
         12    1    1    2    0    0 -0.67837768401E+00  0.88332223965E+00 -0.39056085930E+00  0.11802509250E+01  0.00000000000E+00 0. -1.
         11    1    3    3    0    0 -0.20276836375E+02  0.38290489053E+01 -0.28919186998E+02  0.35526484287E+02  0.51100000000E-03 0. -1.
        -11    1    3    3    0    0 -0.39871026511E+01 -0.17463200868E+02  0.11331869176E+02  0.21196028670E+02  0.51100000000E-03 0.  1.
        -12    1    3    3    0    0  0.24942316710E+02  0.12750829723E+02  0.17977878682E+02  0.33285236118E+02  0.00000000000E+00 0.  1.
</event>
<event>
 7    1  0.1698110E-015  0.9000775E+02  0.7816164E-02  0.1186339E+00
        -11   -1    0    0    0    0  0.00000000000E+00  0.00000000000E+00  0.45593999997E+02  0.45594000000E+02  0.51100000000E-03 0. -1.
         11   -1    0    0    0    0 -0.00000000000E+00 -0.00000000000E+00 -0.45593999997E+02  0.45594000000E+02  0.51100000000E-03 0.  1.
    9900012    2    1    2    0    0 -0.83041797625E+00  0.83651811335E+00  0.60197280870E-01  0.90007754143E+02  0.90000015698E+02 0.  0.
         12    1    1    2    0    0  0.83041797625E+00 -0.83651811335E+00 -0.60197280870E-01  0.11802458565E+01  0.00000000000E+00 0. -1.
         11    1    3    3    0    0 -0.32619301612E+02  0.26960069275E+02 -0.22235155887E+01  0.42376977179E+02  0.51100000000E-03 0. -1.
        -11    1    3    3    0    0  0.49151317989E+01 -0.36106096877E+01  0.10019698644E+02  0.11729850131E+02  0.51100000000E-03 0.  1.
        -12    1    3    3    0    0  0.26873751837E+02 -0.22512941474E+02 -0.77359857744E+01  0.35900926834E+02  0.00000000000E+00 0.  1.
</event>
<event>
 8    1  0.1698110E-015  0.9000772E+02  0.7816164E-02  0.1186339E+00
        -11   -1    0    0    0    0  0.00000000000E+00  0.00000000000E+00  0.45593999997E+02  0.45594000000E+02  0.51100000000E-03 0. -1.
         11   -1    0    0    0    0 -0.00000000000E+00 -0.00000000000E+00 -0.45593999997E+02  0.45594000000E+02  0.51100000000E-03 0.  1.
    9900012    2    1    2    0    0  0.26856693497E+00 -0.91492675274E+00 -0.69559452078E+00  0.90007715755E+02  0.89999976803E+02 0.  0.
         23    2    3    3    0    0  0.21205445991E+02  0.13048420868E+02 -0.14249609166E+02  0.61423816539E+02  0.54312997064E+02 0.  0.
         12    1    1    2    0    0 -0.26856693497E+00  0.91492675274E+00  0.69559452078E+00  0.11802842449E+01  0.00000000000E+00 0. -1.
         11    1    4    4    0    0  0.19404785754E+02 -0.16305671060E+02  0.55811283364E+01  0.25953219697E+02  0.51100000000E-03 0. -1.
        -11    1    4    4    0    0  0.18006602374E+01  0.29354091928E+02 -0.19830737502E+02  0.35470596842E+02  0.51100000000E-03 0.  1.
        -12    1    3    3    0    0 -0.20936879056E+02 -0.13963347621E+02  0.13554014645E+02  0.28583899216E+02  0.00000000000E+00 0.  1.
</event>
<event>
 7    1  0.1698110E-015  0.9000774E+02  0.7816164E-02  0.1186339E+00
        -11   -1    0    0    0    0  0.00000000000E+00  0.00000000000E+00  0.45593999997E+02  0.45594000000E+02  0.51100000000E-03 0.  1.
         11   -1    0    0    0    0 -0.00000000000E+00 -0.00000000000E+00 -0.45593999997E+02  0.45594000000E+02  0.51100000000E-03 0. -1.
    9900012    2    1    2    0    0 -0.10828708837E+01  0.36088372808E+00 -0.30028060360E+00  0.90007739496E+02  0.90000000858E+02 0.  0.
         12    1    1    2    0    0  0.10828708837E+01 -0.36088372808E+00  0.30028060360E+00  0.11802605038E+01  0.00000000000E+00 0. -1.
         11    1    3    3    0    0 -0.33349744340E+02  0.18674599905E+02 -0.14784863850E+01  0.38250909157E+02  0.51100000000E-03 0. -1.
        -11    1    3    3    0    0 -0.24883763136E+01  0.27442016616E+01  0.95704229116E+01  0.10262341565E+02  0.51100000000E-03 0.  1.
        -12    1    3    3    0    0  0.34755249770E+02 -0.21057917838E+02 -0.83922171301E+01  0.41494488773E+02  0.00000000000E+00 0.  1.
</event>
<event>
 7    1  0.1698110E-015  0.9000771E+02  0.7816164E-02  0.1186339E+00
        -11   -1    0    0    0    0  0.00000000000E+00  0.00000000000E+00  0.45593999997E+02  0.45594000000E+02  0.51100000000E-03 0. -1.
         11   -1    0    0    0    0 -0.00000000000E+00 -0.00000000000E+00 -0.45593999997E+02  0.45594000000E+02  0.51100000000E-03 0.  1.
    9900012    2    1    2    0    0  0.25497288298E+00 -0.83630886970E+00 -0.79287893419E+00  0.90007711603E+02  0.89999972596E+02 0.  0.
         12    1    1    2    0    0 -0.25497288298E+00  0.83630886970E+00  0.79287893419E+00  0.11802883973E+01  0.00000000000E+00 0. -1.
         11    1    3    3    0    0 -0.39309194056E+02  0.56325116222E+01 -0.98601255960E+01  0.40916500358E+02  0.51100000000E-03 0. -1.
        -11    1    3    3    0    0  0.12584173906E+01  0.73360415186E+01  0.24733190164E+01  0.78433683268E+01  0.51100000000E-03 0.  1.
        -12    1    3    3    0    0  0.38305749548E+02 -0.13804862011E+02  0.65939276454E+01  0.41247842918E+02  0.00000000000E+00 0.  1.
</event>
<event>
 7    1  0.1698110E-015  0.9000775E+02  0.7816164E-02  0.1186339E+00
        -11   -1    0    0    0    0  0.00000000000E+00  0.00000000000E+00  0.45593999997E+02  0.45594000000E+02  0.51100000000E-03 0. -1.
         11   -1    0    0    0    0 -0.00000000000E+00 -0.00000000000E+00 -0.45593999997E+02  0.45594000000E+02  0.51100000000E-03 0.  1.
    9900012    2    1    2    0    0  0.29261307340E-01  0.11759933976E+01 -0.95786331091E-01  0.90007749299E+02  0.90000010790E+02 0.  0.
         12    1    1    2    0    0 -0.29261307340E-01 -0.11759933976E+01  0.95786331091E-01  0.11802507008E+01  0.00000000000E+00 0. -1.
         11    1    3    3    0    0  0.14190424190E+01  0.49404173216E+01  0.82696585887E+01  0.97369737667E+01  0.51100000000E-03 0. -1.
        -11    1    3    3    0    0  0.11614175632E+02 -0.37531784121E+02 -0.17410478966E+02  0.42972650291E+02  0.51100000000E-03 0.  1.
         12    1    3    3    0    0 -0.13003956744E+02  0.33767360197E+02  0.90450340464E+01  0.37298125242E+02  0.00000000000E+00 0. -1.
</event>
<event>
 7    1  0.1698110E-015  0.9000762E+02  0.7816164E-02  0.1186339E+00
        -11   -1    0    0    0    0  0.00000000000E+00  0.00000000000E+00  0.45593999997E+02  0.45594000000E+02  0.51100000000E-03 0.  1.
         11   -1    0    0    0    0 -0.00000000000E+00 -0.00000000000E+00 -0.45593999997E+02  0.45594000000E+02  0.51100000000E-03 0. -1.
    9900012    2    1    2    0    0 -0.79111693516E+00 -0.81866497440E+00  0.31180737284E+00  0.90007617781E+02  0.89999877536E+02 0.  0.
         12    1    1    2    0    0  0.79111693516E+00  0.81866497440E+00 -0.31180737284E+00  0.11803822191E+01  0.00000000000E+00 0. -1.
         11    1    3    3    0    0 -0.34043404989E+01 -0.51567244856E+01  0.73330729917E+01  0.95893326888E+01  0.51100000000E-03 0. -1.
        -11    1    3    3    0    0  0.36285962096E+02 -0.17037125630E+02 -0.58987026245E+01  0.40518259932E+02  0.51100000000E-03 0.  1.
         12    1    3    3    0    0 -0.33672738533E+02  0.21375185141E+02 -0.11225629944E+01  0.39900025160E+02  0.00000000000E+00 0. -1.
</event>
<event>
 7    1  0.1698110E-015  0.9000775E+02  0.7816164E-02  0.1186339E+00
        -11   -1    0    0    0    0  0.00000000000E+00  0.00000000000E+00  0.45593999997E+02  0.45594000000E+02  0.51100000000E-03 0.  1.
         11   -1    0    0    0    0 -0.00000000000E+00 -0.00000000000E+00 -0.45593999997E+02  0.45594000000E+02  0.51100000000E-03 0. -1.
    9900012    2    1    2    0    0  0.88262040698E+00 -0.67527075608E+00  0.39746871732E+00  0.90007749705E+02  0.90000011201E+02 0.  0.
         12    1    1    2    0    0 -0.88262040698E+00  0.67527075608E+00 -0.39746871732E+00  0.11802502947E+01  0.00000000000E+00 0. -1.
         11    1    3    3    0    0 -0.21423739785E+02 -0.16981243168E+02  0.21844649022E+02  0.34993255594E+02  0.51100000000E-03 0. -1.
        -11    1    3    3    0    0 -0.10306195871E+02  0.94358163762E+00  0.37762620241E+01  0.11016722506E+02  0.51100000000E-03 0.  1.
        -12    1    3    3    0    0  0.32612556064E+02  0.15362390774E+02 -0.25223442328E+02  0.43997771605E+02  0.00000000000E+00 0.  1.
</event>
<event>
 7    1  0.1698110E-015  0.9000778E+02  0.7816164E-02  0.1186339E+00
        -11   -1    0    0    0    0  0.00000000000E+00  0.00000000000E+00  0.45593999997E+02  0.45594000000E+02  0.51100000000E-03 0. -1.
         11   -1    0    0    0    0 -0.00000000000E+00 -0.00000000000E+00 -0.45593999997E+02  0.45594000000E+02  0.51100000000E-03 0.  1.
    9900012    2    1    2    0    0 -0.81071892149E+00  0.49171588990E+00 -0.70275391001E+00  0.90007782756E+02  0.90000044688E+02 0.  0.
         12    1    1    2    0    0  0.81071892149E+00 -0.49171588990E+00  0.70275391001E+00  0.11802172444E+01  0.00000000000E+00 0. -1.
         11    1    3    3    0    0  0.16704099953E+02  0.25659840960E+02  0.28472536611E+02  0.41810760991E+02  0.51100000000E-03 0. -1.
        -11    1    3    3    0    0  0.32054809111E+01  0.77942809989E+00 -0.84083820854E+01  0.90323588054E+01  0.51100000000E-03 0.  1.
        -12    1    3    3    0    0 -0.20720299786E+02 -0.25947553170E+02 -0.20766908436E+02  0.39164662959E+02  0.00000000000E+00 0.  1.
</event>
<event>
 7    1  0.1698110E-015  0.9000774E+02  0.7816164E-02  0.1186339E+00
        -11   -1    0    0    0    0  0.00000000000E+00  0.00000000000E+00  0.45593999997E+02  0.45594000000E+02  0.51100000000E-03 0.  1.
         11   -1    0    0    0    0 -0.00000000000E+00 -0.00000000000E+00 -0.45593999997E+02  0.45594000000E+02  0.51100000000E-03 0. -1.
    9900012    2    1    2    0    0  0.65720409226E-01  0.11565690655E+01  0.22590648524E+00  0.90007743708E+02  0.90000005125E+02 0.  0.
         12    1    1    2    0    0 -0.65720409226E-01 -0.11565690655E+01 -0.22590648524E+00  0.11802562923E+01  0.00000000000E+00 0. -1.
         11    1    3    3    0    0  0.18687595069E+00 -0.51164052843E+01 -0.82671561284E+01  0.97241141687E+01  0.51100000000E-03 0. -1.
        -11    1    3    3    0    0 -0.19090827444E+02 -0.16122805717E+02 -0.25275887796E+02  0.35542580953E+02  0.51100000000E-03 0.  1.
         12    1    3    3    0    0  0.18969671902E+02  0.22395780066E+02  0.33768950409E+02  0.44741048586E+02  0.00000000000E+00 0. -1.
</event>
<event>
 7    1  0.1698110E-015  0.9000772E+02  0.7816164E-02  0.1186339E+00
        -11   -1    0    0    0    0  0.00000000000E+00  0.00000000000E+00  0.45593999997E+02  0.45594000000E+02  0.51100000000E-03 0. -1.
         11   -1    0    0    0    0 -0.00000000000E+00 -0.00000000000E+00 -0.45593999997E+02  0.45594000000E+02  0.51100000000E-03 0.  1.
    9900012    2    1    2    0    0  0.11390886740E+01 -0.12652457134E+00 -0.28201872640E+00  0.90007717815E+02  0.89999978890E+02 0.  0.
         12    1    1    2    0    0 -0.11390886740E+01  0.12652457134E+00  0.28201872640E+00  0.11802821851E+01  0.00000000000E+00 0. -1.
         11    1    3    3    0    0 -0.30039347489E+02  0.63520742719E+01  0.26316765291E+02  0.40438637227E+02  0.51100000000E-03 0. -1.
        -11    1    3    3    0    0  0.29036772819E+01 -0.82503502191E+01  0.23579451781E+01  0.90586713275E+01  0.51100000000E-03 0.  1.
        -12    1    3    3    0    0  0.28274758881E+02  0.17717513759E+01 -0.28956729196E+02  0.40510409260E+02  0.00000000000E+00 0.  1.
</event>
<event>
 7    1  0.1698110E-015  0.9000777E+02  0.7816164E-02  0.1186339E+00
        -11   -1    0    0    0    0  0.00000000000E+00  0.00000000000E+00  0.45593999997E+02  0.45594000000E+02  0.51100000000E-03 0. -1.
         11   -1    0    0    0    0 -0.00000000000E+00 -0.00000000000E+00 -0.45593999997E+02  0.45594000000E+02  0.51100000000E-03 0.  1.
    9900012    2    1    2    0    0  0.12133655795E+00 -0.11547127149E+01 -0.21177396378E+00  0.90007774502E+02  0.90000036326E+02 0.  0.
         12    1    1    2    0    0 -0.12133655795E+00  0.11547127149E+01  0.21177396378E+00  0.11802254979E+01  0.00000000000E+00 0. -1.
         11    1    3    3    0    0  0.72304879557E+01 -0.58132630556E+01 -0.26358155607E+01  0.96447658013E+01  0.51100000000E-03 0. -1.
        -11    1    3    3    0    0 -0.17085747919E+02  0.26450414496E+02 -0.27651039652E+02  0.41906171420E+02  0.51100000000E-03 0.  1.
         12    1    3    3    0    0  0.99765965215E+01 -0.21791864156E+02  0.30075081249E+02  0.38456837281E+02  0.00000000000E+00 0. -1.
</event>
<event>
 7    1  0.1698110E-015  0.9000777E+02  0.7816164E-02  0.1186339E+00
        -11   -1    0    0    0    0  0.00000000000E+00  0.00000000000E+00  0.45593999997E+02  0.45594000000E+02  0.51100000000E-03 0.  1.
         11   -1    0    0    0    0 -0.00000000000E+00 -0.00000000000E+00 -0.45593999997E+02  0.45594000000E+02  0.51100000000E-03 0. -1.
    9900012    2    1    2    0    0 -0.73646996855E+00  0.91520992755E+00  0.11375201784E+00  0.90007772586E+02  0.90000034385E+02 0.  0.
         12    1    1    2    0    0  0.73646996855E+00 -0.91520992755E+00 -0.11375201784E+00  0.11802274135E+01  0.00000000000E+00 0. -1.
         11    1    3    3    0    0 -0.88113451654E+01 -0.16801943824E+00  0.43728964417E+01  0.98382039878E+01  0.51100000000E-03 0. -1.
        -11    1    3    3    0    0 -0.89494695669E+01 -0.22598109497E+02  0.27734130268E+02  0.36877493683E+02  0.51100000000E-03 0.  1.
         12    1    3    3    0    0  0.17024344764E+02  0.23681338863E+02 -0.31993274692E+02  0.43292074915E+02  0.00000000000E+00 0. -1.
</event>
<event>
 7    1  0.1698110E-015  0.9000772E+02  0.7816164E-02  0.1186339E+00
        -11   -1    0    0    0    0  0.00000000000E+00  0.00000000000E+00  0.45593999997E+02  0.45594000000E+02  0.51100000000E-03 0.  1.
         11   -1    0    0    0    0 -0.00000000000E+00 -0.00000000000E+00 -0.45593999997E+02  0.45594000000E+02  0.51100000000E-03 0. -1.
    9900012    2    1    2    0    0  0.79952023734E+00  0.78391612165E+00  0.37322182969E+00  0.90007723918E+02  0.89999985074E+02 0.  0.
         12    1    1    2    0    0 -0.79952023734E+00 -0.78391612165E+00 -0.37322182969E+00  0.11802760821E+01  0.00000000000E+00 0. -1.
         11    1    3    3    0    0 -0.12042448549E+02 -0.66761188051E+01  0.43981281164E+00  0.13776231884E+02  0.51100000000E-03 0. -1.
        -11    1    3    3    0    0  0.16875275528E+02  0.38805929633E+02  0.91833058807E+01  0.43301364944E+02  0.51100000000E-03 0.  1.
         12    1    3    3    0    0 -0.40333067423E+01 -0.31345894706E+02 -0.92498968626E+01  0.32930127090E+02  0.00000000000E+00 0. -1.
</event>
<event>
 7    1  0.1698110E-015  0.9000772E+02  0.7816164E-02  0.1186339E+00
        -11   -1    0    0    0    0  0.00000000000E+00  0.00000000000E+00  0.45593999997E+02  0.45594000000E+02  0.51100000000E-03 0. -1.
         11   -1    0    0    0    0 -0.00000000000E+00 -0.00000000000E+00 -0.45593999997E+02  0.45594000000E+02  0.51100000000E-03 0.  1.
    9900012    2    1    2    0    0  0.21081901024E+00  0.10993406913E+01 -0.37424029960E+00  0.90007724434E+02  0.89999985596E+02 0.  0.
         12    1    1    2    0    0 -0.21081901024E+00 -0.10993406913E+01  0.37424029960E+00  0.11802755663E+01  0.00000000000E+00 0. -1.
         11    1    3    3    0    0  0.11650491679E+02 -0.17223017674E+00 -0.25949634140E+01  0.11937229787E+02  0.51100000000E-03 0. -1.
        -11    1    3    3    0    0  0.26237764909E+02 -0.12238122575E+02 -0.17100735272E+02  0.33624798865E+02  0.51100000000E-03 0.  1.
         12    1    3    3    0    0 -0.37677437578E+02  0.13509693443E+02  0.19321458387E+02  0.44445695782E+02  0.00000000000E+00 0. -1.
</event>
<event>
 7    1  0.1698110E-015  0.9000783E+02  0.7816164E-02  0.1186339E+00
        -11   -1    0    0    0    0  0.00000000000E+00  0.00000000000E+00  0.45593999997E+02  0.45594000000E+02  0.51100000000E-03 0. -1.
         11   -1    0    0    0    0 -0.00000000000E+00 -0.00000000000E+00 -0.45593999997E+02  0.45594000000E+02  0.51100000000E-03 0.  1.
    9900012    2    1    2    0    0 -0.80018384154E+00 -0.74535664319E+00 -0.44378507505E+00  0.90007832258E+02  0.90000094844E+02 0.  0.
         12    1    1    2    0    0  0.80018384154E+00  0.74535664319E+00  0.44378507505E+00  0.11801677417E+01  0.00000000000E+00 0. -1.
         11    1    3    3    0    0 -0.83671158516E+01 -0.32179805646E+01  0.22174113945E+01  0.92347680069E+01  0.51100000000E-03 0. -1.
        -11    1    3    3    0    0 -0.59462093934E+01  0.32790701107E+02  0.21551743521E+02  0.39687090272E+02  0.51100000000E-03 0.  1.
         12    1    3    3    0    0  0.13513141403E+02 -0.30318077186E+02 -0.24212939990E+02  0.41085973979E+02  0.00000000000E+00 0. -1.
</event>
<event>
 7    1  0.1698110E-015  0.9000768E+02  0.7816164E-02  0.1186339E+00
        -11   -1    0    0    0    0  0.00000000000E+00  0.00000000000E+00  0.45593999997E+02  0.45594000000E+02  0.51100000000E-03 0.  1.
         11   -1    0    0    0    0 -0.00000000000E+00 -0.00000000000E+00 -0.45593999997E+02  0.45594000000E+02  0.51100000000E-03 0. -1.
    9900012    2    1    2    0    0  0.77646363250E-01  0.10411632704E+01  0.55054657235E+00  0.90007681635E+02  0.89999942233E+02 0.  0.
         12    1    1    2    0    0 -0.77646363250E-01 -0.10411632704E+01 -0.55054657235E+00  0.11803183645E+01  0.00000000000E+00 0. -1.
         11    1    3    3    0    0  0.19963599532E+02 -0.22362524936E+02 -0.15982048749E+02  0.33971366034E+02  0.51100000000E-03 0. -1.
        -11    1    3    3    0    0  0.95158496050E+01 -0.36026311402E+01 -0.42516077839E+01  0.11027534350E+02  0.51100000000E-03 0.  1.
        -12    1    3    3    0    0 -0.29401802774E+02  0.27006319346E+02  0.20784203105E+02  0.45008781251E+02  0.00000000000E+00 0.  1.
</event>
<event>
 7    1  0.1698110E-015  0.9000758E+02  0.7816164E-02  0.1186339E+00
        -11   -1    0    0    0    0  0.00000000000E+00  0.00000000000E+00  0.45593999997E+02  0.45594000000E+02  0.51100000000E-03 0.  1.
         11   -1    0    0    0    0 -0.00000000000E+00 -0.00000000000E+00 -0.45593999997E+02  0.45594000000E+02  0.51100000000E-03 0. -1.
    9900012    2    1    2    0    0 -0.41879228403E+00 -0.89399191120E+00  0.64713637537E+00  0.90007578888E+02  0.89999838129E+02 0.  0.
         12    1    1    2    0    0  0.41879228403E+00  0.89399191120E+00 -0.64713637537E+00  0.11804211125E+01  0.00000000000E+00 0. -1.
         11    1    3    3    0    0 -0.84249882566E+01 -0.17724595004E+01  0.26087872084E+01  0.89959885929E+01  0.51100000000E-03 0. -1.
        -11    1    3    3    0    0 -0.13312655201E+02 -0.22083685581E+02  0.27714939341E+02  0.37855433168E+02  0.51100000000E-03 0.  1.
         12    1    3    3    0    0  0.21318851174E+02  0.22962153170E+02 -0.29676590174E+02  0.43156157127E+02  0.00000000000E+00 0. -1.
</event>
<event>
 7    1  0.1698110E-015  0.9000774E+02  0.7816164E-02  0.1186339E+00
        -11   -1    0    0    0    0  0.00000000000E+00  0.00000000000E+00  0.45593999997E+02  0.45594000000E+02  0.51100000000E-03 0. -1.
         11   -1    0    0    0    0 -0.00000000000E+00 -0.00000000000E+00 -0.45593999997E+02  0.45594000000E+02  0.51100000000E-03 0.  1.
    9900012    2    1    2    0    0  0.85200625428E+00 -0.67818672740E+00 -0.45516201632E+00  0.90007735472E+02  0.89999996780E+02 0.  0.
         12    1    1    2    0    0 -0.85200625428E+00  0.67818672740E+00  0.45516201632E+00  0.11802645278E+01  0.00000000000E+00 0. -1.
         11    1    3    3    0    0 -0.15082068737E+02 -0.11463650987E+02 -0.15201784372E+02  0.24289469728E+02  0.51100000000E-03 0. -1.
        -11    1    3    3    0    0  0.86240185947E+00  0.23438620250E+02 -0.16580350082E+02  0.28723172967E+02  0.51100000000E-03 0.  1.
         12    1    3    3    0    0  0.15071673132E+02 -0.12653155990E+02  0.31326972437E+02  0.36995092777E+02  0.00000000000E+00 0. -1.
</event>
<event>
 7    1  0.1698110E-015  0.9000769E+02  0.7816164E-02  0.1186339E+00
        -11   -1    0    0    0    0  0.00000000000E+00  0.00000000000E+00  0.45593999997E+02  0.45594000000E+02  0.51100000000E-03 0.  1.
         11   -1    0    0    0    0 -0.00000000000E+00 -0.00000000000E+00 -0.45593999997E+02  0.45594000000E+02  0.51100000000E-03 0. -1.
    9900012    2    1    2    0    0  0.11799991493E+01 -0.25445960688E-01 -0.96466037512E-02  0.90007687098E+02  0.89999947768E+02 0.  0.
         12    1    1    2    0    0 -0.11799991493E+01  0.25445960688E-01  0.96466037512E-02  0.11803129018E+01  0.00000000000E+00 0. -1.
         11    1    3    3    0    0 -0.34473372470E+02 -0.20719367299E+02 -0.75807218770E+01  0.40928876544E+02  0.51100000000E-03 0. -1.
        -11    1    3    3    0    0  0.41058563768E+01 -0.33240302420E+01  0.78093056312E+01  0.94282813036E+01  0.51100000000E-03 0.  1.
        -12    1    3    3    0    0  0.31547515243E+02  0.24017951581E+02 -0.23823035798E+00  0.39650529250E+02  0.00000000000E+00 0.  1.
</event>
<event>
 7    1  0.1940310E-015  0.9000780E+02  0.7816164E-02  0.1186339E+00
        -11   -1    0    0    0    0  0.00000000000E+00  0.00000000000E+00  0.45593999997E+02  0.45594000000E+02  0.51100000000E-03 0. -1.
         11   -1    0    0    0    0 -0.00000000000E+00 -0.00000000000E+00 -0.45593999997E+02  0.45594000000E+02  0.51100000000E-03 0.  1.
    9900012    2    1    2    0    0 -0.69071181899E-01  0.10768697323E+01  0.47797677427E+00  0.90007796185E+02  0.90000058294E+02 0.  0.
         12    1    1    2    0    0  0.69071181899E-01 -0.10768697323E+01 -0.47797677427E+00  0.11802038152E+01  0.00000000000E+00 0. -1.
         11    1    3    3    0    0  0.25286062403E+01  0.23716806572E+01  0.85980010833E+01  0.92706171072E+01  0.51100000000E-03 0. -1.
        -11    1    3    3    0    0  0.54166553107E+01  0.37096093763E+02  0.80024485280E+01  0.38334051572E+02  0.51100000000E-03 0.  1.
         12    1    3    3    0    0 -0.80143327329E+01 -0.38390904688E+02 -0.16122472837E+02  0.42403127506E+02  0.00000000000E+00 0. -1.
</event>
<event>
 7    1  0.1698110E-015  0.9000775E+02  0.7816164E-02  0.1186339E+00
        -11   -1    0    0    0    0  0.00000000000E+00  0.00000000000E+00  0.45593999997E+02  0.45594000000E+02  0.51100000000E-03 0. -1.
         11   -1    0    0    0    0 -0.00000000000E+00 -0.00000000000E+00 -0.45593999997E+02  0.45594000000E+02  0.51100000000E-03 0.  1.
    9900012    2    1    2    0    0  0.87256891572E+00 -0.18116849178E+00 -0.77381166734E+00  0.90007752979E+02  0.90000014518E+02 0.  0.
         12    1    1    2    0    0 -0.87256891572E+00  0.18116849178E+00  0.77381166734E+00  0.11802470214E+01  0.00000000000E+00 0. -1.
         11    1    3    3    0    0 -0.44177216964E+00  0.84247474728E+01  0.15272834806E+02  0.17447951625E+02  0.51100000000E-03 0. -1.
        -11    1    3    3    0    0  0.21376596177E+02 -0.39516191115E+01  0.20966825813E+02  0.30202349953E+02  0.51100000000E-03 0.  1.
        -12    1    3    3    0    0 -0.20062255092E+02 -0.46542968531E+01 -0.37013472286E+02  0.42357451401E+02  0.00000000000E+00 0.  1.
</event>
<event>
 7    1  0.1698110E-015  0.9000769E+02  0.7816164E-02  0.1186339E+00
        -11   -1    0    0    0    0  0.00000000000E+00  0.00000000000E+00  0.45593999997E+02  0.45594000000E+02  0.51100000000E-03 0. -1.
         11   -1    0    0    0    0 -0.00000000000E+00 -0.00000000000E+00 -0.45593999997E+02  0.45594000000E+02  0.51100000000E-03 0.  1.
    9900012    2    1    2    0    0  0.78516175645E+00 -0.25251572075E+00 -0.84433161242E+00  0.90007686887E+02  0.89999947554E+02 0.  0.
         12    1    1    2    0    0 -0.78516175645E+00  0.25251572075E+00  0.84433161242E+00  0.11803131130E+01  0.00000000000E+00 0. -1.
         11    1    3    3    0    0  0.15352807518E+02  0.10832637848E+02  0.38971724146E+02  0.43264882117E+02  0.51100000000E-03 0. -1.
        -11    1    3    3    0    0 -0.72736007968E+01 -0.56043320637E+01 -0.44216971856E+01  0.10191428393E+02  0.51100000000E-03 0.  1.
        -12    1    3    3    0    0 -0.72940449648E+01 -0.54808215046E+01 -0.35394358572E+02  0.36551376377E+02  0.00000000000E+00 0.  1.
</event>
<event>
 7    1  0.1698110E-015  0.9000772E+02  0.7816164E-02  0.1186339E+00
        -11   -1    0    0    0    0  0.00000000000E+00  0.00000000000E+00  0.45593999997E+02  0.45594000000E+02  0.51100000000E-03 0. -1.
         11   -1    0    0    0    0 -0.00000000000E+00 -0.00000000000E+00 -0.45593999997E+02  0.45594000000E+02  0.51100000000E-03 0.  1.
    9900012    2    1    2    0    0 -0.11523905198E+01 -0.81586398201E-01 -0.24166053345E+00  0.90007720345E+02  0.89999981454E+02 0.  0.
         12    1    1    2    0    0  0.11523905198E+01  0.81586398201E-01  0.24166053345E+00  0.11802796550E+01  0.00000000000E+00 0. -1.
         11    1    3    3    0    0  0.36204985130E+01 -0.95295307569E+01  0.95151293643E+01  0.13944807385E+02  0.51100000000E-03 0. -1.
        -11    1    3    3    0    0  0.20113851575E+02  0.34600285065E+02 -0.41212106249E+01  0.40233457831E+02  0.51100000000E-03 0.  1.
         12    1    3    3    0    0 -0.24886740608E+02 -0.25152340706E+02 -0.56355792729E+01  0.35829455129E+02  0.00000000000E+00 0. -1.
</event>
<event>
 7    1  0.1698110E-015  0.9000776E+02  0.7816164E-02  0.1186339E+00
        -11   -1    0    0    0    0  0.00000000000E+00  0.00000000000E+00  0.45593999997E+02  0.45594000000E+02  0.51100000000E-03 0. -1.
         11   -1    0    0    0    0 -0.00000000000E+00 -0.00000000000E+00 -0.45593999997E+02  0.45594000000E+02  0.51100000000E-03 0.  1.
    9900012    2    1    2    0    0  0.50840124303E+00 -0.46621256414E+00 -0.95767381233E+00  0.90007760571E+02  0.90000022211E+02 0.  0.
         12    1    1    2    0    0 -0.50840124303E+00  0.46621256414E+00  0.95767381233E+00  0.11802394290E+01  0.00000000000E+00 0. -1.
         11    1    3    3    0    0  0.78796509238E+01 -0.37464537018E+02  0.10578040741E+02  0.39718703136E+02  0.51100000000E-03 0. -1.
        -11    1    3    3    0    0  0.76882888337E+01  0.32788303270E+01  0.50936821879E+01  0.97880596645E+01  0.51100000000E-03 0.  1.
        -12    1    3    3    0    0 -0.15059538514E+02  0.33719494126E+02 -0.16629396742E+02  0.40500997770E+02  0.00000000000E+00 0.  1.
</event>
<event>
 7    1  0.1698110E-015  0.9000772E+02  0.7816164E-02  0.1186339E+00
        -11   -1    0    0    0    0  0.00000000000E+00  0.00000000000E+00  0.45593999997E+02  0.45594000000E+02  0.51100000000E-03 0.  1.
         11   -1    0    0    0    0 -0.00000000000E+00 -0.00000000000E+00 -0.45593999997E+02  0.45594000000E+02  0.51100000000E-03 0. -1.
    9900012    2    1    2    0    0 -0.12145877249E+00 -0.11721290085E+01  0.66458189273E-01  0.90007722347E+02  0.89999983482E+02 0.  0.
         12    1    1    2    0    0  0.12145877249E+00  0.11721290085E+01 -0.66458189273E-01  0.11802776525E+01  0.00000000000E+00 0. -1.
         11    1    3    3    0    0  0.16475898921E+02  0.17389184739E+02 -0.21860142119E+02  0.32429998533E+02  0.51100000000E-03 0. -1.
        -11    1    3    3    0    0 -0.86345183266E+01  0.97964360911E+01 -0.82201989064E+01  0.15430383571E+02  0.51100000000E-03 0.  1.
        -12    1    3    3    0    0 -0.79628393671E+01 -0.28357749839E+02  0.30146799215E+02  0.42147340243E+02  0.00000000000E+00 0.  1.
</event>
<event>
 7    1  0.1698110E-015  0.9000772E+02  0.7816164E-02  0.1186339E+00
        -11   -1    0    0    0    0  0.00000000000E+00  0.00000000000E+00  0.45593999997E+02  0.45594000000E+02  0.51100000000E-03 0.  1.
         11   -1    0    0    0    0 -0.00000000000E+00 -0.00000000000E+00 -0.45593999997E+02  0.45594000000E+02  0.51100000000E-03 0. -1.
    9900012    2    1    2    0    0 -0.27552680846E+00  0.88864947105E-01  0.11442287820E+01  0.90007715498E+02  0.89999976542E+02 0.  0.
         12    1    1    2    0    0  0.27552680846E+00 -0.88864947105E-01 -0.11442287820E+01  0.11802845023E+01  0.00000000000E+00 0. -1.
         11    1    3    3    0    0 -0.57325320880E+01  0.51117529349E+01  0.45480294455E+01  0.89261701925E+01  0.51100000000E-03 0. -1.
        -11    1    3    3    0    0  0.30150727258E+02  0.27061142138E+02 -0.23272323549E+01  0.40580633049E+02  0.51100000000E-03 0.  1.
         12    1    3    3    0    0 -0.24693721978E+02 -0.32084030126E+02 -0.10765683086E+01  0.40500912256E+02  0.00000000000E+00 0. -1.
</event>
<event>
 7    1  0.1698110E-015  0.9000779E+02  0.7816164E-02  0.1186339E+00
        -11   -1    0    0    0    0  0.00000000000E+00  0.00000000000E+00  0.45593999997E+02  0.45594000000E+02  0.51100000000E-03 0.  1.
         11   -1    0    0    0    0 -0.00000000000E+00 -0.00000000000E+00 -0.45593999997E+02  0.45594000000E+02  0.51100000000E-03 0. -1.
    9900012    2    1    2    0    0  0.11081000454E+01 -0.28416809051E+00  0.29028962406E+00  0.90007785918E+02  0.90000047892E+02 0.  0.
         12    1    1    2    0    0 -0.11081000454E+01  0.28416809051E+00 -0.29028962406E+00  0.11802140823E+01  0.00000000000E+00 0. -1.
         11    1    3    3    0    0 -0.28506822820E+02 -0.79687904296E+01 -0.20622263275E+02  0.36075175829E+02  0.51100000000E-03 0. -1.
        -11    1    3    3    0    0 -0.76584086225E+01 -0.25539406226E+01 -0.28469750562E+01  0.85603214054E+01  0.51100000000E-03 0.  1.
        -12    1    3    3    0    0  0.37273331488E+02  0.10238562962E+02  0.23759527956E+02  0.45372288684E+02  0.00000000000E+00 0.  1.
</event>
<event>
 7    1  0.1698110E-015  0.9000776E+02  0.7816164E-02  0.1186339E+00
        -11   -1    0    0    0    0  0.00000000000E+00  0.00000000000E+00  0.45593999997E+02  0.45594000000E+02  0.51100000000E-03 0.  1.
         11   -1    0    0    0    0 -0.00000000000E+00 -0.00000000000E+00 -0.45593999997E+02  0.45594000000E+02  0.51100000000E-03 0. -1.
    9900012    2    1    2    0    0  0.33074139372E+00 -0.10052137120E+01  0.52260419816E+00  0.90007762895E+02  0.90000024565E+02 0.  0.
         12    1    1    2    0    0 -0.33074139372E+00  0.10052137120E+01 -0.52260419816E+00  0.11802371051E+01  0.00000000000E+00 0. -1.
         11    1    3    3    0    0 -0.32851848954E+02 -0.68254569915E+01 -0.20434537794E+02  0.39286144860E+02  0.51100000000E-03 0. -1.
        -11    1    3    3    0    0  0.27349282970E+01  0.57770311365E+01 -0.69338185866E+01  0.94303638315E+01  0.51100000000E-03 0.  1.
        -12    1    3    3    0    0  0.30447662051E+02  0.43212143087E-01  0.27890960579E+02  0.41291254203E+02  0.00000000000E+00 0.  1.
</event>
<event>
 7    1  0.1835591E-015  0.9000776E+02  0.7816164E-02  0.1186339E+00
        -11   -1    0    0    0    0  0.00000000000E+00  0.00000000000E+00  0.45593999997E+02  0.45594000000E+02  0.51100000000E-03 0.  1.
         11   -1    0    0    0    0 -0.00000000000E+00 -0.00000000000E+00 -0.45593999997E+02  0.45594000000E+02  0.51100000000E-03 0. -1.
    9900012    2    1    2    0    0 -0.53924297527E+00  0.89327299783E+00  0.55159482311E+00  0.90007755752E+02  0.90000017328E+02 0.  0.
         12    1    1    2    0    0  0.53924297527E+00 -0.89327299783E+00 -0.55159482311E+00  0.11802442476E+01  0.00000000000E+00 0. -1.
         11    1    3    3    0    0  0.82371780082E+01 -0.55792918351E+01  0.72459083268E+00  0.99752008028E+01  0.51100000000E-03 0. -1.
        -11    1    3    3    0    0 -0.87406525823E+01 -0.93769952538E+01  0.37248676980E+02  0.39392778330E+02  0.51100000000E-03 0.  1.
         12    1    3    3    0    0 -0.35768401171E-01  0.15849560087E+02 -0.37421672990E+02  0.40639776619E+02  0.00000000000E+00 0. -1.
</event>
<event>
 7    1  0.1698110E-015  0.9000776E+02  0.7816164E-02  0.1186339E+00
        -11   -1    0    0    0    0  0.00000000000E+00  0.00000000000E+00  0.45593999997E+02  0.45594000000E+02  0.51100000000E-03 0. -1.
         11   -1    0    0    0    0 -0.00000000000E+00 -0.00000000000E+00 -0.45593999997E+02  0.45594000000E+02  0.51100000000E-03 0.  1.
    9900012    2    1    2    0    0 -0.88130180841E+00 -0.73063467636E+00 -0.28714242143E+00  0.90007758212E+02  0.90000019820E+02 0.  0.
         12    1    1    2    0    0  0.88130180841E+00  0.73063467636E+00  0.28714242143E+00  0.11802417879E+01  0.00000000000E+00 0. -1.
         11    1    3    3    0    0  0.37321824632E+02 -0.43220094598E+01 -0.57321988348E+01  0.38006005622E+02  0.51100000000E-03 0. -1.
        -11    1    3    3    0    0  0.34062746528E+01 -0.41366349962E+01  0.79718049559E+01  0.96054219385E+01  0.51100000000E-03 0.  1.
        -12    1    3    3    0    0 -0.41609401093E+02  0.77280097797E+01 -0.25267485425E+01  0.42396330651E+02  0.00000000000E+00 0.  1.
</event>
<event>
 7    1  0.1698110E-015  0.9000774E+02  0.7816164E-02  0.1186339E+00
        -11   -1    0    0    0    0  0.00000000000E+00  0.00000000000E+00  0.45593999997E+02  0.45594000000E+02  0.51100000000E-03 0. -1.
         11   -1    0    0    0    0 -0.00000000000E+00 -0.00000000000E+00 -0.45593999997E+02  0.45594000000E+02  0.51100000000E-03 0.  1.
    9900012    2    1    2    0    0  0.32691474729E+00  0.13619728460E+00 -0.11258688416E+01  0.90007744265E+02  0.90000005689E+02 0.  0.
         12    1    1    2    0    0 -0.32691474729E+00 -0.13619728460E+00  0.11258688416E+01  0.11802557354E+01  0.00000000000E+00 0. -1.
         11    1    3    3    0    0 -0.18288724245E+02  0.61326180228E+01  0.30171286708E+02  0.35810514939E+02  0.51100000000E-03 0. -1.
        -11    1    3    3    0    0  0.28733595390E+01 -0.22610075535E+00  0.95858136755E+01  0.10009752278E+02  0.51100000000E-03 0.  1.
        -12    1    3    3    0    0  0.15742279453E+02 -0.57703199829E+01 -0.40882969225E+02  0.44187477047E+02  0.00000000000E+00 0.  1.
</event>
<event>
 7    1  0.1698110E-015  0.9000778E+02  0.7816164E-02  0.1186339E+00
        -11   -1    0    0    0    0  0.00000000000E+00  0.00000000000E+00  0.45593999997E+02  0.45594000000E+02  0.51100000000E-03 0.  1.
         11   -1    0    0    0    0 -0.00000000000E+00 -0.00000000000E+00 -0.45593999997E+02  0.45594000000E+02  0.51100000000E-03 0. -1.
    9900012    2    1    2    0    0  0.73487505806E+00  0.80856084350E+00  0.44620679064E+00  0.90007782864E+02  0.90000044798E+02 0.  0.
         12    1    1    2    0    0 -0.73487505806E+00 -0.80856084350E+00 -0.44620679064E+00  0.11802171362E+01  0.00000000000E+00 0. -1.
         11    1    3    3    0    0 -0.82512057970E+01  0.34699358286E+02 -0.14914776218E+02  0.38659777708E+02  0.51100000000E-03 0. -1.
        -11    1    3    3    0    0 -0.93363477146E+01 -0.33408768292E+01 -0.41294075463E+01  0.10741548007E+02  0.51100000000E-03 0.  1.
        -12    1    3    3    0    0  0.18322428570E+02 -0.30549920613E+02  0.19490390555E+02  0.40606457149E+02  0.00000000000E+00 0.  1.
</event>
<event>
 7    1  0.1698110E-015  0.9000776E+02  0.7816164E-02  0.1186339E+00
        -11   -1    0    0    0    0  0.00000000000E+00  0.00000000000E+00  0.45593999997E+02  0.45594000000E+02  0.51100000000E-03 0. -1.
         11   -1    0    0    0    0 -0.00000000000E+00 -0.00000000000E+00 -0.45593999997E+02  0.45594000000E+02  0.51100000000E-03 0.  1.
    9900012    2    1    2    0    0 -0.47015212894E+00  0.39929475158E+00 -0.10062198883E+01  0.90007763673E+02  0.90000025354E+02 0.  0.
         12    1    1    2    0    0  0.47015212894E+00 -0.39929475158E+00  0.10062198883E+01  0.11802363266E+01  0.00000000000E+00 0. -1.
         11    1    3    3    0    0  0.21971757361E+01  0.92536680539E+01 -0.57326085906E+01  0.11104987851E+02  0.51100000000E-03 0. -1.
        -11    1    3    3    0    0  0.16196158563E+02 -0.26084643716E+02 -0.25080313823E+02  0.39645256106E+02  0.51100000000E-03 0.  1.
         12    1    3    3    0    0 -0.18863486428E+02  0.17230270414E+02  0.29806702525E+02  0.39257519715E+02  0.00000000000E+00 0. -1.
</event>
<event>
 7    1  0.1698110E-015  0.9000774E+02  0.7816164E-02  0.1186339E+00
        -11   -1    0    0    0    0  0.00000000000E+00  0.00000000000E+00  0.45593999997E+02  0.45594000000E+02  0.51100000000E-03 0. -1.
         11   -1    0    0    0    0 -0.00000000000E+00 -0.00000000000E+00 -0.45593999997E+02  0.45594000000E+02  0.51100000000E-03 0.  1.
    9900012    2    1    2    0    0 -0.11666241151E+01 -0.15651746678E+00 -0.86601050526E-01  0.90007741857E+02  0.90000003249E+02 0.  0.
         12    1    1    2    0    0  0.11666241151E+01  0.15651746678E+00  0.86601050526E-01  0.11802581435E+01  0.00000000000E+00 0. -1.
         11    1    3    3    0    0  0.45636169500E+01  0.63760554097E+01 -0.83072215649E+01  0.11423248778E+02  0.51100000000E-03 0. -1.
        -11    1    3    3    0    0  0.47192125574E+01 -0.36629148077E+02 -0.14263442260E+02  0.39590544848E+02  0.51100000000E-03 0.  1.
         12    1    3    3    0    0 -0.10449453622E+02  0.30096575200E+02  0.22484062774E+02  0.38993948231E+02  0.00000000000E+00 0. -1.
</event>
<event>
 7    1  0.1698110E-015  0.9000775E+02  0.7816164E-02  0.1186339E+00
        -11   -1    0    0    0    0  0.00000000000E+00  0.00000000000E+00  0.45593999997E+02  0.45594000000E+02  0.51100000000E-03 0.  1.
         11   -1    0    0    0    0 -0.00000000000E+00 -0.00000000000E+00 -0.45593999997E+02  0.45594000000E+02  0.51100000000E-03 0. -1.
    9900012    2    1    2    0    0 -0.14433440306E-01 -0.77947857127E+00  0.88610767370E+00  0.90007753425E+02  0.90000014971E+02 0.  0.
         12    1    1    2    0    0  0.14433440306E-01  0.77947857127E+00 -0.88610767370E+00  0.11802465745E+01  0.00000000000E+00 0. -1.
         11    1    3    3    0    0  0.84914026659E+01 -0.42494253951E+01  0.17779573466E+01  0.96603658322E+01  0.51100000000E-03 0. -1.
        -11    1    3    3    0    0  0.14742854573E+02 -0.33531853099E+02  0.32256868018E+00  0.36631147730E+02  0.51100000000E-03 0.  1.
         12    1    3    3    0    0 -0.23248690680E+02  0.37001799923E+02 -0.12144183531E+01  0.43716239863E+02  0.00000000000E+00 0. -1.
</event>
<event>
 7    1  0.1698110E-015  0.9000775E+02  0.7816164E-02  0.1186339E+00
        -11   -1    0    0    0    0  0.00000000000E+00  0.00000000000E+00  0.45593999997E+02  0.45594000000E+02  0.51100000000E-03 0.  1.
         11   -1    0    0    0    0 -0.00000000000E+00 -0.00000000000E+00 -0.45593999997E+02  0.45594000000E+02  0.51100000000E-03 0. -1.
    9900012    2    1    2    0    0 -0.99553173734E-01 -0.29157133702E+00  0.11393237754E+01  0.90007752846E+02  0.90000014384E+02 0.  0.
         12    1    1    2    0    0  0.99553173734E-01  0.29157133702E+00 -0.11393237754E+01  0.11802471539E+01  0.00000000000E+00 0. -1.
         11    1    3    3    0    0  0.22957184294E+02  0.32506364355E+02  0.84874758928E+01  0.40690702643E+02  0.51100000000E-03 0. -1.
        -11    1    3    3    0    0 -0.26068070730E+01  0.40752030059E+01 -0.51937777317E+01  0.70977496464E+01  0.51100000000E-03 0.  1.
        -12    1    3    3    0    0 -0.20449930394E+02 -0.36873138698E+02 -0.21543743857E+01  0.42219300557E+02  0.00000000000E+00 0.  1.
</event>
<event>
 7    1  0.1698110E-015  0.9000778E+02  0.7816164E-02  0.1186339E+00
        -11   -1    0    0    0    0  0.00000000000E+00  0.00000000000E+00  0.45593999997E+02  0.45594000000E+02  0.51100000000E-03 0. -1.
         11   -1    0    0    0    0 -0.00000000000E+00 -0.00000000000E+00 -0.45593999997E+02  0.45594000000E+02  0.51100000000E-03 0.  1.
    9900012    2    1    2    0    0 -0.32991890237E+00 -0.98523994675E+00 -0.55979591358E+00  0.90007781503E+02  0.90000043419E+02 0.  0.
         12    1    1    2    0    0  0.32991890237E+00  0.98523994675E+00  0.55979591358E+00  0.11802184966E+01  0.00000000000E+00 0. -1.
         11    1    3    3    0    0  0.47520639341E+01  0.37981993799E+01  0.95854157023E+01  0.11352912605E+02  0.51100000000E-03 0. -1.
        -11    1    3    3    0    0  0.59081804539E+01 -0.39982574054E+02 -0.26362143049E-01  0.40416748007E+02  0.51100000000E-03 0.  1.
         12    1    3    3    0    0 -0.10990163290E+02  0.35199134727E+02 -0.10118849473E+02  0.38238120892E+02  0.00000000000E+00 0. -1.
</event>
<event>
 7    1  0.1698110E-015  0.9000783E+02  0.7816164E-02  0.1186339E+00
        -11   -1    0    0    0    0  0.00000000000E+00  0.00000000000E+00  0.45593999997E+02  0.45594000000E+02  0.51100000000E-03 0.  1.
         11   -1    0    0    0    0 -0.00000000000E+00 -0.00000000000E+00 -0.45593999997E+02  0.45594000000E+02  0.51100000000E-03 0. -1.
    9900012    2    1    2    0    0  0.12344262001E+00 -0.28739973448E+00  0.11379621176E+01  0.90007832864E+02  0.90000095458E+02 0.  0.
         12    1    1    2    0    0 -0.12344262001E+00  0.28739973448E+00 -0.11379621176E+01  0.11801671360E+01  0.00000000000E+00 0. -1.
         11    1    3    3    0    0 -0.12128982057E+01 -0.23143223985E+02  0.33109533776E+02  0.40414368307E+02  0.51100000000E-03 0. -1.
        -11    1    3    3    0    0  0.70788870005E+00 -0.35475598581E+01  0.37225423874E+01  0.51907234029E+01  0.51100000000E-03 0.  1.
        -12    1    3    3    0    0  0.62845212571E+00  0.26403384109E+02 -0.35694114046E+02  0.44402741154E+02  0.00000000000E+00 0.  1.
</event>
<event>
 7    1  0.1698110E-015  0.9000772E+02  0.7816164E-02  0.1186339E+00
        -11   -1    0    0    0    0  0.00000000000E+00  0.00000000000E+00  0.45593999997E+02  0.45594000000E+02  0.51100000000E-03 0. -1.
         11   -1    0    0    0    0 -0.00000000000E+00 -0.00000000000E+00 -0.45593999997E+02  0.45594000000E+02  0.51100000000E-03 0.  1.
    9900012    2    1    2    0    0 -0.10631758748E+01  0.46797552282E-01 -0.51041378180E+00  0.90007722414E+02  0.89999983550E+02 0.  0.
         12    1    1    2    0    0  0.10631758748E+01 -0.46797552282E-01  0.51041378180E+00  0.11802775862E+01  0.00000000000E+00 0. -1.
         11    1    3    3    0    0  0.25828782724E+01 -0.27344408432E+02 -0.15443534360E+02  0.31510167985E+02  0.51100000000E-03 0. -1.
        -11    1    3    3    0    0 -0.33921451593E+01 -0.11503662000E+02 -0.69570476788E+01  0.13865114527E+02  0.51100000000E-03 0.  1.
        -12    1    3    3    0    0 -0.25390898802E+00  0.38894867984E+02  0.21890168257E+02  0.44632439902E+02  0.00000000000E+00 0.  1.
</event>
<event>
 7    1  0.1698110E-015  0.9000772E+02  0.7816164E-02  0.1186339E+00
        -11   -1    0    0    0    0  0.00000000000E+00  0.00000000000E+00  0.45593999997E+02  0.45594000000E+02  0.51100000000E-03 0. -1.
         11   -1    0    0    0    0 -0.00000000000E+00 -0.00000000000E+00 -0.45593999997E+02  0.45594000000E+02  0.51100000000E-03 0.  1.
    9900012    2    1    2    0    0 -0.37069806911E+00 -0.11203891528E+01 -0.19032521625E-01  0.90007724122E+02  0.89999985280E+02 0.  0.
         12    1    1    2    0    0  0.37069806911E+00  0.11203891528E+01  0.19032521625E-01  0.11802758784E+01  0.00000000000E+00 0. -1.
         11    1    3    3    0    0 -0.23119232269E+02 -0.20784691547E+02  0.21751754808E+02  0.37942603244E+02  0.51100000000E-03 0. -1.
        -11    1    3    3    0    0  0.56308521484E+01  0.45547114712E+01  0.10364661204E+02  0.12644290990E+02  0.51100000000E-03 0.  1.
        -12    1    3    3    0    0  0.17117682052E+02  0.15109590923E+02 -0.32135448533E+02  0.39420829888E+02  0.00000000000E+00 0.  1.
</event>
<event>
 7    1  0.1698110E-015  0.9000825E+02  0.7816164E-02  0.1186338E+00
        -11   -1    0    0    0    0  0.00000000000E+00  0.00000000000E+00  0.45593999997E+02  0.45594000000E+02  0.51100000000E-03 0.  1.
         11   -1    0    0    0    0 -0.00000000000E+00 -0.00000000000E+00 -0.45593999997E+02  0.45594000000E+02  0.51100000000E-03 0. -1.
    9900012    2    1    2    0    0 -0.25331403971E-01 -0.42175166133E+00  0.11014978087E+01  0.90008248515E+02  0.90000516594E+02 0.  0.
         12    1    1    2    0    0  0.25331403971E-01  0.42175166133E+00 -0.11014978087E+01  0.11797514850E+01  0.00000000000E+00 0. -1.
         11    1    3    3    0    0 -0.19549768742E-01 -0.44768856417E+01  0.88461987942E+01  0.99145408673E+01  0.51100000000E-03 0. -1.
        -11    1    3    3    0    0  0.23494497641E+02  0.34166730019E+02 -0.25211042180E+01  0.41541699849E+02  0.51100000000E-03 0.  1.
         12    1    3    3    0    0 -0.23500279276E+02 -0.30111596039E+02 -0.52235967675E+01  0.38552007798E+02  0.00000000000E+00 0. -1.
</event>
<event>
 7    1  0.1698110E-015  0.9000766E+02  0.7816164E-02  0.1186339E+00
        -11   -1    0    0    0    0  0.00000000000E+00  0.00000000000E+00  0.45593999997E+02  0.45594000000E+02  0.51100000000E-03 0.  1.
         11   -1    0    0    0    0 -0.00000000000E+00 -0.00000000000E+00 -0.45593999997E+02  0.45594000000E+02  0.51100000000E-03 0. -1.
    9900012    2    1    2    0    0 -0.88459168769E+00  0.19326076260E+00  0.75720293065E+00  0.90007657484E+02  0.89999917763E+02 0.  0.
         12    1    1    2    0    0  0.88459168769E+00 -0.19326076260E+00 -0.75720293065E+00  0.11803425157E+01  0.00000000000E+00 0. -1.
         11    1    3    3    0    0  0.77669956963E+01  0.28715219931E+02 -0.72985639061E+01  0.30629383167E+02  0.51100000000E-03 0. -1.
        -11    1    3    3    0    0 -0.58357705009E+01  0.14412091055E+02 -0.28312250420E+00  0.15551358286E+02  0.51100000000E-03 0.  1.
        -12    1    3    3    0    0 -0.28158168831E+01 -0.42934050224E+02  0.83388893410E+01  0.43826916031E+02  0.00000000000E+00 0.  1.
</event>
<event>
 7    1  0.1698110E-015  0.9000773E+02  0.7816164E-02  0.1186339E+00
        -11   -1    0    0    0    0  0.00000000000E+00  0.00000000000E+00  0.45593999997E+02  0.45594000000E+02  0.51100000000E-03 0.  1.
         11   -1    0    0    0    0 -0.00000000000E+00 -0.00000000000E+00 -0.45593999997E+02  0.45594000000E+02  0.51100000000E-03 0. -1.
    9900012    2    1    2    0    0  0.28188514497E+00  0.10116499930E+01  0.53864072097E+00  0.90007733602E+02  0.89999994886E+02 0.  0.
         12    1    1    2    0    0 -0.28188514497E+00 -0.10116499930E+01 -0.53864072097E+00  0.11802663977E+01  0.00000000000E+00 0. -1.
         11    1    3    3    0    0 -0.36944514161E+01 -0.72211808311E+01 -0.36365994692E+01  0.88892789258E+01  0.51100000000E-03 0. -1.
        -11    1    3    3    0    0  0.20107113200E+02 -0.26086267610E+02  0.21598451760E+02  0.39386323486E+02  0.51100000000E-03 0.  1.
         12    1    3    3    0    0 -0.16130776639E+02  0.34319098434E+02 -0.17423211570E+02  0.41732131191E+02  0.00000000000E+00 0. -1.
</event>
<event>
 7    1  0.1698110E-015  0.9000777E+02  0.7816164E-02  0.1186339E+00
        -11   -1    0    0    0    0  0.00000000000E+00  0.00000000000E+00  0.45593999997E+02  0.45594000000E+02  0.51100000000E-03 0.  1.
         11   -1    0    0    0    0 -0.00000000000E+00 -0.00000000000E+00 -0.45593999997E+02  0.45594000000E+02  0.51100000000E-03 0. -1.
    9900012    2    1    2    0    0 -0.24515932069E-01  0.92088592232E+00  0.73777721072E+00  0.90007768190E+02  0.90000029930E+02 0.  0.
         12    1    1    2    0    0  0.24515932069E-01 -0.92088592232E+00 -0.73777721072E+00  0.11802318101E+01  0.00000000000E+00 0. -1.
         11    1    3    3    0    0  0.34758411747E+02 -0.12739548758E+01 -0.82946083797E+01  0.35757106659E+02  0.51100000000E-03 0. -1.
        -11    1    3    3    0    0  0.91211789718E+01  0.22530028574E+01 -0.15023275647E+00  0.93965151973E+01  0.51100000000E-03 0.  1.
        -12    1    3    3    0    0 -0.43904106651E+02 -0.58162059340E-01  0.91826183469E+01  0.44854146334E+02  0.00000000000E+00 0.  1.
</event>
<event>
 7    1  0.1698110E-015  0.9000780E+02  0.7816164E-02  0.1186339E+00
        -11   -1    0    0    0    0  0.00000000000E+00  0.00000000000E+00  0.45593999997E+02  0.45594000000E+02  0.51100000000E-03 0.  1.
         11   -1    0    0    0    0 -0.00000000000E+00 -0.00000000000E+00 -0.45593999997E+02  0.45594000000E+02  0.51100000000E-03 0. -1.
    9900012    2    1    2    0    0 -0.40878795262E+00 -0.10458945170E+01 -0.36312673238E+00  0.90007803425E+02  0.90000065631E+02 0.  0.
         12    1    1    2    0    0  0.40878795262E+00  0.10458945170E+01  0.36312673238E+00  0.11801965746E+01  0.00000000000E+00 0. -1.
         11    1    3    3    0    0 -0.33190269058E+01  0.16045313464E+02  0.25091844352E+02  0.29967793996E+02  0.51100000000E-03 0. -1.
        -11    1    3    3    0    0  0.23624732891E+02 -0.40201752667E+01  0.10025327950E+01  0.23985305619E+02  0.51100000000E-03 0.  1.
         12    1    3    3    0    0 -0.20714493938E+02 -0.13071032715E+02 -0.26457503879E+02  0.36054703810E+02  0.00000000000E+00 0. -1.
</event>
<event>
 7    1  0.1698110E-015  0.9000768E+02  0.7816164E-02  0.1186339E+00
        -11   -1    0    0    0    0  0.00000000000E+00  0.00000000000E+00  0.45593999997E+02  0.45594000000E+02  0.51100000000E-03 0.  1.
         11   -1    0    0    0    0 -0.00000000000E+00 -0.00000000000E+00 -0.45593999997E+02  0.45594000000E+02  0.51100000000E-03 0. -1.
    9900012    2    1    2    0    0  0.63315820160E+00 -0.63569172645E+00  0.76692133290E+00  0.90007677328E+02  0.89999937869E+02 0.  0.
         12    1    1    2    0    0 -0.63315820160E+00  0.63569172645E+00 -0.76692133290E+00  0.11803226721E+01  0.00000000000E+00 0. -1.
         11    1    3    3    0    0 -0.13051045402E+02  0.72120820114E+01  0.96647551648E+01  0.17769395198E+02  0.51100000000E-03 0. -1.
        -11    1    3    3    0    0  0.23595369776E+01 -0.95240625347E+01  0.30066472467E+02  0.31627012960E+02  0.51100000000E-03 0.  1.
         12    1    3    3    0    0  0.11324666626E+02  0.16762887968E+01 -0.38964306298E+02  0.40611269171E+02  0.00000000000E+00 0. -1.
</event>
<event>
 7    1  0.1698110E-015  0.9000773E+02  0.7816164E-02  0.1186339E+00
        -11   -1    0    0    0    0  0.00000000000E+00  0.00000000000E+00  0.45593999997E+02  0.45594000000E+02  0.51100000000E-03 0. -1.
         11   -1    0    0    0    0 -0.00000000000E+00 -0.00000000000E+00 -0.45593999997E+02  0.45594000000E+02  0.51100000000E-03 0.  1.
    9900012    2    1    2    0    0 -0.89349692249E+00 -0.17716002879E+00 -0.75053942096E+00  0.90007732298E+02  0.89999993564E+02 0.  0.
         12    1    1    2    0    0  0.89349692249E+00  0.17716002879E+00  0.75053942096E+00  0.11802677021E+01  0.00000000000E+00 0. -1.
         11    1    3    3    0    0 -0.27135266823E+02 -0.18052323494E+02  0.78432360149E+01  0.33522014267E+02  0.51100000000E-03 0. -1.
        -11    1    3    3    0    0 -0.42143476698E-01 -0.91735582982E+01  0.10722479204E+02  0.14111254674E+02  0.51100000000E-03 0.  1.
        -12    1    3    3    0    0  0.26283913377E+02  0.27048721763E+02 -0.19316254640E+02  0.42374463357E+02  0.00000000000E+00 0.  1.
</event>
<event>
 7    1  0.1698110E-015  0.9000773E+02  0.7816164E-02  0.1186339E+00
        -11   -1    0    0    0    0  0.00000000000E+00  0.00000000000E+00  0.45593999997E+02  0.45594000000E+02  0.51100000000E-03 0.  1.
         11   -1    0    0    0    0 -0.00000000000E+00 -0.00000000000E+00 -0.45593999997E+02  0.45594000000E+02  0.51100000000E-03 0. -1.
    9900012    2    1    2    0    0 -0.48390386150E+00  0.10060826072E+01 -0.38298428640E+00  0.90007727945E+02  0.89999989154E+02 0.  0.
         12    1    1    2    0    0  0.48390386150E+00 -0.10060826072E+01  0.38298428640E+00  0.11802720547E+01  0.00000000000E+00 0. -1.
         11    1    3    3    0    0  0.28762641039E+02 -0.22540229597E+02 -0.11951562832E+02  0.38447253793E+02  0.51100000000E-03 0. -1.
        -11    1    3    3    0    0  0.70138320580E+01  0.75725474139E+01  0.14136267171E+00  0.10322659451E+02  0.51100000000E-03 0.  1.
        -12    1    3    3    0    0 -0.36260376958E+02  0.15973764790E+02  0.11427215874E+02  0.41237814702E+02  0.00000000000E+00 0.  1.
</event>
<event>
 7    1  0.1698110E-015  0.9000773E+02  0.7816164E-02  0.1186339E+00
        -11   -1    0    0    0    0  0.00000000000E+00  0.00000000000E+00  0.45593999997E+02  0.45594000000E+02  0.51100000000E-03 0.  1.
         11   -1    0    0    0    0 -0.00000000000E+00 -0.00000000000E+00 -0.45593999997E+02  0.45594000000E+02  0.51100000000E-03 0. -1.
    9900012    2    1    2    0    0 -0.84617880624E+00  0.37237462581E+00  0.73372738320E+00  0.90007729986E+02  0.89999991221E+02 0.  0.
         12    1    1    2    0    0  0.84617880624E+00 -0.37237462581E+00 -0.73372738320E+00  0.11802700144E+01  0.00000000000E+00 0. -1.
         11    1    3    3    0    0 -0.51638294216E+01 -0.54626244462E+01  0.69674261901E+01  0.10249411110E+02  0.51100000000E-03 0. -1.
        -11    1    3    3    0    0  0.63826207665E+01 -0.31881695572E+02  0.15670552103E+02  0.36093580647E+02  0.51100000000E-03 0.  1.
         12    1    3    3    0    0 -0.20649701512E+01  0.37716694644E+02 -0.21904250910E+02  0.43664738228E+02  0.00000000000E+00 0. -1.
</event>
<event>
 7    1  0.1698110E-015  0.9000777E+02  0.7816164E-02  0.1186339E+00
        -11   -1    0    0    0    0  0.00000000000E+00  0.00000000000E+00  0.45593999997E+02  0.45594000000E+02  0.51100000000E-03 0. -1.
         11   -1    0    0    0    0 -0.00000000000E+00 -0.00000000000E+00 -0.45593999997E+02  0.45594000000E+02  0.51100000000E-03 0.  1.
    9900012    2    1    2    0    0  0.39512202385E+00  0.10166194860E+01 -0.45090639637E+00  0.90007765629E+02  0.90000027335E+02 0.  0.
         12    1    1    2    0    0 -0.39512202385E+00 -0.10166194860E+01  0.45090639637E+00  0.11802343714E+01  0.00000000000E+00 0. -1.
         11    1    3    3    0    0 -0.11848868406E+02  0.68983185644E+00 -0.63065296388E+01  0.13440381946E+02  0.51100000000E-03 0. -1.
        -11    1    3    3    0    0 -0.25577361655E+02 -0.19130849166E+01  0.23487283550E+02  0.34778065098E+02  0.51100000000E-03 0.  1.
         12    1    3    3    0    0  0.37821352085E+02  0.22398725462E+01 -0.17631660308E+02  0.41789318585E+02  0.00000000000E+00 0. -1.
</event>
<event>
 7    1  0.1698110E-015  0.9000812E+02  0.7816164E-02  0.1186338E+00
        -11   -1    0    0    0    0  0.00000000000E+00  0.00000000000E+00  0.45593999997E+02  0.45594000000E+02  0.51100000000E-03 0.  1.
         11   -1    0    0    0    0 -0.00000000000E+00 -0.00000000000E+00 -0.45593999997E+02  0.45594000000E+02  0.51100000000E-03 0. -1.
    9900012    2    1    2    0    0 -0.24311362012E+00 -0.13109939308E+00  0.11470894720E+01  0.90008124778E+02  0.90000391224E+02 0.  0.
         12    1    1    2    0    0  0.24311362012E+00  0.13109939308E+00 -0.11470894720E+01  0.11798752222E+01  0.00000000000E+00 0. -1.
         11    1    3    3    0    0 -0.18269805358E+01  0.22768549602E+02 -0.28575539681E+02  0.36582867263E+02  0.51100000000E-03 0. -1.
        -11    1    3    3    0    0 -0.59778461259E+01  0.62128439597E+00 -0.69615551319E+01  0.91969499684E+01  0.51100000000E-03 0.  1.
        -12    1    3    3    0    0  0.75617130416E+01 -0.23520933391E+02  0.36684184285E+02  0.44228307546E+02  0.00000000000E+00 0.  1.
</event>
<event>
 7    1  0.1698110E-015  0.9000801E+02  0.7816164E-02  0.1186339E+00
        -11   -1    0    0    0    0  0.00000000000E+00  0.00000000000E+00  0.45593999997E+02  0.45594000000E+02  0.51100000000E-03 0.  1.
         11   -1    0    0    0    0 -0.00000000000E+00 -0.00000000000E+00 -0.45593999997E+02  0.45594000000E+02  0.51100000000E-03 0. -1.
    9900012    2    1    2    0    0  0.58943237804E+00 -0.29030601801E-01  0.10218177712E+01  0.90008006415E+02  0.90000271299E+02 0.  0.
         12    1    1    2    0    0 -0.58943237804E+00  0.29030601801E-01 -0.10218177712E+01  0.11799935854E+01  0.00000000000E+00 0. -1.
         11    1    3    3    0    0 -0.12534220174E+02  0.32860654568E+02 -0.13891268147E+02  0.37813973938E+02  0.51100000000E-03 0. -1.
        -11    1    3    3    0    0 -0.37144992128E+01  0.20132947587E+01 -0.66257718080E+01  0.78582257858E+01  0.51100000000E-03 0.  1.
        -12    1    3    3    0    0  0.16838151765E+02 -0.34902979929E+02  0.21538857726E+02  0.44335806690E+02  0.00000000000E+00 0.  1.
</event>
<event>
 7    1  0.1698110E-015  0.9000771E+02  0.7816164E-02  0.1186339E+00
        -11   -1    0    0    0    0  0.00000000000E+00  0.00000000000E+00  0.45593999997E+02  0.45594000000E+02  0.51100000000E-03 0. -1.
         11   -1    0    0    0    0 -0.00000000000E+00 -0.00000000000E+00 -0.45593999997E+02  0.45594000000E+02  0.51100000000E-03 0.  1.
    9900012    2    1    2    0    0 -0.93512229631E+00  0.16435681169E+00 -0.70115157316E+00  0.90007711730E+02  0.89999972725E+02 0.  0.
         12    1    1    2    0    0  0.93512229631E+00 -0.16435681169E+00  0.70115157316E+00  0.11802882695E+01  0.00000000000E+00 0. -1.
         11    1    3    3    0    0 -0.21218731162E+02  0.13443889082E+02  0.26158278536E+02  0.36266075636E+02  0.51100000000E-03 0. -1.
        -11    1    3    3    0    0 -0.35310124234E+01 -0.10509974890E+01  0.85740987081E+01  0.93320851568E+01  0.51100000000E-03 0.  1.
        -12    1    3    3    0    0  0.23814621289E+02 -0.12228534782E+02 -0.35433528818E+02  0.44409550938E+02  0.00000000000E+00 0.  1.
</event>
<event>
 7    1  0.1698110E-015  0.9000779E+02  0.7816164E-02  0.1186339E+00
        -11   -1    0    0    0    0  0.00000000000E+00  0.00000000000E+00  0.45593999997E+02  0.45594000000E+02  0.51100000000E-03 0. -1.
         11   -1    0    0    0    0 -0.00000000000E+00 -0.00000000000E+00 -0.45593999997E+02  0.45594000000E+02  0.51100000000E-03 0.  1.
    9900012    2    1    2    0    0  0.35140382592E+00  0.11254864532E+01  0.51827152100E-01  0.90007792197E+02  0.90000054254E+02 0.  0.
         12    1    1    2    0    0 -0.35140382592E+00 -0.11254864532E+01 -0.51827152100E-01  0.11802078032E+01  0.00000000000E+00 0. -1.
         11    1    3    3    0    0 -0.63897340246E+01  0.11973577448E+02  0.22766364941E+01  0.13761480000E+02  0.51100000000E-03 0. -1.
        -11    1    3    3    0    0  0.24317505434E+02 -0.96589602803E+01 -0.32192090112E+02  0.41484542305E+02  0.51100000000E-03 0.  1.
         12    1    3    3    0    0 -0.17576367583E+02 -0.11891307146E+01  0.29967280770E+02  0.34761769892E+02  0.00000000000E+00 0. -1.
</event>
<event>
 7    1  0.1698110E-015  0.9000777E+02  0.7816164E-02  0.1186339E+00
        -11   -1    0    0    0    0  0.00000000000E+00  0.00000000000E+00  0.45593999997E+02  0.45594000000E+02  0.51100000000E-03 0. -1.
         11   -1    0    0    0    0 -0.00000000000E+00 -0.00000000000E+00 -0.45593999997E+02  0.45594000000E+02  0.51100000000E-03 0.  1.
    9900012    2    1    2    0    0 -0.63637995663E+00  0.45284893525E+00 -0.88481271580E+00  0.90007769027E+02  0.90000030778E+02 0.  0.
         12    1    1    2    0    0  0.63637995663E+00 -0.45284893525E+00  0.88481271580E+00  0.11802309729E+01  0.00000000000E+00 0. -1.
         11    1    3    3    0    0 -0.32713506388E+01  0.99900129309E+01 -0.34545400284E+02  0.36109372390E+02  0.51100000000E-03 0. -1.
        -11    1    3    3    0    0 -0.52277468038E+01  0.13019161771E+01 -0.82764452179E+01  0.98754173625E+01  0.51100000000E-03 0.  1.
        -12    1    3    3    0    0  0.78627174860E+01 -0.10839080173E+02  0.41937032786E+02  0.44022979274E+02  0.00000000000E+00 0.  1.
</event>
<event>
 7    1  0.1698110E-015  0.9000789E+02  0.7816164E-02  0.1186339E+00
        -11   -1    0    0    0    0  0.00000000000E+00  0.00000000000E+00  0.45593999997E+02  0.45594000000E+02  0.51100000000E-03 0.  1.
         11   -1    0    0    0    0 -0.00000000000E+00 -0.00000000000E+00 -0.45593999997E+02  0.45594000000E+02  0.51100000000E-03 0. -1.
    9900012    2    1    2    0    0  0.60141634049E+00  0.89807139542E+00 -0.47373485808E+00  0.90007890445E+02  0.90000153799E+02 0.  0.
         12    1    1    2    0    0 -0.60141634049E+00 -0.89807139542E+00  0.47373485808E+00  0.11801095549E+01  0.00000000000E+00 0. -1.
         11    1    3    3    0    0  0.31589796619E+01 -0.35545038792E+01  0.83325653926E+01  0.95940240053E+01  0.51100000000E-03 0. -1.
        -11    1    3    3    0    0  0.85297006059E+01 -0.32336522393E+02 -0.21721703077E+02  0.39877799058E+02  0.51100000000E-03 0.  1.
         12    1    3    3    0    0 -0.11087263927E+02  0.36789097668E+02  0.12915402826E+02  0.40536067382E+02  0.00000000000E+00 0. -1.
</event>
<event>
 7    1  0.1698110E-015  0.9000784E+02  0.7816164E-02  0.1186339E+00
        -11   -1    0    0    0    0  0.00000000000E+00  0.00000000000E+00  0.45593999997E+02  0.45594000000E+02  0.51100000000E-03 0.  1.
         11   -1    0    0    0    0 -0.00000000000E+00 -0.00000000000E+00 -0.45593999997E+02  0.45594000000E+02  0.51100000000E-03 0. -1.
    9900012    2    1    2    0    0  0.78787794653E+00 -0.81084403699E+00  0.33847162075E+00  0.90007837829E+02  0.90000100489E+02 0.  0.
         12    1    1    2    0    0 -0.78787794653E+00  0.81084403699E+00 -0.33847162075E+00  0.11801621706E+01  0.00000000000E+00 0. -1.
         11    1    3    3    0    0 -0.35101430706E+02  0.61300227981E+00  0.44179397732E+01  0.35383674223E+02  0.51100000000E-03 0. -1.
        -11    1    3    3    0    0 -0.83369893122E+01 -0.22895857771E+00  0.46204092210E+01  0.95344635115E+01  0.51100000000E-03 0.  1.
        -12    1    3    3    0    0  0.44226297965E+02 -0.11948877391E+01 -0.86998773734E+01  0.45089700095E+02  0.00000000000E+00 0.  1.
</event>
<event>
 7    1  0.1698110E-015  0.9000775E+02  0.7816164E-02  0.1186339E+00
        -11   -1    0    0    0    0  0.00000000000E+00  0.00000000000E+00  0.45593999997E+02  0.45594000000E+02  0.51100000000E-03 0.  1.
         11   -1    0    0    0    0 -0.00000000000E+00 -0.00000000000E+00 -0.45593999997E+02  0.45594000000E+02  0.51100000000E-03 0. -1.
    9900012    2    1    2    0    0 -0.62500871719E+00  0.99380896647E+00 -0.12125195919E+00  0.90007748249E+02  0.90000009726E+02 0.  0.
         12    1    1    2    0    0  0.62500871719E+00 -0.99380896647E+00  0.12125195919E+00  0.11802517511E+01  0.00000000000E+00 0. -1.
         11    1    3    3    0    0  0.23081398274E+01 -0.39943149601E+01  0.66036180003E+01  0.80554225475E+01  0.51100000000E-03 0. -1.
        -11    1    3    3    0    0 -0.16889012081E+02 -0.12918839933E+01  0.34251778879E+02  0.38211150859E+02  0.51100000000E-03 0.  1.
         12    1    3    3    0    0  0.13955863536E+02  0.62800079199E+01 -0.40976648839E+02  0.43741174842E+02  0.00000000000E+00 0. -1.
</event>
<event>
 7    1  0.1698110E-015  0.9000776E+02  0.7816164E-02  0.1186339E+00
        -11   -1    0    0    0    0  0.00000000000E+00  0.00000000000E+00  0.45593999997E+02  0.45594000000E+02  0.51100000000E-03 0. -1.
         11   -1    0    0    0    0 -0.00000000000E+00 -0.00000000000E+00 -0.45593999997E+02  0.45594000000E+02  0.51100000000E-03 0.  1.
    9900012    2    1    2    0    0 -0.76381553494E-01  0.51073118773E+00 -0.10612658024E+01  0.90007760367E+02  0.90000022004E+02 0.  0.
         12    1    1    2    0    0  0.76381553494E-01 -0.51073118773E+00  0.10612658024E+01  0.11802396329E+01  0.00000000000E+00 0. -1.
         11    1    3    3    0    0  0.11165485800E+01 -0.41143044289E+01 -0.78570403524E+01  0.89390863641E+01  0.51100000000E-03 0. -1.
        -11    1    3    3    0    0 -0.50588867587E+01 -0.26766063879E+02 -0.24454147303E+02  0.36606281310E+02  0.51100000000E-03 0.  1.
         12    1    3    3    0    0  0.38659566252E+01  0.31391099495E+02  0.31249921853E+02  0.44462392693E+02  0.00000000000E+00 0. -1.
</event>
<event>
 7    1  0.1698110E-015  0.9000797E+02  0.7816164E-02  0.1186339E+00
        -11   -1    0    0    0    0  0.00000000000E+00  0.00000000000E+00  0.45593999997E+02  0.45594000000E+02  0.51100000000E-03 0. -1.
         11   -1    0    0    0    0 -0.00000000000E+00 -0.00000000000E+00 -0.45593999997E+02  0.45594000000E+02  0.51100000000E-03 0.  1.
    9900012    2    1    2    0    0  0.67389868206E+00 -0.55562185082E+00 -0.79348946733E+00  0.90007965844E+02  0.90000230193E+02 0.  0.
         12    1    1    2    0    0 -0.67389868206E+00  0.55562185082E+00  0.79348946733E+00  0.11800341561E+01  0.00000000000E+00 0. -1.
         11    1    3    3    0    0 -0.57147434970E+01  0.58969241259E+01  0.37742938821E+02  0.38625916668E+02  0.51100000000E-03 0. -1.
        -11    1    3    3    0    0  0.12534970578E+01  0.84126055409E+01  0.12529517719E+01  0.85972713848E+01  0.51100000000E-03 0.  1.
        -12    1    3    3    0    0  0.51351451212E+01 -0.14865151518E+02 -0.39789380060E+02  0.42784777791E+02  0.00000000000E+00 0.  1.
</event>
<event>
 7    1  0.1698110E-015  0.9000814E+02  0.7816164E-02  0.1186338E+00
        -11   -1    0    0    0    0  0.00000000000E+00  0.00000000000E+00  0.45593999997E+02  0.45594000000E+02  0.51100000000E-03 0.  1.
         11   -1    0    0    0    0 -0.00000000000E+00 -0.00000000000E+00 -0.45593999997E+02  0.45594000000E+02  0.51100000000E-03 0. -1.
    9900012    2    1    2    0    0  0.10760699449E+00 -0.45612525368E+00  0.10827948032E+01  0.90008138102E+02  0.90000404724E+02 0.  0.
         12    1    1    2    0    0 -0.10760699449E+00  0.45612525368E+00 -0.10827948032E+01  0.11798618979E+01  0.00000000000E+00 0. -1.
         11    1    3    3    0    0 -0.79232764815E+01  0.35082545709E+02 -0.17354527862E+02  0.39934232948E+02  0.51100000000E-03 0. -1.
        -11    1    3    3    0    0 -0.17176710583E+01 -0.84699786954E+00  0.13577993948E+02  0.13712392904E+02  0.51100000000E-03 0.  1.
        -12    1    3    3    0    0  0.97485545344E+01 -0.34691673093E+02  0.48593287171E+01  0.36361512250E+02  0.00000000000E+00 0.  1.
</event>
<event>
 7    1  0.1698110E-015  0.9000770E+02  0.7816164E-02  0.1186339E+00
        -11   -1    0    0    0    0  0.00000000000E+00  0.00000000000E+00  0.45593999997E+02  0.45594000000E+02  0.51100000000E-03 0.  1.
         11   -1    0    0    0    0 -0.00000000000E+00 -0.00000000000E+00 -0.45593999997E+02  0.45594000000E+02  0.51100000000E-03 0. -1.
    9900012    2    1    2    0    0 -0.26065300542E+00 -0.92205619984E+00  0.68918706576E+00  0.90007700700E+02  0.89999961550E+02 0.  0.
         12    1    1    2    0    0  0.26065300542E+00  0.92205619984E+00 -0.68918706576E+00  0.11802992995E+01  0.00000000000E+00 0. -1.
         11    1    3    3    0    0  0.88455771561E+00  0.10430798117E+02  0.50319163318E+01  0.11614825609E+02  0.51100000000E-03 0. -1.
        -11    1    3    3    0    0 -0.28946934139E+01  0.32558978099E+02  0.60293139022E+01  0.33238816633E+02  0.51100000000E-03 0.  1.
         12    1    3    3    0    0  0.17494826929E+01 -0.43911832415E+02 -0.10372043168E+02  0.45154058458E+02  0.00000000000E+00 0. -1.
</event>
<event>
 7    1  0.1698110E-015  0.9000780E+02  0.7816164E-02  0.1186339E+00
        -11   -1    0    0    0    0  0.00000000000E+00  0.00000000000E+00  0.45593999997E+02  0.45594000000E+02  0.51100000000E-03 0. -1.
         11   -1    0    0    0    0 -0.00000000000E+00 -0.00000000000E+00 -0.45593999997E+02  0.45594000000E+02  0.51100000000E-03 0.  1.
    9900012    2    1    2    0    0  0.65894725203E+00  0.67959554604E+00 -0.70484508460E+00  0.90007801635E+02  0.90000063817E+02 0.  0.
         12    1    1    2    0    0 -0.65894725203E+00 -0.67959554604E+00  0.70484508460E+00  0.11801983649E+01  0.00000000000E+00 0. -1.
         11    1    3    3    0    0  0.35177914409E+01  0.21096744287E+02  0.25787329367E+02  0.33502743653E+02  0.51100000000E-03 0. -1.
        -11    1    3    3    0    0  0.94131043499E+01  0.46083983453E+01  0.72468277856E+01  0.12742071340E+02  0.51100000000E-03 0.  1.
        -12    1    3    3    0    0 -0.12271948539E+02 -0.25025547087E+02 -0.33739002237E+02  0.43762986642E+02  0.00000000000E+00 0.  1.
</event>
<event>
 7    1  0.1698110E-015  0.9000774E+02  0.7816164E-02  0.1186339E+00
        -11   -1    0    0    0    0  0.00000000000E+00  0.00000000000E+00  0.45593999997E+02  0.45594000000E+02  0.51100000000E-03 0. -1.
         11   -1    0    0    0    0 -0.00000000000E+00 -0.00000000000E+00 -0.45593999997E+02  0.45594000000E+02  0.51100000000E-03 0.  1.
    9900012    2    1    2    0    0 -0.25353008549E+00 -0.42206198350E+00 -0.10726604919E+01  0.90007739710E+02  0.90000001074E+02 0.  0.
         12    1    1    2    0    0  0.25353008549E+00  0.42206198350E+00  0.10726604919E+01  0.11802602903E+01  0.00000000000E+00 0. -1.
         11    1    3    3    0    0 -0.29077591956E+02  0.18919030691E+02  0.23538630960E+02  0.41922586084E+02  0.51100000000E-03 0. -1.
        -11    1    3    3    0    0 -0.26998798068E+01  0.79107341020E+00 -0.52757576131E+01  0.59790272423E+01  0.51100000000E-03 0.  1.
        -12    1    3    3    0    0  0.31523941677E+02 -0.20132166085E+02 -0.19335533839E+02  0.42106126383E+02  0.00000000000E+00 0.  1.
</event>
<event>
 7    1  0.1698110E-015  0.9000779E+02  0.7816164E-02  0.1186339E+00
        -11   -1    0    0    0    0  0.00000000000E+00  0.00000000000E+00  0.45593999997E+02  0.45594000000E+02  0.51100000000E-03 0.  1.
         11   -1    0    0    0    0 -0.00000000000E+00 -0.00000000000E+00 -0.45593999997E+02  0.45594000000E+02  0.51100000000E-03 0. -1.
    9900012    2    1    2    0    0 -0.47522745392E+00  0.98008910725E+00  0.45439505074E+00  0.90007792114E+02  0.90000054170E+02 0.  0.
         12    1    1    2    0    0  0.47522745392E+00 -0.98008910725E+00 -0.45439505074E+00  0.11802078856E+01  0.00000000000E+00 0. -1.
         11    1    3    3    0    0  0.90507002454E+01  0.21844056020E+02  0.22261642536E+02  0.32475509034E+02  0.51100000000E-03 0. -1.
        -11    1    3    3    0    0  0.78524781749E+00  0.58936283770E+01  0.11884914191E+02  0.13289193172E+02  0.51100000000E-03 0.  1.
        -12    1    3    3    0    0 -0.10311175517E+02 -0.26757595289E+02 -0.33692161677E+02  0.44243089908E+02  0.00000000000E+00 0.  1.
</event>
<event>
 7    1  0.1698110E-015  0.9000789E+02  0.7816164E-02  0.1186339E+00
        -11   -1    0    0    0    0  0.00000000000E+00  0.00000000000E+00  0.45593999997E+02  0.45594000000E+02  0.51100000000E-03 0. -1.
         11   -1    0    0    0    0 -0.00000000000E+00 -0.00000000000E+00 -0.45593999997E+02  0.45594000000E+02  0.51100000000E-03 0.  1.
    9900012    2    1    2    0    0  0.16292304905E+00  0.46053426709E+00 -0.10742565728E+01  0.90007888600E+02  0.90000151930E+02 0.  0.
         12    1    1    2    0    0 -0.16292304905E+00 -0.46053426709E+00  0.10742565728E+01  0.11801113995E+01  0.00000000000E+00 0. -1.
         11    1    3    3    0    0 -0.24872302167E+02  0.10338478006E+02  0.24670816775E+02  0.36526219941E+02  0.51100000000E-03 0. -1.
        -11    1    3    3    0    0 -0.20602226656E+01  0.56943247480E+01  0.62876596703E+01  0.87295198126E+01  0.51100000000E-03 0.  1.
        -12    1    3    3    0    0  0.27095447882E+02 -0.15572268487E+02 -0.32032733018E+02  0.44752148847E+02  0.00000000000E+00 0.  1.
</event>
<event>
 7    1  0.1698110E-015  0.9000773E+02  0.7816164E-02  0.1186339E+00
        -11   -1    0    0    0    0  0.00000000000E+00  0.00000000000E+00  0.45593999997E+02  0.45594000000E+02  0.51100000000E-03 0.  1.
         11   -1    0    0    0    0 -0.00000000000E+00 -0.00000000000E+00 -0.45593999997E+02  0.45594000000E+02  0.51100000000E-03 0. -1.
    9900012    2    1    2    0    0 -0.11278533515E+01 -0.14421097826E+00  0.31652858314E+00  0.90007728704E+02  0.89999989923E+02 0.  0.
         12    1    1    2    0    0  0.11278533515E+01  0.14421097826E+00 -0.31652858314E+00  0.11802712962E+01  0.00000000000E+00 0. -1.
         11    1    3    3    0    0 -0.57152636221E+01 -0.46675901599E+01  0.73603672704E+01  0.10422362630E+02  0.51100000000E-03 0. -1.
        -11    1    3    3    0    0 -0.26943764049E+02  0.79758473940E+01 -0.29484871127E+02  0.40730064921E+02  0.51100000000E-03 0.  1.
         12    1    3    3    0    0  0.31531174320E+02 -0.34524682124E+01  0.22441032440E+02  0.38855301153E+02  0.00000000000E+00 0. -1.
</event>
<event>
 7    1  0.1698110E-015  0.9000766E+02  0.7816164E-02  0.1186339E+00
        -11   -1    0    0    0    0  0.00000000000E+00  0.00000000000E+00  0.45593999997E+02  0.45594000000E+02  0.51100000000E-03 0. -1.
         11   -1    0    0    0    0 -0.00000000000E+00 -0.00000000000E+00 -0.45593999997E+02  0.45594000000E+02  0.51100000000E-03 0.  1.
    9900012    2    1    2    0    0 -0.12342867801E+00  0.59414149621E-01 -0.11723653724E+01  0.90007658843E+02  0.89999919140E+02 0.  0.
         12    1    1    2    0    0  0.12342867801E+00 -0.59414149621E-01  0.11723653724E+01  0.11803411567E+01  0.00000000000E+00 0. -1.
         11    1    3    3    0    0  0.33353383595E+02 -0.19531711892E+02  0.19512272256E+02  0.43297398716E+02  0.51100000000E-03 0. -1.
        -11    1    3    3    0    0 -0.50525913068E+01  0.72626870951E+01  0.98432145176E+00  0.89019206768E+01  0.51100000000E-03 0.  1.
        -12    1    3    3    0    0 -0.28424220966E+02  0.12328438947E+02 -0.21668959080E+02  0.37808339451E+02  0.00000000000E+00 0.  1.
</event>
<event>
 7    1  0.1698110E-015  0.9000775E+02  0.7816164E-02  0.1186339E+00
        -11   -1    0    0    0    0  0.00000000000E+00  0.00000000000E+00  0.45593999997E+02  0.45594000000E+02  0.51100000000E-03 0. -1.
         11   -1    0    0    0    0 -0.00000000000E+00 -0.00000000000E+00 -0.45593999997E+02  0.45594000000E+02  0.51100000000E-03 0.  1.
    9900012    2    1    2    0    0  0.34782652691E+00  0.66558875083E+00 -0.91048889530E+00  0.90007753540E+02  0.90000015087E+02 0.  0.
         12    1    1    2    0    0 -0.34782652691E+00 -0.66558875083E+00  0.91048889530E+00  0.11802464601E+01  0.00000000000E+00 0. -1.
         11    1    3    3    0    0 -0.23584986332E+02  0.20416263983E+02 -0.16477517152E+02  0.35278661922E+02  0.51100000000E-03 0. -1.
        -11    1    3    3    0    0 -0.91396607570E+01  0.24636911483E+01 -0.40797834694E+01  0.10307657651E+02  0.51100000000E-03 0.  1.
        -12    1    3    3    0    0  0.33072473615E+02 -0.22214366380E+02  0.19646811726E+02  0.44421433967E+02  0.00000000000E+00 0.  1.
</event>
<event>
 7    1  0.1698110E-015  0.9000770E+02  0.7816164E-02  0.1186339E+00
        -11   -1    0    0    0    0  0.00000000000E+00  0.00000000000E+00  0.45593999997E+02  0.45594000000E+02  0.51100000000E-03 0. -1.
         11   -1    0    0    0    0 -0.00000000000E+00 -0.00000000000E+00 -0.45593999997E+02  0.45594000000E+02  0.51100000000E-03 0.  1.
    9900012    2    1    2    0    0 -0.76370787469E+00  0.89634798946E+00  0.80175992756E-01  0.90007695960E+02  0.89999956747E+02 0.  0.
         12    1    1    2    0    0  0.76370787469E+00 -0.89634798946E+00 -0.80175992756E-01  0.11803040396E+01  0.00000000000E+00 0. -1.
         11    1    3    3    0    0  0.92828149008E+01  0.33848153450E+00  0.38385584386E+02  0.39493522394E+02  0.51100000000E-03 0. -1.
        -11    1    3    3    0    0  0.74613238017E+01 -0.52612755717E+01 -0.13763519908E+01  0.92329149557E+01  0.51100000000E-03 0.  1.
        -12    1    3    3    0    0 -0.17507846577E+02  0.58191420267E+01 -0.36929056402E+02  0.41281258610E+02  0.00000000000E+00 0.  1.
</event>
<event>
 7    1  0.1698110E-015  0.9000767E+02  0.7816164E-02  0.1186339E+00
        -11   -1    0    0    0    0  0.00000000000E+00  0.00000000000E+00  0.45593999997E+02  0.45594000000E+02  0.51100000000E-03 0. -1.
         11   -1    0    0    0    0 -0.00000000000E+00 -0.00000000000E+00 -0.45593999997E+02  0.45594000000E+02  0.51100000000E-03 0.  1.
    9900012    2    1    2    0    0  0.94179194079E+00  0.66817796669E+00 -0.24442576212E+00  0.90007670466E+02  0.89999930916E+02 0.  0.
         12    1    1    2    0    0 -0.94179194079E+00 -0.66817796669E+00  0.24442576212E+00  0.11803295337E+01  0.00000000000E+00 0. -1.
         11    1    3    3    0    0  0.28854203762E+01 -0.73780119118E+01 -0.40529397393E+01  0.88987095306E+01  0.51100000000E-03 0. -1.
        -11    1    3    3    0    0 -0.20194138113E+02 -0.31290715114E+02 -0.23207806821E+01  0.37313510820E+02  0.51100000000E-03 0.  1.
         12    1    3    3    0    0  0.18250509677E+02  0.39336904992E+02  0.61292946593E+01  0.43795450116E+02  0.00000000000E+00 0. -1.
</event>
<event>
 7    1  0.1698110E-015  0.9000818E+02  0.7816164E-02  0.1186338E+00
        -11   -1    0    0    0    0  0.00000000000E+00  0.00000000000E+00  0.45593999997E+02  0.45594000000E+02  0.51100000000E-03 0. -1.
         11   -1    0    0    0    0 -0.00000000000E+00 -0.00000000000E+00 -0.45593999997E+02  0.45594000000E+02  0.51100000000E-03 0.  1.
    9900012    2    1    2    0    0  0.46797201001E+00  0.33709892725E+00 -0.10292448006E+01  0.90008178679E+02  0.90000445837E+02 0.  0.
         12    1    1    2    0    0 -0.46797201001E+00 -0.33709892725E+00  0.10292448006E+01  0.11798213206E+01  0.00000000000E+00 0. -1.
         11    1    3    3    0    0 -0.90564843185E+01 -0.34932889852E+01  0.10215526957E+02  0.14091840455E+02  0.51100000000E-03 0. -1.
        -11    1    3    3    0    0 -0.24506295640E+01 -0.33275224960E+02 -0.15318868857E+02  0.36713947278E+02  0.51100000000E-03 0.  1.
         12    1    3    3    0    0  0.11975085893E+02  0.37105612872E+02  0.40740970992E+01  0.39202390947E+02  0.00000000000E+00 0. -1.
</event>
<event>
 7    1  0.1698110E-015  0.9000773E+02  0.7816164E-02  0.1186339E+00
        -11   -1    0    0    0    0  0.00000000000E+00  0.00000000000E+00  0.45593999997E+02  0.45594000000E+02  0.51100000000E-03 0. -1.
         11   -1    0    0    0    0 -0.00000000000E+00 -0.00000000000E+00 -0.45593999997E+02  0.45594000000E+02  0.51100000000E-03 0.  1.
    9900012    2    1    2    0    0  0.56518456126E+00  0.95341254052E+00  0.40572468598E+00  0.90007728175E+02  0.89999989387E+02 0.  0.
         12    1    1    2    0    0 -0.56518456126E+00 -0.95341254052E+00 -0.40572468598E+00  0.11802718253E+01  0.00000000000E+00 0. -1.
         11    1    3    3    0    0  0.37537901172E+02 -0.74200769869E+01  0.70451988009E+01  0.38907407949E+02  0.51100000000E-03 0. -1.
        -11    1    3    3    0    0  0.52915126523E+01 -0.19143730308E+01  0.32412429590E+01  0.64938883907E+01  0.51100000000E-03 0.  1.
        -12    1    3    3    0    0 -0.42264229263E+02  0.10287862558E+02 -0.98807170740E+01  0.44606431835E+02  0.00000000000E+00 0.  1.
</event>
<event>
 7    1  0.1698110E-015  0.9000779E+02  0.7816164E-02  0.1186339E+00
        -11   -1    0    0    0    0  0.00000000000E+00  0.00000000000E+00  0.45593999997E+02  0.45594000000E+02  0.51100000000E-03 0.  1.
         11   -1    0    0    0    0 -0.00000000000E+00 -0.00000000000E+00 -0.45593999997E+02  0.45594000000E+02  0.51100000000E-03 0. -1.
    9900012    2    1    2    0    0 -0.41923287137E+00  0.45438488492E+00  0.10053179506E+01  0.90007794083E+02  0.90000056165E+02 0.  0.
         12    1    1    2    0    0  0.41923287137E+00 -0.45438488492E+00 -0.10053179506E+01  0.11802059167E+01  0.00000000000E+00 0. -1.
         11    1    3    3    0    0 -0.62883143341E+01  0.10488773960E+01 -0.39745203743E+02  0.40253251568E+02  0.51100000000E-03 0. -1.
        -11    1    3    3    0    0  0.86987668470E+01  0.65490184028E+01  0.30902775167E+01  0.11318480556E+02  0.51100000000E-03 0.  1.
        -12    1    3    3    0    0 -0.28296853843E+01 -0.71435109139E+01  0.37660244177E+02  0.38436061960E+02  0.00000000000E+00 0.  1.
</event>
<event>
 7    1  0.1698110E-015  0.9000754E+02  0.7816164E-02  0.1186339E+00
        -11   -1    0    0    0    0  0.00000000000E+00  0.00000000000E+00  0.45593999997E+02  0.45594000000E+02  0.51100000000E-03 0. -1.
         11   -1    0    0    0    0 -0.00000000000E+00 -0.00000000000E+00 -0.45593999997E+02  0.45594000000E+02  0.51100000000E-03 0.  1.
    9900012    2    1    2    0    0 -0.11734000515E+01  0.59973550365E-01  0.11408272795E+00  0.90007542726E+02  0.89999801489E+02 0.  0.
         12    1    1    2    0    0  0.11734000515E+01 -0.59973550365E-01 -0.11408272795E+00  0.11804572743E+01  0.00000000000E+00 0. -1.
         11    1    3    3    0    0 -0.38570160792E+01  0.57961288794E+00  0.13129092672E+02  0.13696189207E+02  0.51100000000E-03 0. -1.
        -11    1    3    3    0    0 -0.47601496378E+01 -0.28411103216E+02  0.17978052249E+02  0.33956739735E+02  0.51100000000E-03 0.  1.
         12    1    3    3    0    0  0.74437656654E+01  0.27891463879E+02 -0.30993062194E+02  0.42354613783E+02  0.00000000000E+00 0. -1.
</event>
<event>
 7    1  0.1698110E-015  0.9000774E+02  0.7816164E-02  0.1186339E+00
        -11   -1    0    0    0    0  0.00000000000E+00  0.00000000000E+00  0.45593999997E+02  0.45594000000E+02  0.51100000000E-03 0.  1.
         11   -1    0    0    0    0 -0.00000000000E+00 -0.00000000000E+00 -0.45593999997E+02  0.45594000000E+02  0.51100000000E-03 0. -1.
    9900012    2    1    2    0    0 -0.91200422025E+00  0.36963438232E+00  0.65163081092E+00  0.90007744101E+02  0.90000005523E+02 0.  0.
         12    1    1    2    0    0  0.91200422025E+00 -0.36963438232E+00 -0.65163081092E+00  0.11802558994E+01  0.00000000000E+00 0. -1.
         11    1    3    3    0    0 -0.13896491158E+02  0.26339316401E+02 -0.31256870695E+02  0.43172491483E+02  0.51100000000E-03 0. -1.
        -11    1    3    3    0    0  0.14978046951E+01  0.17604885114E+01  0.83928253090E+01  0.87053004332E+01  0.51100000000E-03 0.  1.
        -12    1    3    3    0    0  0.11486682242E+02 -0.27730170530E+02  0.23515676197E+02  0.38129952184E+02  0.00000000000E+00 0.  1.
</event>
<event>
 7    1  0.1698110E-015  0.9000772E+02  0.7816164E-02  0.1186339E+00
        -11   -1    0    0    0    0  0.00000000000E+00  0.00000000000E+00  0.45593999997E+02  0.45594000000E+02  0.51100000000E-03 0.  1.
         11   -1    0    0    0    0 -0.00000000000E+00 -0.00000000000E+00 -0.45593999997E+02  0.45594000000E+02  0.51100000000E-03 0. -1.
    9900012    2    1    2    0    0 -0.13368701997E+00  0.11486774553E+01  0.23605189846E+00  0.90007723501E+02  0.89999984651E+02 0.  0.
         12    1    1    2    0    0  0.13368701997E+00 -0.11486774553E+01 -0.23605189846E+00  0.11802764991E+01  0.00000000000E+00 0. -1.
         11    1    3    3    0    0 -0.77402538325E+01 -0.64321169849E+01  0.14008726437E+01  0.10161008942E+02  0.51100000000E-03 0. -1.
        -11    1    3    3    0    0  0.47308728741E+00 -0.12954664149E+02  0.35182306352E+02  0.37494557142E+02  0.51100000000E-03 0.  1.
         12    1    3    3    0    0  0.71334795251E+01  0.20535458589E+02 -0.36347127097E+02  0.42352157416E+02  0.00000000000E+00 0. -1.
</event>
<event>
 7    1  0.1698110E-015  0.9000806E+02  0.7816164E-02  0.1186338E+00
        -11   -1    0    0    0    0  0.00000000000E+00  0.00000000000E+00  0.45593999997E+02  0.45594000000E+02  0.51100000000E-03 0.  1.
         11   -1    0    0    0    0 -0.00000000000E+00 -0.00000000000E+00 -0.45593999997E+02  0.45594000000E+02  0.51100000000E-03 0. -1.
    9900012    2    1    2    0    0  0.68845192151E+00 -0.91403200271E+00 -0.28779651110E+00  0.90008064670E+02  0.90000330323E+02 0.  0.
         12    1    1    2    0    0 -0.68845192151E+00  0.91403200271E+00  0.28779651110E+00  0.11799353296E+01  0.00000000000E+00 0. -1.
         11    1    3    3    0    0 -0.10328590707E+01 -0.28440689933E+01  0.73709680154E+01  0.79678539171E+01  0.51100000000E-03 0. -1.
        -11    1    3    3    0    0  0.28034864919E+02  0.55955565496E+01  0.26353509616E+02  0.38881504259E+02  0.51100000000E-03 0.  1.
         12    1    3    3    0    0 -0.26313553927E+02 -0.36655195590E+01 -0.34012274142E+02  0.43158706494E+02  0.00000000000E+00 0. -1.
</event>
<event>
 7    1  0.1698110E-015  0.9000774E+02  0.7816164E-02  0.1186339E+00
        -11   -1    0    0    0    0  0.00000000000E+00  0.00000000000E+00  0.45593999997E+02  0.45594000000E+02  0.51100000000E-03 0.  1.
         11   -1    0    0    0    0 -0.00000000000E+00 -0.00000000000E+00 -0.45593999997E+02  0.45594000000E+02  0.51100000000E-03 0. -1.
    9900012    2    1    2    0    0  0.81112745162E+00 -0.79762640774E+00  0.31443627700E+00  0.90007743332E+02  0.90000004744E+02 0.  0.
         12    1    1    2    0    0 -0.81112745162E+00  0.79762640774E+00 -0.31443627700E+00  0.11802566676E+01  0.00000000000E+00 0. -1.
         11    1    3    3    0    0 -0.33830477173E+02  0.18961006985E+02  0.93703119797E+01  0.39897665578E+02  0.51100000000E-03 0. -1.
        -11    1    3    3    0    0  0.92685510054E+01  0.72079627188E+01  0.87678527233E+00  0.11774103659E+02  0.51100000000E-03 0.  1.
        -12    1    3    3    0    0  0.25373053620E+02 -0.26966596112E+02 -0.99326609750E+01  0.38335974096E+02  0.00000000000E+00 0.  1.
</event>
<event>
 7    1  0.1698110E-015  0.9000777E+02  0.7816164E-02  0.1186339E+00
        -11   -1    0    0    0    0  0.00000000000E+00  0.00000000000E+00  0.45593999997E+02  0.45594000000E+02  0.51100000000E-03 0. -1.
         11   -1    0    0    0    0 -0.00000000000E+00 -0.00000000000E+00 -0.45593999997E+02  0.45594000000E+02  0.51100000000E-03 0.  1.
    9900012    2    1    2    0    0 -0.99767203330E+00 -0.36964013080E+00 -0.51083920736E+00  0.90007771205E+02  0.90000032985E+02 0.  0.
         12    1    1    2    0    0  0.99767203330E+00  0.36964013080E+00  0.51083920736E+00  0.11802287948E+01  0.00000000000E+00 0. -1.
         11    1    3    3    0    0 -0.23575400492E+02 -0.26274650453E+02 -0.18008347143E+02  0.39628996100E+02  0.51100000000E-03 0. -1.
        -11    1    3    3    0    0 -0.35647077028E+01 -0.43611618872E+01  0.70868357735E+01  0.90526303114E+01  0.51100000000E-03 0.  1.
        -12    1    3    3    0    0  0.26142436162E+02  0.30266172209E+02  0.10410672162E+02  0.41326144794E+02  0.00000000000E+00 0.  1.
</event>
<event>
 7    1  0.1698110E-015  0.9000785E+02  0.7816164E-02  0.1186339E+00
        -11   -1    0    0    0    0  0.00000000000E+00  0.00000000000E+00  0.45593999997E+02  0.45594000000E+02  0.51100000000E-03 0.  1.
         11   -1    0    0    0    0 -0.00000000000E+00 -0.00000000000E+00 -0.45593999997E+02  0.45594000000E+02  0.51100000000E-03 0. -1.
    9900012    2    1    2    0    0  0.10777751589E+01  0.16646819792E+00  0.45104456140E+00  0.90007850793E+02  0.90000113624E+02 0.  0.
         12    1    1    2    0    0 -0.10777751589E+01 -0.16646819792E+00 -0.45104456140E+00  0.11801492069E+01  0.00000000000E+00 0. -1.
         11    1    3    3    0    0  0.29336987768E+02 -0.26531706334E+02 -0.27706342872E+01  0.39651818457E+02  0.51100000000E-03 0. -1.
        -11    1    3    3    0    0  0.39831411447E+01  0.22909980415E+01  0.84125207495E+01  0.95856450501E+01  0.51100000000E-03 0.  1.
        -12    1    3    3    0    0 -0.32242353754E+02  0.24407176490E+02 -0.51908419008E+01  0.40770387286E+02  0.00000000000E+00 0.  1.
</event>
<event>
 7    1  0.1698110E-015  0.9000754E+02  0.7816164E-02  0.1186339E+00
        -11   -1    0    0    0    0  0.00000000000E+00  0.00000000000E+00  0.45593999997E+02  0.45594000000E+02  0.51100000000E-03 0. -1.
         11   -1    0    0    0    0 -0.00000000000E+00 -0.00000000000E+00 -0.45593999997E+02  0.45594000000E+02  0.51100000000E-03 0.  1.
    9900012    2    1    2    0    0  0.46980130414E+00 -0.40388364180E+00 -0.10048131683E+01  0.90007540443E+02  0.89999799177E+02 0.  0.
         12    1    1    2    0    0 -0.46980130414E+00  0.40388364180E+00  0.10048131683E+01  0.11804595566E+01  0.00000000000E+00 0. -1.
         11    1    3    3    0    0 -0.67838953707E+01 -0.65992532500E+01 -0.21893912511E+01  0.97141553503E+01  0.51100000000E-03 0. -1.
        -11    1    3    3    0    0  0.22187975868E+02 -0.28373841966E+02 -0.15365719194E+02  0.39159756225E+02  0.51100000000E-03 0.  1.
         12    1    3    3    0    0 -0.14934279193E+02  0.34569211574E+02  0.16550297277E+02  0.41133628868E+02  0.00000000000E+00 0. -1.
</event>
<event>
 7    1  0.1698110E-015  0.9000774E+02  0.7816164E-02  0.1186339E+00
        -11   -1    0    0    0    0  0.00000000000E+00  0.00000000000E+00  0.45593999997E+02  0.45594000000E+02  0.51100000000E-03 0.  1.
         11   -1    0    0    0    0 -0.00000000000E+00 -0.00000000000E+00 -0.45593999997E+02  0.45594000000E+02  0.51100000000E-03 0. -1.
    9900012    2    1    2    0    0  0.77559784066E+00 -0.94161720778E-01  0.88464108599E+00  0.90007742278E+02  0.90000003676E+02 0.  0.
         12    1    1    2    0    0 -0.77559784066E+00  0.94161720778E-01 -0.88464108599E+00  0.11802577223E+01  0.00000000000E+00 0. -1.
         11    1    3    3    0    0 -0.45182022999E-01 -0.85276922271E+00  0.75326633345E+01  0.75809151120E+01  0.51100000000E-03 0. -1.
        -11    1    3    3    0    0  0.27516061058E+02 -0.30175951583E+02  0.10319711544E+01  0.40850784996E+02  0.51100000000E-03 0.  1.
         12    1    3    3    0    0 -0.26695281195E+02  0.30934559084E+02 -0.76799934029E+01  0.41576042170E+02  0.00000000000E+00 0. -1.
</event>
<event>
 7    1  0.1698110E-015  0.9000769E+02  0.7816164E-02  0.1186339E+00
        -11   -1    0    0    0    0  0.00000000000E+00  0.00000000000E+00  0.45593999997E+02  0.45594000000E+02  0.51100000000E-03 0. -1.
         11   -1    0    0    0    0 -0.00000000000E+00 -0.00000000000E+00 -0.45593999997E+02  0.45594000000E+02  0.51100000000E-03 0.  1.
    9900012    2    1    2    0    0 -0.64394737775E+00  0.43205007357E+00 -0.88983467608E+00  0.90007685956E+02  0.89999946611E+02 0.  0.
         12    1    1    2    0    0  0.64394737775E+00 -0.43205007357E+00  0.88983467608E+00  0.11803140439E+01  0.00000000000E+00 0. -1.
         11    1    3    3    0    0 -0.45786045755E+00 -0.36389657090E+01  0.87788024402E+01  0.95141515741E+01  0.51100000000E-03 0. -1.
        -11    1    3    3    0    0 -0.27573090977E+02  0.10304359770E+02 -0.32825907758E+02  0.44090763168E+02  0.51100000000E-03 0.  1.
         12    1    3    3    0    0  0.27387004057E+02 -0.62333439879E+01  0.23157270642E+02  0.36402771214E+02  0.00000000000E+00 0. -1.
</event>
<event>
 7    1  0.1698110E-015  0.9000773E+02  0.7816164E-02  0.1186339E+00
        -11   -1    0    0    0    0  0.00000000000E+00  0.00000000000E+00  0.45593999997E+02  0.45594000000E+02  0.51100000000E-03 0.  1.
         11   -1    0    0    0    0 -0.00000000000E+00 -0.00000000000E+00 -0.45593999997E+02  0.45594000000E+02  0.51100000000E-03 0. -1.
    9900012    2    1    2    0    0  0.39667885666E+00  0.11100109720E+01  0.59563073747E-01  0.90007734677E+02  0.89999995975E+02 0.  0.
         12    1    1    2    0    0 -0.39667885666E+00 -0.11100109720E+01 -0.59563073747E-01  0.11802653231E+01  0.00000000000E+00 0. -1.
         11    1    3    3    0    0  0.74414850141E+01  0.52766275047E+01  0.15505197510E+01  0.92532485538E+01  0.51100000000E-03 0. -1.
        -11    1    3    3    0    0 -0.14557261079E+02 -0.12553715207E+02  0.36433650257E+02  0.41193694748E+02  0.51100000000E-03 0.  1.
         12    1    3    3    0    0  0.75124549220E+01  0.83870986739E+01 -0.37924606935E+02  0.39560791376E+02  0.00000000000E+00 0. -1.
</event>
<event>
 7    1  0.1698110E-015  0.9000780E+02  0.7816164E-02  0.1186339E+00
        -11   -1    0    0    0    0  0.00000000000E+00  0.00000000000E+00  0.45593999997E+02  0.45594000000E+02  0.51100000000E-03 0.  1.
         11   -1    0    0    0    0 -0.00000000000E+00 -0.00000000000E+00 -0.45593999997E+02  0.45594000000E+02  0.51100000000E-03 0. -1.
    9900012    2    1    2    0    0 -0.13817332433E+00 -0.98612840244E+00 -0.63349878195E+00  0.90007804338E+02  0.90000066555E+02 0.  0.
         12    1    1    2    0    0  0.13817332433E+00  0.98612840244E+00  0.63349878195E+00  0.11801956619E+01  0.00000000000E+00 0. -1.
         11    1    3    3    0    0  0.29617611992E+01 -0.34648615842E+01 -0.81712515882E+01  0.93566365740E+01  0.51100000000E-03 0. -1.
        -11    1    3    3    0    0 -0.38813870347E+02 -0.13096889571E+02  0.77361747034E+01  0.41688049211E+02  0.51100000000E-03 0.  1.
         12    1    3    3    0    0  0.35713935823E+02  0.15575622753E+02 -0.19842189715E+00  0.38963118553E+02  0.00000000000E+00 0. -1.
</event>
<event>
 7    1  0.1698110E-015  0.9000793E+02  0.7816164E-02  0.1186339E+00
        -11   -1    0    0    0    0  0.00000000000E+00  0.00000000000E+00  0.45593999997E+02  0.45594000000E+02  0.51100000000E-03 0. -1.
         11   -1    0    0    0    0 -0.00000000000E+00 -0.00000000000E+00 -0.45593999997E+02  0.45594000000E+02  0.51100000000E-03 0.  1.
    9900012    2    1    2    0    0  0.49838305517E+00 -0.96052952005E+00 -0.47069816646E+00  0.90007932463E+02  0.90000196371E+02 0.  0.
         12    1    1    2    0    0 -0.49838305517E+00  0.96052952005E+00  0.47069816646E+00  0.11800675372E+01  0.00000000000E+00 0. -1.
         11    1    3    3    0    0 -0.58138123223E+01  0.31480455249E+01 -0.33807375129E+01  0.74256306627E+01  0.51100000000E-03 0. -1.
        -11    1    3    3    0    0 -0.19529805988E+02  0.25868051738E+01 -0.32640388594E+02  0.38124793125E+02  0.51100000000E-03 0.  1.
         12    1    3    3    0    0  0.25842001365E+02 -0.66953802188E+01  0.35550427941E+02  0.44457508675E+02  0.00000000000E+00 0. -1.
</event>
<event>
 7    1  0.1698110E-015  0.9000771E+02  0.7816164E-02  0.1186339E+00
        -11   -1    0    0    0    0  0.00000000000E+00  0.00000000000E+00  0.45593999997E+02  0.45594000000E+02  0.51100000000E-03 0.  1.
         11   -1    0    0    0    0 -0.00000000000E+00 -0.00000000000E+00 -0.45593999997E+02  0.45594000000E+02  0.51100000000E-03 0. -1.
    9900012    2    1    2    0    0 -0.81165220040E+00  0.41481366473E+00  0.74982226554E+00  0.90007710586E+02  0.89999971566E+02 0.  0.
         12    1    1    2    0    0  0.81165220040E+00 -0.41481366473E+00 -0.74982226554E+00  0.11802894140E+01  0.00000000000E+00 0. -1.
         11    1    3    3    0    0 -0.29527263639E+02  0.65243358719E+01 -0.23159541894E+02  0.38089245694E+02  0.51100000000E-03 0. -1.
        -11    1    3    3    0    0  0.24635624905E+01  0.25687658632E+01 -0.85607693411E+01  0.92711633670E+01  0.51100000000E-03 0.  1.
        -12    1    3    3    0    0  0.26252048948E+02 -0.86782880704E+01  0.32470133501E+02  0.42647301525E+02  0.00000000000E+00 0.  1.
</event>
<event>
 7    1  0.1698110E-015  0.9000755E+02  0.7816164E-02  0.1186339E+00
        -11   -1    0    0    0    0  0.00000000000E+00  0.00000000000E+00  0.45593999997E+02  0.45594000000E+02  0.51100000000E-03 0.  1.
         11   -1    0    0    0    0 -0.00000000000E+00 -0.00000000000E+00 -0.45593999997E+02  0.45594000000E+02  0.51100000000E-03 0. -1.
    9900012    2    1    2    0    0 -0.82380481953E+00  0.84430142615E+00  0.44312252489E-01  0.90007549724E+02  0.89999808580E+02 0.  0.
         12    1    1    2    0    0  0.82380481953E+00 -0.84430142615E+00 -0.44312252489E-01  0.11804502762E+01  0.00000000000E+00 0. -1.
         11    1    3    3    0    0  0.16829652951E+02 -0.34907177094E+02 -0.53211528902E+01  0.39116018451E+02  0.51100000000E-03 0. -1.
        -11    1    3    3    0    0  0.80469638922E+01  0.39942131766E+01 -0.24166821442E+01  0.93031026883E+01  0.51100000000E-03 0.  1.
        -12    1    3    3    0    0 -0.25700421662E+02  0.31757265344E+02  0.77821472869E+01  0.41588428584E+02  0.00000000000E+00 0.  1.
</event>
<event>
 7    1  0.1698110E-015  0.9000778E+02  0.7816164E-02  0.1186339E+00
        -11   -1    0    0    0    0  0.00000000000E+00  0.00000000000E+00  0.45593999997E+02  0.45594000000E+02  0.51100000000E-03 0.  1.
         11   -1    0    0    0    0 -0.00000000000E+00 -0.00000000000E+00 -0.45593999997E+02  0.45594000000E+02  0.51100000000E-03 0. -1.
    9900012    2    1    2    0    0 -0.10259658767E+01 -0.14011175928E+00 -0.56629372314E+00  0.90007777196E+02  0.90000039055E+02 0.  0.
         12    1    1    2    0    0  0.10259658767E+01  0.14011175928E+00  0.56629372314E+00  0.11802228036E+01  0.00000000000E+00 0. -1.
         11    1    3    3    0    0  0.31420575867E+02 -0.22362780946E+02  0.68236904234E+01  0.39165154292E+02  0.51100000000E-03 0. -1.
        -11    1    3    3    0    0  0.10477408199E+01 -0.17748794023E+01 -0.93673859316E+01  0.95914481268E+01  0.51100000000E-03 0.  1.
        -12    1    3    3    0    0 -0.33494282564E+02  0.23997548589E+02  0.19774017850E+01  0.41251174778E+02  0.00000000000E+00 0.  1.
</event>
<event>
 7    1  0.1698110E-015  0.9000798E+02  0.7816164E-02  0.1186339E+00
        -11   -1    0    0    0    0  0.00000000000E+00  0.00000000000E+00  0.45593999997E+02  0.45594000000E+02  0.51100000000E-03 0.  1.
         11   -1    0    0    0    0 -0.00000000000E+00 -0.00000000000E+00 -0.45593999997E+02  0.45594000000E+02  0.51100000000E-03 0. -1.
    9900012    2    1    2    0    0  0.34649509344E+00 -0.61007970261E+00  0.94878131347E+00  0.90007982172E+02  0.90000246736E+02 0.  0.
         12    1    1    2    0    0 -0.34649509344E+00  0.61007970261E+00 -0.94878131347E+00  0.11800178279E+01  0.00000000000E+00 0. -1.
         11    1    3    3    0    0  0.74639182863E+01  0.31816960948E+01 -0.40793053368E+02  0.41592144325E+02  0.51100000000E-03 0. -1.
        -11    1    3    3    0    0  0.60178746858E+01 -0.90276534558E+00  0.19149805783E+01  0.63794162648E+01  0.51100000000E-03 0.  1.
        -12    1    3    3    0    0 -0.13135297879E+02 -0.28890104518E+01  0.39826854103E+02  0.42036421583E+02  0.00000000000E+00 0.  1.
</event>
<event>
 7    1  0.1698110E-015  0.9000769E+02  0.7816164E-02  0.1186339E+00
        -11   -1    0    0    0    0  0.00000000000E+00  0.00000000000E+00  0.45593999997E+02  0.45594000000E+02  0.51100000000E-03 0.  1.
         11   -1    0    0    0    0 -0.00000000000E+00 -0.00000000000E+00 -0.45593999997E+02  0.45594000000E+02  0.51100000000E-03 0. -1.
    9900012    2    1    2    0    0 -0.21406832505E-01  0.39450472437E+00  0.11122183322E+01  0.90007694172E+02  0.89999954935E+02 0.  0.
         12    1    1    2    0    0  0.21406832505E-01 -0.39450472437E+00 -0.11122183322E+01  0.11803058284E+01  0.00000000000E+00 0. -1.
         11    1    3    3    0    0  0.27308124845E+02  0.18992299241E+02  0.14034856043E+02  0.36102884890E+02  0.51100000000E-03 0. -1.
        -11    1    3    3    0    0 -0.22539366185E+01  0.95015078443E+01  0.63005925896E+01  0.11621374654E+02  0.51100000000E-03 0.  1.
        -12    1    3    3    0    0 -0.25075595059E+02 -0.28099302361E+02 -0.19223230301E+02  0.42283434628E+02  0.00000000000E+00 0.  1.
</event>
<event>
 7    1  0.1698110E-015  0.9000827E+02  0.7816164E-02  0.1186338E+00
        -11   -1    0    0    0    0  0.00000000000E+00  0.00000000000E+00  0.45593999997E+02  0.45594000000E+02  0.51100000000E-03 0.  1.
         11   -1    0    0    0    0 -0.00000000000E+00 -0.00000000000E+00 -0.45593999997E+02  0.45594000000E+02  0.51100000000E-03 0. -1.
    9900012    2    1    2    0    0  0.27002887189E-01 -0.11756377232E+01  0.94447305258E-01  0.90008265494E+02  0.90000533797E+02 0.  0.
         12    1    1    2    0    0 -0.27002887189E-01  0.11756377232E+01 -0.94447305258E-01  0.11797345064E+01  0.00000000000E+00 0. -1.
         11    1    3    3    0    0  0.10657564259E+02  0.21028609103E+00  0.61165356889E+01  0.12289829342E+02  0.51100000000E-03 0. -1.
        -11    1    3    3    0    0  0.41813783793E+01 -0.14253108381E+02  0.31806715359E+02  0.35104161660E+02  0.51100000000E-03 0.  1.
         12    1    3    3    0    0 -0.14811939751E+02  0.12867184567E+02 -0.37828803742E+02  0.42614274491E+02  0.00000000000E+00 0. -1.
</event>
<event>
 7    1  0.1698110E-015  0.9000780E+02  0.7816164E-02  0.1186339E+00
        -11   -1    0    0    0    0  0.00000000000E+00  0.00000000000E+00  0.45593999997E+02  0.45594000000E+02  0.51100000000E-03 0. -1.
         11   -1    0    0    0    0 -0.00000000000E+00 -0.00000000000E+00 -0.45593999997E+02  0.45594000000E+02  0.51100000000E-03 0.  1.
    9900012    2    1    2    0    0 -0.41870724877E+00 -0.46485037911E+00 -0.10007329406E+01  0.90007801689E+02  0.90000063871E+02 0.  0.
         12    1    1    2    0    0  0.41870724877E+00  0.46485037911E+00  0.10007329406E+01  0.11801983111E+01  0.00000000000E+00 0. -1.
         11    1    3    3    0    0 -0.25977626006E+02 -0.13791068347E+02  0.24310069299E+02  0.38157700253E+02  0.51100000000E-03 0. -1.
        -11    1    3    3    0    0 -0.60932284924E+01 -0.50547892472E+01 -0.83586413975E+01  0.11512828239E+02  0.51100000000E-03 0.  1.
        -12    1    3    3    0    0  0.31652147249E+02  0.18381007215E+02 -0.16952160842E+02  0.40337273197E+02  0.00000000000E+00 0.  1.
</event>
<event>
 7    1  0.1698110E-015  0.9000771E+02  0.7816164E-02  0.1186339E+00
        -11   -1    0    0    0    0  0.00000000000E+00  0.00000000000E+00  0.45593999997E+02  0.45594000000E+02  0.51100000000E-03 0. -1.
         11   -1    0    0    0    0 -0.00000000000E+00 -0.00000000000E+00 -0.45593999997E+02  0.45594000000E+02  0.51100000000E-03 0.  1.
    9900012    2    1    2    0    0  0.10418505963E+01  0.37376531556E-01  0.55338363229E+00  0.90007710580E+02  0.89999971560E+02 0.  0.
         12    1    1    2    0    0 -0.10418505963E+01 -0.37376531556E-01 -0.55338363229E+00  0.11802894198E+01  0.00000000000E+00 0. -1.
         11    1    3    3    0    0  0.22379234077E+01  0.14288136933E+02  0.32424856662E+02  0.35503950316E+02  0.51100000000E-03 0. -1.
        -11    1    3    3    0    0  0.14055971136E+01  0.18420324001E+01  0.96355707978E+01  0.99102478006E+01  0.51100000000E-03 0.  1.
        -12    1    3    3    0    0 -0.26016699250E+01 -0.16092792801E+02 -0.41507043828E+02  0.44593512464E+02  0.00000000000E+00 0.  1.
</event>
<event>
 7    1  0.1698110E-015  0.9000776E+02  0.7816164E-02  0.1186339E+00
        -11   -1    0    0    0    0  0.00000000000E+00  0.00000000000E+00  0.45593999997E+02  0.45594000000E+02  0.51100000000E-03 0. -1.
         11   -1    0    0    0    0 -0.00000000000E+00 -0.00000000000E+00 -0.45593999997E+02  0.45594000000E+02  0.51100000000E-03 0.  1.
    9900012    2    1    2    0    0  0.74873193855E+00  0.23008626173E+00  0.88285531246E+00  0.90007757353E+02  0.90000018950E+02 0.  0.
         12    1    1    2    0    0 -0.74873193855E+00 -0.23008626173E+00 -0.88285531246E+00  0.11802426473E+01  0.00000000000E+00 0. -1.
         11    1    3    3    0    0  0.88469834300E+01 -0.28457238721E+02  0.17863029719E+02  0.34744371954E+02  0.51100000000E-03 0. -1.
        -11    1    3    3    0    0  0.63795456415E+01 -0.71770445406E+01  0.49489117691E+01  0.10802791255E+02  0.51100000000E-03 0.  1.
        -12    1    3    3    0    0 -0.14477797133E+02  0.35864369524E+02 -0.21929086176E+02  0.44460594144E+02  0.00000000000E+00 0.  1.
</event>
<event>
 7    1  0.1698110E-015  0.9000774E+02  0.7816164E-02  0.1186339E+00
        -11   -1    0    0    0    0  0.00000000000E+00  0.00000000000E+00  0.45593999997E+02  0.45594000000E+02  0.51100000000E-03 0. -1.
         11   -1    0    0    0    0 -0.00000000000E+00 -0.00000000000E+00 -0.45593999997E+02  0.45594000000E+02  0.51100000000E-03 0.  1.
    9900012    2    1    2    0    0 -0.48476749410E+00 -0.90633930574E+00 -0.58013249334E+00  0.90007744023E+02  0.90000005445E+02 0.  0.
         12    1    1    2    0    0  0.48476749410E+00  0.90633930574E+00  0.58013249334E+00  0.11802559766E+01  0.00000000000E+00 0. -1.
         11    1    3    3    0    0  0.38267502879E+01  0.28474492406E+02 -0.29003583528E+02  0.40824607692E+02  0.51100000000E-03 0. -1.
        -11    1    3    3    0    0 -0.83970619044E+01  0.42334689142E+00  0.98282717267E+00  0.84649761210E+01  0.51100000000E-03 0.  1.
        -12    1    3    3    0    0  0.40855441224E+01 -0.29804178603E+02  0.27440623862E+02  0.40718160210E+02  0.00000000000E+00 0.  1.
</event>
<event>
 7    1  0.1698110E-015  0.9000774E+02  0.7816164E-02  0.1186339E+00
        -11   -1    0    0    0    0  0.00000000000E+00  0.00000000000E+00  0.45593999997E+02  0.45594000000E+02  0.51100000000E-03 0.  1.
         11   -1    0    0    0    0 -0.00000000000E+00 -0.00000000000E+00 -0.45593999997E+02  0.45594000000E+02  0.51100000000E-03 0. -1.
    9900012    2    1    2    0    0  0.48119741276E+00 -0.32637248390E+00  0.10271011239E+01  0.90007742966E+02  0.90000004373E+02 0.  0.
         12    1    1    2    0    0 -0.48119741276E+00  0.32637248390E+00 -0.10271011239E+01  0.11802570343E+01  0.00000000000E+00 0. -1.
         11    1    3    3    0    0 -0.55613672540E+01  0.31349075103E+02 -0.21447175701E+02  0.38388470422E+02  0.51100000000E-03 0. -1.
        -11    1    3    3    0    0  0.63091629652E+01  0.50294777853E+00 -0.59477087918E+01  0.86852595772E+01  0.51100000000E-03 0.  1.
        -12    1    3    3    0    0 -0.26659829843E+00 -0.32178395365E+02  0.28421985617E+02  0.42934012966E+02  0.00000000000E+00 0.  1.
</event>
<event>
 7    1  0.2527186E-015  0.9000770E+02  0.7816164E-02  0.1186339E+00
        -11   -1    0    0    0    0  0.00000000000E+00  0.00000000000E+00  0.45593999997E+02  0.45594000000E+02  0.51100000000E-03 0.  1.
         11   -1    0    0    0    0 -0.00000000000E+00 -0.00000000000E+00 -0.45593999997E+02  0.45594000000E+02  0.51100000000E-03 0. -1.
    9900012    2    1    2    0    0  0.67669905554E+00 -0.79780517083E-02  0.96701344939E+00  0.90007703312E+02  0.89999964195E+02 0.  0.
         12    1    1    2    0    0 -0.67669905554E+00  0.79780517083E-02 -0.96701344939E+00  0.11802966883E+01  0.00000000000E+00 0. -1.
         11    1    3    3    0    0 -0.85571009732E+01 -0.52315067419E+01  0.99908036690E-01  0.10030085829E+02  0.51100000000E-03 0. -1.
        -11    1    3    3    0    0 -0.18055749419E+02 -0.11868319506E+02  0.29718254330E+02  0.36742914088E+02  0.51100000000E-03 0.  1.
         12    1    3    3    0    0  0.27289549448E+02  0.17091848196E+02 -0.28851148917E+02  0.43234703395E+02  0.00000000000E+00 0. -1.
</event>
<event>
 7    1  0.1698110E-015  0.9000778E+02  0.7816164E-02  0.1186339E+00
        -11   -1    0    0    0    0  0.00000000000E+00  0.00000000000E+00  0.45593999997E+02  0.45594000000E+02  0.51100000000E-03 0.  1.
         11   -1    0    0    0    0 -0.00000000000E+00 -0.00000000000E+00 -0.45593999997E+02  0.45594000000E+02  0.51100000000E-03 0. -1.
    9900012    2    1    2    0    0 -0.57253497633E+00  0.10297503734E+01 -0.68818847237E-01  0.90007780459E+02  0.90000042361E+02 0.  0.
         12    1    1    2    0    0  0.57253497633E+00 -0.10297503734E+01  0.68818847237E-01  0.11802195407E+01  0.00000000000E+00 0. -1.
         11    1    3    3    0    0  0.23522010968E+01 -0.22875738982E+01  0.91469144477E+01  0.97176071394E+01  0.51100000000E-03 0. -1.
        -11    1    3    3    0    0 -0.24481209577E+01  0.41493342916E+02 -0.40247708079E+01  0.41759904010E+02  0.51100000000E-03 0.  1.
         12    1    3    3    0    0 -0.47661511545E+00 -0.38176018645E+02 -0.51909624871E+01  0.38530269310E+02  0.00000000000E+00 0. -1.
</event>
<event>
 7    1  0.1698110E-015  0.9000774E+02  0.7816164E-02  0.1186339E+00
        -11   -1    0    0    0    0  0.00000000000E+00  0.00000000000E+00  0.45593999997E+02  0.45594000000E+02  0.51100000000E-03 0.  1.
         11   -1    0    0    0    0 -0.00000000000E+00 -0.00000000000E+00 -0.45593999997E+02  0.45594000000E+02  0.51100000000E-03 0. -1.
    9900012    2    1    2    0    0  0.10601227516E+01 -0.40523810801E+00  0.32394909980E+00  0.90007736812E+02  0.89999998138E+02 0.  0.
         12    1    1    2    0    0 -0.10601227516E+01  0.40523810801E+00 -0.32394909980E+00  0.11802631875E+01  0.00000000000E+00 0. -1.
         11    1    3    3    0    0 -0.29526399852E+02  0.19416031646E+02  0.15911485505E+01  0.35374034646E+02  0.51100000000E-03 0. -1.
        -11    1    3    3    0    0 -0.52749265065E+01  0.76049401234E+01  0.16141628666E+01  0.93949713119E+01  0.51100000000E-03 0.  1.
        -12    1    3    3    0    0  0.35861449111E+02 -0.27426209878E+02 -0.28813623173E+01  0.45238730855E+02  0.00000000000E+00 0.  1.
</event>
<event>
 7    1  0.1698110E-015  0.9000796E+02  0.7816164E-02  0.1186339E+00
        -11   -1    0    0    0    0  0.00000000000E+00  0.00000000000E+00  0.45593999997E+02  0.45594000000E+02  0.51100000000E-03 0. -1.
         11   -1    0    0    0    0 -0.00000000000E+00 -0.00000000000E+00 -0.45593999997E+02  0.45594000000E+02  0.51100000000E-03 0.  1.
    9900012    2    1    2    0    0  0.58190413616E+00  0.56159914531E-01  0.10250538120E+01  0.90007956917E+02  0.90000221148E+02 0.  0.
         12    1    1    2    0    0 -0.58190413616E+00 -0.56159914531E-01 -0.10250538120E+01  0.11800430828E+01  0.00000000000E+00 0. -1.
         11    1    3    3    0    0  0.38813174161E+01 -0.68346572074E+01  0.81775627433E+01  0.11342384966E+02  0.51100000000E-03 0. -1.
        -11    1    3    3    0    0 -0.15357006636E+02 -0.32541790729E+02  0.32765370522E+01  0.36132277703E+02  0.51100000000E-03 0.  1.
         12    1    3    3    0    0  0.12057593356E+02  0.39432607851E+02 -0.10429045983E+02  0.42533294248E+02  0.00000000000E+00 0. -1.
</event>
<event>
 7    1  0.1698110E-015  0.9000743E+02  0.7816164E-02  0.1186340E+00
        -11   -1    0    0    0    0  0.00000000000E+00  0.00000000000E+00  0.45593999997E+02  0.45594000000E+02  0.51100000000E-03 0.  1.
         11   -1    0    0    0    0 -0.00000000000E+00 -0.00000000000E+00 -0.45593999997E+02  0.45594000000E+02  0.51100000000E-03 0. -1.
    9900012    2    1    2    0    0 -0.69848810422E+00 -0.94798043289E+00  0.84869224117E-01  0.90007425852E+02  0.89999683073E+02 0.  0.
         12    1    1    2    0    0  0.69848810422E+00  0.94798043289E+00 -0.84869224117E-01  0.11805741476E+01  0.00000000000E+00 0. -1.
         11    1    3    3    0    0  0.20618415383E+02 -0.60947242765E+00 -0.95096309199E+01  0.22713951440E+02  0.51100000000E-03 0. -1.
        -11    1    3    3    0    0 -0.10013775042E+02  0.20291096540E+02 -0.19505962782E+02  0.29874518803E+02  0.51100000000E-03 0.  1.
        -12    1    3    3    0    0 -0.11303128445E+02 -0.20629604546E+02  0.29100462926E+02  0.37418955609E+02  0.00000000000E+00 0.  1.
</event>
<event>
 7    1  0.1786715E-015  0.9000771E+02  0.7816164E-02  0.1186339E+00
        -11   -1    0    0    0    0  0.00000000000E+00  0.00000000000E+00  0.45593999997E+02  0.45594000000E+02  0.51100000000E-03 0. -1.
         11   -1    0    0    0    0 -0.00000000000E+00 -0.00000000000E+00 -0.45593999997E+02  0.45594000000E+02  0.51100000000E-03 0.  1.
    9900012    2    1    2    0    0 -0.74545689482E+00 -0.88927180732E+00 -0.21580668115E+00  0.90007710691E+02  0.89999971672E+02 0.  0.
         12    1    1    2    0    0  0.74545689482E+00  0.88927180732E+00  0.21580668115E+00  0.11802893090E+01  0.00000000000E+00 0. -1.
         11    1    3    3    0    0 -0.59347454239E+01 -0.66362444223E+01  0.41572173994E+01  0.98256501080E+01  0.51100000000E-03 0. -1.
        -11    1    3    3    0    0 -0.17728373795E+02 -0.10750220600E+02 -0.33638420711E+02  0.39514628032E+02  0.51100000000E-03 0.  1.
         12    1    3    3    0    0  0.22917662324E+02  0.16497193215E+02  0.29265396630E+02  0.40667432551E+02  0.00000000000E+00 0. -1.
</event>
<event>
 7    1  0.1698110E-015  0.9000898E+02  0.7816164E-02  0.1186337E+00
        -11   -1    0    0    0    0  0.00000000000E+00  0.00000000000E+00  0.45593999997E+02  0.45594000000E+02  0.51100000000E-03 0. -1.
         11   -1    0    0    0    0 -0.00000000000E+00 -0.00000000000E+00 -0.45593999997E+02  0.45594000000E+02  0.51100000000E-03 0.  1.
    9900012    2    1    2    0    0 -0.10342323701E+01 -0.51956099632E+00 -0.22473102937E+00  0.90008981654E+02  0.90001259403E+02 0.  0.
         12    1    1    2    0    0  0.10342323701E+01  0.51956099632E+00  0.22473102937E+00  0.11790183458E+01  0.00000000000E+00 0. -1.
         11    1    3    3    0    0 -0.33771386047E+02 -0.14921369046E+02 -0.13606067778E+01  0.36945974352E+02  0.51100000000E-03 0. -1.
        -11    1    3    3    0    0 -0.46272458244E+01 -0.67649375010E+01 -0.51237695326E+01  0.96658573234E+01  0.51100000000E-03 0.  1.
        -12    1    3    3    0    0  0.37364399501E+02  0.21166745551E+02  0.62596452810E+01  0.43397149979E+02  0.00000000000E+00 0.  1.
</event>
<event>
 7    1  0.1698110E-015  0.9000773E+02  0.7816164E-02  0.1186339E+00
        -11   -1    0    0    0    0  0.00000000000E+00  0.00000000000E+00  0.45593999997E+02  0.45594000000E+02  0.51100000000E-03 0. -1.
         11   -1    0    0    0    0 -0.00000000000E+00 -0.00000000000E+00 -0.45593999997E+02  0.45594000000E+02  0.51100000000E-03 0.  1.
    9900012    2    1    2    0    0  0.10905316961E+01 -0.26982262933E+00  0.36188960472E+00  0.90007734048E+02  0.89999995337E+02 0.  0.
         12    1    1    2    0    0 -0.10905316961E+01  0.26982262933E+00 -0.36188960472E+00  0.11802659520E+01  0.00000000000E+00 0. -1.
         11    1    3    3    0    0  0.86641863795E+01 -0.52109312271E-01  0.10382966938E+02  0.13523196504E+02  0.51100000000E-03 0. -1.
        -11    1    3    3    0    0  0.30845580850E+02 -0.15446548200E+02 -0.47294838698E+01  0.34819731865E+02  0.51100000000E-03 0.  1.
         12    1    3    3    0    0 -0.38419235533E+02  0.15228834883E+02 -0.52915934632E+01  0.41664805678E+02  0.00000000000E+00 0. -1.
</event>
<event>
 7    1  0.1698110E-015  0.9000780E+02  0.7816164E-02  0.1186339E+00
        -11   -1    0    0    0    0  0.00000000000E+00  0.00000000000E+00  0.45593999997E+02  0.45594000000E+02  0.51100000000E-03 0.  1.
         11   -1    0    0    0    0 -0.00000000000E+00 -0.00000000000E+00 -0.45593999997E+02  0.45594000000E+02  0.51100000000E-03 0. -1.
    9900012    2    1    2    0    0  0.38881876580E+00 -0.26281618322E+00  0.10828713983E+01  0.90007803896E+02  0.90000066107E+02 0.  0.
         12    1    1    2    0    0 -0.38881876580E+00  0.26281618322E+00 -0.10828713983E+01  0.11801961040E+01  0.00000000000E+00 0. -1.
         11    1    3    3    0    0  0.17938723762E+02 -0.20110912117E+02 -0.26996219156E+02  0.38145018617E+02  0.51100000000E-03 0. -1.
        -11    1    3    3    0    0 -0.15032108913E+02 -0.34352650560E+01  0.15795943756E+00  0.15420450572E+02  0.51100000000E-03 0.  1.
        -12    1    3    3    0    0 -0.25177960829E+01  0.23283360990E+02  0.27921131116E+02  0.36442334707E+02  0.00000000000E+00 0.  1.
</event>
<event>
 7    1  0.1698110E-015  0.9000771E+02  0.7816164E-02  0.1186339E+00
        -11   -1    0    0    0    0  0.00000000000E+00  0.00000000000E+00  0.45593999997E+02  0.45594000000E+02  0.51100000000E-03 0. -1.
         11   -1    0    0    0    0 -0.00000000000E+00 -0.00000000000E+00 -0.45593999997E+02  0.45594000000E+02  0.51100000000E-03 0.  1.
    9900012    2    1    2    0    0  0.55785509521E+00  0.96587564488E+00 -0.38596420745E+00  0.90007709172E+02  0.89999970133E+02 0.  0.
         12    1    1    2    0    0 -0.55785509521E+00 -0.96587564488E+00  0.38596420745E+00  0.11802908277E+01  0.00000000000E+00 0. -1.
         11    1    3    3    0    0  0.57858008459E+01  0.91426856196E+01 -0.25942399299E+01  0.11126287469E+02  0.51100000000E-03 0. -1.
        -11    1    3    3    0    0  0.12984330824E+02  0.31540885031E+02 -0.53878630050E+01  0.34531859832E+02  0.51100000000E-03 0.  1.
         12    1    3    3    0    0 -0.18212276574E+02 -0.39717695006E+02  0.75961387275E+01  0.44349561871E+02  0.00000000000E+00 0. -1.
</event>
<event>
 7    1  0.1698110E-015  0.9000789E+02  0.7816164E-02  0.1186339E+00
        -11   -1    0    0    0    0  0.00000000000E+00  0.00000000000E+00  0.45593999997E+02  0.45594000000E+02  0.51100000000E-03 0. -1.
         11   -1    0    0    0    0 -0.00000000000E+00 -0.00000000000E+00 -0.45593999997E+02  0.45594000000E+02  0.51100000000E-03 0.  1.
    9900012    2    1    2    0    0  0.99406937653E+00 -0.63577225808E+00  0.16976229375E-01  0.90007886242E+02  0.90000149540E+02 0.  0.
         12    1    1    2    0    0 -0.99406937653E+00  0.63577225808E+00 -0.16976229375E-01  0.11801137580E+01  0.00000000000E+00 0. -1.
         11    1    3    3    0    0 -0.28623874252E+01  0.27748603195E+01 -0.13549731284E+02  0.14124033761E+02  0.51100000000E-03 0. -1.
        -11    1    3    3    0    0 -0.16374965564E+02  0.25745598360E+02 -0.11314877308E+02  0.32542307554E+02  0.51100000000E-03 0.  1.
         12    1    3    3    0    0  0.20231422366E+02 -0.29156230938E+02  0.24881584821E+02  0.43341544927E+02  0.00000000000E+00 0. -1.
</event>
<event>
 7    1  0.1698110E-015  0.9000786E+02  0.7816164E-02  0.1186339E+00
        -11   -1    0    0    0    0  0.00000000000E+00  0.00000000000E+00  0.45593999997E+02  0.45594000000E+02  0.51100000000E-03 0.  1.
         11   -1    0    0    0    0 -0.00000000000E+00 -0.00000000000E+00 -0.45593999997E+02  0.45594000000E+02  0.51100000000E-03 0. -1.
    9900012    2    1    2    0    0  0.33472856127E+00  0.87941598286E+00  0.71226216089E+00  0.90007858879E+02  0.90000121816E+02 0.  0.
         12    1    1    2    0    0 -0.33472856127E+00 -0.87941598286E+00 -0.71226216089E+00  0.11801411214E+01  0.00000000000E+00 0. -1.
         11    1    3    3    0    0  0.46016198655E+01 -0.31581023446E+01 -0.84125416803E+01  0.10095512547E+02  0.51100000000E-03 0. -1.
        -11    1    3    3    0    0 -0.14073900356E+02  0.21130110630E+02 -0.28052528641E+02  0.37835176885E+02  0.51100000000E-03 0.  1.
         12    1    3    3    0    0  0.98070090513E+01 -0.17092592303E+02  0.37177332482E+02  0.42077169447E+02  0.00000000000E+00 0. -1.
</event>
<event>
 7    1  0.1698110E-015  0.9000774E+02  0.7816164E-02  0.1186339E+00
        -11   -1    0    0    0    0  0.00000000000E+00  0.00000000000E+00  0.45593999997E+02  0.45594000000E+02  0.51100000000E-03 0.  1.
         11   -1    0    0    0    0 -0.00000000000E+00 -0.00000000000E+00 -0.45593999997E+02  0.45594000000E+02  0.51100000000E-03 0. -1.
    9900012    2    1    2    0    0  0.47934801025E+00  0.43347456056E+00 -0.98759222731E+00  0.90007740233E+02  0.90000001604E+02 0.  0.
         12    1    1    2    0    0 -0.47934801025E+00 -0.43347456056E+00  0.98759222731E+00  0.11802597668E+01  0.00000000000E+00 0. -1.
         11    1    3    3    0    0 -0.74447389196E+01 -0.66181197895E+00  0.56640800879E+01  0.93778428319E+01  0.51100000000E-03 0. -1.
        -11    1    3    3    0    0 -0.10790993425E+02  0.25406409827E+02  0.24499297856E+02  0.36907272929E+02  0.51100000000E-03 0.  1.
         12    1    3    3    0    0  0.18715080354E+02 -0.24311123287E+02 -0.31150970171E+02  0.43722624472E+02  0.00000000000E+00 0. -1.
</event>
<event>
 7    1  0.1698110E-015  0.9000688E+02  0.7816164E-02  0.1186341E+00
        -11   -1    0    0    0    0  0.00000000000E+00  0.00000000000E+00  0.45593999997E+02  0.45594000000E+02  0.51100000000E-03 0.  1.
         11   -1    0    0    0    0 -0.00000000000E+00 -0.00000000000E+00 -0.45593999997E+02  0.45594000000E+02  0.51100000000E-03 0. -1.
    9900012    2    1    2    0    0  0.32474529933E+00 -0.93340308677E+00 -0.64679153486E+00  0.90006881834E+02  0.89999131870E+02 0.  0.
         12    1    1    2    0    0 -0.32474529933E+00  0.93340308677E+00  0.64679153486E+00  0.11811181657E+01  0.00000000000E+00 0. -1.
         11    1    3    3    0    0 -0.23331478625E+02  0.10070278714E+02 -0.24070951989E+02  0.35002559023E+02  0.51100000000E-03 0. -1.
        -11    1    3    3    0    0 -0.98633818803E+01  0.65850753914E+01  0.66902625058E+01  0.13616502219E+02  0.51100000000E-03 0.  1.
        -12    1    3    3    0    0  0.33519605804E+02 -0.17588757193E+02  0.16733897949E+02  0.41387820593E+02  0.00000000000E+00 0.  1.
</event>
<event>
 7    1  0.1698110E-015  0.9000776E+02  0.7816164E-02  0.1186339E+00
        -11   -1    0    0    0    0  0.00000000000E+00  0.00000000000E+00  0.45593999997E+02  0.45594000000E+02  0.51100000000E-03 0. -1.
         11   -1    0    0    0    0 -0.00000000000E+00 -0.00000000000E+00 -0.45593999997E+02  0.45594000000E+02  0.51100000000E-03 0.  1.
    9900012    2    1    2    0    0  0.96891497808E+00 -0.52785708620E+00 -0.41897837940E+00  0.90007757559E+02  0.90000019158E+02 0.  0.
         12    1    1    2    0    0 -0.96891497808E+00  0.52785708620E+00  0.41897837940E+00  0.11802424415E+01  0.00000000000E+00 0. -1.
         11    1    3    3    0    0  0.26838581057E+02  0.10641759231E+02  0.26741589009E+02  0.39353132730E+02  0.51100000000E-03 0. -1.
        -11    1    3    3    0    0 -0.45786097476E+01 -0.42126039092E+01  0.72766186481E+01  0.95738643257E+01  0.51100000000E-03 0.  1.
        -12    1    3    3    0    0 -0.21291056331E+02 -0.69570124085E+01 -0.34437186037E+02  0.41080760503E+02  0.00000000000E+00 0.  1.
</event>
<event>
 7    1  0.1698110E-015  0.9000749E+02  0.7816164E-02  0.1186340E+00
        -11   -1    0    0    0    0  0.00000000000E+00  0.00000000000E+00  0.45593999997E+02  0.45594000000E+02  0.51100000000E-03 0. -1.
         11   -1    0    0    0    0 -0.00000000000E+00 -0.00000000000E+00 -0.45593999997E+02  0.45594000000E+02  0.51100000000E-03 0.  1.
    9900012    2    1    2    0    0  0.63059153619E+00 -0.82846610022E+00 -0.55642866882E+00  0.90007485439E+02  0.89999743447E+02 0.  0.
         12    1    1    2    0    0 -0.63059153619E+00  0.82846610022E+00  0.55642866882E+00  0.11805145608E+01  0.00000000000E+00 0. -1.
         11    1    3    3    0    0  0.60663198739E+01 -0.52023294800E+01  0.75429218217E+01  0.10989091805E+02  0.51100000000E-03 0. -1.
        -11    1    3    3    0    0 -0.23369877922E+02 -0.28969394401E+02  0.76743114161E+01  0.38003579595E+02  0.51100000000E-03 0.  1.
         12    1    3    3    0    0  0.17934149585E+02  0.33343257780E+02 -0.15773661907E+02  0.41014814039E+02  0.00000000000E+00 0. -1.
</event>
<event>
 7    1  0.1698110E-015  0.9000776E+02  0.7816164E-02  0.1186339E+00
        -11   -1    0    0    0    0  0.00000000000E+00  0.00000000000E+00  0.45593999997E+02  0.45594000000E+02  0.51100000000E-03 0. -1.
         11   -1    0    0    0    0 -0.00000000000E+00 -0.00000000000E+00 -0.45593999997E+02  0.45594000000E+02  0.51100000000E-03 0.  1.
    9900012    2    1    2    0    0 -0.57408193078E+00  0.21647390684E+00 -0.10082327813E+01  0.90007760890E+02  0.90000022534E+02 0.  0.
         12    1    1    2    0    0  0.57408193078E+00 -0.21647390684E+00  0.10082327813E+01  0.11802391101E+01  0.00000000000E+00 0. -1.
         11    1    3    3    0    0 -0.14932159802E+02 -0.19324407287E+01 -0.10468972161E+02  0.18338568698E+02  0.51100000000E-03 0. -1.
        -11    1    3    3    0    0 -0.69250035649E+01  0.32759737332E+02  0.13286804384E+01  0.33510020238E+02  0.51100000000E-03 0.  1.
         12    1    3    3    0    0  0.21283081436E+02 -0.30610822696E+02  0.81320589416E+01  0.38159171953E+02  0.00000000000E+00 0. -1.
</event>
<event>
 7    1  0.1698110E-015  0.9000756E+02  0.7816164E-02  0.1186339E+00
        -11   -1    0    0    0    0  0.00000000000E+00  0.00000000000E+00  0.45593999997E+02  0.45594000000E+02  0.51100000000E-03 0.  1.
         11   -1    0    0    0    0 -0.00000000000E+00 -0.00000000000E+00 -0.45593999997E+02  0.45594000000E+02  0.51100000000E-03 0. -1.
    9900012    2    1    2    0    0  0.31327261687E+00  0.97061784907E+00  0.59430805749E+00  0.90007559062E+02  0.89999818041E+02 0.  0.
         12    1    1    2    0    0 -0.31327261687E+00 -0.97061784907E+00 -0.59430805749E+00  0.11804409382E+01  0.00000000000E+00 0. -1.
         11    1    3    3    0    0 -0.30586001204E+02 -0.13045028502E+02 -0.20831425389E+02  0.39238049419E+02  0.51100000000E-03 0. -1.
        -11    1    3    3    0    0  0.84885327704E+01 -0.69225503791E+01 -0.32279331130E+01  0.11419126271E+02  0.51100000000E-03 0.  1.
        -12    1    3    3    0    0  0.22410741050E+02  0.20938196730E+02  0.24653666559E+02  0.39350383372E+02  0.00000000000E+00 0.  1.
</event>
<event>
 7    1  0.2125526E-015  0.9000760E+02  0.7816164E-02  0.1186339E+00
        -11   -1    0    0    0    0  0.00000000000E+00  0.00000000000E+00  0.45593999997E+02  0.45594000000E+02  0.51100000000E-03 0. -1.
         11   -1    0    0    0    0 -0.00000000000E+00 -0.00000000000E+00 -0.45593999997E+02  0.45594000000E+02  0.51100000000E-03 0.  1.
    9900012    2    1    2    0    0  0.10670175349E+01 -0.21433355915E+00 -0.45703049556E+00  0.90007600844E+02  0.89999860375E+02 0.  0.
         12    1    1    2    0    0 -0.10670175349E+01  0.21433355915E+00  0.45703049556E+00  0.11803991563E+01  0.00000000000E+00 0. -1.
         11    1    3    3    0    0  0.20166982803E+01 -0.13082563809E+01 -0.89047150181E+01  0.92234785480E+01  0.51100000000E-03 0. -1.
        -11    1    3    3    0    0 -0.29411188907E+01  0.23237587191E+01 -0.36040256160E+02  0.36234653293E+02  0.51100000000E-03 0.  1.
         12    1    3    3    0    0  0.19914381453E+01 -0.12298358973E+01  0.44487940683E+02  0.44549469003E+02  0.00000000000E+00 0. -1.
</event>
<event>
 7    1  0.1698110E-015  0.9000774E+02  0.7816164E-02  0.1186339E+00
        -11   -1    0    0    0    0  0.00000000000E+00  0.00000000000E+00  0.45593999997E+02  0.45594000000E+02  0.51100000000E-03 0.  1.
         11   -1    0    0    0    0 -0.00000000000E+00 -0.00000000000E+00 -0.45593999997E+02  0.45594000000E+02  0.51100000000E-03 0. -1.
    9900012    2    1    2    0    0  0.11554182530E+01  0.13567645975E-01  0.24051842865E+00  0.90007735396E+02  0.89999996703E+02 0.  0.
         12    1    1    2    0    0 -0.11554182530E+01 -0.13567645975E-01 -0.24051842865E+00  0.11802646038E+01  0.00000000000E+00 0. -1.
         11    1    3    3    0    0 -0.21471635333E+02 -0.12824977840E+02 -0.22066586205E+02  0.33353341773E+02  0.51100000000E-03 0. -1.
        -11    1    3    3    0    0 -0.77469818234E+01  0.17919297762E+02  0.16922823349E+01  0.19595427513E+02  0.51100000000E-03 0.  1.
        -12    1    3    3    0    0  0.30374035410E+02 -0.50807522761E+01  0.20614822298E+02  0.37058966110E+02  0.00000000000E+00 0.  1.
</event>
<event>
 7    1  0.1698110E-015  0.9000763E+02  0.7816164E-02  0.1186339E+00
        -11   -1    0    0    0    0  0.00000000000E+00  0.00000000000E+00  0.45593999997E+02  0.45594000000E+02  0.51100000000E-03 0.  1.
         11   -1    0    0    0    0 -0.00000000000E+00 -0.00000000000E+00 -0.45593999997E+02  0.45594000000E+02  0.51100000000E-03 0. -1.
    9900012    2    1    2    0    0 -0.53036005909E+00  0.17120375310E-01  0.10543717459E+01  0.90007629432E+02  0.89999889340E+02 0.  0.
         12    1    1    2    0    0  0.53036005909E+00 -0.17120375310E-01 -0.10543717459E+01  0.11803705681E+01  0.00000000000E+00 0. -1.
         11    1    3    3    0    0  0.19324959777E+02 -0.37566290468E+02 -0.61335566922E+01  0.42688414914E+02  0.51100000000E-03 0. -1.
        -11    1    3    3    0    0  0.18991661970E+01  0.28508336697E+01 -0.35701096379E+01  0.49477032999E+01  0.51100000000E-03 0.  1.
        -12    1    3    3    0    0 -0.21754486033E+02  0.34732577173E+02  0.10758038076E+02  0.42371511218E+02  0.00000000000E+00 0.  1.
</event>
<event>
 7    1  0.1698110E-015  0.9000774E+02  0.7816164E-02  0.1186339E+00
        -11   -1    0    0    0    0  0.00000000000E+00  0.00000000000E+00  0.45593999997E+02  0.45594000000E+02  0.51100000000E-03 0.  1.
         11   -1    0    0    0    0 -0.00000000000E+00 -0.00000000000E+00 -0.45593999997E+02  0.45594000000E+02  0.51100000000E-03 0. -1.
    9900012    2    1    2    0    0 -0.10816882477E+01  0.38943986260E+00 -0.26703915753E+00  0.90007736138E+02  0.89999997455E+02 0.  0.
         12    1    1    2    0    0  0.10816882477E+01 -0.38943986260E+00  0.26703915753E+00  0.11802638618E+01  0.00000000000E+00 0. -1.
         11    1    3    3    0    0  0.43772940487E+01 -0.82750070265E+01  0.44700749247E+00  0.93721001081E+01  0.51100000000E-03 0. -1.
        -11    1    3    3    0    0  0.17148054571E+02 -0.30708156113E+02 -0.18475694199E+01  0.35220166673E+02  0.51100000000E-03 0.  1.
         12    1    3    3    0    0 -0.22607036867E+02  0.39372603002E+02  0.11335227699E+01  0.45415469357E+02  0.00000000000E+00 0. -1.
</event>
<event>
 7    1  0.1698110E-015  0.9000774E+02  0.7816164E-02  0.1186339E+00
        -11   -1    0    0    0    0  0.00000000000E+00  0.00000000000E+00  0.45593999997E+02  0.45594000000E+02  0.51100000000E-03 0.  1.
         11   -1    0    0    0    0 -0.00000000000E+00 -0.00000000000E+00 -0.45593999997E+02  0.45594000000E+02  0.51100000000E-03 0. -1.
    9900012    2    1    2    0    0  0.10630504525E+00 -0.72548889559E+00  0.92486802265E+00  0.90007739114E+02  0.90000000470E+02 0.  0.
         12    1    1    2    0    0 -0.10630504525E+00  0.72548889559E+00 -0.92486802265E+00  0.11802608862E+01  0.00000000000E+00 0. -1.
         11    1    3    3    0    0  0.44959067039E+01 -0.57450843308E+01  0.46316935516E+01  0.86412821083E+01  0.51100000000E-03 0. -1.
        -11    1    3    3    0    0  0.17072116933E+02  0.10016024807E+02  0.33042262327E+02  0.38517126443E+02  0.51100000000E-03 0.  1.
         12    1    3    3    0    0 -0.21461718591E+02 -0.49964293713E+01 -0.36749087856E+02  0.42849330562E+02  0.00000000000E+00 0. -1.
</event>
<event>
 7    1  0.1698110E-015  0.9000765E+02  0.7816164E-02  0.1186339E+00
        -11   -1    0    0    0    0  0.00000000000E+00  0.00000000000E+00  0.45593999997E+02  0.45594000000E+02  0.51100000000E-03 0.  1.
         11   -1    0    0    0    0 -0.00000000000E+00 -0.00000000000E+00 -0.45593999997E+02  0.45594000000E+02  0.51100000000E-03 0. -1.
    9900012    2    1    2    0    0 -0.76689812764E+00  0.32264051558E+00  0.83725852686E+00  0.90007647730E+02  0.89999907880E+02 0.  0.
         12    1    1    2    0    0  0.76689812764E+00 -0.32264051558E+00 -0.83725852686E+00  0.11803522700E+01  0.00000000000E+00 0. -1.
         11    1    3    3    0    0  0.10192588106E+02 -0.17781691367E+02  0.26912784391E+02  0.33828617532E+02  0.51100000000E-03 0. -1.
        -11    1    3    3    0    0 -0.22734821995E+01  0.12440967992E+02  0.11564278024E+02  0.17137063120E+02  0.51100000000E-03 0.  1.
         12    1    3    3    0    0 -0.86860040338E+01  0.56633638907E+01 -0.37639803888E+02  0.39041967079E+02  0.00000000000E+00 0. -1.
</event>
<event>
 7    1  0.1698110E-015  0.9000778E+02  0.7816164E-02  0.1186339E+00
        -11   -1    0    0    0    0  0.00000000000E+00  0.00000000000E+00  0.45593999997E+02  0.45594000000E+02  0.51100000000E-03 0. -1.
         11   -1    0    0    0    0 -0.00000000000E+00 -0.00000000000E+00 -0.45593999997E+02  0.45594000000E+02  0.51100000000E-03 0.  1.
    9900012    2    1    2    0    0 -0.10209727139E+01 -0.57130932949E+00  0.15535054728E+00  0.90007782467E+02  0.90000044396E+02 0.  0.
         12    1    1    2    0    0  0.10209727139E+01  0.57130932949E+00 -0.15535054728E+00  0.11802175329E+01  0.00000000000E+00 0. -1.
         11    1    3    3    0    0  0.16669980248E+02  0.94207409223E+01 -0.16140199592E+01  0.19215713926E+02  0.51100000000E-03 0. -1.
        -11    1    3    3    0    0 -0.20971513979E+02  0.15079179472E+02 -0.23590024599E+02  0.34981070781E+02  0.51100000000E-03 0.  1.
         12    1    3    3    0    0  0.32805610166E+01 -0.25071229724E+02  0.25359395106E+02  0.35810997760E+02  0.00000000000E+00 0. -1.
</event>
<event>
 7    1  0.1698110E-015  0.9000861E+02  0.7816164E-02  0.1186337E+00
        -11   -1    0    0    0    0  0.00000000000E+00  0.00000000000E+00  0.45593999997E+02  0.45594000000E+02  0.51100000000E-03 0. -1.
         11   -1    0    0    0    0 -0.00000000000E+00 -0.00000000000E+00 -0.45593999997E+02  0.45594000000E+02  0.51100000000E-03 0.  1.
    9900012    2    1    2    0    0  0.25082533652E-02 -0.22853301794E+00 -0.11570311408E+01  0.90008612577E+02  0.90000885459E+02 0.  0.
         12    1    1    2    0    0 -0.25082533652E-02  0.22853301794E+00  0.11570311408E+01  0.11793874226E+01  0.00000000000E+00 0. -1.
         11    1    3    3    0    0  0.97385830054E+01  0.40608201236E+01 -0.82023003540E+00  0.10583148709E+02  0.51100000000E-03 0. -1.
        -11    1    3    3    0    0  0.56136835691E+01 -0.30302506672E+02 -0.25588146313E+02  0.40056317676E+02  0.51100000000E-03 0.  1.
         12    1    3    3    0    0 -0.15349758321E+02  0.26013153530E+02  0.25251345207E+02  0.39369146192E+02  0.00000000000E+00 0. -1.
</event>
<event>
 7    1  0.1698110E-015  0.9000774E+02  0.7816164E-02  0.1186339E+00
        -11   -1    0    0    0    0  0.00000000000E+00  0.00000000000E+00  0.45593999997E+02  0.45594000000E+02  0.51100000000E-03 0.  1.
         11   -1    0    0    0    0 -0.00000000000E+00 -0.00000000000E+00 -0.45593999997E+02  0.45594000000E+02  0.51100000000E-03 0. -1.
    9900012    2    1    2    0    0 -0.60892304121E+00 -0.89883966632E+00 -0.46295256218E+00  0.90007735161E+02  0.89999996465E+02 0.  0.
         12    1    1    2    0    0  0.60892304121E+00  0.89883966632E+00  0.46295256218E+00  0.11802648392E+01  0.00000000000E+00 0. -1.
         11    1    3    3    0    0 -0.20706514953E+02  0.12020227153E+02  0.98826793622E+01  0.25901987837E+02  0.51100000000E-03 0. -1.
        -11    1    3    3    0    0 -0.14853775975E+02  0.96753101464E+01  0.69442845420E+01  0.19038628501E+02  0.51100000000E-03 0.  1.
        -12    1    3    3    0    0  0.34951367886E+02 -0.22594376965E+02 -0.17289916466E+02  0.45067118823E+02  0.00000000000E+00 0.  1.
</event>
<event>
 7    1  0.1698110E-015  0.9000787E+02  0.7816164E-02  0.1186339E+00
        -11   -1    0    0    0    0  0.00000000000E+00  0.00000000000E+00  0.45593999997E+02  0.45594000000E+02  0.51100000000E-03 0.  1.
         11   -1    0    0    0    0 -0.00000000000E+00 -0.00000000000E+00 -0.45593999997E+02  0.45594000000E+02  0.51100000000E-03 0. -1.
    9900012    2    1    2    0    0  0.81060713548E+00 -0.12130496479E+00 -0.84906289440E+00  0.90007870083E+02  0.90000133168E+02 0.  0.
         12    1    1    2    0    0 -0.81060713548E+00  0.12130496479E+00  0.84906289440E+00  0.11801299171E+01  0.00000000000E+00 0. -1.
         11    1    3    3    0    0  0.99500679841E+01 -0.33941636027E+02 -0.21918465631E+02  0.41610787603E+02  0.51100000000E-03 0. -1.
        -11    1    3    3    0    0  0.45418107956E+01  0.77158220732E+00 -0.28040430314E+01  0.53931476883E+01  0.51100000000E-03 0.  1.
        -12    1    3    3    0    0 -0.13681271644E+02  0.33048748855E+02  0.23873445768E+02  0.43003934791E+02  0.00000000000E+00 0.  1.
</event>
<event>
 7    1  0.1885347E-015  0.9000780E+02  0.7816164E-02  0.1186339E+00
        -11   -1    0    0    0    0  0.00000000000E+00  0.00000000000E+00  0.45593999997E+02  0.45594000000E+02  0.51100000000E-03 0. -1.
         11   -1    0    0    0    0 -0.00000000000E+00 -0.00000000000E+00 -0.45593999997E+02  0.45594000000E+02  0.51100000000E-03 0.  1.
    9900012    2    1    2    0    0  0.44292707803E+00 -0.20639015421E-01 -0.10937376731E+01  0.90007799821E+02  0.90000061978E+02 0.  0.
         12    1    1    2    0    0 -0.44292707803E+00  0.20639015421E-01  0.10937376731E+01  0.11802001792E+01  0.00000000000E+00 0. -1.
         11    1    3    3    0    0 -0.51687169650E+01  0.11128141827E+01 -0.85881218193E+01  0.10085129008E+02  0.51100000000E-03 0. -1.
        -11    1    3    3    0    0 -0.13062014768E+02  0.70404462898E+01 -0.32114147786E+02  0.35376582679E+02  0.51100000000E-03 0.  1.
         12    1    3    3    0    0  0.18673658811E+02 -0.81738994879E+01  0.39608531932E+02  0.44546088134E+02  0.00000000000E+00 0. -1.
</event>
<event>
 7    1  0.1698110E-015  0.9000775E+02  0.7816164E-02  0.1186339E+00
        -11   -1    0    0    0    0  0.00000000000E+00  0.00000000000E+00  0.45593999997E+02  0.45594000000E+02  0.51100000000E-03 0.  1.
         11   -1    0    0    0    0 -0.00000000000E+00 -0.00000000000E+00 -0.45593999997E+02  0.45594000000E+02  0.51100000000E-03 0. -1.
    9900012    2    1    2    0    0  0.10298627032E+01 -0.20938374833E+00 -0.53715674271E+00  0.90007747439E+02  0.90000008905E+02 0.  0.
         12    1    1    2    0    0 -0.10298627032E+01  0.20938374833E+00  0.53715674271E+00  0.11802525610E+01  0.00000000000E+00 0. -1.
         11    1    3    3    0    0  0.75562382508E+01  0.25025408286E+01 -0.38362862142E+02  0.39179952005E+02  0.51100000000E-03 0. -1.
        -11    1    3    3    0    0 -0.57710042243E+01  0.41998799992E+01 -0.41660174754E+01  0.82643320137E+01  0.51100000000E-03 0.  1.
        -12    1    3    3    0    0 -0.75537132325E+00 -0.69118045762E+01  0.41991722875E+02  0.42563463420E+02  0.00000000000E+00 0.  1.
</event>
<event>
 7    1  0.1698110E-015  0.9000772E+02  0.7816164E-02  0.1186339E+00
        -11   -1    0    0    0    0  0.00000000000E+00  0.00000000000E+00  0.45593999997E+02  0.45594000000E+02  0.51100000000E-03 0.  1.
         11   -1    0    0    0    0 -0.00000000000E+00 -0.00000000000E+00 -0.45593999997E+02  0.45594000000E+02  0.51100000000E-03 0. -1.
    9900012    2    1    2    0    0  0.33525142126E+00  0.83158657497E+00  0.76755474687E+00  0.90007716120E+02  0.89999977173E+02 0.  0.
         12    1    1    2    0    0 -0.33525142126E+00 -0.83158657497E+00 -0.76755474687E+00  0.11802838797E+01  0.00000000000E+00 0. -1.
         11    1    3    3    0    0 -0.72817103870E+01 -0.96569406662E+01  0.14819536412E+02  0.19128472729E+02  0.51100000000E-03 0. -1.
        -11    1    3    3    0    0 -0.76981567883E+01 -0.17173887157E+02  0.17866995726E+02  0.25950598346E+02  0.51100000000E-03 0.  1.
         12    1    3    3    0    0  0.15315118597E+02  0.27662414398E+02 -0.31918977391E+02  0.44928645046E+02  0.00000000000E+00 0. -1.
</event>
<event>
 7    1  0.1698110E-015  0.9000787E+02  0.7816164E-02  0.1186339E+00
        -11   -1    0    0    0    0  0.00000000000E+00  0.00000000000E+00  0.45593999997E+02  0.45594000000E+02  0.51100000000E-03 0. -1.
         11   -1    0    0    0    0 -0.00000000000E+00 -0.00000000000E+00 -0.45593999997E+02  0.45594000000E+02  0.51100000000E-03 0.  1.
    9900012    2    1    2    0    0  0.25032434181E+00  0.68474101423E+00 -0.92799375356E+00  0.90007870795E+02  0.90000133890E+02 0.  0.
         12    1    1    2    0    0 -0.25032434181E+00 -0.68474101423E+00  0.92799375356E+00  0.11801292045E+01  0.00000000000E+00 0. -1.
         11    1    3    3    0    0 -0.24881750734E+02  0.95397890416E+01  0.24625325930E+02  0.36283822455E+02  0.51100000000E-03 0. -1.
        -11    1    3    3    0    0 -0.33298864418E+01  0.22588860565E+01  0.76238405962E+01  0.86205368527E+01  0.51100000000E-03 0.  1.
        -12    1    3    3    0    0  0.28461961518E+02 -0.11113934084E+02 -0.33177160280E+02  0.45103511487E+02  0.00000000000E+00 0.  1.
</event>
<event>
 7    1  0.1698110E-015  0.9000779E+02  0.7816164E-02  0.1186339E+00
        -11   -1    0    0    0    0  0.00000000000E+00  0.00000000000E+00  0.45593999997E+02  0.45594000000E+02  0.51100000000E-03 0.  1.
         11   -1    0    0    0    0 -0.00000000000E+00 -0.00000000000E+00 -0.45593999997E+02  0.45594000000E+02  0.51100000000E-03 0. -1.
    9900012    2    1    2    0    0 -0.44105589654E+00 -0.84567476038E+00 -0.69512069810E+00  0.90007792862E+02  0.90000054928E+02 0.  0.
         12    1    1    2    0    0  0.44105589654E+00  0.84567476038E+00  0.69512069810E+00  0.11802071382E+01  0.00000000000E+00 0. -1.
         11    1    3    3    0    0 -0.21959378517E+01  0.73512286805E+01  0.37000917469E+01  0.85178275022E+01  0.51100000000E-03 0. -1.
        -11    1    3    3    0    0  0.22223333940E+02 -0.11998213535E+02  0.31268897268E+02  0.40194248793E+02  0.51100000000E-03 0.  1.
         12    1    3    3    0    0 -0.20468451985E+02  0.38013100938E+01 -0.35664109713E+02  0.41295716566E+02  0.00000000000E+00 0. -1.
</event>
<event>
 7    1  0.1698110E-015  0.9000780E+02  0.7816164E-02  0.1186339E+00
        -11   -1    0    0    0    0  0.00000000000E+00  0.00000000000E+00  0.45593999997E+02  0.45594000000E+02  0.51100000000E-03 0.  1.
         11   -1    0    0    0    0 -0.00000000000E+00 -0.00000000000E+00 -0.45593999997E+02  0.45594000000E+02  0.51100000000E-03 0. -1.
    9900012    2    1    2    0    0  0.51813223333E+00  0.95716316755E-01  0.10560548879E+01  0.90007798936E+02  0.90000061082E+02 0.  0.
         12    1    1    2    0    0 -0.51813223333E+00 -0.95716316755E-01 -0.10560548879E+01  0.11802010637E+01  0.00000000000E+00 0. -1.
         11    1    3    3    0    0 -0.25783676132E+02 -0.24312090521E+02  0.24154468619E+02  0.42887224845E+02  0.51100000000E-03 0. -1.
        -11    1    3    3    0    0 -0.38812147560E+00  0.83027551612E+01  0.18519623583E-01  0.83118424422E+01  0.51100000000E-03 0.  1.
        -12    1    3    3    0    0  0.26689929841E+02  0.16105051677E+02 -0.23116933355E+02  0.38808731649E+02  0.00000000000E+00 0.  1.
</event>
<event>
 7    1  0.1698110E-015  0.9000769E+02  0.7816164E-02  0.1186339E+00
        -11   -1    0    0    0    0  0.00000000000E+00  0.00000000000E+00  0.45593999997E+02  0.45594000000E+02  0.51100000000E-03 0.  1.
         11   -1    0    0    0    0 -0.00000000000E+00 -0.00000000000E+00 -0.45593999997E+02  0.45594000000E+02  0.51100000000E-03 0. -1.
    9900012    2    1    2    0    0  0.69888383812E+00 -0.71670793381E+00 -0.62530993209E+00  0.90007694365E+02  0.89999955130E+02 0.  0.
         12    1    1    2    0    0 -0.69888383812E+00  0.71670793381E+00  0.62530993209E+00  0.11803056353E+01  0.00000000000E+00 0. -1.
         11    1    3    3    0    0  0.10178319466E+01 -0.84972513473E+01 -0.49006266663E+01  0.98618154675E+01  0.51100000000E-03 0. -1.
        -11    1    3    3    0    0  0.60815062544E+01 -0.35529067278E+02 -0.92811057397E+00  0.36057741603E+02  0.51100000000E-03 0.  1.
         12    1    3    3    0    0 -0.64004543628E+01  0.43309610692E+02  0.52034273082E+01  0.44088137294E+02  0.00000000000E+00 0. -1.
</event>
<event>
 7    1  0.1698110E-015  0.9000775E+02  0.7816164E-02  0.1186339E+00
        -11   -1    0    0    0    0  0.00000000000E+00  0.00000000000E+00  0.45593999997E+02  0.45594000000E+02  0.51100000000E-03 0. -1.
         11   -1    0    0    0    0 -0.00000000000E+00 -0.00000000000E+00 -0.45593999997E+02  0.45594000000E+02  0.51100000000E-03 0.  1.
    9900012    2    1    2    0    0  0.45959834725E+00  0.59364845688E-01 -0.10854664198E+01  0.90007749105E+02  0.90000010594E+02 0.  0.
         12    1    1    2    0    0 -0.45959834725E+00 -0.59364845688E-01  0.10854664198E+01  0.11802508946E+01  0.00000000000E+00 0. -1.
         11    1    3    3    0    0  0.13142062356E+02 -0.17767880784E+02  0.29664905123E+02  0.36992134120E+02  0.51100000000E-03 0. -1.
        -11    1    3    3    0    0 -0.12624345554E+02 -0.41813476685E+01  0.21107023531E+01  0.13465245400E+02  0.51100000000E-03 0.  1.
        -12    1    3    3    0    0 -0.58118454673E-01  0.22008593298E+02 -0.32861073896E+02  0.39550369586E+02  0.00000000000E+00 0.  1.
</event>
<event>
 7    1  0.1698110E-015  0.9000766E+02  0.7816164E-02  0.1186339E+00
        -11   -1    0    0    0    0  0.00000000000E+00  0.00000000000E+00  0.45593999997E+02  0.45594000000E+02  0.51100000000E-03 0.  1.
         11   -1    0    0    0    0 -0.00000000000E+00 -0.00000000000E+00 -0.45593999997E+02  0.45594000000E+02  0.51100000000E-03 0. -1.
    9900012    2    1    2    0    0  0.20894125668E+00  0.11123504107E+01 -0.33498933661E+00  0.90007662023E+02  0.89999922361E+02 0.  0.
         12    1    1    2    0    0 -0.20894125668E+00 -0.11123504107E+01  0.33498933661E+00  0.11803379773E+01  0.00000000000E+00 0. -1.
         11    1    3    3    0    0 -0.30054079071E+02  0.20287157540E+02 -0.15961718863E+02  0.39618088030E+02  0.51100000000E-03 0. -1.
        -11    1    3    3    0    0  0.23745748836E+00  0.67468213933E+01  0.71374216749E+01  0.98243968466E+01  0.51100000000E-03 0.  1.
        -12    1    3    3    0    0  0.30025562839E+02 -0.25921628523E+02  0.84893078518E+01  0.40565177146E+02  0.00000000000E+00 0.  1.
</event>
<event>
 7    1  0.1698110E-015  0.9000765E+02  0.7816164E-02  0.1186339E+00
        -11   -1    0    0    0    0  0.00000000000E+00  0.00000000000E+00  0.45593999997E+02  0.45594000000E+02  0.51100000000E-03 0.  1.
         11   -1    0    0    0    0 -0.00000000000E+00 -0.00000000000E+00 -0.45593999997E+02  0.45594000000E+02  0.51100000000E-03 0. -1.
    9900012    2    1    2    0    0  0.41271435597E+00  0.91668385372E-01  0.11020411853E+01  0.90007647931E+02  0.89999908084E+02 0.  0.
         12    1    1    2    0    0 -0.41271435597E+00 -0.91668385372E-01 -0.11020411853E+01  0.11803520690E+01  0.00000000000E+00 0. -1.
         11    1    3    3    0    0 -0.93959864174E+01  0.13909239172E+01 -0.16719353524E+01  0.96444076118E+01  0.51100000000E-03 0. -1.
        -11    1    3    3    0    0  0.63321061089E+01 -0.39882678271E+02  0.83145485309E+01  0.41229301612E+02  0.51100000000E-03 0.  1.
         12    1    3    3    0    0  0.34765946645E+01  0.38583422739E+02 -0.55405719932E+01  0.39133938707E+02  0.00000000000E+00 0. -1.
</event>
<event>
 7    1  0.1698110E-015  0.9000771E+02  0.7816164E-02  0.1186339E+00
        -11   -1    0    0    0    0  0.00000000000E+00  0.00000000000E+00  0.45593999997E+02  0.45594000000E+02  0.51100000000E-03 0. -1.
         11   -1    0    0    0    0 -0.00000000000E+00 -0.00000000000E+00 -0.45593999997E+02  0.45594000000E+02  0.51100000000E-03 0.  1.
    9900012    2    1    2    0    0  0.10695647926E+01  0.25400480781E+00 -0.42966147771E+00  0.90007705006E+02  0.89999965912E+02 0.  0.
         12    1    1    2    0    0 -0.10695647926E+01 -0.25400480781E+00  0.42966147771E+00  0.11802949942E+01  0.00000000000E+00 0. -1.
         11    1    3    3    0    0 -0.40900852066E+01  0.53518906995E+01  0.52649333241E+01  0.85493306302E+01  0.51100000000E-03 0. -1.
        -11    1    3    3    0    0 -0.21085996040E+02 -0.31638696257E+02 -0.18119885868E+02  0.42118364094E+02  0.51100000000E-03 0.  1.
         12    1    3    3    0    0  0.26245646040E+02  0.26540810365E+02  0.12425291066E+02  0.39340010281E+02  0.00000000000E+00 0. -1.
</event>
<event>
 7    1  0.2003615E-015  0.9000783E+02  0.7816164E-02  0.1186339E+00
        -11   -1    0    0    0    0  0.00000000000E+00  0.00000000000E+00  0.45593999997E+02  0.45594000000E+02  0.51100000000E-03 0.  1.
         11   -1    0    0    0    0 -0.00000000000E+00 -0.00000000000E+00 -0.45593999997E+02  0.45594000000E+02  0.51100000000E-03 0. -1.
    9900012    2    1    2    0    0 -0.38933223733E+00 -0.40251602791E+00  0.10388437789E+01  0.90007832579E+02  0.90000095169E+02 0.  0.
         12    1    1    2    0    0  0.38933223733E+00  0.40251602791E+00 -0.10388437789E+01  0.11801674206E+01  0.00000000000E+00 0. -1.
         11    1    3    3    0    0  0.41939637810E+01 -0.65618724308E+01  0.66042485289E+01  0.10210954945E+02  0.51100000000E-03 0. -1.
        -11    1    3    3    0    0 -0.19602214943E+02  0.29605224265E+02  0.21051064812E+02  0.41277881056E+02  0.51100000000E-03 0.  1.
         12    1    3    3    0    0  0.15018918924E+02 -0.23445867862E+02 -0.26616469562E+02  0.38518996579E+02  0.00000000000E+00 0. -1.
</event>
<event>
 7    1  0.1698110E-015  0.9000762E+02  0.7816164E-02  0.1186339E+00
        -11   -1    0    0    0    0  0.00000000000E+00  0.00000000000E+00  0.45593999997E+02  0.45594000000E+02  0.51100000000E-03 0. -1.
         11   -1    0    0    0    0 -0.00000000000E+00 -0.00000000000E+00 -0.45593999997E+02  0.45594000000E+02  0.51100000000E-03 0.  1.
    9900012    2    1    2    0    0  0.15717742792E+00  0.11228408531E+01  0.32834685127E+00  0.90007623797E+02  0.89999883631E+02 0.  0.
         12    1    1    2    0    0 -0.15717742792E+00 -0.11228408531E+01 -0.32834685127E+00  0.11803762028E+01  0.00000000000E+00 0. -1.
         11    1    3    3    0    0 -0.77799117543E+01 -0.28110119494E+01 -0.81790210678E+01  0.11632936043E+02  0.51100000000E-03 0. -1.
        -11    1    3    3    0    0  0.17260733461E+02 -0.14357178014E+02 -0.28363179113E+02  0.36173628651E+02  0.51100000000E-03 0.  1.
         12    1    3    3    0    0 -0.93236442793E+01  0.18291030816E+02  0.36870547032E+02  0.42201059103E+02  0.00000000000E+00 0. -1.
</event>
<event>
 7    1  0.1698110E-015  0.9000775E+02  0.7816164E-02  0.1186339E+00
        -11   -1    0    0    0    0  0.00000000000E+00  0.00000000000E+00  0.45593999997E+02  0.45594000000E+02  0.51100000000E-03 0. -1.
         11   -1    0    0    0    0 -0.00000000000E+00 -0.00000000000E+00 -0.45593999997E+02  0.45594000000E+02  0.51100000000E-03 0.  1.
    9900012    2    1    2    0    0  0.81700636292E+00  0.16087890296E+00 -0.83642056990E+00  0.90007753929E+02  0.90000015481E+02 0.  0.
         12    1    1    2    0    0 -0.81700636292E+00 -0.16087890296E+00  0.83642056990E+00  0.11802460710E+01  0.00000000000E+00 0. -1.
         11    1    3    3    0    0  0.71909115680E+01  0.19138505730E+01  0.46131680350E+01  0.87551900479E+01  0.51100000000E-03 0. -1.
        -11    1    3    3    0    0  0.19588200124E+02 -0.33606714180E+02  0.39463724626E+01  0.39098371807E+02  0.51100000000E-03 0.  1.
         12    1    3    3    0    0 -0.25962105329E+02  0.31853742510E+02 -0.93959610674E+01  0.42154192074E+02  0.00000000000E+00 0. -1.
</event>
<event>
 7    1  0.1698110E-015  0.9000771E+02  0.7816164E-02  0.1186339E+00
        -11   -1    0    0    0    0  0.00000000000E+00  0.00000000000E+00  0.45593999997E+02  0.45594000000E+02  0.51100000000E-03 0.  1.
         11   -1    0    0    0    0 -0.00000000000E+00 -0.00000000000E+00 -0.45593999997E+02  0.45594000000E+02  0.51100000000E-03 0. -1.
    9900012    2    1    2    0    0 -0.46449495686E+00 -0.74768141047E+00  0.78631805211E+00  0.90007712266E+02  0.89999973268E+02 0.  0.
         12    1    1    2    0    0  0.46449495686E+00  0.74768141047E+00 -0.78631805211E+00  0.11802877342E+01  0.00000000000E+00 0. -1.
         11    1    3    3    0    0 -0.19447544162E+01 -0.40984409011E+01  0.78579241635E+01  0.90733819483E+01  0.51100000000E-03 0. -1.
        -11    1    3    3    0    0  0.26587616688E+02  0.75598755518E+01  0.26841329090E+02  0.38529339821E+02  0.51100000000E-03 0.  1.
         12    1    3    3    0    0 -0.25107357229E+02 -0.42091160612E+01 -0.33912935201E+02  0.42404990496E+02  0.00000000000E+00 0. -1.
</event>
<event>
 7    1  0.1698110E-015  0.9000773E+02  0.7816164E-02  0.1186339E+00
        -11   -1    0    0    0    0  0.00000000000E+00  0.00000000000E+00  0.45593999997E+02  0.45594000000E+02  0.51100000000E-03 0. -1.
         11   -1    0    0    0    0 -0.00000000000E+00 -0.00000000000E+00 -0.45593999997E+02  0.45594000000E+02  0.51100000000E-03 0.  1.
    9900012    2    1    2    0    0  0.20887721392E+00 -0.86576318169E+00 -0.77451237411E+00  0.90007726729E+02  0.89999987922E+02 0.  0.
         12    1    1    2    0    0 -0.20887721392E+00  0.86576318169E+00  0.77451237411E+00  0.11802732713E+01  0.00000000000E+00 0. -1.
         11    1    3    3    0    0  0.16741648783E+02 -0.31512137708E+01  0.78344343915E+01  0.18750768376E+02  0.51100000000E-03 0. -1.
        -11    1    3    3    0    0  0.12004797007E+02  0.26486154311E+02 -0.15889575605E+02  0.33137744862E+02  0.51100000000E-03 0.  1.
        -12    1    3    3    0    0 -0.28537568575E+02 -0.24200703722E+02  0.72806288393E+01  0.38119213491E+02  0.00000000000E+00 0.  1.
</event>
<event>
 7    1  0.1698110E-015  0.9000786E+02  0.7816164E-02  0.1186339E+00
        -11   -1    0    0    0    0  0.00000000000E+00  0.00000000000E+00  0.45593999997E+02  0.45594000000E+02  0.51100000000E-03 0. -1.
         11   -1    0    0    0    0 -0.00000000000E+00 -0.00000000000E+00 -0.45593999997E+02  0.45594000000E+02  0.51100000000E-03 0.  1.
    9900012    2    1    2    0    0 -0.45142020750E+00  0.92742702712E+00 -0.57344154877E+00  0.90007857507E+02  0.90000120426E+02 0.  0.
         12    1    1    2    0    0  0.45142020750E+00 -0.92742702712E+00  0.57344154877E+00  0.11801424932E+01  0.00000000000E+00 0. -1.
         11    1    3    3    0    0 -0.14288650603E+02  0.27403460588E+02 -0.28069203613E+02  0.41749196159E+02  0.51100000000E-03 0. -1.
        -11    1    3    3    0    0  0.96790566190E+01  0.27232948109E+01  0.85991097324E+01  0.13230463337E+02  0.51100000000E-03 0.  1.
        -12    1    3    3    0    0  0.41581737761E+01 -0.29199328372E+02  0.18896652332E+02  0.35028198010E+02  0.00000000000E+00 0.  1.
</event>
<event>
 7    1  0.1698110E-015  0.9000797E+02  0.7816164E-02  0.1186339E+00
        -11   -1    0    0    0    0  0.00000000000E+00  0.00000000000E+00  0.45593999997E+02  0.45594000000E+02  0.51100000000E-03 0. -1.
         11   -1    0    0    0    0 -0.00000000000E+00 -0.00000000000E+00 -0.45593999997E+02  0.45594000000E+02  0.51100000000E-03 0.  1.
    9900012    2    1    2    0    0 -0.11373659311E+01  0.23010466051E+00  0.21430290464E+00  0.90007968157E+02  0.90000232536E+02 0.  0.
         12    1    1    2    0    0  0.11373659311E+01 -0.23010466051E+00 -0.21430290464E+00  0.11800318432E+01  0.00000000000E+00 0. -1.
         11    1    3    3    0    0  0.21191943998E+02  0.19471234991E+02  0.59502505207E+01  0.29387632841E+02  0.51100000000E-03 0. -1.
        -11    1    3    3    0    0  0.12392177558E+02 -0.46807577840E+00  0.12081864170E+02  0.17313480345E+02  0.51100000000E-03 0.  1.
        -12    1    3    3    0    0 -0.34721487488E+02 -0.18773054552E+02 -0.17817811786E+02  0.43306854970E+02  0.00000000000E+00 0.  1.
</event>
<event>
 7    1  0.1698110E-015  0.9000773E+02  0.7816164E-02  0.1186339E+00
        -11   -1    0    0    0    0  0.00000000000E+00  0.00000000000E+00  0.45593999997E+02  0.45594000000E+02  0.51100000000E-03 0. -1.
         11   -1    0    0    0    0 -0.00000000000E+00 -0.00000000000E+00 -0.45593999997E+02  0.45594000000E+02  0.51100000000E-03 0.  1.
    9900012    2    1    2    0    0  0.63561958627E+00  0.59499909121E+00 -0.79687518239E+00  0.90007726204E+02  0.89999987390E+02 0.  0.
         12    1    1    2    0    0 -0.63561958627E+00 -0.59499909121E+00  0.79687518239E+00  0.11802737959E+01  0.00000000000E+00 0. -1.
         11    1    3    3    0    0 -0.25071462971E+01  0.88988219046E+01 -0.13088800320E+01  0.93374504574E+01  0.51100000000E-03 0. -1.
        -11    1    3    3    0    0  0.40693618632E+02 -0.50501712401E+01  0.91212413420E+01  0.42007997701E+02  0.51100000000E-03 0.  1.
         12    1    3    3    0    0 -0.37550852749E+02 -0.32536515733E+01 -0.86092364924E+01  0.38662278046E+02  0.00000000000E+00 0. -1.
</event>
<event>
 7    1  0.1698110E-015  0.9000765E+02  0.7816164E-02  0.1186339E+00
        -11   -1    0    0    0    0  0.00000000000E+00  0.00000000000E+00  0.45593999997E+02  0.45594000000E+02  0.51100000000E-03 0.  1.
         11   -1    0    0    0    0 -0.00000000000E+00 -0.00000000000E+00 -0.45593999997E+02  0.45594000000E+02  0.51100000000E-03 0. -1.
    9900012    2    1    2    0    0  0.62438973911E+00  0.10010334825E+01  0.35980616145E-01  0.90007650397E+02  0.89999910583E+02 0.  0.
         12    1    1    2    0    0 -0.62438973911E+00 -0.10010334825E+01 -0.35980616145E-01  0.11803496025E+01  0.00000000000E+00 0. -1.
         11    1    3    3    0    0  0.14688900095E+02  0.28124277899E+02 -0.51770465214E+01  0.32148726325E+02  0.51100000000E-03 0. -1.
        -11    1    3    3    0    0  0.93639861784E+00  0.13207578364E+02 -0.40433699286E+01  0.13844342139E+02  0.51100000000E-03 0.  1.
        -12    1    3    3    0    0 -0.15000908973E+02 -0.40330822781E+02  0.92563970661E+01  0.44014581934E+02  0.00000000000E+00 0.  1.
</event>
<event>
 7    1  0.1698110E-015  0.9000777E+02  0.7816164E-02  0.1186339E+00
        -11   -1    0    0    0    0  0.00000000000E+00  0.00000000000E+00  0.45593999997E+02  0.45594000000E+02  0.51100000000E-03 0. -1.
         11   -1    0    0    0    0 -0.00000000000E+00 -0.00000000000E+00 -0.45593999997E+02  0.45594000000E+02  0.51100000000E-03 0.  1.
    9900012    2    1    2    0    0 -0.42761619366E+00  0.96986780012E+00 -0.51908970255E+00  0.90007765583E+02  0.90000027289E+02 0.  0.
         12    1    1    2    0    0  0.42761619366E+00 -0.96986780012E+00  0.51908970255E+00  0.11802344166E+01  0.00000000000E+00 0. -1.
         11    1    3    3    0    0  0.37761852045E+02  0.15940182227E+02 -0.17954208590E+01  0.41027678653E+02  0.51100000000E-03 0. -1.
        -11    1    3    3    0    0 -0.23031763727E+01 -0.19754207354E+01  0.94696509068E+01  0.99439025058E+01  0.51100000000E-03 0.  1.
        -12    1    3    3    0    0 -0.35886291866E+02 -0.12994893692E+02 -0.81933197504E+01  0.39036184425E+02  0.00000000000E+00 0.  1.
</event>
<event>
 7    1  0.1698110E-015  0.9000778E+02  0.7816164E-02  0.1186339E+00
        -11   -1    0    0    0    0  0.00000000000E+00  0.00000000000E+00  0.45593999997E+02  0.45594000000E+02  0.51100000000E-03 0. -1.
         11   -1    0    0    0    0 -0.00000000000E+00 -0.00000000000E+00 -0.45593999997E+02  0.45594000000E+02  0.51100000000E-03 0.  1.
    9900012    2    1    2    0    0  0.68117086975E+00 -0.79893010429E+00  0.53909596431E+00  0.90007784967E+02  0.90000046929E+02 0.  0.
         12    1    1    2    0    0 -0.68117086975E+00  0.79893010429E+00 -0.53909596431E+00  0.11802150330E+01  0.00000000000E+00 0. -1.
         11    1    3    3    0    0 -0.77313556342E+01  0.18490611438E+02  0.86852648313E+01  0.21842856882E+02  0.51100000000E-03 0. -1.
        -11    1    3    3    0    0 -0.46816370991E+01  0.21723893221E+02 -0.11424551411E+02  0.24987309535E+02  0.51100000000E-03 0.  1.
         12    1    3    3    0    0  0.13094163603E+02 -0.41013434763E+02  0.32783825444E+01  0.43177618550E+02  0.00000000000E+00 0. -1.
</event>
<event>
 7    1  0.1698110E-015  0.9000774E+02  0.7816164E-02  0.1186339E+00
        -11   -1    0    0    0    0  0.00000000000E+00  0.00000000000E+00  0.45593999997E+02  0.45594000000E+02  0.51100000000E-03 0.  1.
         11   -1    0    0    0    0 -0.00000000000E+00 -0.00000000000E+00 -0.45593999997E+02  0.45594000000E+02  0.51100000000E-03 0. -1.
    9900012    2    1    2    0    0  0.23581847790E+00 -0.65239619082E+00  0.95487744314E+00  0.90007736438E+02  0.89999997759E+02 0.  0.
         12    1    1    2    0    0 -0.23581847790E+00  0.65239619082E+00 -0.95487744314E+00  0.11802635620E+01  0.00000000000E+00 0. -1.
         11    1    3    3    0    0 -0.41091152551E+00  0.32040247645E+02 -0.15969386034E+02  0.35801782190E+02  0.51100000000E-03 0. -1.
        -11    1    3    3    0    0  0.19699948620E+01  0.92122377411E+01  0.47388604305E+01  0.10545283419E+02  0.51100000000E-03 0.  1.
        -12    1    3    3    0    0 -0.13232648586E+01 -0.41904881576E+02  0.12185403046E+02  0.43660670829E+02  0.00000000000E+00 0.  1.
</event>
<event>
 7    1  0.1698110E-015  0.9000777E+02  0.7816164E-02  0.1186339E+00
        -11   -1    0    0    0    0  0.00000000000E+00  0.00000000000E+00  0.45593999997E+02  0.45594000000E+02  0.51100000000E-03 0.  1.
         11   -1    0    0    0    0 -0.00000000000E+00 -0.00000000000E+00 -0.45593999997E+02  0.45594000000E+02  0.51100000000E-03 0. -1.
    9900012    2    1    2    0    0 -0.79819138970E-01  0.10632555738E+01 -0.50603126171E+00  0.90007766486E+02  0.90000028203E+02 0.  0.
         12    1    1    2    0    0  0.79819138970E-01 -0.10632555738E+01  0.50603126171E+00  0.11802335142E+01  0.00000000000E+00 0. -1.
         11    1    3    3    0    0  0.12850766015E+02  0.31970717328E+01 -0.40716697546E+02  0.42816035713E+02  0.51100000000E-03 0. -1.
        -11    1    3    3    0    0  0.57942935378E+01 -0.75344028387E+00  0.79707230740E+01  0.98830125188E+01  0.51100000000E-03 0.  1.
        -12    1    3    3    0    0 -0.18724878692E+02 -0.13803758751E+01  0.32239943210E+02  0.37308718254E+02  0.00000000000E+00 0.  1.
</event>
<event>
 7    1  0.1698110E-015  0.9000783E+02  0.7816164E-02  0.1186339E+00
        -11   -1    0    0    0    0  0.00000000000E+00  0.00000000000E+00  0.45593999997E+02  0.45594000000E+02  0.51100000000E-03 0.  1.
         11   -1    0    0    0    0 -0.00000000000E+00 -0.00000000000E+00 -0.45593999997E+02  0.45594000000E+02  0.51100000000E-03 0. -1.
    9900012    2    1    2    0    0 -0.53296515131E+00  0.10172402005E+01  0.27198172299E+00  0.90007829023E+02  0.90000091566E+02 0.  0.
         12    1    1    2    0    0  0.53296515131E+00 -0.10172402005E+01 -0.27198172299E+00  0.11801709773E+01  0.00000000000E+00 0. -1.
         11    1    3    3    0    0 -0.17625031788E+02 -0.24903000676E+02 -0.21577348647E+02  0.37368210595E+02  0.51100000000E-03 0. -1.
        -11    1    3    3    0    0 -0.73459381943E+01  0.28011229792E+01 -0.52396598335E+01  0.94479168779E+01  0.51100000000E-03 0.  1.
        -12    1    3    3    0    0  0.24438004831E+02  0.23119117897E+02  0.27088990203E+02  0.43191701549E+02  0.00000000000E+00 0.  1.
</event>
<event>
 7    1  0.1698110E-015  0.9000777E+02  0.7816164E-02  0.1186339E+00
        -11   -1    0    0    0    0  0.00000000000E+00  0.00000000000E+00  0.45593999997E+02  0.45594000000E+02  0.51100000000E-03 0.  1.
         11   -1    0    0    0    0 -0.00000000000E+00 -0.00000000000E+00 -0.45593999997E+02  0.45594000000E+02  0.51100000000E-03 0. -1.
    9900012    2    1    2    0    0 -0.10214241013E+01  0.54829707911E+00  0.22135161400E+00  0.90007773997E+02  0.90000035814E+02 0.  0.
         12    1    1    2    0    0  0.10214241013E+01 -0.54829707911E+00 -0.22135161400E+00  0.11802260032E+01  0.00000000000E+00 0. -1.
         11    1    3    3    0    0  0.78723031731E+01 -0.33542190351E+02 -0.61608804884E+01  0.35000116278E+02  0.51100000000E-03 0. -1.
        -11    1    3    3    0    0 -0.64507349242E+01 -0.79911171440E+01  0.76979761240E+01  0.12834670660E+02  0.51100000000E-03 0.  1.
        -12    1    3    3    0    0 -0.24429923502E+01  0.42081604574E+02 -0.13157440216E+01  0.42172987059E+02  0.00000000000E+00 0.  1.
</event>
<event>
 7    1  0.1698110E-015  0.9000777E+02  0.7816164E-02  0.1186339E+00
        -11   -1    0    0    0    0  0.00000000000E+00  0.00000000000E+00  0.45593999997E+02  0.45594000000E+02  0.51100000000E-03 0.  1.
         11   -1    0    0    0    0 -0.00000000000E+00 -0.00000000000E+00 -0.45593999997E+02  0.45594000000E+02  0.51100000000E-03 0. -1.
    9900012    2    1    2    0    0 -0.10728370887E+01  0.36998474483E-01  0.49050051573E+00  0.90007771606E+02  0.90000033391E+02 0.  0.
         12    1    1    2    0    0  0.10728370887E+01 -0.36998474483E-01 -0.49050051573E+00  0.11802283940E+01  0.00000000000E+00 0. -1.
         11    1    3    3    0    0 -0.10214579685E+02 -0.65815763063E+01 -0.38998173764E+01  0.12761793003E+02  0.51100000000E-03 0. -1.
        -11    1    3    3    0    0 -0.32355051364E+02 -0.66500390866E+01 -0.25519766237E+01  0.33129819703E+02  0.51100000000E-03 0.  1.
         12    1    3    3    0    0  0.41496793960E+02  0.13268613867E+02  0.69422945159E+01  0.44116158900E+02  0.00000000000E+00 0. -1.
</event>
<event>
 7    1  0.1698110E-015  0.9000758E+02  0.7816164E-02  0.1186339E+00
        -11   -1    0    0    0    0  0.00000000000E+00  0.00000000000E+00  0.45593999997E+02  0.45594000000E+02  0.51100000000E-03 0. -1.
         11   -1    0    0    0    0 -0.00000000000E+00 -0.00000000000E+00 -0.45593999997E+02  0.45594000000E+02  0.51100000000E-03 0.  1.
    9900012    2    1    2    0    0  0.98208115342E+00  0.20409556478E+00 -0.62229658259E+00  0.90007579978E+02  0.89999839234E+02 0.  0.
         12    1    1    2    0    0 -0.98208115342E+00 -0.20409556478E+00  0.62229658259E+00  0.11804200219E+01  0.00000000000E+00 0. -1.
         11    1    3    3    0    0 -0.13556496442E+02 -0.14859433928E+02  0.39166064858E+01  0.20491978408E+02  0.51100000000E-03 0. -1.
        -11    1    3    3    0    0 -0.56288956300E+01  0.37755137164E+02 -0.78689233566E+01  0.38975053603E+02  0.51100000000E-03 0.  1.
         12    1    3    3    0    0  0.20167473226E+02 -0.22691607671E+02  0.33300202882E+01  0.30540547967E+02  0.00000000000E+00 0. -1.
</event>
<event>
 7    1  0.1698110E-015  0.9000774E+02  0.7816164E-02  0.1186339E+00
        -11   -1    0    0    0    0  0.00000000000E+00  0.00000000000E+00  0.45593999997E+02  0.45594000000E+02  0.51100000000E-03 0. -1.
         11   -1    0    0    0    0 -0.00000000000E+00 -0.00000000000E+00 -0.45593999997E+02  0.45594000000E+02  0.51100000000E-03 0.  1.
    9900012    2    1    2    0    0  0.48018652739E+00 -0.10616840503E+01  0.18779825341E+00  0.90007737187E+02  0.89999998518E+02 0.  0.
         12    1    1    2    0    0 -0.48018652739E+00  0.10616840503E+01 -0.18779825341E+00  0.11802628130E+01  0.00000000000E+00 0. -1.
         11    1    3    3    0    0  0.38844580802E+00  0.92488063519E+01  0.81904456420E+00  0.92931234437E+01  0.51100000000E-03 0. -1.
        -11    1    3    3    0    0  0.29944730988E+02  0.12428408118E+02 -0.20393739730E+02  0.38302178303E+02  0.51100000000E-03 0.  1.
         12    1    3    3    0    0 -0.29852990268E+02 -0.22738898520E+02  0.19762493419E+02  0.42412435441E+02  0.00000000000E+00 0. -1.
</event>
<event>
 7    1  0.1698110E-015  0.9000804E+02  0.7816164E-02  0.1186338E+00
        -11   -1    0    0    0    0  0.00000000000E+00  0.00000000000E+00  0.45593999997E+02  0.45594000000E+02  0.51100000000E-03 0. -1.
         11   -1    0    0    0    0 -0.00000000000E+00 -0.00000000000E+00 -0.45593999997E+02  0.45594000000E+02  0.51100000000E-03 0.  1.
    9900012    2    1    2    0    0  0.38979264941E+00  0.25866991956E+00 -0.10832649112E+01  0.90008037583E+02  0.90000302879E+02 0.  0.
         12    1    1    2    0    0 -0.38979264941E+00 -0.25866991956E+00  0.10832649112E+01  0.11799624167E+01  0.00000000000E+00 0. -1.
         11    1    3    3    0    0  0.20436180039E+02 -0.29457866972E+02  0.18641959161E+02  0.40409479367E+02  0.51100000000E-03 0. -1.
        -11    1    3    3    0    0 -0.50754673805E+01 -0.49309243486E+01 -0.64898124493E+01  0.96016691231E+01  0.51100000000E-03 0.  1.
        -12    1    3    3    0    0 -0.14970920009E+02  0.34647461240E+02 -0.13235411623E+02  0.39996889093E+02  0.00000000000E+00 0.  1.
</event>
<event>
 7    1  0.1698110E-015  0.9000776E+02  0.7816164E-02  0.1186339E+00
        -11   -1    0    0    0    0  0.00000000000E+00  0.00000000000E+00  0.45593999997E+02  0.45594000000E+02  0.51100000000E-03 0.  1.
         11   -1    0    0    0    0 -0.00000000000E+00 -0.00000000000E+00 -0.45593999997E+02  0.45594000000E+02  0.51100000000E-03 0. -1.
    9900012    2    1    2    0    0 -0.10655727529E+01 -0.13137228245E+00  0.49017635352E+00  0.90007755608E+02  0.90000017182E+02 0.  0.
         12    1    1    2    0    0  0.10655727529E+01  0.13137228245E+00 -0.49017635352E+00  0.11802443925E+01  0.00000000000E+00 0. -1.
         11    1    3    3    0    0 -0.32842757464E+02 -0.14443529883E+02 -0.15093055055E+02  0.38923804856E+02  0.51100000000E-03 0. -1.
        -11    1    3    3    0    0  0.26671914910E+01 -0.61769288330E+01 -0.63666782222E+01  0.92629882924E+01  0.51100000000E-03 0.  1.
        -12    1    3    3    0    0  0.29109993220E+02  0.20489086434E+02  0.21949909631E+02  0.41820962459E+02  0.00000000000E+00 0.  1.
</event>
<event>
 7    1  0.1698110E-015  0.9000769E+02  0.7816164E-02  0.1186339E+00
        -11   -1    0    0    0    0  0.00000000000E+00  0.00000000000E+00  0.45593999997E+02  0.45594000000E+02  0.51100000000E-03 0.  1.
         11   -1    0    0    0    0 -0.00000000000E+00 -0.00000000000E+00 -0.45593999997E+02  0.45594000000E+02  0.51100000000E-03 0. -1.
    9900012    2    1    2    0    0  0.29258879435E-01 -0.34533490588E+00  0.11282776474E+01  0.90007693799E+02  0.89999954557E+02 0.  0.
         12    1    1    2    0    0 -0.29258879435E-01  0.34533490588E+00 -0.11282776474E+01  0.11803062013E+01  0.00000000000E+00 0. -1.
         11    1    3    3    0    0 -0.27994070422E+01 -0.36182746270E+02  0.20049011849E+01  0.36346216260E+02  0.51100000000E-03 0. -1.
        -11    1    3    3    0    0  0.38253975995E+01 -0.45083883199E+01 -0.10609985522E+02  0.12146235016E+02  0.51100000000E-03 0.  1.
        -12    1    3    3    0    0 -0.99673167782E+00  0.40345799684E+02  0.97333619843E+01  0.41515242522E+02  0.00000000000E+00 0.  1.
</event>
<event>
 7    1  0.1698110E-015  0.9000768E+02  0.7816164E-02  0.1186339E+00
        -11   -1    0    0    0    0  0.00000000000E+00  0.00000000000E+00  0.45593999997E+02  0.45594000000E+02  0.51100000000E-03 0.  1.
         11   -1    0    0    0    0 -0.00000000000E+00 -0.00000000000E+00 -0.45593999997E+02  0.45594000000E+02  0.51100000000E-03 0. -1.
    9900012    2    1    2    0    0 -0.68730494055E+00 -0.58239598582E+00  0.76261787829E+00  0.90007678352E+02  0.89999938906E+02 0.  0.
         12    1    1    2    0    0  0.68730494055E+00  0.58239598582E+00 -0.76261787829E+00  0.11803216485E+01  0.00000000000E+00 0. -1.
         11    1    3    3    0    0  0.30812457960E+01  0.32103909291E+01 -0.73854727797E-01  0.44504090098E+01  0.51100000000E-03 0.  1.
        -11    1    3    3    0    0 -0.37953238008E+01 -0.16055964189E+02  0.40664554378E+02  0.43883988558E+02  0.51100000000E-03 0. -1.
         12    1    3    3    0    0  0.26773064235E-01  0.12263177274E+02 -0.39828081771E+02  0.41673280783E+02  0.00000000000E+00 0. -1.
</event>
<event>
 7    1  0.1698110E-015  0.9000776E+02  0.7816164E-02  0.1186339E+00
        -11   -1    0    0    0    0  0.00000000000E+00  0.00000000000E+00  0.45593999997E+02  0.45594000000E+02  0.51100000000E-03 0. -1.
         11   -1    0    0    0    0 -0.00000000000E+00 -0.00000000000E+00 -0.45593999997E+02  0.45594000000E+02  0.51100000000E-03 0.  1.
    9900012    2    1    2    0    0 -0.74921111182E+00 -0.89235531739E+00 -0.18802965548E+00  0.90007758307E+02  0.90000019917E+02 0.  0.
         12    1    1    2    0    0  0.74921111182E+00  0.89235531739E+00  0.18802965548E+00  0.11802416930E+01  0.00000000000E+00 0. -1.
         11    1    3    3    0    0 -0.57427442228E+01 -0.50612062114E+00  0.32359048860E+02  0.32868576372E+02  0.51100000000E-03 0. -1.
        -11    1    3    3    0    0  0.32366631429E+01 -0.53076258092E+01  0.11345278468E+02  0.12936855252E+02  0.51100000000E-03 0.  1.
        -12    1    3    3    0    0  0.17568699681E+01  0.49213911130E+01 -0.43892356984E+02  0.44202326683E+02  0.00000000000E+00 0.  1.
</event>
<event>
 7    1  0.1698110E-015  0.9000740E+02  0.7816164E-02  0.1186340E+00
        -11   -1    0    0    0    0  0.00000000000E+00  0.00000000000E+00  0.45593999997E+02  0.45594000000E+02  0.51100000000E-03 0.  1.
         11   -1    0    0    0    0 -0.00000000000E+00 -0.00000000000E+00 -0.45593999997E+02  0.45594000000E+02  0.51100000000E-03 0. -1.
    9900012    2    1    2    0    0  0.67677289616E-01  0.39324393959E+00  0.11111248500E+01  0.90007398694E+02  0.89999655556E+02 0.  0.
         12    1    1    2    0    0 -0.67677289616E-01 -0.39324393959E+00 -0.11111248500E+01  0.11806013060E+01  0.00000000000E+00 0. -1.
         11    1    3    3    0    0 -0.10713902824E+02 -0.45260145062E+01 -0.88486984140E+00  0.11664283773E+02  0.51100000000E-03 0. -1.
        -11    1    3    3    0    0 -0.33329836451E+02 -0.31267927034E+01  0.55765396130E+00  0.33480827479E+02  0.51100000000E-03 0.  1.
         12    1    3    3    0    0  0.44111416565E+02  0.80460511492E+01  0.14383407301E+01  0.44862287442E+02  0.00000000000E+00 0. -1.
</event>
<event>
 7    1  0.1698110E-015  0.9000775E+02  0.7816164E-02  0.1186339E+00
        -11   -1    0    0    0    0  0.00000000000E+00  0.00000000000E+00  0.45593999997E+02  0.45594000000E+02  0.51100000000E-03 0.  1.
         11   -1    0    0    0    0 -0.00000000000E+00 -0.00000000000E+00 -0.45593999997E+02  0.45594000000E+02  0.51100000000E-03 0. -1.
    9900012    2    1    2    0    0 -0.17637427095E+00  0.87606232687E+00  0.77096777898E+00  0.90007752399E+02  0.90000013930E+02 0.  0.
         12    1    1    2    0    0  0.17637427095E+00 -0.87606232687E+00 -0.77096777898E+00  0.11802476012E+01  0.00000000000E+00 0. -1.
         11    1    3    3    0    0  0.95634407562E+01 -0.30868741757E+02 -0.18349476865E+02  0.37162372344E+02  0.51100000000E-03 0. -1.
        -11    1    3    3    0    0  0.10295485066E+02  0.17200867022E+00 -0.10648605674E+01  0.10351836939E+02  0.51100000000E-03 0.  1.
        -12    1    3    3    0    0 -0.20035300093E+02  0.31572795413E+02  0.20185305211E+02  0.42493543116E+02  0.00000000000E+00 0.  1.
</event>
<event>
 7    1  0.1698110E-015  0.9000777E+02  0.7816164E-02  0.1186339E+00
        -11   -1    0    0    0    0  0.00000000000E+00  0.00000000000E+00  0.45593999997E+02  0.45594000000E+02  0.51100000000E-03 0. -1.
         11   -1    0    0    0    0 -0.00000000000E+00 -0.00000000000E+00 -0.45593999997E+02  0.45594000000E+02  0.51100000000E-03 0.  1.
    9900012    2    1    2    0    0 -0.11081051102E+01 -0.22945198502E+00 -0.33525459832E+00  0.90007770872E+02  0.90000032648E+02 0.  0.
         12    1    1    2    0    0  0.11081051102E+01  0.22945198502E+00  0.33525459832E+00  0.11802291280E+01  0.00000000000E+00 0. -1.
         11    1    3    3    0    0  0.14543909630E+02 -0.33557477791E+02  0.21426668376E+02  0.42387872570E+02  0.51100000000E-03 0. -1.
        -11    1    3    3    0    0  0.44775444730E+01  0.44469842326E+01 -0.70602827105E+01  0.94695124207E+01  0.51100000000E-03 0.  1.
        -12    1    3    3    0    0 -0.20129559213E+02  0.28881041573E+02 -0.14701640264E+02  0.38150385882E+02  0.00000000000E+00 0.  1.
</event>
<event>
 7    1  0.1698110E-015  0.9000770E+02  0.7816164E-02  0.1186339E+00
        -11   -1    0    0    0    0  0.00000000000E+00  0.00000000000E+00  0.45593999997E+02  0.45594000000E+02  0.51100000000E-03 0. -1.
         11   -1    0    0    0    0 -0.00000000000E+00 -0.00000000000E+00 -0.45593999997E+02  0.45594000000E+02  0.51100000000E-03 0.  1.
    9900012    2    1    2    0    0  0.73700888076E+00  0.79357785795E+00 -0.46921486537E+00  0.90007698980E+02  0.89999959807E+02 0.  0.
         12    1    1    2    0    0 -0.73700888076E+00 -0.79357785795E+00  0.46921486537E+00  0.11803010196E+01  0.00000000000E+00 0. -1.
         11    1    3    3    0    0  0.98862696535E+01 -0.97809930593E+01  0.35357786398E+02  0.37994462914E+02  0.51100000000E-03 0. -1.
        -11    1    3    3    0    0  0.12611537631E+02  0.62239347018E+01 -0.72223302961E+01  0.15809816563E+02  0.51100000000E-03 0.  1.
        -12    1    3    3    0    0 -0.21760798403E+02  0.43506362155E+01 -0.28604670967E+02  0.36203419504E+02  0.00000000000E+00 0.  1.
</event>
<event>
 7    1  0.1698110E-015  0.9000724E+02  0.7816164E-02  0.1186340E+00
        -11   -1    0    0    0    0  0.00000000000E+00  0.00000000000E+00  0.45593999997E+02  0.45594000000E+02  0.51100000000E-03 0.  1.
         11   -1    0    0    0    0 -0.00000000000E+00 -0.00000000000E+00 -0.45593999997E+02  0.45594000000E+02  0.51100000000E-03 0. -1.
    9900012    2    1    2    0    0  0.51200335280E+00  0.99427393198E+00  0.37878004106E+00  0.90007236516E+02  0.89999491237E+02 0.  0.
         12    1    1    2    0    0 -0.51200335280E+00 -0.99427393198E+00 -0.37878004106E+00  0.11807634838E+01  0.00000000000E+00 0. -1.
         11    1    3    3    0    0 -0.68579931881E+00 -0.57843590218E+01 -0.56538352193E+01  0.81175724787E+01  0.51100000000E-03 0. -1.
        -11    1    3    3    0    0  0.89830532239E+01 -0.31941007359E+02 -0.15813389161E+02  0.36755767892E+02  0.51100000000E-03 0.  1.
         12    1    3    3    0    0 -0.77852505523E+01  0.38719640313E+02  0.21846004421E+02  0.45133896145E+02  0.00000000000E+00 0. -1.
</event>
<event>
 7    1  0.1698110E-015  0.9000780E+02  0.7816164E-02  0.1186339E+00
        -11   -1    0    0    0    0  0.00000000000E+00  0.00000000000E+00  0.45593999997E+02  0.45594000000E+02  0.51100000000E-03 0. -1.
         11   -1    0    0    0    0 -0.00000000000E+00 -0.00000000000E+00 -0.45593999997E+02  0.45594000000E+02  0.51100000000E-03 0.  1.
    9900012    2    1    2    0    0 -0.11100004708E+01  0.58000328901E-01 -0.39675036554E+00  0.90007798350E+02  0.90000060488E+02 0.  0.
         12    1    1    2    0    0  0.11100004708E+01 -0.58000328901E-01  0.39675036554E+00  0.11802016505E+01  0.00000000000E+00 0. -1.
         11    1    3    3    0    0  0.11979897633E+02  0.35130970989E+02  0.21039297481E+02  0.42665619751E+02  0.51100000000E-03 0. -1.
        -11    1    3    3    0    0 -0.17958935437E+01 -0.83420033575E+00 -0.89830282118E+01  0.91986912078E+01  0.51100000000E-03 0.  1.
        -12    1    3    3    0    0 -0.11294004560E+02 -0.34238770325E+02 -0.12453019635E+02  0.38143487391E+02  0.00000000000E+00 0.  1.
</event>
<event>
 7    1  0.1698110E-015  0.9000777E+02  0.7816164E-02  0.1186339E+00
        -11   -1    0    0    0    0  0.00000000000E+00  0.00000000000E+00  0.45593999997E+02  0.45594000000E+02  0.51100000000E-03 0. -1.
         11   -1    0    0    0    0 -0.00000000000E+00 -0.00000000000E+00 -0.45593999997E+02  0.45594000000E+02  0.51100000000E-03 0.  1.
    9900012    2    1    2    0    0 -0.57336647088E+00  0.51947324480E+00 -0.89125832518E+00  0.90007769953E+02  0.90000031716E+02 0.  0.
         12    1    1    2    0    0  0.57336647088E+00 -0.51947324480E+00  0.89125832518E+00  0.11802300472E+01  0.00000000000E+00 0. -1.
         11    1    3    3    0    0 -0.11161192296E+02  0.15237113200E+01 -0.77831813302E+00  0.11291576021E+02  0.51100000000E-03 0. -1.
        -11    1    3    3    0    0 -0.22454752305E+02 -0.24021703637E+02 -0.14522237607E+02  0.35946537136E+02  0.51100000000E-03 0.  1.
         12    1    3    3    0    0  0.33042578130E+02  0.23017465562E+02  0.14409297415E+02  0.42769656795E+02  0.00000000000E+00 0. -1.
</event>
<event>
 7    1  0.1803880E-015  0.9000796E+02  0.7816164E-02  0.1186339E+00
        -11   -1    0    0    0    0  0.00000000000E+00  0.00000000000E+00  0.45593999997E+02  0.45594000000E+02  0.51100000000E-03 0.  1.
         11   -1    0    0    0    0 -0.00000000000E+00 -0.00000000000E+00 -0.45593999997E+02  0.45594000000E+02  0.51100000000E-03 0. -1.
    9900012    2    1    2    0    0 -0.91104451612E+00  0.47662721985E+00 -0.57906807425E+00  0.90007959555E+02  0.90000223821E+02 0.  0.
         12    1    1    2    0    0  0.91104451612E+00 -0.47662721985E+00  0.57906807425E+00  0.11800404449E+01  0.00000000000E+00 0. -1.
         11    1    3    3    0    0  0.14524047391E+01  0.40193872853E+01 -0.85674377308E+01  0.95742332961E+01  0.51100000000E-03 0. -1.
        -11    1    3    3    0    0  0.18982777924E+02  0.31916208017E+02 -0.39856485213E+01  0.37348033232E+02  0.51100000000E-03 0.  1.
         12    1    3    3    0    0 -0.21346227179E+02 -0.35458968083E+02  0.11974018178E+02  0.43085693027E+02  0.00000000000E+00 0. -1.
</event>
<event>
 7    1  0.1698110E-015  0.9000779E+02  0.7816164E-02  0.1186339E+00
        -11   -1    0    0    0    0  0.00000000000E+00  0.00000000000E+00  0.45593999997E+02  0.45594000000E+02  0.51100000000E-03 0.  1.
         11   -1    0    0    0    0 -0.00000000000E+00 -0.00000000000E+00 -0.45593999997E+02  0.45594000000E+02  0.51100000000E-03 0. -1.
    9900012    2    1    2    0    0 -0.54471066878E+00 -0.71393000512E+00  0.76582849036E+00  0.90007788561E+02  0.90000050570E+02 0.  0.
         12    1    1    2    0    0  0.54471066878E+00  0.71393000512E+00 -0.76582849036E+00  0.11802114393E+01  0.00000000000E+00 0. -1.
         11    1    3    3    0    0 -0.23995989173E+01 -0.68826594684E+00  0.91690538251E+01  0.95028066005E+01  0.51100000000E-03 0. -1.
        -11    1    3    3    0    0 -0.30892291233E+02  0.23416291507E+02  0.23057517650E+01  0.38832626193E+02  0.51100000000E-03 0.  1.
         12    1    3    3    0    0  0.32747179482E+02 -0.23441955565E+02 -0.10708977100E+02  0.41672355768E+02  0.00000000000E+00 0. -1.
</event>
<event>
 7    1  0.1698110E-015  0.9000755E+02  0.7816164E-02  0.1186339E+00
        -11   -1    0    0    0    0  0.00000000000E+00  0.00000000000E+00  0.45593999997E+02  0.45594000000E+02  0.51100000000E-03 0.  1.
         11   -1    0    0    0    0 -0.00000000000E+00 -0.00000000000E+00 -0.45593999997E+02  0.45594000000E+02  0.51100000000E-03 0. -1.
    9900012    2    1    2    0    0 -0.91952513965E+00 -0.55410569867E+00  0.49081234783E+00  0.90007552471E+02  0.89999811364E+02 0.  0.
         12    1    1    2    0    0  0.91952513965E+00  0.55410569867E+00 -0.49081234783E+00  0.11804475289E+01  0.00000000000E+00 0. -1.
         11    1    3    3    0    0  0.21490234915E+02  0.28797643030E+02 -0.95893235459E+01  0.37189912169E+02  0.51100000000E-03 0. -1.
        -11    1    3    3    0    0  0.32839956091E+01 -0.81894448566E+01 -0.10474860920E+02  0.13695778393E+02  0.51100000000E-03 0.  1.
        -12    1    3    3    0    0 -0.25693755664E+02 -0.21162303872E+02  0.20554996814E+02  0.39121861910E+02  0.00000000000E+00 0.  1.
</event>
<event>
 7    1  0.1698110E-015  0.9000784E+02  0.7816164E-02  0.1186339E+00
        -11   -1    0    0    0    0  0.00000000000E+00  0.00000000000E+00  0.45593999997E+02  0.45594000000E+02  0.51100000000E-03 0.  1.
         11   -1    0    0    0    0 -0.00000000000E+00 -0.00000000000E+00 -0.45593999997E+02  0.45594000000E+02  0.51100000000E-03 0. -1.
    9900012    2    1    2    0    0  0.14988034598E+00  0.10730815741E+01  0.46776714171E+00  0.90007841417E+02  0.90000104123E+02 0.  0.
         12    1    1    2    0    0 -0.14988034598E+00 -0.10730815741E+01 -0.46776714171E+00  0.11801585833E+01  0.00000000000E+00 0. -1.
         11    1    3    3    0    0 -0.54564667548E+01 -0.47346301261E+01  0.47469560732E+01  0.86442665449E+01  0.51100000000E-03 0. -1.
        -11    1    3    3    0    0 -0.33436129964E+02  0.37720085016E+01 -0.20092914152E+02  0.39190917756E+02  0.51100000000E-03 0.  1.
         12    1    3    3    0    0  0.39042477065E+02  0.20357031986E+01  0.15813725221E+02  0.42172657116E+02  0.00000000000E+00 0. -1.
</event>
<event>
 7    1  0.1698110E-015  0.9000777E+02  0.7816164E-02  0.1186339E+00
        -11   -1    0    0    0    0  0.00000000000E+00  0.00000000000E+00  0.45593999997E+02  0.45594000000E+02  0.51100000000E-03 0.  1.
         11   -1    0    0    0    0 -0.00000000000E+00 -0.00000000000E+00 -0.45593999997E+02  0.45594000000E+02  0.51100000000E-03 0. -1.
    9900012    2    1    2    0    0  0.57926446765E+00  0.24146006168E+00  0.99954101164E+00  0.90007774378E+02  0.90000036200E+02 0.  0.
         12    1    1    2    0    0 -0.57926446765E+00 -0.24146006168E+00 -0.99954101164E+00  0.11802256220E+01  0.00000000000E+00 0. -1.
         11    1    3    3    0    0  0.35904817913E+01 -0.71921264436E+01 -0.18174210411E+02  0.19872598386E+02  0.51100000000E-03 0. -1.
        -11    1    3    3    0    0  0.31811722646E+02  0.24268352912E+01  0.54201490106E+01  0.32361292354E+02  0.51100000000E-03 0.  1.
        -12    1    3    3    0    0 -0.34822939970E+02  0.50067512141E+01  0.13753602412E+02  0.37773883639E+02  0.00000000000E+00 0.  1.
</event>
<event>
 7    1  0.1698110E-015  0.9000769E+02  0.7816164E-02  0.1186339E+00
        -11   -1    0    0    0    0  0.00000000000E+00  0.00000000000E+00  0.45593999997E+02  0.45594000000E+02  0.51100000000E-03 0. -1.
         11   -1    0    0    0    0 -0.00000000000E+00 -0.00000000000E+00 -0.45593999997E+02  0.45594000000E+02  0.51100000000E-03 0.  1.
    9900012    2    1    2    0    0  0.24401441933E-01 -0.11450288659E+01  0.28539596359E+00  0.90007687588E+02  0.89999948264E+02 0.  0.
         12    1    1    2    0    0 -0.24401441933E-01  0.11450288659E+01 -0.28539596359E+00  0.11803124121E+01  0.00000000000E+00 0. -1.
         11    1    3    3    0    0  0.23469073159E+02 -0.24043810689E+02  0.27333086508E+01  0.33710135031E+02  0.51100000000E-03 0. -1.
        -11    1    3    3    0    0  0.11193466756E+02 -0.44101832686E+01 -0.19369580025E+01  0.12185861522E+02  0.51100000000E-03 0.  1.
        -12    1    3    3    0    0 -0.34638138473E+02  0.27308965092E+02 -0.51095468468E+00  0.44111691034E+02  0.00000000000E+00 0.  1.
</event>
<event>
 7    1  0.1698110E-015  0.9000777E+02  0.7816164E-02  0.1186339E+00
        -11   -1    0    0    0    0  0.00000000000E+00  0.00000000000E+00  0.45593999997E+02  0.45594000000E+02  0.51100000000E-03 0. -1.
         11   -1    0    0    0    0 -0.00000000000E+00 -0.00000000000E+00 -0.45593999997E+02  0.45594000000E+02  0.51100000000E-03 0.  1.
    9900012    2    1    2    0    0 -0.96262106699E+00  0.39391263324E+00 -0.55779273756E+00  0.90007771539E+02  0.90000033324E+02 0.  0.
         12    1    1    2    0    0  0.96262106699E+00 -0.39391263324E+00  0.55779273756E+00  0.11802284606E+01  0.00000000000E+00 0. -1.
         11    1    3    3    0    0  0.19636347883E+02  0.28700369595E+02  0.80423144389E+01  0.35692803124E+02  0.51100000000E-03 0. -1.
        -11    1    3    3    0    0  0.32096328698E+01  0.81916767551E+01  0.28687519827E+01  0.92539207592E+01  0.51100000000E-03 0.  1.
        -12    1    3    3    0    0 -0.23808601820E+02 -0.36498133717E+02 -0.11468859159E+02  0.45061047656E+02  0.00000000000E+00 0.  1.
</event>
<event>
 7    1  0.1698110E-015  0.9000777E+02  0.7816164E-02  0.1186339E+00
        -11   -1    0    0    0    0  0.00000000000E+00  0.00000000000E+00  0.45593999997E+02  0.45594000000E+02  0.51100000000E-03 0. -1.
         11   -1    0    0    0    0 -0.00000000000E+00 -0.00000000000E+00 -0.45593999997E+02  0.45594000000E+02  0.51100000000E-03 0.  1.
    9900012    2    1    2    0    0  0.11690375146E+01  0.16146206250E+00  0.14723024093E-01  0.90007773125E+02  0.90000034931E+02 0.  0.
         12    1    1    2    0    0 -0.11690375146E+01 -0.16146206250E+00 -0.14723024093E-01  0.11802268747E+01  0.00000000000E+00 0. -1.
         11    1    3    3    0    0  0.19868609882E+01  0.14755859135E+00  0.55893277945E+01  0.59337994220E+01  0.51100000000E-03 0. -1.
        -11    1    3    3    0    0  0.10393698927E+02 -0.36598435003E+01  0.37670138771E+02  0.39248729752E+02  0.51100000000E-03 0.  1.
        -12    1    3    3    0    0 -0.11211522401E+02  0.36737469715E+01 -0.43244743541E+02  0.44825243952E+02  0.00000000000E+00 0.  1.
</event>
<event>
 7    1  0.1698110E-015  0.9000773E+02  0.7816164E-02  0.1186339E+00
        -11   -1    0    0    0    0  0.00000000000E+00  0.00000000000E+00  0.45593999997E+02  0.45594000000E+02  0.51100000000E-03 0. -1.
         11   -1    0    0    0    0 -0.00000000000E+00 -0.00000000000E+00 -0.45593999997E+02  0.45594000000E+02  0.51100000000E-03 0.  1.
    9900012    2    1    2    0    0  0.96314603773E+00  0.24827314360E+00  0.63540401731E+00  0.90007733882E+02  0.89999995169E+02 0.  0.
         12    1    1    2    0    0 -0.96314603773E+00 -0.24827314360E+00 -0.63540401731E+00  0.11802661179E+01  0.00000000000E+00 0. -1.
         11    1    3    3    0    0 -0.20260494484E+02 -0.13177825209E+02 -0.35251837818E+02  0.42741487852E+02  0.51100000000E-03 0. -1.
        -11    1    3    3    0    0  0.92599129823E+01 -0.46622942587E+00  0.32364904277E+01  0.98202967811E+01  0.51100000000E-03 0.  1.
        -12    1    3    3    0    0  0.11963727540E+02  0.13892327778E+02  0.32650751407E+02  0.37445949250E+02  0.00000000000E+00 0.  1.
</event>
<event>
 7    1  0.1698110E-015  0.9000753E+02  0.7816164E-02  0.1186339E+00
        -11   -1    0    0    0    0  0.00000000000E+00  0.00000000000E+00  0.45593999997E+02  0.45594000000E+02  0.51100000000E-03 0.  1.
         11   -1    0    0    0    0 -0.00000000000E+00 -0.00000000000E+00 -0.45593999997E+02  0.45594000000E+02  0.51100000000E-03 0. -1.
    9900012    2    1    2    0    0  0.43625511319E+00 -0.10638268463E+01  0.26734538015E+00  0.90007525674E+02  0.89999784212E+02 0.  0.
         12    1    1    2    0    0 -0.43625511319E+00  0.10638268463E+01 -0.26734538015E+00  0.11804743262E+01  0.00000000000E+00 0. -1.
         11    1    3    3    0    0 -0.25523143657E+01 -0.55432370201E+01 -0.35906172859E+02  0.36421079541E+02  0.51100000000E-03 0. -1.
        -11    1    3    3    0    0  0.85208347590E+01 -0.17485867501E+01 -0.60200375473E+01  0.10578422990E+02  0.51100000000E-03 0.  1.
        -12    1    3    3    0    0 -0.55322652801E+01  0.62279969240E+01  0.42193555786E+02  0.43008023143E+02  0.00000000000E+00 0.  1.
</event>
<event>
 7    1  0.1698110E-015  0.9000770E+02  0.7816164E-02  0.1186339E+00
        -11   -1    0    0    0    0  0.00000000000E+00  0.00000000000E+00  0.45593999997E+02  0.45594000000E+02  0.51100000000E-03 0. -1.
         11   -1    0    0    0    0 -0.00000000000E+00 -0.00000000000E+00 -0.45593999997E+02  0.45594000000E+02  0.51100000000E-03 0.  1.
    9900012    2    1    2    0    0 -0.53243128864E+00  0.10203395906E+01  0.26177162408E+00  0.90007703283E+02  0.89999964166E+02 0.  0.
         12    1    1    2    0    0  0.53243128864E+00 -0.10203395906E+01 -0.26177162408E+00  0.11802967171E+01  0.00000000000E+00 0. -1.
         11    1    3    3    0    0  0.20543431353E+02  0.22315905586E+01  0.33588312673E+02  0.39435863331E+02  0.51100000000E-03 0. -1.
        -11    1    3    3    0    0  0.43252265170E+01  0.82652289021E+01 -0.27900162130E+01  0.97368261747E+01  0.51100000000E-03 0.  1.
        -12    1    3    3    0    0 -0.25401089158E+02 -0.94764798701E+01 -0.30536524836E+02  0.40835013777E+02  0.00000000000E+00 0.  1.
</event>
<event>
 7    1  0.1698110E-015  0.9000774E+02  0.7816164E-02  0.1186339E+00
        -11   -1    0    0    0    0  0.00000000000E+00  0.00000000000E+00  0.45593999997E+02  0.45594000000E+02  0.51100000000E-03 0. -1.
         11   -1    0    0    0    0 -0.00000000000E+00 -0.00000000000E+00 -0.45593999997E+02  0.45594000000E+02  0.51100000000E-03 0.  1.
    9900012    2    1    2    0    0  0.55156239856E+00 -0.72928851732E+00 -0.74627230205E+00  0.90007743600E+02  0.90000005015E+02 0.  0.
         12    1    1    2    0    0 -0.55156239856E+00  0.72928851732E+00  0.74627230205E+00  0.11802564000E+01  0.00000000000E+00 0. -1.
         11    1    3    3    0    0 -0.37087163200E+01  0.22286512145E+01  0.40951415950E+02  0.41179362933E+02  0.51100000000E-03 0. -1.
        -11    1    3    3    0    0 -0.47842291339E+01  0.52373895661E+01 -0.21082644902E+01  0.74002619747E+01  0.51100000000E-03 0.  1.
        -12    1    3    3    0    0  0.90445078524E+01 -0.81953292979E+01 -0.39589423762E+02  0.41428118692E+02  0.00000000000E+00 0.  1.
</event>
<event>
 7    1  0.1698110E-015  0.9000776E+02  0.7816164E-02  0.1186339E+00
        -11   -1    0    0    0    0  0.00000000000E+00  0.00000000000E+00  0.45593999997E+02  0.45594000000E+02  0.51100000000E-03 0.  1.
         11   -1    0    0    0    0 -0.00000000000E+00 -0.00000000000E+00 -0.45593999997E+02  0.45594000000E+02  0.51100000000E-03 0. -1.
    9900012    2    1    2    0    0  0.95084898851E-02 -0.11560965903E+01  0.23731822669E+00  0.90007758636E+02  0.90000020250E+02 0.  0.
         12    1    1    2    0    0 -0.95084898851E-02  0.11560965903E+01 -0.23731822669E+00  0.11802413644E+01  0.00000000000E+00 0. -1.
         11    1    3    3    0    0  0.12799582236E+02 -0.34252179682E+02 -0.11790057101E+02  0.38419351440E+02  0.51100000000E-03 0. -1.
        -11    1    3    3    0    0  0.50465744810E+01 -0.43831709712E+01  0.71627515069E+01  0.97971991490E+01  0.51100000000E-03 0.  1.
        -12    1    3    3    0    0 -0.17836648227E+02  0.37479254063E+02  0.48646238206E+01  0.41791208047E+02  0.00000000000E+00 0.  1.
</event>
<event>
 7    1  0.1698110E-015  0.9000767E+02  0.7816164E-02  0.1186339E+00
        -11   -1    0    0    0    0  0.00000000000E+00  0.00000000000E+00  0.45593999997E+02  0.45594000000E+02  0.51100000000E-03 0. -1.
         11   -1    0    0    0    0 -0.00000000000E+00 -0.00000000000E+00 -0.45593999997E+02  0.45594000000E+02  0.51100000000E-03 0.  1.
    9900012    2    1    2    0    0 -0.75788004586E+00  0.70083064934E+00 -0.57239623362E+00  0.90007668177E+02  0.89999928597E+02 0.  0.
         12    1    1    2    0    0  0.75788004586E+00 -0.70083064934E+00  0.57239623362E+00  0.11803318225E+01  0.00000000000E+00 0. -1.
         11    1    3    3    0    0 -0.28294717221E+02  0.74205504356E+01  0.81391235472E+01  0.30362821406E+02  0.51100000000E-03 0. -1.
        -11    1    3    3    0    0 -0.14863277047E+01  0.31434795050E+01 -0.24788592245E+02  0.25031279216E+02  0.51100000000E-03 0.  1.
         12    1    3    3    0    0  0.29023164880E+02 -0.98631992913E+01  0.16077072464E+02  0.34613567555E+02  0.00000000000E+00 0. -1.
</event>
<event>
 7    1  0.1698110E-015  0.9000772E+02  0.7816164E-02  0.1186339E+00
        -11   -1    0    0    0    0  0.00000000000E+00  0.00000000000E+00  0.45593999997E+02  0.45594000000E+02  0.51100000000E-03 0.  1.
         11   -1    0    0    0    0 -0.00000000000E+00 -0.00000000000E+00 -0.45593999997E+02  0.45594000000E+02  0.51100000000E-03 0. -1.
    9900012    2    1    2    0    0 -0.11255155492E+01  0.35387493003E+00 -0.32427088656E-01  0.90007718579E+02  0.89999979664E+02 0.  0.
         12    1    1    2    0    0  0.11255155492E+01 -0.35387493003E+00  0.32427088656E-01  0.11802814214E+01  0.00000000000E+00 0. -1.
         11    1    3    3    0    0 -0.26382724925E+02  0.78336910392E+01  0.34680928571E+01  0.27738827627E+02  0.51100000000E-03 0. -1.
        -11    1    3    3    0    0  0.45078308648E+01  0.14285430410E+02  0.19371726743E+02  0.24487912495E+02  0.51100000000E-03 0.  1.
         12    1    3    3    0    0  0.20749378511E+02 -0.21765246519E+02 -0.22872246688E+02  0.37780978457E+02  0.00000000000E+00 0. -1.
</event>
<event>
 7    1  0.1698110E-015  0.9000774E+02  0.7816164E-02  0.1186339E+00
        -11   -1    0    0    0    0  0.00000000000E+00  0.00000000000E+00  0.45593999997E+02  0.45594000000E+02  0.51100000000E-03 0. -1.
         11   -1    0    0    0    0 -0.00000000000E+00 -0.00000000000E+00 -0.45593999997E+02  0.45594000000E+02  0.51100000000E-03 0.  1.
    9900012    2    1    2    0    0  0.73829624997E+00 -0.87091529436E+00  0.29906986686E+00  0.90007738339E+02  0.89999999685E+02 0.  0.
         12    1    1    2    0    0 -0.73829624997E+00  0.87091529436E+00 -0.29906986686E+00  0.11802616608E+01  0.00000000000E+00 0. -1.
         11    1    3    3    0    0  0.81385618169E+01  0.42225565951E+01  0.18330625382E+01  0.93502027345E+01  0.51100000000E-03 0. -1.
        -11    1    3    3    0    0 -0.28037384945E+02  0.12273098785E+02 -0.28999577000E+02  0.42162772380E+02  0.51100000000E-03 0.  1.
         12    1    3    3    0    0  0.20637119378E+02 -0.17366570674E+02  0.27465584329E+02  0.38494763225E+02  0.00000000000E+00 0. -1.
</event>
<event>
 7    1  0.1698110E-015  0.9000778E+02  0.7816164E-02  0.1186339E+00
        -11   -1    0    0    0    0  0.00000000000E+00  0.00000000000E+00  0.45593999997E+02  0.45594000000E+02  0.51100000000E-03 0.  1.
         11   -1    0    0    0    0 -0.00000000000E+00 -0.00000000000E+00 -0.45593999997E+02  0.45594000000E+02  0.51100000000E-03 0. -1.
    9900012    2    1    2    0    0  0.41360467304E-01 -0.88947278067E-01  0.11761413419E+01  0.90007775122E+02  0.90000036954E+02 0.  0.
         12    1    1    2    0    0 -0.41360467304E-01  0.88947278067E-01 -0.11761413419E+01  0.11802248780E+01  0.00000000000E+00 0. -1.
         11    1    3    3    0    0  0.16105430559E+02 -0.30679659259E+02 -0.15610582878E+02  0.38004166663E+02  0.51100000000E-03 0. -1.
        -11    1    3    3    0    0  0.69596353317E+01 -0.30285698862E+01  0.64626936236E+01  0.99687094771E+01  0.51100000000E-03 0.  1.
        -12    1    3    3    0    0 -0.23023705423E+02  0.33619281867E+02  0.10324030596E+02  0.42034898982E+02  0.00000000000E+00 0.  1.
</event>
<event>
 7    1  0.1698110E-015  0.9000796E+02  0.7816164E-02  0.1186339E+00
        -11   -1    0    0    0    0  0.00000000000E+00  0.00000000000E+00  0.45593999997E+02  0.45594000000E+02  0.51100000000E-03 0. -1.
         11   -1    0    0    0    0 -0.00000000000E+00 -0.00000000000E+00 -0.45593999997E+02  0.45594000000E+02  0.51100000000E-03 0.  1.
    9900012    2    1    2    0    0 -0.35088125333E+00  0.10442802985E+01  0.42290729253E+00  0.90007962046E+02  0.90000226344E+02 0.  0.
         12    1    1    2    0    0  0.35088125333E+00 -0.10442802985E+01 -0.42290729253E+00  0.11800379545E+01  0.00000000000E+00 0. -1.
         11    1    3    3    0    0  0.63455591051E+01 -0.97017310029E+01 -0.13897818889E+01  0.11675666952E+02  0.51100000000E-03 0. -1.
        -11    1    3    3    0    0  0.20662247563E+02 -0.20962410797E+02 -0.15202314943E+02  0.33127956783E+02  0.51100000000E-03 0.  1.
         12    1    3    3    0    0 -0.27358687921E+02  0.31708422098E+02  0.17015004124E+02  0.45204338310E+02  0.00000000000E+00 0. -1.
</event>
<event>
 7    1  0.1698110E-015  0.9000780E+02  0.7816164E-02  0.1186339E+00
        -11   -1    0    0    0    0  0.00000000000E+00  0.00000000000E+00  0.45593999997E+02  0.45594000000E+02  0.51100000000E-03 0. -1.
         11   -1    0    0    0    0 -0.00000000000E+00 -0.00000000000E+00 -0.45593999997E+02  0.45594000000E+02  0.51100000000E-03 0.  1.
    9900012    2    1    2    0    0  0.65381370919E+00 -0.87450976425E+00 -0.44793227118E+00  0.90007795351E+02  0.90000057450E+02 0.  0.
         12    1    1    2    0    0 -0.65381370919E+00  0.87450976425E+00  0.44793227118E+00  0.11802046491E+01  0.00000000000E+00 0. -1.
         11    1    3    3    0    0 -0.38763231071E+01  0.22391904466E+01 -0.88089554516E+01  0.98811715447E+01  0.51100000000E-03 0. -1.
        -11    1    3    3    0    0  0.39273104631E+02 -0.14488737994E+02  0.11565344642E+02  0.43428763199E+02  0.51100000000E-03 0.  1.
         12    1    3    3    0    0 -0.34742967815E+02  0.11375037783E+02 -0.32043214619E+01  0.36697860608E+02  0.00000000000E+00 0. -1.
</event>
<event>
 7    1  0.1698110E-015  0.9000775E+02  0.7816164E-02  0.1186339E+00
        -11   -1    0    0    0    0  0.00000000000E+00  0.00000000000E+00  0.45593999997E+02  0.45594000000E+02  0.51100000000E-03 0.  1.
         11   -1    0    0    0    0 -0.00000000000E+00 -0.00000000000E+00 -0.45593999997E+02  0.45594000000E+02  0.51100000000E-03 0. -1.
    9900012    2    1    2    0    0  0.87555937867E+00 -0.43832340056E+00  0.65898537604E+00  0.90007748605E+02  0.90000010087E+02 0.  0.
         12    1    1    2    0    0 -0.87555937867E+00  0.43832340056E+00 -0.65898537604E+00  0.11802513948E+01  0.00000000000E+00 0. -1.
         11    1    3    3    0    0  0.72833136794E+01 -0.63291414305E+00  0.41016480558E+01  0.83827653850E+01  0.51100000000E-03 0. -1.
        -11    1    3    3    0    0  0.20673125671E+02 -0.32653866438E+02 -0.53151571584E+01  0.39011588205E+02  0.51100000000E-03 0.  1.
         12    1    3    3    0    0 -0.27080879972E+02  0.32848457180E+02  0.18724944787E+01  0.42613395016E+02  0.00000000000E+00 0. -1.
</event>
<event>
 7    1  0.1698110E-015  0.9000767E+02  0.7816164E-02  0.1186339E+00
        -11   -1    0    0    0    0  0.00000000000E+00  0.00000000000E+00  0.45593999997E+02  0.45594000000E+02  0.51100000000E-03 0. -1.
         11   -1    0    0    0    0 -0.00000000000E+00 -0.00000000000E+00 -0.45593999997E+02  0.45594000000E+02  0.51100000000E-03 0.  1.
    9900012    2    1    2    0    0 -0.82752187386E+00  0.43661310214E+00 -0.71954736208E+00  0.90007672986E+02  0.89999933470E+02 0.  0.
         12    1    1    2    0    0  0.82752187386E+00 -0.43661310214E+00  0.71954736208E+00  0.11803270136E+01  0.00000000000E+00 0. -1.
         11    1    3    3    0    0 -0.21811891035E+02  0.28006727401E+02  0.17802939276E+02  0.39712466775E+02  0.51100000000E-03 0. -1.
        -11    1    3    3    0    0 -0.62550983798E+01 -0.31988370060E+01  0.32611077337E+01  0.77455560061E+01  0.51100000000E-03 0.  1.
        -12    1    3    3    0    0  0.27239467541E+02 -0.24371277293E+02 -0.21783594372E+02  0.42549650205E+02  0.00000000000E+00 0.  1.
</event>
<event>
 7    1  0.1698110E-015  0.9000779E+02  0.7816164E-02  0.1186339E+00
        -11   -1    0    0    0    0  0.00000000000E+00  0.00000000000E+00  0.45593999997E+02  0.45594000000E+02  0.51100000000E-03 0. -1.
         11   -1    0    0    0    0 -0.00000000000E+00 -0.00000000000E+00 -0.45593999997E+02  0.45594000000E+02  0.51100000000E-03 0.  1.
    9900012    2    1    2    0    0  0.11534703225E+01 -0.20525723992E+00 -0.14240288170E+00  0.90007786926E+02  0.90000048913E+02 0.  0.
         12    1    1    2    0    0 -0.11534703225E+01  0.20525723992E+00  0.14240288170E+00  0.11802130740E+01  0.00000000000E+00 0. -1.
         11    1    3    3    0    0 -0.13520240647E+02  0.29636274063E+02 -0.97657767120E+00  0.32589252089E+02  0.51100000000E-03 0. -1.
        -11    1    3    3    0    0 -0.16437708752E+01  0.11708239468E+02  0.44511649283E+01  0.12633199263E+02  0.51100000000E-03 0.  1.
        -12    1    3    3    0    0  0.16317481845E+02 -0.41549770771E+02 -0.36169901388E+01  0.44785335575E+02  0.00000000000E+00 0.  1.
</event>
<event>
 7    1  0.1698110E-015  0.9000689E+02  0.7816164E-02  0.1186341E+00
        -11   -1    0    0    0    0  0.00000000000E+00  0.00000000000E+00  0.45593999997E+02  0.45594000000E+02  0.51100000000E-03 0.  1.
         11   -1    0    0    0    0 -0.00000000000E+00 -0.00000000000E+00 -0.45593999997E+02  0.45594000000E+02  0.51100000000E-03 0. -1.
    9900012    2    1    2    0    0  0.85050026211E+00 -0.77008183126E+00 -0.28042928105E+00  0.90006891493E+02  0.89999141657E+02 0.  0.
         12    1    1    2    0    0 -0.85050026211E+00  0.77008183126E+00  0.28042928105E+00  0.11811085066E+01  0.00000000000E+00 0. -1.
         11    1    3    3    0    0  0.37059165784E+01 -0.43446564503E+01 -0.79896182104E+01  0.98205833211E+01  0.51100000000E-03 0. -1.
        -11    1    3    3    0    0  0.20945166634E+02 -0.30738928929E+02 -0.22184589572E+01  0.37262626282E+02  0.51100000000E-03 0.  1.
         12    1    3    3    0    0 -0.23800582950E+02  0.34313503548E+02  0.99276478865E+01  0.42923681891E+02  0.00000000000E+00 0. -1.
</event>
<event>
 7    1  0.1698110E-015  0.9000768E+02  0.7816164E-02  0.1186339E+00
        -11   -1    0    0    0    0  0.00000000000E+00  0.00000000000E+00  0.45593999997E+02  0.45594000000E+02  0.51100000000E-03 0. -1.
         11   -1    0    0    0    0 -0.00000000000E+00 -0.00000000000E+00 -0.45593999997E+02  0.45594000000E+02  0.51100000000E-03 0.  1.
    9900012    2    1    2    0    0  0.99210429103E-01  0.89032696927E+00  0.76852819453E+00  0.90007677838E+02  0.89999938385E+02 0.  0.
         12    1    1    2    0    0 -0.99210429103E-01 -0.89032696927E+00 -0.76852819453E+00  0.11803221625E+01  0.00000000000E+00 0. -1.
         11    1    3    3    0    0  0.66931680039E+01  0.14628127828E+01  0.36620430143E+02  0.37255794493E+02  0.51100000000E-03 0. -1.
        -11    1    3    3    0    0  0.46450419845E+01 -0.76037804569E+01  0.47098991094E+01  0.10078543652E+02  0.51100000000E-03 0.  1.
        -12    1    3    3    0    0 -0.11238999559E+02  0.70312946434E+01 -0.40561801058E+02  0.42673339692E+02  0.00000000000E+00 0.  1.
</event>
<event>
 7    1  0.1698110E-015  0.9000765E+02  0.7816164E-02  0.1186339E+00
        -11   -1    0    0    0    0  0.00000000000E+00  0.00000000000E+00  0.45593999997E+02  0.45594000000E+02  0.51100000000E-03 0.  1.
         11   -1    0    0    0    0 -0.00000000000E+00 -0.00000000000E+00 -0.45593999997E+02  0.45594000000E+02  0.51100000000E-03 0. -1.
    9900012    2    1    2    0    0  0.59303988435E+00 -0.15309569800E+00  0.10090032769E+01  0.90007651657E+02  0.89999911859E+02 0.  0.
         12    1    1    2    0    0 -0.59303988435E+00  0.15309569800E+00 -0.10090032769E+01  0.11803483426E+01  0.00000000000E+00 0. -1.
         11    1    3    3    0    0 -0.11106400543E+01 -0.88704422481E+01  0.56363720649E+01  0.10568205019E+02  0.51100000000E-03 0. -1.
        -11    1    3    3    0    0  0.16750158992E+02  0.30422330908E+02  0.22657480525E+02  0.41466220809E+02  0.51100000000E-03 0.  1.
         12    1    3    3    0    0 -0.15046479054E+02 -0.21704984358E+02 -0.27284849313E+02  0.37973225830E+02  0.00000000000E+00 0. -1.
</event>
<event>
 7    1  0.1698110E-015  0.9000770E+02  0.7816164E-02  0.1186339E+00
        -11   -1    0    0    0    0  0.00000000000E+00  0.00000000000E+00  0.45593999997E+02  0.45594000000E+02  0.51100000000E-03 0.  1.
         11   -1    0    0    0    0 -0.00000000000E+00 -0.00000000000E+00 -0.45593999997E+02  0.45594000000E+02  0.51100000000E-03 0. -1.
    9900012    2    1    2    0    0  0.39495188431E+00 -0.93044774994E+00 -0.60942479850E+00  0.90007695551E+02  0.89999956333E+02 0.  0.
         12    1    1    2    0    0 -0.39495188431E+00  0.93044774994E+00  0.60942479850E+00  0.11803044486E+01  0.00000000000E+00 0. -1.
         11    1    3    3    0    0 -0.99407686814E+01  0.41526575983E+01  0.18728367947E+00  0.10774902438E+02  0.51100000000E-03 0. -1.
        -11    1    3    3    0    0 -0.26309496928E+02  0.21230877022E+02 -0.37908944010E+01  0.34019268780E+02  0.51100000000E-03 0.  1.
         12    1    3    3    0    0  0.36645217493E+02 -0.26313982370E+02  0.29941859231E+01  0.45213524334E+02  0.00000000000E+00 0. -1.
</event>
<event>
 7    1  0.1698110E-015  0.9000778E+02  0.7816164E-02  0.1186339E+00
        -11   -1    0    0    0    0  0.00000000000E+00  0.00000000000E+00  0.45593999997E+02  0.45594000000E+02  0.51100000000E-03 0.  1.
         11   -1    0    0    0    0 -0.00000000000E+00 -0.00000000000E+00 -0.45593999997E+02  0.45594000000E+02  0.51100000000E-03 0. -1.
    9900012    2    1    2    0    0 -0.77226133904E+00  0.82703780276E+00  0.33546975143E+00  0.90007780081E+02  0.90000041978E+02 0.  0.
         12    1    1    2    0    0  0.77226133904E+00 -0.82703780276E+00 -0.33546975143E+00  0.11802199190E+01  0.00000000000E+00 0. -1.
         11    1    3    3    0    0 -0.23290367938E+02 -0.81412296374E+01 -0.30666639062E+02  0.39359415777E+02  0.51100000000E-03 0. -1.
        -11    1    3    3    0    0  0.81694262333E+01 -0.72239123733E+00 -0.57538558614E+01  0.10018394663E+02  0.51100000000E-03 0.  1.
        -12    1    3    3    0    0  0.14348680366E+02  0.96906586775E+01  0.36755964675E+02  0.40629969641E+02  0.00000000000E+00 0.  1.
</event>
<event>
 7    1  0.1698110E-015  0.9000775E+02  0.7816164E-02  0.1186339E+00
        -11   -1    0    0    0    0  0.00000000000E+00  0.00000000000E+00  0.45593999997E+02  0.45594000000E+02  0.51100000000E-03 0. -1.
         11   -1    0    0    0    0 -0.00000000000E+00 -0.00000000000E+00 -0.45593999997E+02  0.45594000000E+02  0.51100000000E-03 0.  1.
    9900012    2    1    2    0    0  0.33625932086E-01  0.99932739143E+00 -0.62706181706E+00  0.90007748984E+02  0.90000010470E+02 0.  0.
         12    1    1    2    0    0 -0.33625932086E-01 -0.99932739143E+00  0.62706181706E+00  0.11802510161E+01  0.00000000000E+00 0. -1.
         11    1    3    3    0    0  0.97722867669E+01 -0.23984971122E+01 -0.19305530308E+00  0.10064176452E+02  0.51100000000E-03 0. -1.
        -11    1    3    3    0    0  0.23066111272E+02  0.33373640791E+01 -0.28468362147E+02  0.36791726404E+02  0.51100000000E-03 0.  1.
         12    1    3    3    0    0 -0.32804772107E+02  0.60460424572E-01  0.28034355633E+02  0.43151846127E+02  0.00000000000E+00 0. -1.
</event>
<event>
 7    1  0.1698110E-015  0.9000786E+02  0.7816164E-02  0.1186339E+00
        -11   -1    0    0    0    0  0.00000000000E+00  0.00000000000E+00  0.45593999997E+02  0.45594000000E+02  0.51100000000E-03 0.  1.
         11   -1    0    0    0    0 -0.00000000000E+00 -0.00000000000E+00 -0.45593999997E+02  0.45594000000E+02  0.51100000000E-03 0. -1.
    9900012    2    1    2    0    0 -0.14758031656E+00 -0.39305585276E-01  0.11702189402E+01  0.90007857107E+02  0.90000120021E+02 0.  0.
         12    1    1    2    0    0  0.14758031656E+00  0.39305585276E-01 -0.11702189402E+01  0.11801428925E+01  0.00000000000E+00 0. -1.
         11    1    3    3    0    0  0.69508650610E+01 -0.49309569365E+01 -0.42019643210E+01  0.95018611767E+01  0.51100000000E-03 0. -1.
        -11    1    3    3    0    0 -0.16763825415E+02 -0.19319632089E+02  0.33504198061E+02  0.42152168563E+02  0.51100000000E-03 0.  1.
         12    1    3    3    0    0  0.96653800370E+01  0.24211283440E+02 -0.28132014800E+02  0.38353827368E+02  0.00000000000E+00 0. -1.
</event>
<event>
 7    1  0.1698110E-015  0.9000764E+02  0.7816164E-02  0.1186339E+00
        -11   -1    0    0    0    0  0.00000000000E+00  0.00000000000E+00  0.45593999997E+02  0.45594000000E+02  0.51100000000E-03 0.  1.
         11   -1    0    0    0    0 -0.00000000000E+00 -0.00000000000E+00 -0.45593999997E+02  0.45594000000E+02  0.51100000000E-03 0. -1.
    9900012    2    1    2    0    0  0.91007199114E-02  0.66110182306E+00  0.97781542942E+00  0.90007635032E+02  0.89999895014E+02 0.  0.
         12    1    1    2    0    0 -0.91007199114E-02 -0.66110182306E+00 -0.97781542942E+00  0.11803649680E+01  0.00000000000E+00 0. -1.
         11    1    3    3    0    0  0.29011656615E+01  0.70457583257E+01 -0.18189135583E+01  0.78337678912E+01  0.51100000000E-03 0. -1.
        -11    1    3    3    0    0 -0.28171328955E+02  0.19202532631E+02  0.22802394168E+02  0.41015975114E+02  0.51100000000E-03 0.  1.
         12    1    3    3    0    0  0.25279264013E+02 -0.25587189133E+02 -0.20005665180E+02  0.41157892027E+02  0.00000000000E+00 0. -1.
</event>
<event>
 7    1  0.1698110E-015  0.9000775E+02  0.7816164E-02  0.1186339E+00
        -11   -1    0    0    0    0  0.00000000000E+00  0.00000000000E+00  0.45593999997E+02  0.45594000000E+02  0.51100000000E-03 0.  1.
         11   -1    0    0    0    0 -0.00000000000E+00 -0.00000000000E+00 -0.45593999997E+02  0.45594000000E+02  0.51100000000E-03 0. -1.
    9900012    2    1    2    0    0  0.78760424828E+00 -0.21538819449E+00  0.85221729227E+00  0.90007751365E+02  0.90000012883E+02 0.  0.
         12    1    1    2    0    0 -0.78760424828E+00  0.21538819449E+00 -0.85221729227E+00  0.11802486346E+01  0.00000000000E+00 0. -1.
         11    1    3    3    0    0 -0.20504155400E+02 -0.50248567597E+01  0.43625767867E+01  0.21556939732E+02  0.51100000000E-03 0. -1.
        -11    1    3    3    0    0 -0.72434223611E+01 -0.17573504058E+02 -0.20882924626E+02  0.28238125887E+02  0.51100000000E-03 0.  1.
        -12    1    3    3    0    0  0.28535182009E+02  0.22382972623E+02  0.17372565132E+02  0.40212685747E+02  0.00000000000E+00 0.  1.
</event>
<event>
 7    1  0.1698110E-015  0.9000767E+02  0.7816164E-02  0.1186339E+00
        -11   -1    0    0    0    0  0.00000000000E+00  0.00000000000E+00  0.45593999997E+02  0.45594000000E+02  0.51100000000E-03 0. -1.
         11   -1    0    0    0    0 -0.00000000000E+00 -0.00000000000E+00 -0.45593999997E+02  0.45594000000E+02  0.51100000000E-03 0.  1.
    9900012    2    1    2    0    0 -0.55685770333E+00  0.96940686017E+00 -0.37861365512E+00  0.90007665953E+02  0.89999926344E+02 0.  0.
         12    1    1    2    0    0  0.55685770333E+00 -0.96940686017E+00  0.37861365512E+00  0.11803340469E+01  0.00000000000E+00 0. -1.
         11    1    3    3    0    0  0.28709036050E+02  0.32103613138E+02  0.11091782781E+02  0.44473344522E+02  0.51100000000E-03 0. -1.
        -11    1    3    3    0    0 -0.72504206407E+01 -0.23542812833E+01 -0.37092350455E+01  0.84775978150E+01  0.51100000000E-03 0.  1.
        -12    1    3    3    0    0 -0.22015473113E+02 -0.28779924994E+02 -0.77611613909E+01  0.37056723616E+02  0.00000000000E+00 0.  1.
</event>
<event>
 7    1  0.1698110E-015  0.9000775E+02  0.7816164E-02  0.1186339E+00
        -11   -1    0    0    0    0  0.00000000000E+00  0.00000000000E+00  0.45593999997E+02  0.45594000000E+02  0.51100000000E-03 0. -1.
         11   -1    0    0    0    0 -0.00000000000E+00 -0.00000000000E+00 -0.45593999997E+02  0.45594000000E+02  0.51100000000E-03 0.  1.
    9900012    2    1    2    0    0  0.37466309050E+00 -0.11184879105E+01  0.40134026824E-01  0.90007746478E+02  0.90000007931E+02 0.  0.
         12    1    1    2    0    0 -0.37466309050E+00  0.11184879105E+01 -0.40134026824E-01  0.11802535225E+01  0.00000000000E+00 0. -1.
         11    1    3    3    0    0 -0.16969733480E+02  0.18184782224E+02  0.30204656076E+02  0.39127731954E+02  0.51100000000E-03 0. -1.
        -11    1    3    3    0    0 -0.85499020086E+01 -0.19813010368E+00 -0.41792203948E+01  0.95187164715E+01  0.51100000000E-03 0.  1.
        -12    1    3    3    0    0  0.25894298579E+02 -0.19105140031E+02 -0.25985301654E+02  0.41361298052E+02  0.00000000000E+00 0.  1.
</event>
<event>
 7    1  0.1698110E-015  0.9000764E+02  0.7816164E-02  0.1186339E+00
        -11   -1    0    0    0    0  0.00000000000E+00  0.00000000000E+00  0.45593999997E+02  0.45594000000E+02  0.51100000000E-03 0.  1.
         11   -1    0    0    0    0 -0.00000000000E+00 -0.00000000000E+00 -0.45593999997E+02  0.45594000000E+02  0.51100000000E-03 0. -1.
    9900012    2    1    2    0    0  0.10692667749E+01  0.49872847757E+00 -0.34622255812E-01  0.90007635552E+02  0.89999895541E+02 0.  0.
         12    1    1    2    0    0 -0.10692667749E+01 -0.49872847757E+00  0.34622255812E-01  0.11803644483E+01  0.00000000000E+00 0. -1.
         11    1    3    3    0    0  0.11949530480E+02 -0.30575820503E+02  0.17967226270E+02  0.37423165262E+02  0.51100000000E-03 0. -1.
        -11    1    3    3    0    0  0.26298252158E+01  0.32472407984E+01  0.10013447355E+02  0.10850330947E+02  0.51100000000E-03 0.  1.
        -12    1    3    3    0    0 -0.13510088921E+02  0.27827308182E+02 -0.28015295882E+02  0.41734139342E+02  0.00000000000E+00 0.  1.
</event>
<event>
 7    1  0.1698110E-015  0.9000754E+02  0.7816164E-02  0.1186339E+00
        -11   -1    0    0    0    0  0.00000000000E+00  0.00000000000E+00  0.45593999997E+02  0.45594000000E+02  0.51100000000E-03 0. -1.
         11   -1    0    0    0    0 -0.00000000000E+00 -0.00000000000E+00 -0.45593999997E+02  0.45594000000E+02  0.51100000000E-03 0.  1.
    9900012    2    1    2    0    0 -0.14046521663E+00  0.52849037152E+00 -0.10461665994E+01  0.90007535217E+02  0.89999793882E+02 0.  0.
         12    1    1    2    0    0  0.14046521663E+00 -0.52849037152E+00  0.10461665994E+01  0.11804647828E+01  0.00000000000E+00 0. -1.
         11    1    3    3    0    0 -0.19608287918E+02  0.39076526701E+02  0.66302940111E+01  0.44220138998E+02  0.51100000000E-03 0. -1.
        -11    1    3    3    0    0 -0.78416949592E+00 -0.97317505141E+01 -0.32462425604E+01  0.10288827965E+02  0.51100000000E-03 0.  1.
        -12    1    3    3    0    0  0.20251992198E+02 -0.28816285815E+02 -0.44302180500E+01  0.35498568254E+02  0.00000000000E+00 0.  1.
</event>
<event>
 7    1  0.1698110E-015  0.9000773E+02  0.7816164E-02  0.1186339E+00
        -11   -1    0    0    0    0  0.00000000000E+00  0.00000000000E+00  0.45593999997E+02  0.45594000000E+02  0.51100000000E-03 0.  1.
         11   -1    0    0    0    0 -0.00000000000E+00 -0.00000000000E+00 -0.45593999997E+02  0.45594000000E+02  0.51100000000E-03 0. -1.
    9900012    2    1    2    0    0  0.11124488054E+01  0.24917274254E+00  0.30562281622E+00  0.90007731087E+02  0.89999992338E+02 0.  0.
         12    1    1    2    0    0 -0.11124488054E+01 -0.24917274254E+00 -0.30562281622E+00  0.11802689126E+01  0.00000000000E+00 0. -1.
         11    1    3    3    0    0 -0.12115907628E+02 -0.10204592853E+01 -0.25879712681E+01  0.12431176548E+02  0.51100000000E-03 0. -1.
        -11    1    3    3    0    0 -0.21643640254E+02 -0.10995062565E+01  0.27366479642E+02  0.34908169326E+02  0.51100000000E-03 0.  1.
         12    1    3    3    0    0  0.34871996688E+02  0.23691382843E+01 -0.24472885558E+02  0.42668385213E+02  0.00000000000E+00 0. -1.
</event>
<event>
 7    1  0.1698110E-015  0.9000775E+02  0.7816164E-02  0.1186339E+00
        -11   -1    0    0    0    0  0.00000000000E+00  0.00000000000E+00  0.45593999997E+02  0.45594000000E+02  0.51100000000E-03 0.  1.
         11   -1    0    0    0    0 -0.00000000000E+00 -0.00000000000E+00 -0.45593999997E+02  0.45594000000E+02  0.51100000000E-03 0. -1.
    9900012    2    1    2    0    0  0.84465842193E+00 -0.79913377249E+00  0.20230112556E+00  0.90007750712E+02  0.90000012222E+02 0.  0.
         12    1    1    2    0    0 -0.84465842193E+00  0.79913377249E+00 -0.20230112556E+00  0.11802492879E+01  0.00000000000E+00 0. -1.
         11    1    3    3    0    0  0.19091309170E+01 -0.39419368414E+02 -0.43804502556E+01  0.39707930338E+02  0.51100000000E-03 0. -1.
        -11    1    3    3    0    0  0.85567380375E+01 -0.14437036610E+01 -0.93960628938E+00  0.87283965506E+01  0.51100000000E-03 0.  1.
        -12    1    3    3    0    0 -0.96212105326E+01  0.40063938303E+02  0.55223576705E+01  0.41571423823E+02  0.00000000000E+00 0.  1.
</event>
<event>
 7    1  0.1698110E-015  0.9000780E+02  0.7816164E-02  0.1186339E+00
        -11   -1    0    0    0    0  0.00000000000E+00  0.00000000000E+00  0.45593999997E+02  0.45594000000E+02  0.51100000000E-03 0. -1.
         11   -1    0    0    0    0 -0.00000000000E+00 -0.00000000000E+00 -0.45593999997E+02  0.45594000000E+02  0.51100000000E-03 0.  1.
    9900012    2    1    2    0    0  0.14116706545E+00 -0.11330285486E+01 -0.29865179006E+00  0.90007798863E+02  0.90000061008E+02 0.  0.
         12    1    1    2    0    0 -0.14116706545E+00  0.11330285486E+01  0.29865179006E+00  0.11802011371E+01  0.00000000000E+00 0. -1.
         11    1    3    3    0    0 -0.45316547285E+01  0.14753413714E+02 -0.12884230726E+02  0.20104788296E+02  0.51100000000E-03 0. -1.
        -11    1    3    3    0    0  0.18179825792E+02 -0.40418153826E+01 -0.23266257583E+02  0.29802031468E+02  0.51100000000E-03 0.  1.
         12    1    3    3    0    0 -0.13507003998E+02 -0.11844626880E+02  0.35851836519E+02  0.40100979099E+02  0.00000000000E+00 0. -1.
</event>
<event>
 7    1  0.1698110E-015  0.9000723E+02  0.7816164E-02  0.1186340E+00
        -11   -1    0    0    0    0  0.00000000000E+00  0.00000000000E+00  0.45593999997E+02  0.45594000000E+02  0.51100000000E-03 0. -1.
         11   -1    0    0    0    0 -0.00000000000E+00 -0.00000000000E+00 -0.45593999997E+02  0.45594000000E+02  0.51100000000E-03 0.  1.
    9900012    2    1    2    0    0  0.51622306369E+00  0.94342027363E+00  0.48752444349E+00  0.90007234085E+02  0.89999488773E+02 0.  0.
         12    1    1    2    0    0 -0.51622306369E+00 -0.94342027363E+00 -0.48752444349E+00  0.11807659155E+01  0.00000000000E+00 0. -1.
         11    1    3    3    0    0 -0.71552219404E+01 -0.12655833200E+00 -0.36629197563E+01  0.80392909781E+01  0.51100000000E-03 0. -1.
        -11    1    3    3    0    0 -0.15378741857E+02 -0.35398846960E+02  0.42209653598E+01  0.38825257450E+02  0.51100000000E-03 0.  1.
         12    1    3    3    0    0  0.23050186861E+02  0.36468825565E+02 -0.70521159952E-01  0.43142685657E+02  0.00000000000E+00 0. -1.
</event>
<event>
 7    1  0.1698110E-015  0.9000778E+02  0.7816164E-02  0.1186339E+00
        -11   -1    0    0    0    0  0.00000000000E+00  0.00000000000E+00  0.45593999997E+02  0.45594000000E+02  0.51100000000E-03 0.  1.
         11   -1    0    0    0    0 -0.00000000000E+00 -0.00000000000E+00 -0.45593999997E+02  0.45594000000E+02  0.51100000000E-03 0. -1.
    9900012    2    1    2    0    0 -0.97668702018E+00  0.61426143949E+00  0.24834376624E+00  0.90007784224E+02  0.90000046176E+02 0.  0.
         12    1    1    2    0    0  0.97668702018E+00 -0.61426143949E+00 -0.24834376624E+00  0.11802157759E+01  0.00000000000E+00 0. -1.
         11    1    3    3    0    0 -0.21953380746E+00  0.10103639435E+01  0.11840995505E+02  0.11886050867E+02  0.51100000000E-03 0. -1.
        -11    1    3    3    0    0 -0.33827223446E+02  0.19598377943E+01  0.13570127495E+02  0.36500279050E+02  0.51100000000E-03 0.  1.
         12    1    3    3    0    0  0.33070070233E+02 -0.23559402982E+01 -0.25162779234E+02  0.41621454308E+02  0.00000000000E+00 0. -1.
</event>
<event>
 7    1  0.1698110E-015  0.9000771E+02  0.7816164E-02  0.1186339E+00
        -11   -1    0    0    0    0  0.00000000000E+00  0.00000000000E+00  0.45593999997E+02  0.45594000000E+02  0.51100000000E-03 0. -1.
         11   -1    0    0    0    0 -0.00000000000E+00 -0.00000000000E+00 -0.45593999997E+02  0.45594000000E+02  0.51100000000E-03 0.  1.
    9900012    2    1    2    0    0 -0.11468465308E-01 -0.77518988895E+00  0.88995739070E+00  0.90007713998E+02  0.89999975023E+02 0.  0.
         12    1    1    2    0    0  0.11468465308E-01  0.77518988895E+00 -0.88995739070E+00  0.11802860022E+01  0.00000000000E+00 0. -1.
         11    1    3    3    0    0 -0.72609163960E+01  0.77653396200E+01  0.34183545904E+02  0.35798550490E+02  0.51100000000E-03 0. -1.
        -11    1    3    3    0    0  0.31607559484E+01 -0.25693071747E+01  0.97472696419E+01  0.10564136655E+02  0.51100000000E-03 0.  1.
        -12    1    3    3    0    0  0.40886919823E+01 -0.59712223342E+01 -0.43040858155E+02  0.43645026854E+02  0.00000000000E+00 0.  1.
</event>
<event>
 7    1  0.1698110E-015  0.9000773E+02  0.7816164E-02  0.1186339E+00
        -11   -1    0    0    0    0  0.00000000000E+00  0.00000000000E+00  0.45593999997E+02  0.45594000000E+02  0.51100000000E-03 0.  1.
         11   -1    0    0    0    0 -0.00000000000E+00 -0.00000000000E+00 -0.45593999997E+02  0.45594000000E+02  0.51100000000E-03 0. -1.
    9900012    2    1    2    0    0  0.11247015541E+01  0.17810127431E+00 -0.31043433306E+00  0.90007727521E+02  0.89999988724E+02 0.  0.
         12    1    1    2    0    0 -0.11247015541E+01 -0.17810127431E+00  0.31043433306E+00  0.11802724790E+01  0.00000000000E+00 0. -1.
         11    1    3    3    0    0  0.10917498359E+02 -0.25805453438E+02 -0.23171635525E+02  0.36359838981E+02  0.51100000000E-03 0. -1.
        -11    1    3    3    0    0  0.86962657763E+01 -0.63042231542E+01  0.17909631190E+01  0.10889252370E+02  0.51100000000E-03 0.  1.
        -12    1    3    3    0    0 -0.18489062581E+02  0.32287777866E+02  0.21070238073E+02  0.42758636170E+02  0.00000000000E+00 0.  1.
</event>
<event>
 7    1  0.1698110E-015  0.9000788E+02  0.7816164E-02  0.1186339E+00
        -11   -1    0    0    0    0  0.00000000000E+00  0.00000000000E+00  0.45593999997E+02  0.45594000000E+02  0.51100000000E-03 0.  1.
         11   -1    0    0    0    0 -0.00000000000E+00 -0.00000000000E+00 -0.45593999997E+02  0.45594000000E+02  0.51100000000E-03 0. -1.
    9900012    2    1    2    0    0 -0.98659623708E+00 -0.50209875569E+00  0.40891787708E+00  0.90007877495E+02  0.90000140678E+02 0.  0.
         12    1    1    2    0    0  0.98659623708E+00  0.50209875569E+00 -0.40891787708E+00  0.11801225045E+01  0.00000000000E+00 0. -1.
         11    1    3    3    0    0 -0.19013197849E+02  0.74691958835E+01 -0.13697488461E+02  0.24594954158E+02  0.51100000000E-03 0. -1.
        -11    1    3    3    0    0 -0.42648169416E+01 -0.23811059261E+02 -0.12526315461E+02  0.27240847747E+02  0.51100000000E-03 0.  1.
         12    1    3    3    0    0  0.22291418554E+02  0.15839764622E+02  0.26632721800E+02  0.38172075591E+02  0.00000000000E+00 0. -1.
</event>
<event>
 7    1  0.1698110E-015  0.9000780E+02  0.7816164E-02  0.1186339E+00
        -11   -1    0    0    0    0  0.00000000000E+00  0.00000000000E+00  0.45593999997E+02  0.45594000000E+02  0.51100000000E-03 0. -1.
         11   -1    0    0    0    0 -0.00000000000E+00 -0.00000000000E+00 -0.45593999997E+02  0.45594000000E+02  0.51100000000E-03 0.  1.
    9900012    2    1    2    0    0 -0.54059877388E+00  0.62464993305E+00 -0.84287010937E+00  0.90007803154E+02  0.90000065356E+02 0.  0.
         12    1    1    2    0    0  0.54059877388E+00 -0.62464993305E+00  0.84287010937E+00  0.11801968456E+01  0.00000000000E+00 0. -1.
         11    1    3    3    0    0 -0.27057167546E+01  0.98460363911E+01  0.19569059471E+01  0.10396865726E+02  0.51100000000E-03 0. -1.
        -11    1    3    3    0    0  0.21799907468E+02  0.17053844171E+02 -0.27141053502E+02  0.38764756572E+02  0.51100000000E-03 0.  1.
         12    1    3    3    0    0 -0.19634789488E+02 -0.26275230630E+02  0.24341277446E+02  0.40846180856E+02  0.00000000000E+00 0. -1.
</event>
<event>
 7    1  0.1698110E-015  0.9000768E+02  0.7816164E-02  0.1186339E+00
        -11   -1    0    0    0    0  0.00000000000E+00  0.00000000000E+00  0.45593999997E+02  0.45594000000E+02  0.51100000000E-03 0.  1.
         11   -1    0    0    0    0 -0.00000000000E+00 -0.00000000000E+00 -0.45593999997E+02  0.45594000000E+02  0.51100000000E-03 0. -1.
    9900012    2    1    2    0    0  0.40451114278E+00  0.82216496899E+00  0.74403099115E+00  0.90007675207E+02  0.89999935720E+02 0.  0.
         12    1    1    2    0    0 -0.40451114278E+00 -0.82216496899E+00 -0.74403099115E+00  0.11803247929E+01  0.00000000000E+00 0. -1.
         11    1    3    3    0    0 -0.42325633352E+01 -0.30278729043E+02 -0.10196713356E+02  0.32228698211E+02  0.51100000000E-03 0. -1.
        -11    1    3    3    0    0 -0.23734386124E+01 -0.10075477639E+02 -0.68144935231E+01  0.12392973119E+02  0.51100000000E-03 0.  1.
        -12    1    3    3    0    0  0.70105130903E+01  0.41176371651E+02  0.17755237870E+02  0.45386003877E+02  0.00000000000E+00 0.  1.
</event>
<event>
 7    1  0.1698110E-015  0.9000645E+02  0.7816164E-02  0.1186342E+00
        -11   -1    0    0    0    0  0.00000000000E+00  0.00000000000E+00  0.45593999997E+02  0.45594000000E+02  0.51100000000E-03 0. -1.
         11   -1    0    0    0    0 -0.00000000000E+00 -0.00000000000E+00 -0.45593999997E+02  0.45594000000E+02  0.51100000000E-03 0.  1.
    9900012    2    1    2    0    0 -0.55178756066E+00 -0.28547938386E-01 -0.10443986579E+01  0.90006453110E+02  0.89998697482E+02 0.  0.
         12    1    1    2    0    0  0.55178756066E+00  0.28547938386E-01  0.10443986579E+01  0.11815468901E+01  0.00000000000E+00 0. -1.
         11    1    3    3    0    0 -0.36758861965E+02  0.56840912450E+01 -0.80091295697E+01  0.38048245465E+02  0.51100000000E-03 0. -1.
        -11    1    3    3    0    0 -0.59840506073E+01 -0.70636392688E+01  0.71339369188E+00  0.92850843944E+01  0.51100000000E-03 0.  1.
        -12    1    3    3    0    0  0.42191125011E+02  0.13510000854E+01  0.62513372199E+01  0.42673123251E+02  0.00000000000E+00 0.  1.
</event>
<event>
 7    1  0.1698110E-015  0.9000777E+02  0.7816164E-02  0.1186339E+00
        -11   -1    0    0    0    0  0.00000000000E+00  0.00000000000E+00  0.45593999997E+02  0.45594000000E+02  0.51100000000E-03 0. -1.
         11   -1    0    0    0    0 -0.00000000000E+00 -0.00000000000E+00 -0.45593999997E+02  0.45594000000E+02  0.51100000000E-03 0.  1.
    9900012    2    1    2    0    0  0.11522310244E+01 -0.11593884741E+00 -0.22773219323E+00  0.90007771166E+02  0.90000032945E+02 0.  0.
         12    1    1    2    0    0 -0.11522310244E+01  0.11593884741E+00  0.22773219323E+00  0.11802288345E+01  0.00000000000E+00 0. -1.
         11    1    3    3    0    0  0.23134970868E+02 -0.57964058723E+01  0.27688813504E+02  0.36544433114E+02  0.51100000000E-03 0. -1.
        -11    1    3    3    0    0  0.21236983268E+01  0.73112541333E+00  0.89001587986E+01  0.91791865573E+01  0.51100000000E-03 0.  1.
        -12    1    3    3    0    0 -0.24106438170E+02  0.49493416116E+01 -0.36816704496E+02  0.44284151494E+02  0.00000000000E+00 0.  1.
</event>
<event>
 7    1  0.1698110E-015  0.9000760E+02  0.7816164E-02  0.1186339E+00
        -11   -1    0    0    0    0  0.00000000000E+00  0.00000000000E+00  0.45593999997E+02  0.45594000000E+02  0.51100000000E-03 0.  1.
         11   -1    0    0    0    0 -0.00000000000E+00 -0.00000000000E+00 -0.45593999997E+02  0.45594000000E+02  0.51100000000E-03 0. -1.
    9900012    2    1    2    0    0 -0.94695439146E+00  0.69621176551E+00  0.10918817877E+00  0.90007595196E+02  0.89999854653E+02 0.  0.
         12    1    1    2    0    0  0.94695439146E+00 -0.69621176551E+00 -0.10918817877E+00  0.11804048036E+01  0.00000000000E+00 0. -1.
         11    1    3    3    0    0 -0.37978525445E+01 -0.76144044563E+01  0.14699024597E+02  0.16984232792E+02  0.51100000000E-03 0. -1.
        -11    1    3    3    0    0 -0.92835118018E+01  0.11944476888E+02  0.26231947409E+02  0.30281499048E+02  0.51100000000E-03 0.  1.
         12    1    3    3    0    0  0.12134409955E+02 -0.36338606662E+01 -0.40821783827E+02  0.42741863356E+02  0.00000000000E+00 0. -1.
</event>
<event>
 7    1  0.1698110E-015  0.9000778E+02  0.7816164E-02  0.1186339E+00
        -11   -1    0    0    0    0  0.00000000000E+00  0.00000000000E+00  0.45593999997E+02  0.45594000000E+02  0.51100000000E-03 0. -1.
         11   -1    0    0    0    0 -0.00000000000E+00 -0.00000000000E+00 -0.45593999997E+02  0.45594000000E+02  0.51100000000E-03 0.  1.
    9900012    2    1    2    0    0 -0.17858980332E+00  0.78090830203E+00 -0.86672059879E+00  0.90007781084E+02  0.90000042994E+02 0.  0.
         12    1    1    2    0    0  0.17858980332E+00 -0.78090830203E+00  0.86672059879E+00  0.11802189163E+01  0.00000000000E+00 0. -1.
         11    1    3    3    0    0  0.47143642080E+01  0.68729524559E+01 -0.76248532056E+01  0.11296065333E+02  0.51100000000E-03 0. -1.
        -11    1    3    3    0    0 -0.16169871405E+02 -0.11108990706E+01 -0.33173020330E+02  0.36920835799E+02  0.51100000000E-03 0.  1.
         12    1    3    3    0    0  0.11276917394E+02 -0.49811450833E+01  0.39931152937E+02  0.41790879952E+02  0.00000000000E+00 0. -1.
</event>
<event>
 7    1  0.1698110E-015  0.9000786E+02  0.7816164E-02  0.1186339E+00
        -11   -1    0    0    0    0  0.00000000000E+00  0.00000000000E+00  0.45593999997E+02  0.45594000000E+02  0.51100000000E-03 0. -1.
         11   -1    0    0    0    0 -0.00000000000E+00 -0.00000000000E+00 -0.45593999997E+02  0.45594000000E+02  0.51100000000E-03 0.  1.
    9900012    2    1    2    0    0 -0.65168284886E+00 -0.98022265018E+00  0.84930840750E-01  0.90007855845E+02  0.90000118742E+02 0.  0.
         12    1    1    2    0    0  0.65168284886E+00  0.98022265018E+00 -0.84930840750E-01  0.11801441552E+01  0.00000000000E+00 0. -1.
         11    1    3    3    0    0 -0.55337648813E+01  0.76551164992E+01  0.45594601339E+01  0.10488662420E+02  0.51100000000E-03 0. -1.
        -11    1    3    3    0    0  0.24814440457E+02  0.15081570829E+02 -0.28215154333E+02  0.40488333729E+02  0.51100000000E-03 0.  1.
         12    1    3    3    0    0 -0.19932358425E+02 -0.23716909979E+02  0.23740625040E+02  0.39030859696E+02  0.00000000000E+00 0. -1.
</event>
<event>
 7    1  0.1698110E-015  0.9000781E+02  0.7816164E-02  0.1186339E+00
        -11   -1    0    0    0    0  0.00000000000E+00  0.00000000000E+00  0.45593999997E+02  0.45594000000E+02  0.51100000000E-03 0.  1.
         11   -1    0    0    0    0 -0.00000000000E+00 -0.00000000000E+00 -0.45593999997E+02  0.45594000000E+02  0.51100000000E-03 0. -1.
    9900012    2    1    2    0    0 -0.14045494278E+00  0.34004367213E+00  0.11213814594E+01  0.90007807784E+02  0.90000070046E+02 0.  0.
         12    1    1    2    0    0  0.14045494278E+00 -0.34004367213E+00 -0.11213814594E+01  0.11801922163E+01  0.00000000000E+00 0. -1.
         11    1    3    3    0    0 -0.34474866485E+02 -0.14112084340E+01 -0.16241889712E+02  0.38135376097E+02  0.51100000000E-03 0. -1.
        -11    1    3    3    0    0 -0.14295635773E+01  0.29377727973E+01 -0.75793865291E+01  0.82535605316E+01  0.51100000000E-03 0.  1.
        -12    1    3    3    0    0  0.35763975119E+02 -0.11865206912E+01  0.24942657700E+02  0.43618871155E+02  0.00000000000E+00 0.  1.
</event>
<event>
 7    1  0.1698110E-015  0.9000771E+02  0.7816164E-02  0.1186339E+00
        -11   -1    0    0    0    0  0.00000000000E+00  0.00000000000E+00  0.45593999997E+02  0.45594000000E+02  0.51100000000E-03 0. -1.
         11   -1    0    0    0    0 -0.00000000000E+00 -0.00000000000E+00 -0.45593999997E+02  0.45594000000E+02  0.51100000000E-03 0.  1.
    9900012    2    1    2    0    0 -0.52509245187E+00  0.45103664538E+00 -0.95599911727E+00  0.90007707472E+02  0.89999968411E+02 0.  0.
         12    1    1    2    0    0  0.52509245187E+00 -0.45103664538E+00  0.95599911727E+00  0.11802925276E+01  0.00000000000E+00 0. -1.
         11    1    3    3    0    0 -0.14886162230E+02  0.20730603791E+02  0.35409777458E+02  0.43648689549E+02  0.51100000000E-03 0. -1.
        -11    1    3    3    0    0 -0.11105018214E+01 -0.80961098041E+01 -0.58861771650E+01  0.10071111663E+02  0.51100000000E-03 0.  1.
        -12    1    3    3    0    0  0.15471571599E+02 -0.12183457342E+02 -0.30479599410E+02  0.36287906260E+02  0.00000000000E+00 0.  1.
</event>
<event>
 7    1  0.1698110E-015  0.9000776E+02  0.7816164E-02  0.1186339E+00
        -11   -1    0    0    0    0  0.00000000000E+00  0.00000000000E+00  0.45593999997E+02  0.45594000000E+02  0.51100000000E-03 0. -1.
         11   -1    0    0    0    0 -0.00000000000E+00 -0.00000000000E+00 -0.45593999997E+02  0.45594000000E+02  0.51100000000E-03 0.  1.
    9900012    2    1    2    0    0 -0.84358604364E+00 -0.72840141994E+00 -0.38828265743E+00  0.90007758727E+02  0.90000020342E+02 0.  0.
         12    1    1    2    0    0  0.84358604364E+00  0.72840141994E+00  0.38828265743E+00  0.11802412735E+01  0.00000000000E+00 0. -1.
         11    1    3    3    0    0  0.19616336614E+00  0.21019117720E+02  0.28149510433E+02  0.35131705448E+02  0.51100000000E-03 0. -1.
        -11    1    3    3    0    0 -0.41976355949E+01  0.34504283890E+01  0.84279136371E+01  0.10027728017E+02  0.51100000000E-03 0.  1.
        -12    1    3    3    0    0  0.31578861851E+01 -0.25197947529E+02 -0.36965706728E+02  0.44848325261E+02  0.00000000000E+00 0.  1.
</event>
<event>
 7    1  0.1698110E-015  0.9000776E+02  0.7816164E-02  0.1186339E+00
        -11   -1    0    0    0    0  0.00000000000E+00  0.00000000000E+00  0.45593999997E+02  0.45594000000E+02  0.51100000000E-03 0. -1.
         11   -1    0    0    0    0 -0.00000000000E+00 -0.00000000000E+00 -0.45593999997E+02  0.45594000000E+02  0.51100000000E-03 0.  1.
    9900012    2    1    2    0    0 -0.10401133216E+01 -0.54172565204E+00 -0.13288351957E+00  0.90007762552E+02  0.90000024218E+02 0.  0.
         12    1    1    2    0    0  0.10401133216E+01  0.54172565204E+00  0.13288351957E+00  0.11802374480E+01  0.00000000000E+00 0. -1.
         11    1    3    3    0    0  0.95094234811E+01  0.22006753927E+01 -0.60054102290E+01  0.11460238192E+02  0.51100000000E-03 0. -1.
        -11    1    3    3    0    0  0.20167669646E+02  0.17961586912E+01 -0.26724511290E+02  0.33528504126E+02  0.51100000000E-03 0.  1.
         12    1    3    3    0    0 -0.30717206448E+02 -0.45385597360E+01  0.32597038000E+02  0.45019020234E+02  0.00000000000E+00 0. -1.
</event>
<event>
 7    1  0.1698110E-015  0.9000774E+02  0.7816164E-02  0.1186339E+00
        -11   -1    0    0    0    0  0.00000000000E+00  0.00000000000E+00  0.45593999997E+02  0.45594000000E+02  0.51100000000E-03 0.  1.
         11   -1    0    0    0    0 -0.00000000000E+00 -0.00000000000E+00 -0.45593999997E+02  0.45594000000E+02  0.51100000000E-03 0. -1.
    9900012    2    1    2    0    0  0.21238969202E-01  0.10888534305E+01 -0.45491650147E+00  0.90007744981E+02  0.90000006415E+02 0.  0.
         12    1    1    2    0    0 -0.21238969202E-01 -0.10888534305E+01  0.45491650147E+00  0.11802550191E+01  0.00000000000E+00 0. -1.
         11    1    3    3    0    0 -0.21933514907E+02 -0.17174046719E+01 -0.24958327215E+02  0.33270807815E+02  0.51100000000E-03 0. -1.
        -11    1    3    3    0    0 -0.13606623562E+02 -0.21621018183E+01  0.98266328647E+00  0.13812332041E+02  0.51100000000E-03 0.  1.
        -12    1    3    3    0    0  0.35561377438E+02  0.49683599206E+01  0.23520747427E+02  0.42924605125E+02  0.00000000000E+00 0.  1.
</event>
<event>
 7    1  0.1698110E-015  0.9000767E+02  0.7816164E-02  0.1186339E+00
        -11   -1    0    0    0    0  0.00000000000E+00  0.00000000000E+00  0.45593999997E+02  0.45594000000E+02  0.51100000000E-03 0.  1.
         11   -1    0    0    0    0 -0.00000000000E+00 -0.00000000000E+00 -0.45593999997E+02  0.45594000000E+02  0.51100000000E-03 0. -1.
    9900012    2    1    2    0    0  0.82588000038E+00 -0.72960006103E+00  0.42283197509E+00  0.90007669155E+02  0.89999929588E+02 0.  0.
         12    1    1    2    0    0 -0.82588000038E+00  0.72960006103E+00 -0.42283197509E+00  0.11803308448E+01  0.00000000000E+00 0. -1.
         11    1    3    3    0    0  0.10209349756E+01 -0.14482448806E+01  0.41136495160E+00  0.18190499837E+01  0.51100000000E-03 0. -1.
        -11    1    3    3    0    0 -0.15749291498E+02 -0.40804059002E+02  0.22098467141E+01  0.43793776230E+02  0.51100000000E-03 0.  1.
         12    1    3    3    0    0  0.15554236523E+02  0.41522703822E+02 -0.21983796906E+01  0.44394842941E+02  0.00000000000E+00 0. -1.
</event>
<event>
 7    1  0.1698110E-015  0.9000803E+02  0.7816164E-02  0.1186338E+00
        -11   -1    0    0    0    0  0.00000000000E+00  0.00000000000E+00  0.45593999997E+02  0.45594000000E+02  0.51100000000E-03 0.  1.
         11   -1    0    0    0    0 -0.00000000000E+00 -0.00000000000E+00 -0.45593999997E+02  0.45594000000E+02  0.51100000000E-03 0. -1.
    9900012    2    1    2    0    0  0.93291174981E+00 -0.70360301031E+00 -0.16412204410E+00  0.90008034927E+02  0.90000300187E+02 0.  0.
         12    1    1    2    0    0 -0.93291174981E+00  0.70360301031E+00  0.16412204410E+00  0.11799650734E+01  0.00000000000E+00 0. -1.
         11    1    3    3    0    0  0.98478238528E+01 -0.27494716552E+02 -0.28598018703E+02  0.40875246139E+02  0.51100000000E-03 0. -1.
        -11    1    3    3    0    0  0.84885595623E+01  0.29365787707E+01  0.13850505523E+01  0.90883168746E+01  0.51100000000E-03 0.  1.
        -12    1    3    3    0    0 -0.17403471665E+02  0.23854534771E+02  0.27048846106E+02  0.40044471913E+02  0.00000000000E+00 0.  1.
</event>
<event>
 7    1  0.1698110E-015  0.9000772E+02  0.7816164E-02  0.1186339E+00
        -11   -1    0    0    0    0  0.00000000000E+00  0.00000000000E+00  0.45593999997E+02  0.45594000000E+02  0.51100000000E-03 0. -1.
         11   -1    0    0    0    0 -0.00000000000E+00 -0.00000000000E+00 -0.45593999997E+02  0.45594000000E+02  0.51100000000E-03 0.  1.
    9900012    2    1    2    0    0  0.65394041703E+00  0.95219819556E+00 -0.24238593412E+00  0.90007715961E+02  0.89999977011E+02 0.  0.
         12    1    1    2    0    0 -0.65394041703E+00 -0.95219819556E+00  0.24238593412E+00  0.11802840394E+01  0.00000000000E+00 0. -1.
         11    1    3    3    0    0 -0.25851064958E+01  0.34873700274E+01 -0.89722124720E+01  0.99672023260E+01  0.51100000000E-03 0. -1.
        -11    1    3    3    0    0 -0.31468616934E+02 -0.12198535763E+02 -0.14964975588E+02  0.36919217504E+02  0.51100000000E-03 0.  1.
         12    1    3    3    0    0  0.34707663847E+02  0.96633639311E+01  0.23694802126E+02  0.43121296130E+02  0.00000000000E+00 0. -1.
</event>
<event>
 7    1  0.1698110E-015  0.9000773E+02  0.7816164E-02  0.1186339E+00
        -11   -1    0    0    0    0  0.00000000000E+00  0.00000000000E+00  0.45593999997E+02  0.45594000000E+02  0.51100000000E-03 0.  1.
         11   -1    0    0    0    0 -0.00000000000E+00 -0.00000000000E+00 -0.45593999997E+02  0.45594000000E+02  0.51100000000E-03 0. -1.
    9900012    2    1    2    0    0  0.13063135047E+00  0.11360414884E+01  0.29220129648E+00  0.90007730365E+02  0.89999991606E+02 0.  0.
         12    1    1    2    0    0 -0.13063135047E+00 -0.11360414884E+01 -0.29220129648E+00  0.11802696348E+01  0.00000000000E+00 0. -1.
         11    1    3    3    0    0  0.24980606479E+02  0.48187570609E+01 -0.28866197316E+02  0.38477376047E+02  0.51100000000E-03 0. -1.
        -11    1    3    3    0    0  0.69661403939E+01 -0.59667357066E+01  0.14656576474E+01  0.92885520712E+01  0.51100000000E-03 0.  1.
        -12    1    3    3    0    0 -0.31816115523E+02  0.22840201341E+01  0.27692740965E+02  0.42241802247E+02  0.00000000000E+00 0.  1.
</event>
<event>
 7    1  0.1698110E-015  0.9000770E+02  0.7816164E-02  0.1186339E+00
        -11   -1    0    0    0    0  0.00000000000E+00  0.00000000000E+00  0.45593999997E+02  0.45594000000E+02  0.51100000000E-03 0. -1.
         11   -1    0    0    0    0 -0.00000000000E+00 -0.00000000000E+00 -0.45593999997E+02  0.45594000000E+02  0.51100000000E-03 0.  1.
    9900012    2    1    2    0    0  0.47668404398E+00 -0.60499174684E+00 -0.89435824458E+00  0.90007695225E+02  0.89999956002E+02 0.  0.
         12    1    1    2    0    0 -0.47668404398E+00  0.60499174684E+00  0.89435824458E+00  0.11803047747E+01  0.00000000000E+00 0. -1.
         11    1    3    3    0    0  0.24053517560E+02  0.21215621062E+02  0.20296830986E+02  0.37955706190E+02  0.51100000000E-03 0. -1.
        -11    1    3    3    0    0  0.85116259225E+01 -0.20390939996E+00 -0.15224923347E+01  0.86491235428E+01  0.51100000000E-03 0.  1.
        -12    1    3    3    0    0 -0.32088459438E+02 -0.21616703409E+02 -0.19668696895E+02  0.43402865493E+02  0.00000000000E+00 0.  1.
</event>
<event>
 7    1  0.1698110E-015  0.9000761E+02  0.7816164E-02  0.1186339E+00
        -11   -1    0    0    0    0  0.00000000000E+00  0.00000000000E+00  0.45593999997E+02  0.45594000000E+02  0.51100000000E-03 0.  1.
         11   -1    0    0    0    0 -0.00000000000E+00 -0.00000000000E+00 -0.45593999997E+02  0.45594000000E+02  0.51100000000E-03 0. -1.
    9900012    2    1    2    0    0  0.72646861684E+00  0.70870633056E+00 -0.60274510168E+00  0.90007608975E+02  0.89999868613E+02 0.  0.
         12    1    1    2    0    0 -0.72646861684E+00 -0.70870633056E+00  0.60274510168E+00  0.11803910250E+01  0.00000000000E+00 0. -1.
         11    1    3    3    0    0 -0.24650837432E+02  0.24711855987E+02 -0.15408630459E+02  0.38154495218E+02  0.51100000000E-03 0. -1.
        -11    1    3    3    0    0 -0.48268966789E+01  0.47747119202E+01  0.63288618967E+01  0.92817723867E+01  0.51100000000E-03 0.  1.
        -12    1    3    3    0    0  0.30204202728E+02 -0.28777861577E+02  0.84770234601E+01  0.42571341371E+02  0.00000000000E+00 0.  1.
</event>
<event>
 7    1  0.1698110E-015  0.9000781E+02  0.7816164E-02  0.1186339E+00
        -11   -1    0    0    0    0  0.00000000000E+00  0.00000000000E+00  0.45593999997E+02  0.45594000000E+02  0.51100000000E-03 0. -1.
         11   -1    0    0    0    0 -0.00000000000E+00 -0.00000000000E+00 -0.45593999997E+02  0.45594000000E+02  0.51100000000E-03 0.  1.
    9900012    2    1    2    0    0  0.11665073537E+01  0.17536405182E+00 -0.36697328791E-01  0.90007814146E+02  0.90000076492E+02 0.  0.
         12    1    1    2    0    0 -0.11665073537E+01 -0.17536405182E+00  0.36697328791E-01  0.11801858544E+01  0.00000000000E+00 0. -1.
         11    1    3    3    0    0 -0.56273078715E+01  0.72829649677E+01 -0.99073886660E-01  0.92042375293E+01  0.51100000000E-03 0. -1.
        -11    1    3    3    0    0 -0.26666005424E+02  0.23345815889E+02  0.21990199497E+01  0.35509698024E+02  0.51100000000E-03 0.  1.
         12    1    3    3    0    0  0.33459820649E+02 -0.30453416805E+02 -0.21366433918E+01  0.45293878592E+02  0.00000000000E+00 0. -1.
</event>
<event>
 7    1  0.1698110E-015  0.9000766E+02  0.7816164E-02  0.1186339E+00
        -11   -1    0    0    0    0  0.00000000000E+00  0.00000000000E+00  0.45593999997E+02  0.45594000000E+02  0.51100000000E-03 0. -1.
         11   -1    0    0    0    0 -0.00000000000E+00 -0.00000000000E+00 -0.45593999997E+02  0.45594000000E+02  0.51100000000E-03 0.  1.
    9900012    2    1    2    0    0  0.73282186609E+00  0.27005027159E-01  0.92490167627E+00  0.90007660951E+02  0.89999921276E+02 0.  0.
         12    1    1    2    0    0 -0.73282186609E+00 -0.27005027159E-01 -0.92490167627E+00  0.11803390486E+01  0.00000000000E+00 0. -1.
         11    1    3    3    0    0 -0.28845983794E+02 -0.27303911886E+02 -0.28229517749E+01  0.39819134123E+02  0.51100000000E-03 0. -1.
        -11    1    3    3    0    0 -0.38253861158E+01  0.53146657118E+01  0.75585063416E+01  0.10000513434E+02  0.51100000000E-03 0.  1.
        -12    1    3    3    0    0  0.33404191776E+02  0.22016251202E+02 -0.38106528904E+01  0.40188013395E+02  0.00000000000E+00 0.  1.
</event>
<event>
 7    1  0.1698110E-015  0.9000735E+02  0.7816164E-02  0.1186340E+00
        -11   -1    0    0    0    0  0.00000000000E+00  0.00000000000E+00  0.45593999997E+02  0.45594000000E+02  0.51100000000E-03 0. -1.
         11   -1    0    0    0    0 -0.00000000000E+00 -0.00000000000E+00 -0.45593999997E+02  0.45594000000E+02  0.51100000000E-03 0.  1.
    9900012    2    1    2    0    0 -0.10880448114E+01 -0.24128933153E+00  0.38971613705E+00  0.90007347333E+02  0.89999603517E+02 0.  0.
         12    1    1    2    0    0  0.10880448114E+01  0.24128933153E+00 -0.38971613705E+00  0.11806526673E+01  0.00000000000E+00 0. -1.
         11    1    3    3    0    0 -0.34832447201E+02  0.21652096281E+02 -0.35360746360E+01  0.41165719664E+02  0.51100000000E-03 0. -1.
        -11    1    3    3    0    0  0.12324560868E+02  0.41984624994E+01  0.72806971865E+01  0.14917454197E+02  0.51100000000E-03 0.  1.
        -12    1    3    3    0    0  0.21419841521E+02 -0.26091848112E+02 -0.33549064134E+01  0.33924173472E+02  0.00000000000E+00 0.  1.
</event>
<event>
 7    1  0.1698110E-015  0.9000763E+02  0.7816164E-02  0.1186339E+00
        -11   -1    0    0    0    0  0.00000000000E+00  0.00000000000E+00  0.45593999997E+02  0.45594000000E+02  0.51100000000E-03 0.  1.
         11   -1    0    0    0    0 -0.00000000000E+00 -0.00000000000E+00 -0.45593999997E+02  0.45594000000E+02  0.51100000000E-03 0. -1.
    9900012    2    1    2    0    0  0.86543845396E+00  0.76672271497E+00  0.23753114464E+00  0.90007632056E+02  0.89999891999E+02 0.  0.
         12    1    1    2    0    0 -0.86543845396E+00 -0.76672271497E+00 -0.23753114464E+00  0.11803679443E+01  0.00000000000E+00 0. -1.
         11    1    3    3    0    0  0.33351840588E+01 -0.95335825441E+01  0.87907013972E+01  0.13389887234E+02  0.51100000000E-03 0.  1.
        -11    1    3    3    0    0 -0.32796867050E+02 -0.73916321973E+01  0.12279704360E+02  0.35791924428E+02  0.51100000000E-03 0. -1.
         12    1    3    3    0    0  0.30327121446E+02  0.17691937456E+02 -0.20832874613E+02  0.40825820393E+02  0.00000000000E+00 0. -1.
</event>
<event>
 7    1  0.2289336E-015  0.9000777E+02  0.7816164E-02  0.1186339E+00
        -11   -1    0    0    0    0  0.00000000000E+00  0.00000000000E+00  0.45593999997E+02  0.45594000000E+02  0.51100000000E-03 0. -1.
         11   -1    0    0    0    0 -0.00000000000E+00 -0.00000000000E+00 -0.45593999997E+02  0.45594000000E+02  0.51100000000E-03 0.  1.
    9900012    2    1    2    0    0 -0.96054387528E+00 -0.43732264060E+00 -0.52825059608E+00  0.90007769378E+02  0.90000031134E+02 0.  0.
         12    1    1    2    0    0  0.96054387528E+00  0.43732264060E+00  0.52825059608E+00  0.11802306218E+01  0.00000000000E+00 0. -1.
         11    1    3    3    0    0 -0.39626472708E+01  0.87733051882E+01 -0.88896441475E+00  0.96676633842E+01  0.51100000000E-03 0. -1.
        -11    1    3    3    0    0 -0.10008457250E+02  0.13024292960E+02 -0.33785010044E+02  0.37566319058E+02  0.51100000000E-03 0.  1.
         12    1    3    3    0    0  0.13010560646E+02 -0.22234920788E+02  0.34145723862E+02  0.42773786936E+02  0.00000000000E+00 0. -1.
</event>
<event>
 7    1  0.1698110E-015  0.9000772E+02  0.7816164E-02  0.1186339E+00
        -11   -1    0    0    0    0  0.00000000000E+00  0.00000000000E+00  0.45593999997E+02  0.45594000000E+02  0.51100000000E-03 0. -1.
         11   -1    0    0    0    0 -0.00000000000E+00 -0.00000000000E+00 -0.45593999997E+02  0.45594000000E+02  0.51100000000E-03 0.  1.
    9900012    2    1    2    0    0 -0.10940778643E+01 -0.43930550754E+00  0.55357628704E-01  0.90007720300E+02  0.89999981408E+02 0.  0.
         12    1    1    2    0    0  0.10940778643E+01  0.43930550754E+00 -0.55357628704E-01  0.11802796996E+01  0.00000000000E+00 0. -1.
         11    1    3    3    0    0  0.27772352876E+01  0.40811413316E+02 -0.55059109164E+01  0.41274684105E+02  0.51100000000E-03 0. -1.
        -11    1    3    3    0    0  0.88139553238E+01 -0.60632219719E+01  0.35617926300E+01  0.11275408468E+02  0.51100000000E-03 0.  1.
        -12    1    3    3    0    0 -0.12685268476E+02 -0.35187496852E+02  0.19994759151E+01  0.37457627727E+02  0.00000000000E+00 0.  1.
</event>
<event>
 7    1  0.1698110E-015  0.9000777E+02  0.7816164E-02  0.1186339E+00
        -11   -1    0    0    0    0  0.00000000000E+00  0.00000000000E+00  0.45593999997E+02  0.45594000000E+02  0.51100000000E-03 0.  1.
         11   -1    0    0    0    0 -0.00000000000E+00 -0.00000000000E+00 -0.45593999997E+02  0.45594000000E+02  0.51100000000E-03 0. -1.
    9900012    2    1    2    0    0 -0.19241813076E+00  0.49710965664E-01  0.11633728144E+01  0.90007774504E+02  0.90000036327E+02 0.  0.
         12    1    1    2    0    0  0.19241813076E+00 -0.49710965664E-01 -0.11633728144E+01  0.11802254964E+01  0.00000000000E+00 0. -1.
         11    1    3    3    0    0 -0.40449876940E+01 -0.28313125713E+01  0.75340015723E+01  0.90077431287E+01  0.51100000000E-03 0. -1.
        -11    1    3    3    0    0 -0.25259883278E+02 -0.86927964339E+01  0.25055797965E+02  0.36625393171E+02  0.51100000000E-03 0.  1.
         12    1    3    3    0    0  0.29112452841E+02  0.11573819971E+02 -0.31426426723E+02  0.44374638203E+02  0.00000000000E+00 0. -1.
</event>
<event>
 7    1  0.1698110E-015  0.9000770E+02  0.7816164E-02  0.1186339E+00
        -11   -1    0    0    0    0  0.00000000000E+00  0.00000000000E+00  0.45593999997E+02  0.45594000000E+02  0.51100000000E-03 0. -1.
         11   -1    0    0    0    0 -0.00000000000E+00 -0.00000000000E+00 -0.45593999997E+02  0.45594000000E+02  0.51100000000E-03 0.  1.
    9900012    2    1    2    0    0 -0.70954369928E+00  0.90204470328E+00  0.27564720936E+00  0.90007695678E+02  0.89999956461E+02 0.  0.
         12    1    1    2    0    0  0.70954369928E+00 -0.90204470328E+00 -0.27564720936E+00  0.11803043217E+01  0.00000000000E+00 0. -1.
         11    1    3    3    0    0 -0.16220525619E+01  0.43476445691E+02 -0.98643907369E+01  0.44610969383E+02  0.51100000000E-03 0. -1.
        -11    1    3    3    0    0 -0.49421366220E+00 -0.81353073922E+01 -0.27436627449E+01  0.85997185435E+01  0.51100000000E-03 0.  1.
        -12    1    3    3    0    0  0.14067225248E+01 -0.34439093596E+02  0.12883700691E+02  0.36797007751E+02  0.00000000000E+00 0.  1.
</event>
<event>
 7    1  0.1698110E-015  0.9000773E+02  0.7816164E-02  0.1186339E+00
        -11   -1    0    0    0    0  0.00000000000E+00  0.00000000000E+00  0.45593999997E+02  0.45594000000E+02  0.51100000000E-03 0.  1.
         11   -1    0    0    0    0 -0.00000000000E+00 -0.00000000000E+00 -0.45593999997E+02  0.45594000000E+02  0.51100000000E-03 0. -1.
    9900012    2    1    2    0    0  0.40993038465E+00  0.67354904994E+00 -0.87825229858E+00  0.90007729547E+02  0.89999990777E+02 0.  0.
         12    1    1    2    0    0 -0.40993038465E+00 -0.67354904994E+00  0.87825229858E+00  0.11802704533E+01  0.00000000000E+00 0. -1.
         11    1    3    3    0    0 -0.12389052927E+01 -0.45582091556E+01  0.75664857913E+01  0.89198578756E+01  0.51100000000E-03 0. -1.
        -11    1    3    3    0    0 -0.27434849879E+02  0.31172699690E+02 -0.18915967241E+01  0.41569054984E+02  0.51100000000E-03 0.  1.
         12    1    3    3    0    0  0.29083685556E+02 -0.25940941484E+02 -0.65531413657E+01  0.39518816687E+02  0.00000000000E+00 0. -1.
</event>
<event>
 7    1  0.1698110E-015  0.9000772E+02  0.7816164E-02  0.1186339E+00
        -11   -1    0    0    0    0  0.00000000000E+00  0.00000000000E+00  0.45593999997E+02  0.45594000000E+02  0.51100000000E-03 0.  1.
         11   -1    0    0    0    0 -0.00000000000E+00 -0.00000000000E+00 -0.45593999997E+02  0.45594000000E+02  0.51100000000E-03 0. -1.
    9900012    2    1    2    0    0 -0.49835610519E+00 -0.71351830235E+00 -0.79723600102E+00  0.90007723585E+02  0.89999984736E+02 0.  0.
         12    1    1    2    0    0  0.49835610519E+00  0.71351830235E+00  0.79723600102E+00  0.11802764154E+01  0.00000000000E+00 0. -1.
         11    1    3    3    0    0  0.19953492920E+02 -0.27196407436E+01 -0.27129910605E+02  0.33787133279E+02  0.51100000000E-03 0. -1.
        -11    1    3    3    0    0  0.12730693806E+02  0.13084483196E+01 -0.15260552331E+01  0.12888422969E+02  0.51100000000E-03 0.  1.
        -12    1    3    3    0    0 -0.33182542832E+02  0.69767412159E+00  0.27858729837E+02  0.43332167337E+02  0.00000000000E+00 0.  1.
</event>
<event>
 7    1  0.1698110E-015  0.9000775E+02  0.7816164E-02  0.1186339E+00
        -11   -1    0    0    0    0  0.00000000000E+00  0.00000000000E+00  0.45593999997E+02  0.45594000000E+02  0.51100000000E-03 0.  1.
         11   -1    0    0    0    0 -0.00000000000E+00 -0.00000000000E+00 -0.45593999997E+02  0.45594000000E+02  0.51100000000E-03 0. -1.
    9900012    2    1    2    0    0  0.11617874034E+01 -0.13148608124E+00 -0.16108779823E+00  0.90007750942E+02  0.90000012454E+02 0.  0.
         12    1    1    2    0    0 -0.11617874034E+01  0.13148608124E+00  0.16108779823E+00  0.11802490580E+01  0.00000000000E+00 0. -1.
         11    1    3    3    0    0  0.72527211517E+01  0.76680869903E+01  0.84321740831E-01  0.10555028783E+02  0.51100000000E-03 0. -1.
        -11    1    3    3    0    0  0.27804438072E+02  0.20682210099E+02 -0.46384048006E+01  0.34962199451E+02  0.51100000000E-03 0.  1.
         12    1    3    3    0    0 -0.33895371820E+02 -0.28481783171E+02  0.43929952615E+01  0.44490522708E+02  0.00000000000E+00 0. -1.
</event>
<event>
 7    1  0.1698110E-015  0.9000771E+02  0.7816164E-02  0.1186339E+00
        -11   -1    0    0    0    0  0.00000000000E+00  0.00000000000E+00  0.45593999997E+02  0.45594000000E+02  0.51100000000E-03 0. -1.
         11   -1    0    0    0    0 -0.00000000000E+00 -0.00000000000E+00 -0.45593999997E+02  0.45594000000E+02  0.51100000000E-03 0.  1.
    9900012    2    1    2    0    0 -0.63570042754E-01  0.10818217127E+01 -0.46767144897E+00  0.90007705142E+02  0.89999966050E+02 0.  0.
         12    1    1    2    0    0  0.63570042754E-01 -0.10818217127E+01  0.46767144897E+00  0.11802948583E+01  0.00000000000E+00 0. -1.
         11    1    3    3    0    0  0.27195754969E+02 -0.24238424329E+02  0.63239020768E+01  0.36974342997E+02  0.51100000000E-03 0. -1.
        -11    1    3    3    0    0 -0.57145686018E+00 -0.47891255265E+01  0.86773150592E+01  0.99276423762E+01  0.51100000000E-03 0.  1.
        -12    1    3    3    0    0 -0.26687868152E+02  0.30109371568E+02 -0.15468888585E+02  0.43105719769E+02  0.00000000000E+00 0.  1.
</event>
<event>
 7    1  0.1698110E-015  0.9000773E+02  0.7816164E-02  0.1186339E+00
        -11   -1    0    0    0    0  0.00000000000E+00  0.00000000000E+00  0.45593999997E+02  0.45594000000E+02  0.51100000000E-03 0. -1.
         11   -1    0    0    0    0 -0.00000000000E+00 -0.00000000000E+00 -0.45593999997E+02  0.45594000000E+02  0.51100000000E-03 0.  1.
    9900012    2    1    2    0    0 -0.45325476728E+00 -0.10211777692E+01 -0.38052253525E+00  0.90007728285E+02  0.89999989499E+02 0.  0.
         12    1    1    2    0    0  0.45325476728E+00  0.10211777692E+01  0.38052253525E+00  0.11802717146E+01  0.00000000000E+00 0. -1.
         11    1    3    3    0    0 -0.62224637980E+01 -0.72770876208E+01  0.32881649017E+02  0.34247305037E+02  0.51100000000E-03 0. -1.
        -11    1    3    3    0    0 -0.57056942450E+01 -0.11110705177E+01  0.93555236283E+01  0.11014320094E+02  0.51100000000E-03 0.  1.
        -12    1    3    3    0    0  0.11474903276E+02  0.73669803693E+01 -0.42617695181E+02  0.44746103154E+02  0.00000000000E+00 0.  1.
</event>
<event>
 7    1  0.1698110E-015  0.9000772E+02  0.7816164E-02  0.1186339E+00
        -11   -1    0    0    0    0  0.00000000000E+00  0.00000000000E+00  0.45593999997E+02  0.45594000000E+02  0.51100000000E-03 0.  1.
         11   -1    0    0    0    0 -0.00000000000E+00 -0.00000000000E+00 -0.45593999997E+02  0.45594000000E+02  0.51100000000E-03 0. -1.
    9900012    2    1    2    0    0  0.82280207959E+00  0.87839802815E-01  0.84163238193E+00  0.90007718610E+02  0.89999979696E+02 0.  0.
         12    1    1    2    0    0 -0.82280207959E+00 -0.87839802815E-01 -0.84163238193E+00  0.11802813899E+01  0.00000000000E+00 0. -1.
         11    1    3    3    0    0  0.27813151865E+02 -0.10588814427E+02 -0.24724933673E+02  0.38691300740E+02  0.51100000000E-03 0. -1.
        -11    1    3    3    0    0  0.65371661150E+01 -0.15700033935E+01 -0.10318889380E+01  0.68017825981E+01  0.51100000000E-03 0.  1.
        -12    1    3    3    0    0 -0.33527515900E+02  0.12246657623E+02  0.26598454992E+02  0.44514635271E+02  0.00000000000E+00 0.  1.
</event>
<event>
 7    1  0.1698110E-015  0.9000773E+02  0.7816164E-02  0.1186339E+00
        -11   -1    0    0    0    0  0.00000000000E+00  0.00000000000E+00  0.45593999997E+02  0.45594000000E+02  0.51100000000E-03 0. -1.
         11   -1    0    0    0    0 -0.00000000000E+00 -0.00000000000E+00 -0.45593999997E+02  0.45594000000E+02  0.51100000000E-03 0.  1.
    9900012    2    1    2    0    0 -0.39578693685E+00  0.86053076742E+00 -0.70417931858E+00  0.90007733499E+02  0.89999994781E+02 0.  0.
         12    1    1    2    0    0  0.39578693685E+00 -0.86053076742E+00  0.70417931858E+00  0.11802665012E+01  0.00000000000E+00 0. -1.
         11    1    3    3    0    0  0.46729232204E+01  0.56831095391E+01  0.18832535200E+01  0.75947738306E+01  0.51100000000E-03 0. -1.
        -11    1    3    3    0    0 -0.21905751839E+02  0.12218339667E+02 -0.34409825548E+02  0.42581520433E+02  0.51100000000E-03 0.  1.
         12    1    3    3    0    0  0.16837041682E+02 -0.17040918438E+02  0.31822392710E+02  0.39831439236E+02  0.00000000000E+00 0. -1.
</event>
<event>
 7    1  0.1698110E-015  0.9000777E+02  0.7816164E-02  0.1186339E+00
        -11   -1    0    0    0    0  0.00000000000E+00  0.00000000000E+00  0.45593999997E+02  0.45594000000E+02  0.51100000000E-03 0.  1.
         11   -1    0    0    0    0 -0.00000000000E+00 -0.00000000000E+00 -0.45593999997E+02  0.45594000000E+02  0.51100000000E-03 0. -1.
    9900012    2    1    2    0    0  0.54458915931E+00 -0.31561012907E+00  0.99837431738E+00  0.90007771893E+02  0.90000033682E+02 0.  0.
         12    1    1    2    0    0 -0.54458915931E+00  0.31561012907E+00 -0.99837431738E+00  0.11802281066E+01  0.00000000000E+00 0. -1.
         11    1    3    3    0    0  0.60124426465E+01  0.35833698084E+02  0.59951635757E+01  0.36825879101E+02  0.51100000000E-03 0. -1.
        -11    1    3    3    0    0  0.63011129692E+00  0.63859123235E+01  0.60449498204E+01  0.88158003064E+01  0.51100000000E-03 0.  1.
        -12    1    3    3    0    0 -0.60979647842E+01 -0.42535220537E+02 -0.11041739079E+02  0.44366092486E+02  0.00000000000E+00 0.  1.
</event>
<event>
 7    1  0.1698110E-015  0.9000775E+02  0.7816164E-02  0.1186339E+00
        -11   -1    0    0    0    0  0.00000000000E+00  0.00000000000E+00  0.45593999997E+02  0.45594000000E+02  0.51100000000E-03 0.  1.
         11   -1    0    0    0    0 -0.00000000000E+00 -0.00000000000E+00 -0.45593999997E+02  0.45594000000E+02  0.51100000000E-03 0. -1.
    9900012    2    1    2    0    0 -0.48075615723E+00 -0.60676437362E+00  0.89089496708E+00  0.90007752852E+02  0.90000014390E+02 0.  0.
         12    1    1    2    0    0  0.48075615723E+00  0.60676437362E+00 -0.89089496708E+00  0.11802471479E+01  0.00000000000E+00 0. -1.
         11    1    3    3    0    0 -0.86194793185E+01  0.28157481268E+01  0.20124765925E+01  0.92883757209E+01  0.51100000000E-03 0. -1.
        -11    1    3    3    0    0  0.16684088489E+02  0.35989721606E+02  0.48027641619E+01  0.39958546192E+02  0.51100000000E-03 0.  1.
         12    1    3    3    0    0 -0.85453653278E+01 -0.39412234106E+02 -0.59243457874E+01  0.40760830939E+02  0.00000000000E+00 0. -1.
</event>
<event>
 7    1  0.1698110E-015  0.9000719E+02  0.7816164E-02  0.1186340E+00
        -11   -1    0    0    0    0  0.00000000000E+00  0.00000000000E+00  0.45593999997E+02  0.45594000000E+02  0.51100000000E-03 0.  1.
         11   -1    0    0    0    0 -0.00000000000E+00 -0.00000000000E+00 -0.45593999997E+02  0.45594000000E+02  0.51100000000E-03 0. -1.
    9900012    2    1    2    0    0 -0.68385722421E+00  0.12726164957E+00  0.95417633481E+00  0.90007191502E+02  0.89999445628E+02 0.  0.
         12    1    1    2    0    0  0.68385722421E+00 -0.12726164957E+00 -0.95417633481E+00  0.11808084978E+01  0.00000000000E+00 0. -1.
         11    1    3    3    0    0  0.27281766189E+02 -0.17285204692E+02 -0.10834731385E+02  0.34065590734E+02  0.51100000000E-03 0. -1.
        -11    1    3    3    0    0 -0.80839422386E+01 -0.12178065257E+02 -0.63572249085E+01  0.15939564120E+02  0.51100000000E-03 0.  1.
        -12    1    3    3    0    0 -0.19881681175E+02  0.29590531599E+02  0.18146132628E+02  0.40002036648E+02  0.00000000000E+00 0.  1.
</event>
<event>
 7    1  0.1698110E-015  0.9000768E+02  0.7816164E-02  0.1186339E+00
        -11   -1    0    0    0    0  0.00000000000E+00  0.00000000000E+00  0.45593999997E+02  0.45594000000E+02  0.51100000000E-03 0.  1.
         11   -1    0    0    0    0 -0.00000000000E+00 -0.00000000000E+00 -0.45593999997E+02  0.45594000000E+02  0.51100000000E-03 0. -1.
    9900012    2    1    2    0    0  0.59779233049E+00 -0.92571467987E+00  0.42291809472E+00  0.90007676716E+02  0.89999937249E+02 0.  0.
         12    1    1    2    0    0 -0.59779233049E+00  0.92571467987E+00 -0.42291809472E+00  0.11803232836E+01  0.00000000000E+00 0. -1.
         11    1    3    3    0    0 -0.15433565649E+01 -0.74627012462E+01  0.21073848303E+01  0.79066383793E+01  0.51100000000E-03 0. -1.
        -11    1    3    3    0    0 -0.24039288541E+02 -0.27835319790E+02  0.84143951997E+01  0.37729225651E+02  0.51100000000E-03 0.  1.
         12    1    3    3    0    0  0.26180437437E+02  0.34372306357E+02 -0.10098861935E+02  0.44371812686E+02  0.00000000000E+00 0. -1.
</event>
<event>
 7    1  0.2176153E-015  0.9000770E+02  0.7816164E-02  0.1186339E+00
        -11   -1    0    0    0    0  0.00000000000E+00  0.00000000000E+00  0.45593999997E+02  0.45594000000E+02  0.51100000000E-03 0.  1.
         11   -1    0    0    0    0 -0.00000000000E+00 -0.00000000000E+00 -0.45593999997E+02  0.45594000000E+02  0.51100000000E-03 0. -1.
    9900012    2    1    2    0    0  0.27404628557E+00  0.99705563155E+00  0.56911467119E+00  0.90007698001E+02  0.89999958815E+02 0.  0.
         12    1    1    2    0    0 -0.27404628557E+00 -0.99705563155E+00 -0.56911467119E+00  0.11803019986E+01  0.00000000000E+00 0. -1.
         11    1    3    3    0    0  0.61928480254E+01  0.29244795605E+01  0.64384148089E+01  0.93998474922E+01  0.51100000000E-03 0. -1.
        -11    1    3    3    0    0 -0.23520334897E+02  0.10883706270E+02  0.29380410312E+02  0.39177413470E+02  0.51100000000E-03 0.  1.
         12    1    3    3    0    0  0.17601533157E+02 -0.12811130199E+02 -0.35249710450E+02  0.41430437039E+02  0.00000000000E+00 0. -1.
</event>
<event>
 7    1  0.1698110E-015  0.9000773E+02  0.7816164E-02  0.1186339E+00
        -11   -1    0    0    0    0  0.00000000000E+00  0.00000000000E+00  0.45593999997E+02  0.45594000000E+02  0.51100000000E-03 0.  1.
         11   -1    0    0    0    0 -0.00000000000E+00 -0.00000000000E+00 -0.45593999997E+02  0.45594000000E+02  0.51100000000E-03 0. -1.
    9900012    2    1    2    0    0 -0.10811468192E+01  0.29294422458E+00 -0.37193612974E+00  0.90007732552E+02  0.89999993822E+02 0.  0.
         12    1    1    2    0    0  0.10811468192E+01 -0.29294422458E+00  0.37193612974E+00  0.11802674477E+01  0.00000000000E+00 0. -1.
         11    1    3    3    0    0 -0.35292494276E+01  0.83747128091E+01  0.20126635264E+01  0.93081808582E+01  0.51100000000E-03 0. -1.
        -11    1    3    3    0    0  0.15319998122E+01 -0.14594755684E+02  0.37503729740E+02  0.40272616771E+02  0.51100000000E-03 0.  1.
         12    1    3    3    0    0  0.91610279617E+00  0.65129870999E+01 -0.39888329396E+02  0.40426934923E+02  0.00000000000E+00 0. -1.
</event>
<event>
 7    1  0.1698110E-015  0.9000785E+02  0.7816164E-02  0.1186339E+00
        -11   -1    0    0    0    0  0.00000000000E+00  0.00000000000E+00  0.45593999997E+02  0.45594000000E+02  0.51100000000E-03 0. -1.
         11   -1    0    0    0    0 -0.00000000000E+00 -0.00000000000E+00 -0.45593999997E+02  0.45594000000E+02  0.51100000000E-03 0.  1.
    9900012    2    1    2    0    0  0.41129622086E+00 -0.27566087267E+00 -0.10712600671E+01  0.90007851014E+02  0.90000113847E+02 0.  0.
         12    1    1    2    0    0 -0.41129622086E+00  0.27566087267E+00  0.10712600671E+01  0.11801489861E+01  0.00000000000E+00 0. -1.
         11    1    3    3    0    0  0.78317072328E+01  0.55582095091E+00  0.39335686454E+01  0.87816591632E+01  0.51100000000E-03 0. -1.
        -11    1    3    3    0    0  0.31571250330E+02 -0.18482130903E+02 -0.10534583767E+02  0.38069810421E+02  0.51100000000E-03 0.  1.
         12    1    3    3    0    0 -0.38991661342E+02  0.17650649080E+02  0.55297550544E+01  0.43156381429E+02  0.00000000000E+00 0. -1.
</event>
<event>
 7    1  0.1698110E-015  0.9000785E+02  0.7816164E-02  0.1186339E+00
        -11   -1    0    0    0    0  0.00000000000E+00  0.00000000000E+00  0.45593999997E+02  0.45594000000E+02  0.51100000000E-03 0. -1.
         11   -1    0    0    0    0 -0.00000000000E+00 -0.00000000000E+00 -0.45593999997E+02  0.45594000000E+02  0.51100000000E-03 0.  1.
    9900012    2    1    2    0    0  0.81475588892E+00 -0.15427047521E+00 -0.83972070744E+00  0.90007848567E+02  0.90000111368E+02 0.  0.
         12    1    1    2    0    0 -0.81475588892E+00  0.15427047521E+00  0.83972070744E+00  0.11801514329E+01  0.00000000000E+00 0. -1.
         11    1    3    3    0    0 -0.16215474083E+01 -0.44793612477E+01 -0.10700940722E+02  0.11713420755E+02  0.51100000000E-03 0. -1.
        -11    1    3    3    0    0 -0.28669807694E+02 -0.22549790289E+02  0.64944968364E+01  0.37049013546E+02  0.51100000000E-03 0.  1.
         12    1    3    3    0    0  0.31106110991E+02  0.26874881062E+02  0.33667231780E+01  0.41245414267E+02  0.00000000000E+00 0. -1.
</event>
<event>
 7    1  0.1698110E-015  0.9000773E+02  0.7816164E-02  0.1186339E+00
        -11   -1    0    0    0    0  0.00000000000E+00  0.00000000000E+00  0.45593999997E+02  0.45594000000E+02  0.51100000000E-03 0. -1.
         11   -1    0    0    0    0 -0.00000000000E+00 -0.00000000000E+00 -0.45593999997E+02  0.45594000000E+02  0.51100000000E-03 0.  1.
    9900012    2    1    2    0    0  0.11018480906E+01 -0.28225746622E-01  0.42209107163E+00  0.90007734445E+02  0.89999995740E+02 0.  0.
         12    1    1    2    0    0 -0.11018480906E+01  0.28225746622E-01 -0.42209107163E+00  0.11802655550E+01  0.00000000000E+00 0. -1.
         11    1    3    3    0    0 -0.12596432066E+01  0.44126942177E+01  0.47143677860E+01  0.65790451549E+01  0.51100000000E-03 0. -1.
        -11    1    3    3    0    0 -0.85316459011E+01  0.37334022321E+02  0.67031287593E+01  0.38878659183E+02  0.51100000000E-03 0.  1.
         12    1    3    3    0    0  0.10893137198E+02 -0.41774942286E+02 -0.10995405474E+02  0.44550030107E+02  0.00000000000E+00 0. -1.
</event>
<event>
 7    1  0.1698110E-015  0.9000776E+02  0.7816164E-02  0.1186339E+00
        -11   -1    0    0    0    0  0.00000000000E+00  0.00000000000E+00  0.45593999997E+02  0.45594000000E+02  0.51100000000E-03 0. -1.
         11   -1    0    0    0    0 -0.00000000000E+00 -0.00000000000E+00 -0.45593999997E+02  0.45594000000E+02  0.51100000000E-03 0.  1.
    9900012    2    1    2    0    0  0.62225659523E+00 -0.44352459603E+00 -0.89947654072E+00  0.90007756218E+02  0.90000017800E+02 0.  0.
         12    1    1    2    0    0 -0.62225659523E+00  0.44352459603E+00  0.89947654072E+00  0.11802437820E+01  0.00000000000E+00 0. -1.
         11    1    3    3    0    0 -0.11296176215E+01 -0.85419013484E+01 -0.36733883472E+00  0.86240972105E+01  0.51100000000E-03 0. -1.
        -11    1    3    3    0    0  0.38293488342E+02  0.12552384114E+02 -0.13274892740E+02  0.42428485406E+02  0.51100000000E-03 0.  1.
         12    1    3    3    0    0 -0.36541614125E+02 -0.44540073616E+01  0.12742755034E+02  0.38955173601E+02  0.00000000000E+00 0. -1.
</event>
<event>
 7    1  0.1698110E-015  0.9000770E+02  0.7816164E-02  0.1186339E+00
        -11   -1    0    0    0    0  0.00000000000E+00  0.00000000000E+00  0.45593999997E+02  0.45594000000E+02  0.51100000000E-03 0.  1.
         11   -1    0    0    0    0 -0.00000000000E+00 -0.00000000000E+00 -0.45593999997E+02  0.45594000000E+02  0.51100000000E-03 0. -1.
    9900012    2    1    2    0    0 -0.11407830978E+01 -0.27833270714E+00  0.11935473443E+00  0.90007703120E+02  0.89999964001E+02 0.  0.
         12    1    1    2    0    0  0.11407830978E+01  0.27833270714E+00 -0.11935473443E+00  0.11802968799E+01  0.00000000000E+00 0. -1.
         11    1    3    3    0    0  0.86673380294E+01  0.30196600175E+02  0.12654354149E+02  0.33868718456E+02  0.51100000000E-03 0. -1.
        -11    1    3    3    0    0  0.21573702994E+01  0.10727683538E+02  0.13912993146E+01  0.11030555505E+02  0.51100000000E-03 0.  1.
        -12    1    3    3    0    0 -0.11965491427E+02 -0.41202616420E+02 -0.13926298729E+02  0.45108429160E+02  0.00000000000E+00 0.  1.
</event>
<event>
 7    1  0.1698110E-015  0.9000775E+02  0.7816164E-02  0.1186339E+00
        -11   -1    0    0    0    0  0.00000000000E+00  0.00000000000E+00  0.45593999997E+02  0.45594000000E+02  0.51100000000E-03 0. -1.
         11   -1    0    0    0    0 -0.00000000000E+00 -0.00000000000E+00 -0.45593999997E+02  0.45594000000E+02  0.51100000000E-03 0.  1.
    9900012    2    1    2    0    0 -0.99615170811E+00  0.30932343452E+00 -0.55225776182E+00  0.90007750938E+02  0.90000012450E+02 0.  0.
         12    1    1    2    0    0  0.99615170811E+00 -0.30932343452E+00  0.55225776182E+00  0.11802490619E+01  0.00000000000E+00 0. -1.
         11    1    3    3    0    0 -0.49904364038E+01 -0.25345486217E+01  0.25353561213E+02  0.25964041648E+02  0.51100000000E-03 0. -1.
        -11    1    3    3    0    0 -0.77521772775E+01 -0.57555529169E+00  0.17392267357E+02  0.19050419432E+02  0.51100000000E-03 0.  1.
        -12    1    3    3    0    0  0.11746461973E+02  0.34194273479E+01 -0.43298086332E+02  0.44993289859E+02  0.00000000000E+00 0.  1.
</event>
<event>
 7    1  0.1698110E-015  0.9000773E+02  0.7816164E-02  0.1186339E+00
        -11   -1    0    0    0    0  0.00000000000E+00  0.00000000000E+00  0.45593999997E+02  0.45594000000E+02  0.51100000000E-03 0.  1.
         11   -1    0    0    0    0 -0.00000000000E+00 -0.00000000000E+00 -0.45593999997E+02  0.45594000000E+02  0.51100000000E-03 0. -1.
    9900012    2    1    2    0    0 -0.99549187073E+00 -0.40055069158E+00  0.49151107686E+00  0.90007733903E+02  0.89999995190E+02 0.  0.
         12    1    1    2    0    0  0.99549187073E+00  0.40055069158E+00 -0.49151107686E+00  0.11802660971E+01  0.00000000000E+00 0. -1.
         11    1    3    3    0    0 -0.79784236528E+01 -0.13083060208E+01 -0.54799620783E+01  0.97671333189E+01  0.51100000000E-03 0. -1.
        -11    1    3    3    0    0  0.31689611222E+01  0.15794149860E+02 -0.33887728909E+02  0.37521669143E+02  0.51100000000E-03 0.  1.
         12    1    3    3    0    0  0.38139706599E+01 -0.14886394531E+02  0.39859202064E+02  0.42718931441E+02  0.00000000000E+00 0. -1.
</event>
<event>
 7    1  0.1698110E-015  0.9000772E+02  0.7816164E-02  0.1186339E+00
        -11   -1    0    0    0    0  0.00000000000E+00  0.00000000000E+00  0.45593999997E+02  0.45594000000E+02  0.51100000000E-03 0.  1.
         11   -1    0    0    0    0 -0.00000000000E+00 -0.00000000000E+00 -0.45593999997E+02  0.45594000000E+02  0.51100000000E-03 0. -1.
    9900012    2    1    2    0    0 -0.89535633071E+00 -0.35394917810E+00  0.68272671716E+00  0.90007720902E+02  0.89999982018E+02 0.  0.
         12    1    1    2    0    0  0.89535633071E+00  0.35394917810E+00 -0.68272671716E+00  0.11802790983E+01  0.00000000000E+00 0. -1.
         11    1    3    3    0    0 -0.13674817580E+02 -0.30681388598E+02 -0.14703170199E+02  0.36667853173E+02  0.51100000000E-03 0. -1.
        -11    1    3    3    0    0  0.27440849637E+01 -0.28989275835E+01 -0.97168062334E+01  0.10504765921E+02  0.51100000000E-03 0.  1.
        -12    1    3    3    0    0  0.10035376285E+02  0.33226367003E+02  0.25102703150E+02  0.42835101807E+02  0.00000000000E+00 0.  1.
</event>
<event>
 7    1  0.1698110E-015  0.9000713E+02  0.7816164E-02  0.1186340E+00
        -11   -1    0    0    0    0  0.00000000000E+00  0.00000000000E+00  0.45593999997E+02  0.45594000000E+02  0.51100000000E-03 0.  1.
         11   -1    0    0    0    0 -0.00000000000E+00 -0.00000000000E+00 -0.45593999997E+02  0.45594000000E+02  0.51100000000E-03 0. -1.
    9900012    2    1    2    0    0  0.86031397087E+00 -0.23186754164E+00  0.77494563800E+00  0.90007134458E+02  0.89999387831E+02 0.  0.
         12    1    1    2    0    0 -0.86031397087E+00  0.23186754164E+00 -0.77494563800E+00  0.11808655415E+01  0.00000000000E+00 0. -1.
         11    1    3    3    0    0 -0.91055770025E+01  0.35573927579E+02  0.32509232372E+00  0.36722221354E+02  0.51100000000E-03 0. -1.
        -11    1    3    3    0    0 -0.57944765644E+01  0.38597304595E+01  0.72648492705E+01  0.10062381083E+02  0.51100000000E-03 0.  1.
        -12    1    3    3    0    0  0.15760367538E+02 -0.39665525580E+02 -0.68149959562E+01  0.43222532021E+02  0.00000000000E+00 0.  1.
</event>
<event>
 7    1  0.1698110E-015  0.9000776E+02  0.7816164E-02  0.1186339E+00
        -11   -1    0    0    0    0  0.00000000000E+00  0.00000000000E+00  0.45593999997E+02  0.45594000000E+02  0.51100000000E-03 0.  1.
         11   -1    0    0    0    0 -0.00000000000E+00 -0.00000000000E+00 -0.45593999997E+02  0.45594000000E+02  0.51100000000E-03 0. -1.
    9900012    2    1    2    0    0 -0.45042795897E+00 -0.54419680466E+00  0.94548231547E+00  0.90007757518E+02  0.90000019117E+02 0.  0.
         12    1    1    2    0    0  0.45042795897E+00  0.54419680466E+00 -0.94548231547E+00  0.11802424824E+01  0.00000000000E+00 0. -1.
         11    1    3    3    0    0  0.46440404702E+01  0.60704672339E+01 -0.36800907774E+02  0.37586227498E+02  0.51100000000E-03 0. -1.
        -11    1    3    3    0    0 -0.91550178447E+01  0.10309613809E+02  0.38456081073E+01  0.14314020770E+02  0.51100000000E-03 0.  1.
        -12    1    3    3    0    0  0.40605494155E+01 -0.16924277847E+02  0.33900781982E+02  0.38107509249E+02  0.00000000000E+00 0.  1.
</event>
<event>
 7    1  0.1698110E-015  0.9000778E+02  0.7816164E-02  0.1186339E+00
        -11   -1    0    0    0    0  0.00000000000E+00  0.00000000000E+00  0.45593999997E+02  0.45594000000E+02  0.51100000000E-03 0.  1.
         11   -1    0    0    0    0 -0.00000000000E+00 -0.00000000000E+00 -0.45593999997E+02  0.45594000000E+02  0.51100000000E-03 0. -1.
    9900012    2    1    2    0    0 -0.11678360208E+01  0.15544053447E+00  0.70125659160E-01  0.90007779538E+02  0.90000041428E+02 0.  0.
         12    1    1    2    0    0  0.11678360208E+01 -0.15544053447E+00 -0.70125659160E-01  0.11802204621E+01  0.00000000000E+00 0. -1.
         11    1    3    3    0    0 -0.88631934493E+01 -0.33954313799E+01  0.65578431018E+01  0.11536483814E+02  0.51100000000E-03 0. -1.
        -11    1    3    3    0    0 -0.27732238203E+02 -0.16487119993E+02  0.11118025040E+02  0.34124956300E+02  0.51100000000E-03 0.  1.
         12    1    3    3    0    0  0.35427595632E+02  0.20037991908E+02 -0.17605742483E+02  0.44346339424E+02  0.00000000000E+00 0. -1.
</event>
<event>
 7    1  0.1698110E-015  0.9000771E+02  0.7816164E-02  0.1186339E+00
        -11   -1    0    0    0    0  0.00000000000E+00  0.00000000000E+00  0.45593999997E+02  0.45594000000E+02  0.51100000000E-03 0. -1.
         11   -1    0    0    0    0 -0.00000000000E+00 -0.00000000000E+00 -0.45593999997E+02  0.45594000000E+02  0.51100000000E-03 0.  1.
    9900012    2    1    2    0    0  0.86727630204E+00 -0.50881206717E+00  0.61808684296E+00  0.90007707981E+02  0.89999968927E+02 0.  0.
         12    1    1    2    0    0 -0.86727630204E+00  0.50881206717E+00 -0.61808684296E+00  0.11802920186E+01  0.00000000000E+00 0. -1.
         11    1    3    3    0    0  0.20381108564E-01 -0.60466980904E+01  0.96574650766E+01  0.11394279493E+02  0.51100000000E-03 0. -1.
        -11    1    3    3    0    0 -0.22126151919E+02 -0.27399729501E+02  0.60122126076E+01  0.35727559057E+02  0.51100000000E-03 0.  1.
         12    1    3    3    0    0  0.22973047112E+02  0.32937615525E+02 -0.15051590841E+02  0.42885869432E+02  0.00000000000E+00 0. -1.
</event>
<event>
 7    1  0.1875819E-015  0.9000755E+02  0.7816164E-02  0.1186339E+00
        -11   -1    0    0    0    0  0.00000000000E+00  0.00000000000E+00  0.45593999997E+02  0.45594000000E+02  0.51100000000E-03 0.  1.
         11   -1    0    0    0    0 -0.00000000000E+00 -0.00000000000E+00 -0.45593999997E+02  0.45594000000E+02  0.51100000000E-03 0. -1.
    9900012    2    1    2    0    0  0.68772317519E-01 -0.68990926134E+00  0.95538065215E+00  0.90007552368E+02  0.89999811259E+02 0.  0.
         12    1    1    2    0    0 -0.68772317519E-01  0.68990926134E+00 -0.95538065215E+00  0.11804476316E+01  0.00000000000E+00 0. -1.
         11    1    3    3    0    0  0.27168051071E+01 -0.22843049248E+01  0.86932680497E+01  0.93899940695E+01  0.51100000000E-03 0. -1.
        -11    1    3    3    0    0  0.20217322117E+02  0.22927975027E+01  0.30141597419E+02  0.36366370856E+02  0.51100000000E-03 0.  1.
         12    1    3    3    0    0 -0.22865354906E+02 -0.69840183924E+00 -0.37879484817E+02  0.44251187443E+02  0.00000000000E+00 0. -1.
</event>
<event>
 7    1  0.1698110E-015  0.9000767E+02  0.7816164E-02  0.1186339E+00
        -11   -1    0    0    0    0  0.00000000000E+00  0.00000000000E+00  0.45593999997E+02  0.45594000000E+02  0.51100000000E-03 0.  1.
         11   -1    0    0    0    0 -0.00000000000E+00 -0.00000000000E+00 -0.45593999997E+02  0.45594000000E+02  0.51100000000E-03 0. -1.
    9900012    2    1    2    0    0 -0.67531356319E+00 -0.76120548964E+00  0.59807811460E+00  0.90007669691E+02  0.89999930131E+02 0.  0.
         12    1    1    2    0    0  0.67531356319E+00  0.76120548964E+00 -0.59807811460E+00  0.11803303085E+01  0.00000000000E+00 0. -1.
         11    1    3    3    0    0 -0.41922659293E-02 -0.23852311111E+01 -0.29009870052E+02  0.29107763667E+02  0.51100000000E-03 0. -1.
        -11    1    3    3    0    0  0.13786297596E+02 -0.21637747994E+02  0.11870346070E+02  0.28269404941E+02  0.51100000000E-03 0.  1.
         12    1    3    3    0    0 -0.14457418893E+02  0.23261773616E+02  0.17737602097E+02  0.32630501083E+02  0.00000000000E+00 0. -1.
</event>
<event>
 7    1  0.1698110E-015  0.9000771E+02  0.7816164E-02  0.1186339E+00
        -11   -1    0    0    0    0  0.00000000000E+00  0.00000000000E+00  0.45593999997E+02  0.45594000000E+02  0.51100000000E-03 0.  1.
         11   -1    0    0    0    0 -0.00000000000E+00 -0.00000000000E+00 -0.45593999997E+02  0.45594000000E+02  0.51100000000E-03 0. -1.
    9900012    2    1    2    0    0  0.66364816365E+00  0.12184610930E+00  0.96840451329E+00  0.90007710772E+02  0.89999971755E+02 0.  0.
         12    1    1    2    0    0 -0.66364816365E+00 -0.12184610930E+00 -0.96840451329E+00  0.11802892276E+01  0.00000000000E+00 0. -1.
         11    1    3    3    0    0 -0.37313332509E+01 -0.21033701076E+01 -0.92204979422E+01  0.10166838063E+02  0.51100000000E-03 0. -1.
        -11    1    3    3    0    0 -0.30338748701E+02  0.31436439856E+01  0.27458314340E+02  0.41039995089E+02  0.51100000000E-03 0.  1.
         12    1    3    3    0    0  0.34733730115E+02 -0.91842776869E+00 -0.17269411884E+02  0.38800877621E+02  0.00000000000E+00 0. -1.
</event>
<event>
 7    1  0.1698110E-015  0.9000758E+02  0.7816164E-02  0.1186339E+00
        -11   -1    0    0    0    0  0.00000000000E+00  0.00000000000E+00  0.45593999997E+02  0.45594000000E+02  0.51100000000E-03 0. -1.
         11   -1    0    0    0    0 -0.00000000000E+00 -0.00000000000E+00 -0.45593999997E+02  0.45594000000E+02  0.51100000000E-03 0.  1.
    9900012    2    1    2    0    0 -0.25774151355E+00  0.10039333117E+01 -0.56487853387E+00  0.90007576118E+02  0.89999835323E+02 0.  0.
         12    1    1    2    0    0  0.25774151355E+00 -0.10039333117E+01  0.56487853387E+00  0.11804238815E+01  0.00000000000E+00 0. -1.
         11    1    3    3    0    0 -0.85514758163E+01 -0.18738738521E+01  0.36981016017E+02  0.38003087871E+02  0.51100000000E-03 0. -1.
        -11    1    3    3    0    0 -0.21478499751E+01  0.56114493289E+01  0.51819998553E+01  0.79344026774E+01  0.51100000000E-03 0.  1.
        -12    1    3    3    0    0  0.10441584278E+02 -0.27336421651E+01 -0.42727894406E+02  0.44070085570E+02  0.00000000000E+00 0.  1.
</event>
<event>
 7    1  0.1698110E-015  0.9000763E+02  0.7816164E-02  0.1186339E+00
        -11   -1    0    0    0    0  0.00000000000E+00  0.00000000000E+00  0.45593999997E+02  0.45594000000E+02  0.51100000000E-03 0.  1.
         11   -1    0    0    0    0 -0.00000000000E+00 -0.00000000000E+00 -0.45593999997E+02  0.45594000000E+02  0.51100000000E-03 0. -1.
    9900012    2    1    2    0    0 -0.88842503208E-01  0.75220058444E+00  0.90530322106E+00  0.90007630299E+02  0.89999890219E+02 0.  0.
         12    1    1    2    0    0  0.88842503208E-01 -0.75220058444E+00 -0.90530322106E+00  0.11803697013E+01  0.00000000000E+00 0. -1.
         11    1    3    3    0    0  0.82152920200E+00 -0.59139337757E+01 -0.69637577777E+01  0.91729736498E+01  0.51100000000E-03 0. -1.
        -11    1    3    3    0    0  0.16039090737E+02 -0.30219237778E+02  0.18471010939E+02  0.38879724908E+02  0.51100000000E-03 0.  1.
         12    1    3    3    0    0 -0.16949462442E+02  0.36885372138E+02 -0.10601949940E+02  0.41954931741E+02  0.00000000000E+00 0. -1.
</event>
<event>
 7    1  0.1698110E-015  0.9000787E+02  0.7816164E-02  0.1186339E+00
        -11   -1    0    0    0    0  0.00000000000E+00  0.00000000000E+00  0.45593999997E+02  0.45594000000E+02  0.51100000000E-03 0.  1.
         11   -1    0    0    0    0 -0.00000000000E+00 -0.00000000000E+00 -0.45593999997E+02  0.45594000000E+02  0.51100000000E-03 0. -1.
    9900012    2    1    2    0    0 -0.41599383870E+00  0.10527602888E+00  0.10993513051E+01  0.90007869834E+02  0.90000132916E+02 0.  0.
         12    1    1    2    0    0  0.41599383870E+00 -0.10527602888E+00 -0.10993513051E+01  0.11801301658E+01  0.00000000000E+00 0. -1.
         11    1    3    3    0    0 -0.36942454614E+02  0.32624019943E+01 -0.28973169330E+01  0.37199229365E+02  0.51100000000E-03 0. -1.
        -11    1    3    3    0    0 -0.13705821543E+01  0.11561818742E+02  0.34747916462E+01  0.12150239723E+02  0.51100000000E-03 0.  1.
        -12    1    3    3    0    0  0.37897042930E+02 -0.14718944708E+02  0.52187659192E+00  0.40658400747E+02  0.00000000000E+00 0.  1.
</event>
<event>
 7    1  0.1698110E-015  0.9000814E+02  0.7816164E-02  0.1186338E+00
        -11   -1    0    0    0    0  0.00000000000E+00  0.00000000000E+00  0.45593999997E+02  0.45594000000E+02  0.51100000000E-03 0.  1.
         11   -1    0    0    0    0 -0.00000000000E+00 -0.00000000000E+00 -0.45593999997E+02  0.45594000000E+02  0.51100000000E-03 0. -1.
    9900012    2    1    2    0    0 -0.30623680435E+00 -0.54725184475E+00  0.99940643754E+00  0.90008136114E+02  0.90000402710E+02 0.  0.
         12    1    1    2    0    0  0.30623680435E+00  0.54725184475E+00 -0.99940643754E+00  0.11798638859E+01  0.00000000000E+00 0. -1.
         11    1    3    3    0    0  0.18768944201E+01 -0.37414396059E+01  0.11237400904E+02  0.11991675543E+02  0.51100000000E-03 0. -1.
        -11    1    3    3    0    0  0.47517725938E+00 -0.18622199721E+02  0.28165749732E+02  0.33768647798E+02  0.51100000000E-03 0.  1.
         12    1    3    3    0    0 -0.26583084839E+01  0.21816387483E+02 -0.38403744198E+02  0.44247812773E+02  0.00000000000E+00 0. -1.
</event>
<event>
 7    1  0.1698110E-015  0.9000774E+02  0.7816164E-02  0.1186339E+00
        -11   -1    0    0    0    0  0.00000000000E+00  0.00000000000E+00  0.45593999997E+02  0.45594000000E+02  0.51100000000E-03 0. -1.
         11   -1    0    0    0    0 -0.00000000000E+00 -0.00000000000E+00 -0.45593999997E+02  0.45594000000E+02  0.51100000000E-03 0.  1.
    9900012    2    1    2    0    0  0.30748580132E+00 -0.10614148761E+01 -0.41457144824E+00  0.90007737935E+02  0.89999999275E+02 0.  0.
         12    1    1    2    0    0 -0.30748580132E+00  0.10614148761E+01  0.41457144824E+00  0.11802620653E+01  0.00000000000E+00 0. -1.
         11    1    3    3    0    0 -0.75165477122E+01 -0.38238197227E+01  0.84484729634E+01  0.11937201617E+02  0.51100000000E-03 0. -1.
        -11    1    3    3    0    0  0.15049012611E+02 -0.25600671897E+02 -0.29810755201E+02  0.42077883836E+02  0.51100000000E-03 0.  1.
         12    1    3    3    0    0 -0.72249790976E+01  0.28363076744E+02  0.20947710790E+02  0.35992652482E+02  0.00000000000E+00 0. -1.
</event>
<event>
 7    1  0.1698110E-015  0.9000775E+02  0.7816164E-02  0.1186339E+00
        -11   -1    0    0    0    0  0.00000000000E+00  0.00000000000E+00  0.45593999997E+02  0.45594000000E+02  0.51100000000E-03 0.  1.
         11   -1    0    0    0    0 -0.00000000000E+00 -0.00000000000E+00 -0.45593999997E+02  0.45594000000E+02  0.51100000000E-03 0. -1.
    9900012    2    1    2    0    0  0.18778164949E+00 -0.78416595368E+00 -0.86185964382E+00  0.90007754163E+02  0.90000015718E+02 0.  0.
         12    1    1    2    0    0 -0.18778164949E+00  0.78416595368E+00  0.86185964382E+00  0.11802458373E+01  0.00000000000E+00 0. -1.
         11    1    3    3    0    0  0.92249221528E+01 -0.63467934982E+01  0.48015459851E+01  0.12183424007E+02  0.51100000000E-03 0. -1.
        -11    1    3    3    0    0 -0.16324225640E+02 -0.32845844563E+02  0.56853663153E+01  0.37116751450E+02  0.51100000000E-03 0.  1.
         12    1    3    3    0    0  0.72870851364E+01  0.38408472108E+02 -0.11348771944E+02  0.40707578705E+02  0.00000000000E+00 0. -1.
</event>
<event>
 7    1  0.1698110E-015  0.9000764E+02  0.7816164E-02  0.1186339E+00
        -11   -1    0    0    0    0  0.00000000000E+00  0.00000000000E+00  0.45593999997E+02  0.45594000000E+02  0.51100000000E-03 0.  1.
         11   -1    0    0    0    0 -0.00000000000E+00 -0.00000000000E+00 -0.45593999997E+02  0.45594000000E+02  0.51100000000E-03 0. -1.
    9900012    2    1    2    0    0 -0.25106377812E+00  0.11338667471E+01  0.21111116211E+00  0.90007637876E+02  0.89999897896E+02 0.  0.
         12    1    1    2    0    0  0.25106377812E+00 -0.11338667471E+01 -0.21111116211E+00  0.11803621240E+01  0.00000000000E+00 0. -1.
         11    1    3    3    0    0 -0.39869239472E+01 -0.60750295005E+00  0.12365829043E+02  0.13006857829E+02  0.51100000000E-03 0. -1.
        -11    1    3    3    0    0 -0.12965159644E+02 -0.33768006350E+02 -0.10749093531E+02  0.37734819854E+02  0.51100000000E-03 0.  1.
         12    1    3    3    0    0  0.16701019813E+02  0.35509376047E+02 -0.14056243502E+01  0.39265960193E+02  0.00000000000E+00 0. -1.
</event>
<event>
 7    1  0.1698110E-015  0.9000775E+02  0.7816164E-02  0.1186339E+00
        -11   -1    0    0    0    0  0.00000000000E+00  0.00000000000E+00  0.45593999997E+02  0.45594000000E+02  0.51100000000E-03 0. -1.
         11   -1    0    0    0    0 -0.00000000000E+00 -0.00000000000E+00 -0.45593999997E+02  0.45594000000E+02  0.51100000000E-03 0.  1.
    9900012    2    1    2    0    0 -0.94906373949E-01 -0.91740884348E+00 -0.73643864962E+00  0.90007750835E+02  0.90000012346E+02 0.  0.
         12    1    1    2    0    0  0.94906373949E-01  0.91740884348E+00  0.73643864962E+00  0.11802491646E+01  0.00000000000E+00 0. -1.
         11    1    3    3    0    0 -0.64903264722E+01  0.13637573009E+02  0.31784928788E+02  0.35190757787E+02  0.51100000000E-03 0. -1.
        -11    1    3    3    0    0  0.11278545106E+02 -0.11854936310E+02  0.48223322429E+01  0.17058721615E+02  0.51100000000E-03 0.  1.
        -12    1    3    3    0    0 -0.48831250073E+01 -0.27000455426E+01 -0.37343699681E+02  0.37758271433E+02  0.00000000000E+00 0.  1.
</event>
<event>
 7    1  0.1698110E-015  0.9000765E+02  0.7816164E-02  0.1186339E+00
        -11   -1    0    0    0    0  0.00000000000E+00  0.00000000000E+00  0.45593999997E+02  0.45594000000E+02  0.51100000000E-03 0.  1.
         11   -1    0    0    0    0 -0.00000000000E+00 -0.00000000000E+00 -0.45593999997E+02  0.45594000000E+02  0.51100000000E-03 0. -1.
    9900012    2    1    2    0    0 -0.43534126652E+00 -0.62650171750E-03  0.10971313045E+01  0.90007652801E+02  0.89999913018E+02 0.  0.
         12    1    1    2    0    0  0.43534126652E+00  0.62650171750E-03 -0.10971313045E+01  0.11803471990E+01  0.00000000000E+00 0. -1.
         11    1    3    3    0    0 -0.79655335827E+01 -0.85393541798E+01  0.28916354761E+00  0.11681348847E+02  0.51100000000E-03 0. -1.
        -11    1    3    3    0    0  0.27885241297E+02 -0.52214584060E+01  0.29245458929E+02  0.40744903710E+02  0.51100000000E-03 0.  1.
         12    1    3    3    0    0 -0.20355048981E+02  0.13760186084E+02 -0.28437491173E+02  0.37581400244E+02  0.00000000000E+00 0. -1.
</event>
<event>
 7    1  0.1698110E-015  0.9000770E+02  0.7816164E-02  0.1186339E+00
        -11   -1    0    0    0    0  0.00000000000E+00  0.00000000000E+00  0.45593999997E+02  0.45594000000E+02  0.51100000000E-03 0.  1.
         11   -1    0    0    0    0 -0.00000000000E+00 -0.00000000000E+00 -0.45593999997E+02  0.45594000000E+02  0.51100000000E-03 0. -1.
    9900012    2    1    2    0    0 -0.95221319741E+00 -0.23035465609E+00  0.65827371749E+00  0.90007704474E+02  0.89999965373E+02 0.  0.
         12    1    1    2    0    0  0.95221319741E+00  0.23035465609E+00 -0.65827371749E+00  0.11802955257E+01  0.00000000000E+00 0. -1.
         11    1    3    3    0    0 -0.14427727628E+00  0.68884488397E+01 -0.74876968156E+01  0.10175320497E+02  0.51100000000E-03 0. -1.
        -11    1    3    3    0    0 -0.27609445264E+02 -0.17394930057E+02  0.29552473754E+02  0.44025149230E+02  0.51100000000E-03 0.  1.
         12    1    3    3    0    0  0.26801509343E+02  0.10276126562E+02 -0.21406503221E+02  0.35807234748E+02  0.00000000000E+00 0. -1.
</event>
<event>
 7    1  0.1698110E-015  0.9000772E+02  0.7816164E-02  0.1186339E+00
        -11   -1    0    0    0    0  0.00000000000E+00  0.00000000000E+00  0.45593999997E+02  0.45594000000E+02  0.51100000000E-03 0.  1.
         11   -1    0    0    0    0 -0.00000000000E+00 -0.00000000000E+00 -0.45593999997E+02  0.45594000000E+02  0.51100000000E-03 0. -1.
    9900012    2    1    2    0    0  0.40729063044E+00  0.17281354848E-01  0.11076483440E+01  0.90007716493E+02  0.89999977551E+02 0.  0.
         12    1    1    2    0    0 -0.40729063044E+00 -0.17281354848E-01 -0.11076483440E+01  0.11802835069E+01  0.00000000000E+00 0. -1.
         11    1    3    3    0    0  0.36062380795E+02  0.10364821802E+02  0.80514842367E+01  0.38376441188E+02  0.51100000000E-03 0. -1.
        -11    1    3    3    0    0  0.48332355156E+01  0.14484559736E+00 -0.84971891306E+01  0.97766747506E+01  0.51100000000E-03 0.  1.
        -12    1    3    3    0    0 -0.40488325680E+02 -0.10492386045E+02  0.15533532378E+01  0.41854600554E+02  0.00000000000E+00 0.  1.
</event>
<event>
 7    1  0.1698110E-015  0.9000780E+02  0.7816164E-02  0.1186339E+00
        -11   -1    0    0    0    0  0.00000000000E+00  0.00000000000E+00  0.45593999997E+02  0.45594000000E+02  0.51100000000E-03 0.  1.
         11   -1    0    0    0    0 -0.00000000000E+00 -0.00000000000E+00 -0.45593999997E+02  0.45594000000E+02  0.51100000000E-03 0. -1.
    9900012    2    1    2    0    0 -0.92049386192E+00 -0.45702940878E+00  0.58025198883E+00  0.90007797814E+02  0.90000059945E+02 0.  0.
         12    1    1    2    0    0  0.92049386192E+00  0.45702940878E+00 -0.58025198883E+00  0.11802021864E+01  0.00000000000E+00 0. -1.
         11    1    3    3    0    0  0.28352824271E+02  0.13005984474E+01 -0.27713620492E+02  0.39668866401E+02  0.51100000000E-03 0. -1.
        -11    1    3    3    0    0  0.34904302389E-01  0.95912283654E+01  0.31672969776E+01  0.10100725235E+02  0.51100000000E-03 0.  1.
        -12    1    3    3    0    0 -0.29308222436E+02 -0.11348856222E+02  0.25126575503E+02  0.40238206178E+02  0.00000000000E+00 0.  1.
</event>
<event>
 7    1  0.1698110E-015  0.9000785E+02  0.7816164E-02  0.1186339E+00
        -11   -1    0    0    0    0  0.00000000000E+00  0.00000000000E+00  0.45593999997E+02  0.45594000000E+02  0.51100000000E-03 0.  1.
         11   -1    0    0    0    0 -0.00000000000E+00 -0.00000000000E+00 -0.45593999997E+02  0.45594000000E+02  0.51100000000E-03 0. -1.
    9900012    2    1    2    0    0  0.95803757504E+00 -0.66488479794E+00  0.18122035203E+00  0.90007852295E+02  0.90000115145E+02 0.  0.
         12    1    1    2    0    0 -0.95803757504E+00  0.66488479794E+00 -0.18122035203E+00  0.11801477050E+01  0.00000000000E+00 0. -1.
         11    1    3    3    0    0 -0.20838076180E+02  0.25997122030E+02 -0.22018416045E+02  0.39936029073E+02  0.51100000000E-03 0. -1.
        -11    1    3    3    0    0  0.62205124926E+01 -0.39320982279E+01 -0.68350217753E+01  0.10043589750E+02  0.51100000000E-03 0.  1.
        -12    1    3    3    0    0  0.15575601263E+02 -0.22729908600E+02  0.29034658172E+02  0.40028233471E+02  0.00000000000E+00 0.  1.
</event>
<event>
 7    1  0.1698110E-015  0.9000771E+02  0.7816164E-02  0.1186339E+00
        -11   -1    0    0    0    0  0.00000000000E+00  0.00000000000E+00  0.45593999997E+02  0.45594000000E+02  0.51100000000E-03 0.  1.
         11   -1    0    0    0    0 -0.00000000000E+00 -0.00000000000E+00 -0.45593999997E+02  0.45594000000E+02  0.51100000000E-03 0. -1.
    9900012    2    1    2    0    0  0.96540999305E-01  0.30891554225E+00  0.11350500993E+01  0.90007708636E+02  0.89999969590E+02 0.  0.
         12    1    1    2    0    0 -0.96540999305E-01 -0.30891554225E+00 -0.11350500993E+01  0.11802913643E+01  0.00000000000E+00 0. -1.
         11    1    3    3    0    0  0.27328984680E+02 -0.14904897001E+02 -0.17588217116E+02  0.35754366724E+02  0.51100000000E-03 0. -1.
        -11    1    3    3    0    0  0.35669290803E+01 -0.40233112703E+01 -0.76661939073E+01  0.93637890796E+01  0.51100000000E-03 0.  1.
        -12    1    3    3    0    0 -0.30799372761E+02  0.19237123814E+02  0.26389461123E+02  0.44889552832E+02  0.00000000000E+00 0.  1.
</event>
<event>
 7    1  0.1698110E-015  0.9000777E+02  0.7816164E-02  0.1186339E+00
        -11   -1    0    0    0    0  0.00000000000E+00  0.00000000000E+00  0.45593999997E+02  0.45594000000E+02  0.51100000000E-03 0.  1.
         11   -1    0    0    0    0 -0.00000000000E+00 -0.00000000000E+00 -0.45593999997E+02  0.45594000000E+02  0.51100000000E-03 0. -1.
    9900012    2    1    2    0    0  0.10603108719E+01  0.27529560655E+00  0.43920299944E+00  0.90007768628E+02  0.90000030374E+02 0.  0.
         12    1    1    2    0    0 -0.10603108719E+01 -0.27529560655E+00 -0.43920299944E+00  0.11802313717E+01  0.00000000000E+00 0. -1.
         11    1    3    3    0    0  0.36776432494E+02 -0.47683396285E+00  0.10139269310E+02  0.38151515567E+02  0.51100000000E-03 0. -1.
        -11    1    3    3    0    0  0.67825877338E+01  0.10645117198E+01 -0.61346609639E+01  0.92071030716E+01  0.51100000000E-03 0.  1.
        -12    1    3    3    0    0 -0.42498709356E+02 -0.31238215044E+00 -0.35654053467E+01  0.42649149990E+02  0.00000000000E+00 0.  1.
</event>
<event>
 7    1  0.1698110E-015  0.9000778E+02  0.7816164E-02  0.1186339E+00
        -11   -1    0    0    0    0  0.00000000000E+00  0.00000000000E+00  0.45593999997E+02  0.45594000000E+02  0.51100000000E-03 0.  1.
         11   -1    0    0    0    0 -0.00000000000E+00 -0.00000000000E+00 -0.45593999997E+02  0.45594000000E+02  0.51100000000E-03 0. -1.
    9900012    2    1    2    0    0  0.10227425093E+01 -0.42316386612E+00  0.40969699534E+00  0.90007779035E+02  0.90000040918E+02 0.  0.
         12    1    1    2    0    0 -0.10227425093E+01  0.42316386612E+00 -0.40969699534E+00  0.11802209649E+01  0.00000000000E+00 0. -1.
         11    1    3    3    0    0  0.76099283415E+01  0.35705384389E+01  0.33269037790E+01  0.90403563604E+01  0.51100000000E-03 0. -1.
        -11    1    3    3    0    0 -0.14242537052E+00  0.37075743621E+02  0.81208159054E+01  0.37954956215E+02  0.51100000000E-03 0.  1.
         12    1    3    3    0    0 -0.64447604617E+01 -0.41069445926E+02 -0.11038022689E+02  0.43012466460E+02  0.00000000000E+00 0. -1.
</event>
<event>
 7    1  0.1698110E-015  0.9000796E+02  0.7816164E-02  0.1186339E+00
        -11   -1    0    0    0    0  0.00000000000E+00  0.00000000000E+00  0.45593999997E+02  0.45594000000E+02  0.51100000000E-03 0.  1.
         11   -1    0    0    0    0 -0.00000000000E+00 -0.00000000000E+00 -0.45593999997E+02  0.45594000000E+02  0.51100000000E-03 0. -1.
    9900012    2    1    2    0    0  0.10973111388E+01 -0.38657885550E+00  0.19738368432E+00  0.90007959634E+02  0.90000223901E+02 0.  0.
         12    1    1    2    0    0 -0.10973111388E+01  0.38657885550E+00 -0.19738368432E+00  0.11800403662E+01  0.00000000000E+00 0. -1.
         11    1    3    3    0    0 -0.71836183206E+01  0.41870759510E+01 -0.38304141452E+02  0.39196214483E+02  0.51100000000E-03 0. -1.
        -11    1    3    3    0    0 -0.31979036505E+01 -0.41998559912E+01 -0.41033566368E+01  0.66860237851E+01  0.51100000000E-03 0.  1.
        -12    1    3    3    0    0  0.11478833110E+02 -0.37379881531E+00  0.42604881773E+02  0.44125721365E+02  0.00000000000E+00 0.  1.
</event>
<event>
 7    1  0.1698110E-015  0.9000785E+02  0.7816164E-02  0.1186339E+00
        -11   -1    0    0    0    0  0.00000000000E+00  0.00000000000E+00  0.45593999997E+02  0.45594000000E+02  0.51100000000E-03 0. -1.
         11   -1    0    0    0    0 -0.00000000000E+00 -0.00000000000E+00 -0.45593999997E+02  0.45594000000E+02  0.51100000000E-03 0.  1.
    9900012    2    1    2    0    0 -0.99237668213E+00 -0.59197030221E+00 -0.23981082590E+00  0.90007851895E+02  0.90000114740E+02 0.  0.
         12    1    1    2    0    0  0.99237668213E+00  0.59197030221E+00  0.23981082590E+00  0.11801481052E+01  0.00000000000E+00 0. -1.
         11    1    3    3    0    0  0.32067853721E+02 -0.15767856849E+02  0.21117040859E+02  0.41507854278E+02  0.51100000000E-03 0. -1.
        -11    1    3    3    0    0 -0.42736507313E+01  0.85700118386E+01  0.31924727973E+01  0.10094606298E+02  0.51100000000E-03 0.  1.
        -12    1    3    3    0    0 -0.28786579671E+02  0.66058747083E+01 -0.24549324482E+02  0.38405391319E+02  0.00000000000E+00 0.  1.
</event>
<event>
 7    1  0.1698110E-015  0.9000760E+02  0.7816164E-02  0.1186339E+00
        -11   -1    0    0    0    0  0.00000000000E+00  0.00000000000E+00  0.45593999997E+02  0.45594000000E+02  0.51100000000E-03 0. -1.
         11   -1    0    0    0    0 -0.00000000000E+00 -0.00000000000E+00 -0.45593999997E+02  0.45594000000E+02  0.51100000000E-03 0.  1.
    9900012    2    1    2    0    0 -0.16592158420E+00 -0.10718206207E+01 -0.46584239028E+00  0.90007602377E+02  0.89999861929E+02 0.  0.
         12    1    1    2    0    0  0.16592158420E+00  0.10718206207E+01  0.46584239028E+00  0.11803976227E+01  0.00000000000E+00 0. -1.
         11    1    3    3    0    0 -0.34729299690E+02  0.19117064324E+02  0.12592199104E+02  0.41595070427E+02  0.51100000000E-03 0. -1.
        -11    1    3    3    0    0  0.63287174535E+01 -0.14055116544E+01  0.65699903194E+01  0.92300000366E+01  0.51100000000E-03 0.  1.
        -12    1    3    3    0    0  0.28234660652E+02 -0.18783373290E+02 -0.19628031813E+02  0.39182531914E+02  0.00000000000E+00 0.  1.
</event>
<event>
 7    1  0.1698110E-015  0.9000774E+02  0.7816164E-02  0.1186339E+00
        -11   -1    0    0    0    0  0.00000000000E+00  0.00000000000E+00  0.45593999997E+02  0.45594000000E+02  0.51100000000E-03 0.  1.
         11   -1    0    0    0    0 -0.00000000000E+00 -0.00000000000E+00 -0.45593999997E+02  0.45594000000E+02  0.51100000000E-03 0. -1.
    9900012    2    1    2    0    0  0.92807606020E-02 -0.11691295659E+01  0.16144885932E+00  0.90007739093E+02  0.90000000449E+02 0.  0.
         12    1    1    2    0    0 -0.92807606020E-02  0.11691295659E+01 -0.16144885932E+00  0.11802609070E+01  0.00000000000E+00 0. -1.
         11    1    3    3    0    0  0.32896124069E+02 -0.24051778024E+02  0.22445251040E+01  0.40812754111E+02  0.51100000000E-03 0. -1.
        -11    1    3    3    0    0 -0.56685755047E+01 -0.53634160868E+00  0.98331628465E+01  0.11362724251E+02  0.51100000000E-03 0.  1.
        -12    1    3    3    0    0 -0.27218267804E+02  0.23418990066E+02 -0.11916239091E+02  0.37832260732E+02  0.00000000000E+00 0.  1.
</event>
<event>
 7    1  0.1698110E-015  0.9000764E+02  0.7816164E-02  0.1186339E+00
        -11   -1    0    0    0    0  0.00000000000E+00  0.00000000000E+00  0.45593999997E+02  0.45594000000E+02  0.51100000000E-03 0.  1.
         11   -1    0    0    0    0 -0.00000000000E+00 -0.00000000000E+00 -0.45593999997E+02  0.45594000000E+02  0.51100000000E-03 0. -1.
    9900012    2    1    2    0    0 -0.48899386432E+00  0.28774590223E-01  0.10739246020E+01  0.90007636909E+02  0.89999896916E+02 0.  0.
         12    1    1    2    0    0  0.48899386432E+00 -0.28774590223E-01 -0.10739246020E+01  0.11803630912E+01  0.00000000000E+00 0. -1.
         11    1    3    3    0    0  0.18757392136E+02  0.23799005191E+02 -0.18829240300E+02  0.35675940049E+02  0.51100000000E-03 0. -1.
        -11    1    3    3    0    0 -0.24600718942E+02 -0.29284029877E+01 -0.35595554635E+00  0.24776957463E+02  0.51100000000E-03 0.  1.
        -12    1    3    3    0    0  0.53543329408E+01 -0.20841827613E+02  0.20259120449E+02  0.29554739397E+02  0.00000000000E+00 0.  1.
</event>
<event>
 7    1  0.1698110E-015  0.9000772E+02  0.7816164E-02  0.1186339E+00
        -11   -1    0    0    0    0  0.00000000000E+00  0.00000000000E+00  0.45593999997E+02  0.45594000000E+02  0.51100000000E-03 0. -1.
         11   -1    0    0    0    0 -0.00000000000E+00 -0.00000000000E+00 -0.45593999997E+02  0.45594000000E+02  0.51100000000E-03 0.  1.
    9900012    2    1    2    0    0 -0.10632418741E+01  0.32751288135E+00 -0.39409038816E+00  0.90007722404E+02  0.89999983539E+02 0.  0.
         12    1    1    2    0    0  0.10632418741E+01 -0.32751288135E+00  0.39409038816E+00  0.11802775963E+01  0.00000000000E+00 0. -1.
         11    1    3    3    0    0 -0.22194318230E+02  0.10057822159E+02 -0.16270627993E+02  0.29299844433E+02  0.51100000000E-03 0. -1.
        -11    1    3    3    0    0 -0.74758417855E+01  0.62075120778E+01 -0.13555267666E+02  0.16678330203E+02  0.51100000000E-03 0.  1.
         12    1    3    3    0    0  0.28606918141E+02 -0.15937821356E+02  0.29431805271E+02  0.44029547767E+02  0.00000000000E+00 0. -1.
</event>
<event>
 7    1  0.1698110E-015  0.9000772E+02  0.7816164E-02  0.1186339E+00
        -11   -1    0    0    0    0  0.00000000000E+00  0.00000000000E+00  0.45593999997E+02  0.45594000000E+02  0.51100000000E-03 0.  1.
         11   -1    0    0    0    0 -0.00000000000E+00 -0.00000000000E+00 -0.45593999997E+02  0.45594000000E+02  0.51100000000E-03 0. -1.
    9900012    2    1    2    0    0 -0.75442286566E+00 -0.89202975801E+00 -0.16792022787E+00  0.90007716919E+02  0.89999977982E+02 0.  0.
         12    1    1    2    0    0  0.75442286566E+00  0.89202975801E+00  0.16792022787E+00  0.11802830814E+01  0.00000000000E+00 0. -1.
         11    1    3    3    0    0  0.17198079642E+01 -0.14184725914E+02 -0.32516714779E+02  0.35517614347E+02  0.51100000000E-03 0. -1.
        -11    1    3    3    0    0 -0.23057282089E+01 -0.79312263484E+01 -0.63059784496E+01  0.10391635984E+02  0.51100000000E-03 0.  1.
        -12    1    3    3    0    0 -0.16850262097E+00  0.21223922504E+02  0.38654773000E+02  0.44098466587E+02  0.00000000000E+00 0.  1.
</event>
<event>
 7    1  0.1698110E-015  0.9000776E+02  0.7816164E-02  0.1186339E+00
        -11   -1    0    0    0    0  0.00000000000E+00  0.00000000000E+00  0.45593999997E+02  0.45594000000E+02  0.51100000000E-03 0.  1.
         11   -1    0    0    0    0 -0.00000000000E+00 -0.00000000000E+00 -0.45593999997E+02  0.45594000000E+02  0.51100000000E-03 0. -1.
    9900012    2    1    2    0    0 -0.90559634901E+00 -0.25958763887E+00  0.71097453785E+00  0.90007756261E+02  0.90000017844E+02 0.  0.
         12    1    1    2    0    0  0.90559634901E+00  0.25958763887E+00 -0.71097453785E+00  0.11802437388E+01  0.00000000000E+00 0. -1.
         11    1    3    3    0    0 -0.35291942116E+02 -0.39248306647E+00 -0.92844920252E+01  0.36494890241E+02  0.51100000000E-03 0. -1.
        -11    1    3    3    0    0 -0.69817470625E+01  0.77985985704E+01  0.12549488613E+01  0.10542192780E+02  0.51100000000E-03 0.  1.
        -12    1    3    3    0    0  0.41368092829E+02 -0.76657031428E+01  0.87405177018E+01  0.42970673240E+02  0.00000000000E+00 0.  1.
</event>
<event>
 7    1  0.1698110E-015  0.9000771E+02  0.7816164E-02  0.1186339E+00
        -11   -1    0    0    0    0  0.00000000000E+00  0.00000000000E+00  0.45593999997E+02  0.45594000000E+02  0.51100000000E-03 0.  1.
         11   -1    0    0    0    0 -0.00000000000E+00 -0.00000000000E+00 -0.45593999997E+02  0.45594000000E+02  0.51100000000E-03 0. -1.
    9900012    2    1    2    0    0 -0.31051914702E+00  0.10903472661E+01  0.32835084426E+00  0.90007706147E+02  0.89999967069E+02 0.  0.
         12    1    1    2    0    0  0.31051914702E+00 -0.10903472661E+01 -0.32835084426E+00  0.11802938525E+01  0.00000000000E+00 0. -1.
         11    1    3    3    0    0 -0.19984650502E+02  0.16603011912E+02 -0.28810393304E+02  0.38795425282E+02  0.51100000000E-03 0. -1.
        -11    1    3    3    0    0 -0.89732314404E+01 -0.30088814567E+01  0.16907395285E+01  0.96140964483E+01  0.51100000000E-03 0.  1.
        -12    1    3    3    0    0  0.28647362795E+02 -0.12503783190E+02  0.27448004620E+02  0.41598184417E+02  0.00000000000E+00 0.  1.
</event>
<event>
 7    1  0.1698110E-015  0.9000822E+02  0.7816164E-02  0.1186338E+00
        -11   -1    0    0    0    0  0.00000000000E+00  0.00000000000E+00  0.45593999997E+02  0.45594000000E+02  0.51100000000E-03 0.  1.
         11   -1    0    0    0    0 -0.00000000000E+00 -0.00000000000E+00 -0.45593999997E+02  0.45594000000E+02  0.51100000000E-03 0. -1.
    9900012    2    1    2    0    0 -0.69709062371E-02  0.87527713673E+00  0.79102279308E+00  0.90008222174E+02  0.90000489905E+02 0.  0.
         12    1    1    2    0    0  0.69709062370E-02 -0.87527713673E+00 -0.79102279308E+00  0.11797778260E+01  0.00000000000E+00 0. -1.
         11    1    3    3    0    0 -0.33094489435E+02 -0.20087553672E+02 -0.16345253329E+01  0.38748247919E+02  0.51100000000E-03 0. -1.
        -11    1    3    3    0    0  0.18513706367E+01 -0.57907883078E+01  0.76836639216E+01  0.97979331484E+01  0.51100000000E-03 0.  1.
        -12    1    3    3    0    0  0.31236147892E+02  0.26753619117E+02 -0.52581157956E+01  0.41462041106E+02  0.00000000000E+00 0.  1.
</event>
<event>
 7    1  0.1698110E-015  0.9000790E+02  0.7816164E-02  0.1186339E+00
        -11   -1    0    0    0    0  0.00000000000E+00  0.00000000000E+00  0.45593999997E+02  0.45594000000E+02  0.51100000000E-03 0.  1.
         11   -1    0    0    0    0 -0.00000000000E+00 -0.00000000000E+00 -0.45593999997E+02  0.45594000000E+02  0.51100000000E-03 0. -1.
    9900012    2    1    2    0    0 -0.11571708274E+01  0.21196580940E+00  0.93009382127E-01  0.90007904846E+02  0.90000168389E+02 0.  0.
         12    1    1    2    0    0  0.11571708274E+01 -0.21196580940E+00 -0.93009382127E-01  0.11800951543E+01  0.00000000000E+00 0. -1.
         11    1    3    3    0    0 -0.26920167673E+02 -0.47831283327E+01 -0.33439935004E+02  0.43194941805E+02  0.51100000000E-03 0. -1.
        -11    1    3    3    0    0  0.46903366061E+01  0.17191188776E+01 -0.19924614174E+01  0.53781530245E+01  0.51100000000E-03 0.  1.
        -12    1    3    3    0    0  0.21072660240E+02  0.32759752645E+01  0.35525405804E+02  0.41434810016E+02  0.00000000000E+00 0.  1.
</event>
<event>
 7    1  0.1698110E-015  0.9000768E+02  0.7816164E-02  0.1186339E+00
        -11   -1    0    0    0    0  0.00000000000E+00  0.00000000000E+00  0.45593999997E+02  0.45594000000E+02  0.51100000000E-03 0. -1.
         11   -1    0    0    0    0 -0.00000000000E+00 -0.00000000000E+00 -0.45593999997E+02  0.45594000000E+02  0.51100000000E-03 0.  1.
    9900012    2    1    2    0    0 -0.78620921654E+00 -0.85309431872E+00  0.21738207614E+00  0.90007682324E+02  0.89999942931E+02 0.  0.
         12    1    1    2    0    0  0.78620921654E+00  0.85309431872E+00 -0.21738207614E+00  0.11803176758E+01  0.00000000000E+00 0. -1.
         11    1    3    3    0    0 -0.31136129364E+01  0.13535186470E+02  0.28476633156E+02  0.31683031649E+02  0.51100000000E-03 0. -1.
        -11    1    3    3    0    0  0.83050089700E+01  0.10371710254E+02  0.68501077603E+01  0.14948897089E+02  0.51100000000E-03 0.  1.
        -12    1    3    3    0    0 -0.59776052501E+01 -0.24759991043E+02 -0.35109358840E+02  0.43375753586E+02  0.00000000000E+00 0.  1.
</event>
<event>
 7    1  0.1698110E-015  0.9000774E+02  0.7816164E-02  0.1186339E+00
        -11   -1    0    0    0    0  0.00000000000E+00  0.00000000000E+00  0.45593999997E+02  0.45594000000E+02  0.51100000000E-03 0. -1.
         11   -1    0    0    0    0 -0.00000000000E+00 -0.00000000000E+00 -0.45593999997E+02  0.45594000000E+02  0.51100000000E-03 0.  1.
    9900012    2    1    2    0    0 -0.68636036054E+00 -0.76867011412E+00  0.57538429074E+00  0.90007740973E+02  0.90000002354E+02 0.  0.
         12    1    1    2    0    0  0.68636036054E+00  0.76867011412E+00 -0.57538429074E+00  0.11802590270E+01  0.00000000000E+00 0. -1.
         11    1    3    3    0    0  0.36756681573E+01 -0.14875530100E+02  0.30043878727E+02  0.33725755461E+02  0.51100000000E-03 0. -1.
        -11    1    3    3    0    0 -0.89592936279E+01 -0.45851434296E+01  0.88489186398E+01  0.13401337394E+02  0.51100000000E-03 0.  1.
        -12    1    3    3    0    0  0.45972651101E+01  0.18692003416E+02 -0.38317413076E+02  0.42880648118E+02  0.00000000000E+00 0.  1.
</event>
<event>
 7    1  0.1698110E-015  0.9000778E+02  0.7816164E-02  0.1186339E+00
        -11   -1    0    0    0    0  0.00000000000E+00  0.00000000000E+00  0.45593999997E+02  0.45594000000E+02  0.51100000000E-03 0.  1.
         11   -1    0    0    0    0 -0.00000000000E+00 -0.00000000000E+00 -0.45593999997E+02  0.45594000000E+02  0.51100000000E-03 0. -1.
    9900012    2    1    2    0    0  0.40831663815E+00 -0.10645633928E+01 -0.30480903961E+00  0.90007777036E+02  0.90000038893E+02 0.  0.
         12    1    1    2    0    0 -0.40831663815E+00  0.10645633928E+01  0.30480903961E+00  0.11802229641E+01  0.00000000000E+00 0. -1.
         11    1    3    3    0    0  0.33899258532E+02 -0.13293129834E+02 -0.85543512358E+01  0.37403795999E+02  0.51100000000E-03 0. -1.
        -11    1    3    3    0    0  0.82634289174E+01  0.16768040585E+01  0.39857531330E+01  0.93264225522E+01  0.51100000000E-03 0.  1.
        -12    1    3    3    0    0 -0.41754370811E+02  0.10551762383E+02  0.42637890632E+01  0.43277558485E+02  0.00000000000E+00 0.  1.
</event>
<event>
 7    1  0.1706178E-015  0.9000770E+02  0.7816164E-02  0.1186339E+00
        -11   -1    0    0    0    0  0.00000000000E+00  0.00000000000E+00  0.45593999997E+02  0.45594000000E+02  0.51100000000E-03 0. -1.
         11   -1    0    0    0    0 -0.00000000000E+00 -0.00000000000E+00 -0.45593999997E+02  0.45594000000E+02  0.51100000000E-03 0.  1.
    9900012    2    1    2    0    0  0.67479495493E+00 -0.96272834585E+00 -0.10444931140E+00  0.90007701835E+02  0.89999962699E+02 0.  0.
         12    1    1    2    0    0 -0.67479495493E+00  0.96272834585E+00  0.10444931140E+00  0.11802981648E+01  0.00000000000E+00 0. -1.
         11    1    3    3    0    0  0.57398697199E+01 -0.73808737209E+01 -0.23596393371E+01  0.96431996426E+01  0.51100000000E-03 0. -1.
        -11    1    3    3    0    0  0.86626567405E+01 -0.35188068447E+02 -0.23258620429E+01  0.36313240248E+02  0.51100000000E-03 0.  1.
         12    1    3    3    0    0 -0.13727731506E+02  0.41606213822E+02  0.45810520686E+01  0.44051261945E+02  0.00000000000E+00 0. -1.
</event>
<event>
 7    1  0.1698110E-015  0.9000777E+02  0.7816164E-02  0.1186339E+00
        -11   -1    0    0    0    0  0.00000000000E+00  0.00000000000E+00  0.45593999997E+02  0.45594000000E+02  0.51100000000E-03 0.  1.
         11   -1    0    0    0    0 -0.00000000000E+00 -0.00000000000E+00 -0.45593999997E+02  0.45594000000E+02  0.51100000000E-03 0. -1.
    9900012    2    1    2    0    0 -0.58096421942E+00 -0.89859120552E+00  0.49796416315E+00  0.90007765326E+02  0.90000027028E+02 0.  0.
         12    1    1    2    0    0  0.58096421942E+00  0.89859120552E+00 -0.49796416315E+00  0.11802346744E+01  0.00000000000E+00 0. -1.
         11    1    3    3    0    0 -0.38283963177E+01  0.63434761704E+01 -0.48127808512E+01  0.88351099638E+01  0.51100000000E-03 0. -1.
        -11    1    3    3    0    0  0.16855182851E+02 -0.17969818801E+02 -0.31793112700E+02  0.40222053554E+02  0.51100000000E-03 0.  1.
         12    1    3    3    0    0 -0.13607750752E+02  0.10727751425E+02  0.37103857714E+02  0.40950601808E+02  0.00000000000E+00 0. -1.
</event>
<event>
 7    1  0.1698110E-015  0.9000776E+02  0.7816164E-02  0.1186339E+00
        -11   -1    0    0    0    0  0.00000000000E+00  0.00000000000E+00  0.45593999997E+02  0.45594000000E+02  0.51100000000E-03 0.  1.
         11   -1    0    0    0    0 -0.00000000000E+00 -0.00000000000E+00 -0.45593999997E+02  0.45594000000E+02  0.51100000000E-03 0. -1.
    9900012    2    1    2    0    0  0.11730663536E+01 -0.98281764418E-01 -0.84951947564E-01  0.90007762393E+02  0.90000024057E+02 0.  0.
         12    1    1    2    0    0 -0.11730663536E+01  0.98281764418E-01  0.84951947564E-01  0.11802376068E+01  0.00000000000E+00 0. -1.
         11    1    3    3    0    0  0.31582110137E+00 -0.98754159345E+01 -0.51769302848E+01  0.11154559170E+02  0.51100000000E-03 0. -1.
        -11    1    3    3    0    0 -0.30289636566E+01 -0.19178369032E+02 -0.28404363464E+02  0.34406283200E+02  0.51100000000E-03 0.  1.
         12    1    3    3    0    0  0.38862089089E+01  0.28955503203E+02  0.33496341802E+02  0.44446920023E+02  0.00000000000E+00 0. -1.
</event>
<event>
 7    1  0.1698110E-015  0.9000784E+02  0.7816164E-02  0.1186339E+00
        -11   -1    0    0    0    0  0.00000000000E+00  0.00000000000E+00  0.45593999997E+02  0.45594000000E+02  0.51100000000E-03 0.  1.
         11   -1    0    0    0    0 -0.00000000000E+00 -0.00000000000E+00 -0.45593999997E+02  0.45594000000E+02  0.51100000000E-03 0. -1.
    9900012    2    1    2    0    0  0.43119292429E+00 -0.41601110115E+00  0.10167466748E+01  0.90007844767E+02  0.90000107517E+02 0.  0.
         12    1    1    2    0    0 -0.43119292429E+00  0.41601110115E+00 -0.10167466748E+01  0.11801552334E+01  0.00000000000E+00 0. -1.
         11    1    3    3    0    0 -0.31302371759E+02  0.17098945618E+02 -0.60688012886E+01  0.36180696073E+02  0.51100000000E-03 0. -1.
        -11    1    3    3    0    0 -0.59281777632E+01  0.63440365144E+01  0.23373914921E+01  0.89918568792E+01  0.51100000000E-03 0.  1.
        -12    1    3    3    0    0  0.37661742446E+02 -0.23858993234E+02  0.47481564712E+01  0.44835291814E+02  0.00000000000E+00 0.  1.
</event>
<event>
 7    1  0.1698110E-015  0.9000768E+02  0.7816164E-02  0.1186339E+00
        -11   -1    0    0    0    0  0.00000000000E+00  0.00000000000E+00  0.45593999997E+02  0.45594000000E+02  0.51100000000E-03 0. -1.
         11   -1    0    0    0    0 -0.00000000000E+00 -0.00000000000E+00 -0.45593999997E+02  0.45594000000E+02  0.51100000000E-03 0.  1.
    9900012    2    1    2    0    0  0.21378942110E+00  0.22602959100E+00 -0.11385731792E+01  0.90007684713E+02  0.89999945351E+02 0.  0.
         12    1    1    2    0    0 -0.21378942110E+00 -0.22602959100E+00  0.11385731792E+01  0.11803152871E+01  0.00000000000E+00 0. -1.
         11    1    3    3    0    0  0.16908107979E+01  0.90374229038E+01 -0.28818390359E+01  0.96352919201E+01  0.51100000000E-03 0. -1.
        -11    1    3    3    0    0 -0.33325567804E+02  0.81799199938E+01  0.20211531649E+02  0.39824748240E+02  0.51100000000E-03 0.  1.
         12    1    3    3    0    0  0.31848546427E+02 -0.16991313307E+02 -0.18468265792E+02  0.40547644553E+02  0.00000000000E+00 0. -1.
</event>
<event>
 7    1  0.1698110E-015  0.9000760E+02  0.7816164E-02  0.1186339E+00
        -11   -1    0    0    0    0  0.00000000000E+00  0.00000000000E+00  0.45593999997E+02  0.45594000000E+02  0.51100000000E-03 0. -1.
         11   -1    0    0    0    0 -0.00000000000E+00 -0.00000000000E+00 -0.45593999997E+02  0.45594000000E+02  0.51100000000E-03 0.  1.
    9900012    2    1    2    0    0 -0.38035152536E-01  0.10782085626E+01  0.47892495072E+00  0.90007597744E+02  0.89999857234E+02 0.  0.
         12    1    1    2    0    0  0.38035152536E-01 -0.10782085626E+01 -0.47892495072E+00  0.11804022558E+01  0.00000000000E+00 0. -1.
         11    1    3    3    0    0  0.20011371082E+02 -0.25590814705E+02 -0.36177210980E+01  0.32686888443E+02  0.51100000000E-03 0. -1.
        -11    1    3    3    0    0 -0.13445616324E+02 -0.47526741291E+01 -0.14399472200E+02  0.20266161689E+02  0.51100000000E-03 0.  1.
        -12    1    3    3    0    0 -0.66037899105E+01  0.31421697397E+02  0.18496118249E+02  0.37054547612E+02  0.00000000000E+00 0.  1.
</event>
<event>
 7    1  0.1698110E-015  0.9000768E+02  0.7816164E-02  0.1186339E+00
        -11   -1    0    0    0    0  0.00000000000E+00  0.00000000000E+00  0.45593999997E+02  0.45594000000E+02  0.51100000000E-03 0.  1.
         11   -1    0    0    0    0 -0.00000000000E+00 -0.00000000000E+00 -0.45593999997E+02  0.45594000000E+02  0.51100000000E-03 0. -1.
    9900012    2    1    2    0    0  0.76871846684E+00 -0.19159725419E+00  0.87494020677E+00  0.90007678877E+02  0.89999939438E+02 0.  0.
         12    1    1    2    0    0 -0.76871846684E+00  0.19159725419E+00 -0.87494020677E+00  0.11803211235E+01  0.00000000000E+00 0. -1.
         11    1    3    3    0    0  0.25400974020E+02 -0.20992794475E+02  0.13728024117E+02  0.35698256924E+02  0.51100000000E-03 0. -1.
        -11    1    3    3    0    0  0.11211720438E+02  0.36070026320E+01  0.18517941810E+01  0.11922343944E+02  0.51100000000E-03 0.  1.
        -12    1    3    3    0    0 -0.35843975991E+02  0.17194194589E+02 -0.14704878091E+02  0.42387078008E+02  0.00000000000E+00 0.  1.
</event>
<event>
 7    1  0.1698110E-015  0.9000774E+02  0.7816164E-02  0.1186339E+00
        -11   -1    0    0    0    0  0.00000000000E+00  0.00000000000E+00  0.45593999997E+02  0.45594000000E+02  0.51100000000E-03 0. -1.
         11   -1    0    0    0    0 -0.00000000000E+00 -0.00000000000E+00 -0.45593999997E+02  0.45594000000E+02  0.51100000000E-03 0.  1.
    9900012    2    1    2    0    0  0.96164619987E+00 -0.24315789488E+00 -0.63963061502E+00  0.90007738800E+02  0.90000000153E+02 0.  0.
         12    1    1    2    0    0 -0.96164619987E+00  0.24315789488E+00  0.63963061502E+00  0.11802611996E+01  0.00000000000E+00 0. -1.
         11    1    3    3    0    0 -0.61588903406E+01  0.70811770803E+00 -0.98924121957E+01  0.11674467021E+02  0.51100000000E-03 0. -1.
        -11    1    3    3    0    0  0.71535227415E+01  0.35753722358E+02 -0.86808255343E+01  0.37481439170E+02  0.51100000000E-03 0.  1.
         12    1    3    3    0    0 -0.32986201069E-01 -0.36704997961E+02  0.17933607115E+02  0.40851832609E+02  0.00000000000E+00 0. -1.
</event>
<event>
 7    1  0.1698110E-015  0.9000754E+02  0.7816164E-02  0.1186339E+00
        -11   -1    0    0    0    0  0.00000000000E+00  0.00000000000E+00  0.45593999997E+02  0.45594000000E+02  0.51100000000E-03 0.  1.
         11   -1    0    0    0    0 -0.00000000000E+00 -0.00000000000E+00 -0.45593999997E+02  0.45594000000E+02  0.51100000000E-03 0. -1.
    9900012    2    1    2    0    0  0.50966126585E+00  0.98329350468E+00  0.40849063880E+00  0.90007540206E+02  0.89999798937E+02 0.  0.
         12    1    1    2    0    0 -0.50966126585E+00 -0.98329350468E+00 -0.40849063880E+00  0.11804597936E+01  0.00000000000E+00 0. -1.
         11    1    3    3    0    0  0.20492229273E+02 -0.30458667137E+00  0.14532459419E+02  0.25124024571E+02  0.51100000000E-03 0. -1.
        -11    1    3    3    0    0  0.90587999050E+01 -0.21106457176E+02  0.50258138648E+01  0.23511767171E+02  0.51100000000E-03 0.  1.
        -12    1    3    3    0    0 -0.29041367912E+02  0.22394337352E+02 -0.19149782645E+02  0.41371748464E+02  0.00000000000E+00 0.  1.
</event>
<event>
 7    1  0.1698110E-015  0.9000777E+02  0.7816164E-02  0.1186339E+00
        -11   -1    0    0    0    0  0.00000000000E+00  0.00000000000E+00  0.45593999997E+02  0.45594000000E+02  0.51100000000E-03 0.  1.
         11   -1    0    0    0    0 -0.00000000000E+00 -0.00000000000E+00 -0.45593999997E+02  0.45594000000E+02  0.51100000000E-03 0. -1.
    9900012    2    1    2    0    0  0.58369875953E+00  0.13916088067E+00  0.10163005766E+01  0.90007772541E+02  0.90000034339E+02 0.  0.
         12    1    1    2    0    0 -0.58369875953E+00 -0.13916088067E+00 -0.10163005766E+01  0.11802274588E+01  0.00000000000E+00 0. -1.
         11    1    3    3    0    0 -0.20365796397E+02  0.30008781215E+02 -0.23767341957E+02  0.43361032700E+02  0.51100000000E-03 0. -1.
        -11    1    3    3    0    0  0.35866034749E+01  0.13185578552E+01  0.22826693211E+01  0.44511682505E+01  0.51100000000E-03 0.  1.
        -12    1    3    3    0    0  0.17362891681E+02 -0.31188178189E+02  0.22500973213E+02  0.42195571590E+02  0.00000000000E+00 0.  1.
</event>
<event>
 7    1  0.1698110E-015  0.9000772E+02  0.7816164E-02  0.1186339E+00
        -11   -1    0    0    0    0  0.00000000000E+00  0.00000000000E+00  0.45593999997E+02  0.45594000000E+02  0.51100000000E-03 0.  1.
         11   -1    0    0    0    0 -0.00000000000E+00 -0.00000000000E+00 -0.45593999997E+02  0.45594000000E+02  0.51100000000E-03 0. -1.
    9900012    2    1    2    0    0  0.10986352905E+01 -0.29598817729E+00  0.31377744973E+00  0.90007718343E+02  0.89999979425E+02 0.  0.
         12    1    1    2    0    0 -0.10986352905E+01  0.29598817729E+00 -0.31377744973E+00  0.11802816573E+01  0.00000000000E+00 0. -1.
         11    1    3    3    0    0  0.44668243417E+01  0.69812381690E+01  0.32044498786E+01  0.88858711085E+01  0.51100000000E-03 0. -1.
        -11    1    3    3    0    0  0.22450770203E+02  0.27161344395E+02  0.91879722647E+01  0.36416954110E+02  0.51100000000E-03 0.  1.
         12    1    3    3    0    0 -0.25818959254E+02 -0.34438570741E+02 -0.12078644694E+02  0.44704893125E+02  0.00000000000E+00 0. -1.
</event>
<event>
 7    1  0.1698110E-015  0.9000772E+02  0.7816164E-02  0.1186339E+00
        -11   -1    0    0    0    0  0.00000000000E+00  0.00000000000E+00  0.45593999997E+02  0.45594000000E+02  0.51100000000E-03 0. -1.
         11   -1    0    0    0    0 -0.00000000000E+00 -0.00000000000E+00 -0.45593999997E+02  0.45594000000E+02  0.51100000000E-03 0.  1.
    9900012    2    1    2    0    0  0.34669956086E+00  0.23309764033E+00 -0.11038710160E+01  0.90007717697E+02  0.89999978770E+02 0.  0.
         12    1    1    2    0    0 -0.34669956086E+00 -0.23309764033E+00  0.11038710160E+01  0.11802823032E+01  0.00000000000E+00 0. -1.
         11    1    3    3    0    0 -0.14101548751E+02  0.73079822755E+01  0.31326627949E+02  0.35122897105E+02  0.51100000000E-03 0. -1.
        -11    1    3    3    0    0  0.22004410903E+02  0.63257457561E+01 -0.50006485870E+01  0.23435350330E+02  0.51100000000E-03 0.  1.
        -12    1    3    3    0    0 -0.75561625911E+01 -0.13400630391E+02 -0.27429850378E+02  0.31449470262E+02  0.00000000000E+00 0.  1.
</event>
<event>
 7    1  0.1698110E-015  0.9000774E+02  0.7816164E-02  0.1186339E+00
        -11   -1    0    0    0    0  0.00000000000E+00  0.00000000000E+00  0.45593999997E+02  0.45594000000E+02  0.51100000000E-03 0.  1.
         11   -1    0    0    0    0 -0.00000000000E+00 -0.00000000000E+00 -0.45593999997E+02  0.45594000000E+02  0.51100000000E-03 0. -1.
    9900012    2    1    2    0    0 -0.52738971813E+00  0.10225962476E+01  0.26299866004E+00  0.90007741005E+02  0.90000002386E+02 0.  0.
         12    1    1    2    0    0  0.52738971813E+00 -0.10225962476E+01 -0.26299866004E+00  0.11802589951E+01  0.00000000000E+00 0. -1.
         11    1    3    3    0    0 -0.80312759098E+01 -0.33154784011E+02 -0.91534792258E+01  0.35320352175E+02  0.51100000000E-03 0. -1.
        -11    1    3    3    0    0 -0.19988812742E+01 -0.72842491217E+01 -0.57867938901E+01  0.95153978058E+01  0.51100000000E-03 0.  1.
        -12    1    3    3    0    0  0.95027674658E+01  0.41461629380E+02  0.15203271776E+02  0.45171991024E+02  0.00000000000E+00 0.  1.
</event>
<event>
 7    1  0.1698110E-015  0.9000776E+02  0.7816164E-02  0.1186339E+00
        -11   -1    0    0    0    0  0.00000000000E+00  0.00000000000E+00  0.45593999997E+02  0.45594000000E+02  0.51100000000E-03 0. -1.
         11   -1    0    0    0    0 -0.00000000000E+00 -0.00000000000E+00 -0.45593999997E+02  0.45594000000E+02  0.51100000000E-03 0.  1.
    9900012    2    1    2    0    0 -0.85528565688E+00  0.74447782487E+00 -0.32740837336E+00  0.90007763994E+02  0.90000025679E+02 0.  0.
         12    1    1    2    0    0  0.85528565688E+00 -0.74447782487E+00  0.32740837336E+00  0.11802360059E+01  0.00000000000E+00 0. -1.
         11    1    3    3    0    0  0.37919510742E+01 -0.71803127863E+01  0.66669970060E+01  0.10506409187E+02  0.51100000000E-03 0. -1.
        -11    1    3    3    0    0 -0.16500357639E+02  0.16773684209E+01 -0.40311998356E+02  0.43590510191E+02  0.51100000000E-03 0.  1.
         12    1    3    3    0    0  0.11853120908E+02  0.62474221903E+01  0.33317592977E+02  0.35910844616E+02  0.00000000000E+00 0. -1.
</event>
<event>
 7    1  0.1698110E-015  0.9000772E+02  0.7816164E-02  0.1186339E+00
        -11   -1    0    0    0    0  0.00000000000E+00  0.00000000000E+00  0.45593999997E+02  0.45594000000E+02  0.51100000000E-03 0.  1.
         11   -1    0    0    0    0 -0.00000000000E+00 -0.00000000000E+00 -0.45593999997E+02  0.45594000000E+02  0.51100000000E-03 0. -1.
    9900012    2    1    2    0    0  0.10226833640E+01 -0.10181455782E+00  0.58036507033E+00  0.90007715677E+02  0.89999976724E+02 0.  0.
         12    1    1    2    0    0 -0.10226833640E+01  0.10181455782E+00 -0.58036507033E+00  0.11802843226E+01  0.00000000000E+00 0. -1.
         11    1    3    3    0    0  0.68595348760E+01 -0.47700947377E+01  0.31649866659E+01  0.89344369368E+01  0.51100000000E-03 0. -1.
        -11    1    3    3    0    0 -0.34222682153E-02 -0.31707324969E+02 -0.22797393178E+02  0.39052216382E+02  0.51100000000E-03 0.  1.
         12    1    3    3    0    0 -0.58334292437E+01  0.36375605149E+02  0.20212771582E+02  0.42021062358E+02  0.00000000000E+00 0. -1.
</event>
<event>
 7    1  0.1698110E-015  0.9000771E+02  0.7816164E-02  0.1186339E+00
        -11   -1    0    0    0    0  0.00000000000E+00  0.00000000000E+00  0.45593999997E+02  0.45594000000E+02  0.51100000000E-03 0.  1.
         11   -1    0    0    0    0 -0.00000000000E+00 -0.00000000000E+00 -0.45593999997E+02  0.45594000000E+02  0.51100000000E-03 0. -1.
    9900012    2    1    2    0    0  0.12792081403E+00  0.30159794424E+00  0.11339184521E+01  0.90007705075E+02  0.89999965982E+02 0.  0.
         12    1    1    2    0    0 -0.12792081403E+00 -0.30159794424E+00 -0.11339184521E+01  0.11802949253E+01  0.00000000000E+00 0. -1.
         11    1    3    3    0    0 -0.73651629358E+01 -0.61490341275E+01 -0.63316943637E+01  0.11495503449E+02  0.51100000000E-03 0. -1.
        -11    1    3    3    0    0  0.23960322385E+02 -0.41610152568E+01  0.36275410737E+02  0.43672835048E+02  0.51100000000E-03 0.  1.
         12    1    3    3    0    0 -0.16467238635E+02  0.10611647329E+02 -0.28809797921E+02  0.34839366578E+02  0.00000000000E+00 0. -1.
</event>
<event>
 7    1  0.1698110E-015  0.9000771E+02  0.7816164E-02  0.1186339E+00
        -11   -1    0    0    0    0  0.00000000000E+00  0.00000000000E+00  0.45593999997E+02  0.45594000000E+02  0.51100000000E-03 0.  1.
         11   -1    0    0    0    0 -0.00000000000E+00 -0.00000000000E+00 -0.45593999997E+02  0.45594000000E+02  0.51100000000E-03 0. -1.
    9900012    2    1    2    0    0 -0.91420531899E-02 -0.15970384831E-03  0.11802530623E+01  0.90007711521E+02  0.89999972513E+02 0.  0.
         12    1    1    2    0    0  0.91420531899E-02  0.15970384831E-03 -0.11802530623E+01  0.11802884790E+01  0.00000000000E+00 0. -1.
         11    1    3    3    0    0  0.15408883924E+02 -0.36669795192E+02  0.75691796793E+01  0.40489505609E+02  0.51100000000E-03 0. -1.
        -11    1    3    3    0    0 -0.83207881637E+01 -0.23026135440E+01 -0.47887709214E+01  0.98726831205E+01  0.51100000000E-03 0.  1.
        -12    1    3    3    0    0 -0.70972378131E+01  0.38972249032E+02 -0.16001556956E+01  0.39645522792E+02  0.00000000000E+00 0.  1.
</event>
<event>
 7    1  0.1698110E-015  0.9000780E+02  0.7816164E-02  0.1186339E+00
        -11   -1    0    0    0    0  0.00000000000E+00  0.00000000000E+00  0.45593999997E+02  0.45594000000E+02  0.51100000000E-03 0.  1.
         11   -1    0    0    0    0 -0.00000000000E+00 -0.00000000000E+00 -0.45593999997E+02  0.45594000000E+02  0.51100000000E-03 0. -1.
    9900012    2    1    2    0    0 -0.35596791250E+00  0.19728799095E+00  0.11078029617E+01  0.90007803784E+02  0.90000065994E+02 0.  0.
         12    1    1    2    0    0  0.35596791250E+00 -0.19728799095E+00 -0.11078029617E+01  0.11801962159E+01  0.00000000000E+00 0. -1.
         11    1    3    3    0    0  0.73924258598E+01 -0.79052558260E+01 -0.41324035864E+02  0.42717876470E+02  0.51100000000E-03 0. -1.
        -11    1    3    3    0    0 -0.68819279234E+01  0.97355884449E+00  0.36534325233E+01  0.78521537320E+01  0.51100000000E-03 0.  1.
        -12    1    3    3    0    0 -0.86646584894E+00  0.71289849725E+01  0.38778406302E+02  0.39437773582E+02  0.00000000000E+00 0.  1.
</event>
<event>
 7    1  0.1698110E-015  0.9000774E+02  0.7816164E-02  0.1186339E+00
        -11   -1    0    0    0    0  0.00000000000E+00  0.00000000000E+00  0.45593999997E+02  0.45594000000E+02  0.51100000000E-03 0.  1.
         11   -1    0    0    0    0 -0.00000000000E+00 -0.00000000000E+00 -0.45593999997E+02  0.45594000000E+02  0.51100000000E-03 0. -1.
    9900012    2    1    2    0    0 -0.10802552038E+01 -0.12037112382E-01  0.47530656516E+00  0.90007740483E+02  0.90000001857E+02 0.  0.
         12    1    1    2    0    0  0.10802552038E+01  0.12037112382E-01 -0.47530656516E+00  0.11802595173E+01  0.00000000000E+00 0. -1.
         11    1    3    3    0    0 -0.56186106122E+01  0.20792330559E+00  0.75162045599E+01  0.93864449372E+01  0.51100000000E-03 0. -1.
        -11    1    3    3    0    0 -0.27731037012E+02 -0.25170279977E+02  0.57127080403E+01  0.37883881022E+02  0.51100000000E-03 0.  1.
         12    1    3    3    0    0  0.32269392420E+02  0.24950319559E+02 -0.12753606035E+02  0.42737414524E+02  0.00000000000E+00 0. -1.
</event>
<event>
 7    1  0.1698110E-015  0.9000780E+02  0.7816164E-02  0.1186339E+00
        -11   -1    0    0    0    0  0.00000000000E+00  0.00000000000E+00  0.45593999997E+02  0.45594000000E+02  0.51100000000E-03 0.  1.
         11   -1    0    0    0    0 -0.00000000000E+00 -0.00000000000E+00 -0.45593999997E+02  0.45594000000E+02  0.51100000000E-03 0. -1.
    9900012    2    1    2    0    0 -0.14725527335E+00 -0.10005997774E+01  0.60827068256E+00  0.90007797791E+02  0.90000059922E+02 0.  0.
         12    1    1    2    0    0  0.14725527335E+00  0.10005997774E+01 -0.60827068256E+00  0.11802022087E+01  0.00000000000E+00 0. -1.
         11    1    3    3    0    0 -0.32013006128E+02 -0.19286709450E+02 -0.48469154595E+01  0.37686898420E+02  0.51100000000E-03 0. -1.
        -11    1    3    3    0    0 -0.30828370752E+01 -0.38576175206E+01  0.95442301606E+01  0.10746042387E+02  0.51100000000E-03 0.  1.
        -12    1    3    3    0    0  0.34948587930E+02  0.22143727193E+02 -0.40890440185E+01  0.41574856984E+02  0.00000000000E+00 0.  1.
</event>
<event>
 7    1  0.1698110E-015  0.9000810E+02  0.7816164E-02  0.1186338E+00
        -11   -1    0    0    0    0  0.00000000000E+00  0.00000000000E+00  0.45593999997E+02  0.45594000000E+02  0.51100000000E-03 0. -1.
         11   -1    0    0    0    0 -0.00000000000E+00 -0.00000000000E+00 -0.45593999997E+02  0.45594000000E+02  0.51100000000E-03 0.  1.
    9900012    2    1    2    0    0 -0.10249994562E+00 -0.83183915283E+00 -0.83048013692E+00  0.90008101753E+02  0.90000367896E+02 0.  0.
         12    1    1    2    0    0  0.10249994562E+00  0.83183915283E+00  0.83048013692E+00  0.11798982468E+01  0.00000000000E+00 0. -1.
         11    1    3    3    0    0  0.20761602948E+02 -0.12902035576E+02  0.24953083304E+02  0.34930832306E+02  0.51100000000E-03 0. -1.
        -11    1    3    3    0    0  0.51722390228E+01 -0.50214562628E+01  0.68658254536E+01  0.99552317365E+01  0.51100000000E-03 0.  1.
        -12    1    3    3    0    0 -0.26036341917E+02  0.17091652686E+02 -0.32649388894E+02  0.45122037710E+02  0.00000000000E+00 0.  1.
</event>
<event>
 7    1  0.1698110E-015  0.9000770E+02  0.7816164E-02  0.1186339E+00
        -11   -1    0    0    0    0  0.00000000000E+00  0.00000000000E+00  0.45593999997E+02  0.45594000000E+02  0.51100000000E-03 0.  1.
         11   -1    0    0    0    0 -0.00000000000E+00 -0.00000000000E+00 -0.45593999997E+02  0.45594000000E+02  0.51100000000E-03 0. -1.
    9900012    2    1    2    0    0  0.10385986128E+01  0.49951983888E+00  0.25477330841E+00  0.90007696401E+02  0.89999957193E+02 0.  0.
         12    1    1    2    0    0 -0.10385986128E+01 -0.49951983888E+00 -0.25477330841E+00  0.11803035993E+01  0.00000000000E+00 0. -1.
         11    1    3    3    0    0  0.27729247240E+01  0.93622792762E+01 -0.21270439366E+01  0.99932827910E+01  0.51100000000E-03 0. -1.
        -11    1    3    3    0    0 -0.38081023394E+02 -0.15261438674E+02  0.10234421385E+02  0.42282611491E+02  0.51100000000E-03 0.  1.
         12    1    3    3    0    0  0.36346697283E+02  0.63986792368E+01 -0.78526041402E+01  0.37731802119E+02  0.00000000000E+00 0. -1.
</event>
<event>
 7    1  0.1698110E-015  0.9000744E+02  0.7816164E-02  0.1186340E+00
        -11   -1    0    0    0    0  0.00000000000E+00  0.00000000000E+00  0.45593999997E+02  0.45594000000E+02  0.51100000000E-03 0.  1.
         11   -1    0    0    0    0 -0.00000000000E+00 -0.00000000000E+00 -0.45593999997E+02  0.45594000000E+02  0.51100000000E-03 0. -1.
    9900012    2    1    2    0    0 -0.81404132942E+00  0.74697880457E+00  0.41603556096E+00  0.90007438181E+02  0.89999695564E+02 0.  0.
         12    1    1    2    0    0  0.81404132942E+00 -0.74697880457E+00 -0.41603556096E+00  0.11805618190E+01  0.00000000000E+00 0. -1.
         11    1    3    3    0    0  0.34696472856E+02  0.46706498268E+01  0.74895405634E+01  0.35801583995E+02  0.51100000000E-03 0. -1.
        -11    1    3    3    0    0  0.82097466194E+01  0.42573399347E+01 -0.73076787064E+00  0.92767938867E+01  0.51100000000E-03 0.  1.
        -12    1    3    3    0    0 -0.43720260804E+02 -0.81810109569E+01 -0.63427371318E+01  0.44929060300E+02  0.00000000000E+00 0.  1.
</event>
<event>
 7    1  0.1698110E-015  0.9000777E+02  0.7816164E-02  0.1186339E+00
        -11   -1    0    0    0    0  0.00000000000E+00  0.00000000000E+00  0.45593999997E+02  0.45594000000E+02  0.51100000000E-03 0. -1.
         11   -1    0    0    0    0 -0.00000000000E+00 -0.00000000000E+00 -0.45593999997E+02  0.45594000000E+02  0.51100000000E-03 0.  1.
    9900012    2    1    2    0    0  0.11661416210E+01 -0.11877916778E+00 -0.13765057685E+00  0.90007770170E+02  0.90000031936E+02 0.  0.
         12    1    1    2    0    0 -0.11661416210E+01  0.11877916778E+00  0.13765057685E+00  0.11802298302E+01  0.00000000000E+00 0. -1.
         11    1    3    3    0    0  0.11947880723E+02 -0.32093604332E+02  0.23091981697E+02  0.41303642839E+02  0.51100000000E-03 0. -1.
        -11    1    3    3    0    0  0.11463357129E+01 -0.21906902980E+01 -0.97961464638E+01  0.10103350699E+02  0.51100000000E-03 0.  1.
        -12    1    3    3    0    0 -0.11928074814E+02  0.34165515462E+02 -0.13433485810E+02  0.38600776632E+02  0.00000000000E+00 0.  1.
</event>
<event>
 7    1  0.1698110E-015  0.9000773E+02  0.7816164E-02  0.1186339E+00
        -11   -1    0    0    0    0  0.00000000000E+00  0.00000000000E+00  0.45593999997E+02  0.45594000000E+02  0.51100000000E-03 0. -1.
         11   -1    0    0    0    0 -0.00000000000E+00 -0.00000000000E+00 -0.45593999997E+02  0.45594000000E+02  0.51100000000E-03 0.  1.
    9900012    2    1    2    0    0  0.83959655307E+00 -0.70738735638E+00 -0.43327318525E+00  0.90007726770E+02  0.89999987964E+02 0.  0.
         12    1    1    2    0    0 -0.83959655307E+00  0.70738735638E+00  0.43327318525E+00  0.11802732298E+01  0.00000000000E+00 0. -1.
         11    1    3    3    0    0  0.13167688963E+02 -0.14895007659E+02 -0.26826914343E+02  0.33390606751E+02  0.51100000000E-03 0. -1.
        -11    1    3    3    0    0 -0.11033148768E+02  0.83650518271E+01 -0.11658434790E+02  0.18100374743E+02  0.51100000000E-03 0.  1.
         12    1    3    3    0    0 -0.12949436410E+01  0.58225684753E+01  0.38052075948E+02  0.38516745276E+02  0.00000000000E+00 0. -1.
</event>
<event>
 7    1  0.1698110E-015  0.9000767E+02  0.7816164E-02  0.1186339E+00
        -11   -1    0    0    0    0  0.00000000000E+00  0.00000000000E+00  0.45593999997E+02  0.45594000000E+02  0.51100000000E-03 0.  1.
         11   -1    0    0    0    0 -0.00000000000E+00 -0.00000000000E+00 -0.45593999997E+02  0.45594000000E+02  0.51100000000E-03 0. -1.
    9900012    2    1    2    0    0 -0.27644569106E+00  0.79717539594E-01  0.11447247403E+01  0.90007672996E+02  0.89999933479E+02 0.  0.
         12    1    1    2    0    0  0.27644569106E+00 -0.79717539594E-01 -0.11447247403E+01  0.11803270044E+01  0.00000000000E+00 0. -1.
         11    1    3    3    0    0 -0.33837635457E+02  0.51501233411E+01  0.10526331231E+02  0.35809398113E+02  0.51100000000E-03 0. -1.
        -11    1    3    3    0    0 -0.75861134106E+01 -0.67954738758E+01  0.39304637618E+01  0.10916781921E+02  0.51100000000E-03 0.  1.
        -12    1    3    3    0    0  0.41147303177E+02  0.17250680743E+01 -0.13312070253E+02  0.43281492962E+02  0.00000000000E+00 0.  1.
</event>
<event>
 7    1  0.1698110E-015  0.9000780E+02  0.7816164E-02  0.1186339E+00
        -11   -1    0    0    0    0  0.00000000000E+00  0.00000000000E+00  0.45593999997E+02  0.45594000000E+02  0.51100000000E-03 0. -1.
         11   -1    0    0    0    0 -0.00000000000E+00 -0.00000000000E+00 -0.45593999997E+02  0.45594000000E+02  0.51100000000E-03 0.  1.
    9900012    2    1    2    0    0 -0.11647853732E+01  0.94167449909E-02 -0.18992037408E+00  0.90007795192E+02  0.90000057288E+02 0.  0.
         12    1    1    2    0    0  0.11647853732E+01 -0.94167449909E-02  0.18992037408E+00  0.11802048081E+01  0.00000000000E+00 0. -1.
         11    1    3    3    0    0 -0.10253248364E+02  0.80475176343E+01  0.33274012864E+02  0.35735858384E+02  0.51100000000E-03 0. -1.
        -11    1    3    3    0    0 -0.41036660531E+01  0.32436624715E+01  0.78650504280E+01  0.94456571926E+01  0.51100000000E-03 0.  1.
        -12    1    3    3    0    0  0.13192129044E+02 -0.11281763361E+02 -0.41328983666E+02  0.44826279615E+02  0.00000000000E+00 0.  1.
</event>
<event>
 7    1  0.1698110E-015  0.9000772E+02  0.7816164E-02  0.1186339E+00
        -11   -1    0    0    0    0  0.00000000000E+00  0.00000000000E+00  0.45593999997E+02  0.45594000000E+02  0.51100000000E-03 0.  1.
         11   -1    0    0    0    0 -0.00000000000E+00 -0.00000000000E+00 -0.45593999997E+02  0.45594000000E+02  0.51100000000E-03 0. -1.
    9900012    2    1    2    0    0 -0.98855291532E+00  0.58068376540E+00 -0.28042775555E+00  0.90007716039E+02  0.89999977091E+02 0.  0.
         12    1    1    2    0    0  0.98855291532E+00 -0.58068376540E+00  0.28042775555E+00  0.11802839607E+01  0.00000000000E+00 0. -1.
         11    1    3    3    0    0 -0.24794398514E+01 -0.36366882374E+02 -0.47928252690E+01  0.36765050386E+02  0.51100000000E-03 0. -1.
        -11    1    3    3    0    0  0.96478697621E+01 -0.45733337088E+01 -0.10065118085E+00  0.10677401514E+02  0.51100000000E-03 0.  1.
        -12    1    3    3    0    0 -0.81569828260E+01  0.41520899848E+02  0.46130486943E+01  0.42565264140E+02  0.00000000000E+00 0.  1.
</event>
<event>
 7    1  0.1698110E-015  0.9000770E+02  0.7816164E-02  0.1186339E+00
        -11   -1    0    0    0    0  0.00000000000E+00  0.00000000000E+00  0.45593999997E+02  0.45594000000E+02  0.51100000000E-03 0.  1.
         11   -1    0    0    0    0 -0.00000000000E+00 -0.00000000000E+00 -0.45593999997E+02  0.45594000000E+02  0.51100000000E-03 0. -1.
    9900012    2    1    2    0    0  0.10528768944E+01  0.18789979852E+00 -0.49924306718E+00  0.90007703542E+02  0.89999964429E+02 0.  0.
         12    1    1    2    0    0 -0.10528768944E+01 -0.18789979852E+00  0.49924306718E+00  0.11802964581E+01  0.00000000000E+00 0. -1.
         11    1    3    3    0    0  0.86903328279E+01 -0.18892669228E+02 -0.32220711046E+02  0.38348781673E+02  0.51100000000E-03 0. -1.
        -11    1    3    3    0    0 -0.49195642914E+01  0.51378696273E+01 -0.72635392710E+01  0.10166553995E+02  0.51100000000E-03 0.  1.
        -12    1    3    3    0    0 -0.27178916421E+01  0.13942699399E+02  0.38985007250E+02  0.41492367874E+02  0.00000000000E+00 0.  1.
</event>
<event>
 7    1  0.1698110E-015  0.9000783E+02  0.7816164E-02  0.1186339E+00
        -11   -1    0    0    0    0  0.00000000000E+00  0.00000000000E+00  0.45593999997E+02  0.45594000000E+02  0.51100000000E-03 0. -1.
         11   -1    0    0    0    0 -0.00000000000E+00 -0.00000000000E+00 -0.45593999997E+02  0.45594000000E+02  0.51100000000E-03 0.  1.
    9900012    2    1    2    0    0  0.10074400868E+01  0.41438245936E+00 -0.45405342166E+00  0.90007825072E+02  0.90000087563E+02 0.  0.
         12    1    1    2    0    0 -0.10074400868E+01 -0.41438245936E+00  0.45405342166E+00  0.11801749281E+01  0.00000000000E+00 0. -1.
         11    1    3    3    0    0  0.57256580525E-01 -0.74305993780E+01  0.63448065685E+01  0.97710621779E+01  0.51100000000E-03 0. -1.
        -11    1    3    3    0    0 -0.19215237851E+02 -0.28549026258E+02  0.92609704789E+01  0.35637590273E+02  0.51100000000E-03 0.  1.
         12    1    3    3    0    0  0.20165421358E+02  0.36394008096E+02 -0.16059830469E+02  0.44599172621E+02  0.00000000000E+00 0. -1.
</event>
<event>
 7    1  0.1698110E-015  0.9000723E+02  0.7816164E-02  0.1186340E+00
        -11   -1    0    0    0    0  0.00000000000E+00  0.00000000000E+00  0.45593999997E+02  0.45594000000E+02  0.51100000000E-03 0. -1.
         11   -1    0    0    0    0 -0.00000000000E+00 -0.00000000000E+00 -0.45593999997E+02  0.45594000000E+02  0.51100000000E-03 0.  1.
    9900012    2    1    2    0    0 -0.42198873323E+00 -0.26521347817E+00 -0.10704210645E+01  0.90007231633E+02  0.89999486290E+02 0.  0.
         12    1    1    2    0    0  0.42198873323E+00  0.26521347817E+00  0.10704210645E+01  0.11807683665E+01  0.00000000000E+00 0. -1.
         11    1    3    3    0    0  0.15175703780E+02  0.14566420927E+02 -0.52921867361E+01  0.21690777869E+02  0.51100000000E-03 0. -1.
        -11    1    3    3    0    0 -0.18776142919E+02  0.22388661638E+02 -0.54620746252E+01  0.29725914155E+02  0.51100000000E-03 0.  1.
         12    1    3    3    0    0  0.31784504055E+01 -0.37220296043E+02  0.96838402967E+01  0.38590539610E+02  0.00000000000E+00 0. -1.
</event>
<event>
 7    1  0.1698110E-015  0.9000741E+02  0.7816164E-02  0.1186340E+00
        -11   -1    0    0    0    0  0.00000000000E+00  0.00000000000E+00  0.45593999997E+02  0.45594000000E+02  0.51100000000E-03 0.  1.
         11   -1    0    0    0    0 -0.00000000000E+00 -0.00000000000E+00 -0.45593999997E+02  0.45594000000E+02  0.51100000000E-03 0. -1.
    9900012    2    1    2    0    0  0.11264363745E+01  0.15054745433E+00 -0.31978734217E+00  0.90007412271E+02  0.89999669312E+02 0.  0.
         12    1    1    2    0    0 -0.11264363745E+01 -0.15054745433E+00  0.31978734217E+00  0.11805877290E+01  0.00000000000E+00 0. -1.
         11    1    3    3    0    0 -0.37136979979E+02  0.17641120185E+02  0.76985678754E+01  0.41828606849E+02  0.51100000000E-03 0. -1.
        -11    1    3    3    0    0  0.43263370407E+01  0.43346868145E+01  0.22818172603E+01  0.65355483504E+01  0.51100000000E-03 0.  1.
        -12    1    3    3    0    0  0.33937079312E+02 -0.21825259545E+02 -0.10300172478E+02  0.41643257072E+02  0.00000000000E+00 0.  1.
</event>
<event>
 7    1  0.1698110E-015  0.9000755E+02  0.7816164E-02  0.1186339E+00
        -11   -1    0    0    0    0  0.00000000000E+00  0.00000000000E+00  0.45593999997E+02  0.45594000000E+02  0.51100000000E-03 0.  1.
         11   -1    0    0    0    0 -0.00000000000E+00 -0.00000000000E+00 -0.45593999997E+02  0.45594000000E+02  0.51100000000E-03 0. -1.
    9900012    2    1    2    0    0  0.11981902073E+00  0.71174346179E+00  0.93409604041E+00  0.90007546373E+02  0.89999805185E+02 0.  0.
         12    1    1    2    0    0 -0.11981902073E+00 -0.71174346179E+00 -0.93409604041E+00  0.11804536271E+01  0.00000000000E+00 0. -1.
         11    1    3    3    0    0  0.32585762757E+02 -0.17456074765E+02 -0.80884502102E+01  0.37841372963E+02  0.51100000000E-03 0. -1.
        -11    1    3    3    0    0  0.30750462406E+01  0.69121253692E-01 -0.81735370110E+01  0.87331205569E+01  0.51100000000E-03 0.  1.
        -12    1    3    3    0    0 -0.35540989976E+02  0.18098696973E+02  0.17196083262E+02  0.43433052853E+02  0.00000000000E+00 0.  1.
</event>
<event>
 7    1  0.1698110E-015  0.9000777E+02  0.7816164E-02  0.1186339E+00
        -11   -1    0    0    0    0  0.00000000000E+00  0.00000000000E+00  0.45593999997E+02  0.45594000000E+02  0.51100000000E-03 0. -1.
         11   -1    0    0    0    0 -0.00000000000E+00 -0.00000000000E+00 -0.45593999997E+02  0.45594000000E+02  0.51100000000E-03 0.  1.
    9900012    2    1    2    0    0 -0.97152994524E+00  0.24979335421E+00 -0.62184104145E+00  0.90007765517E+02  0.90000027222E+02 0.  0.
         12    1    1    2    0    0  0.97152994524E+00 -0.24979335421E+00  0.62184104145E+00  0.11802344831E+01  0.00000000000E+00 0. -1.
         11    1    3    3    0    0  0.13222085643E+02 -0.39660951099E+01  0.30325647020E+02  0.33319638753E+02  0.51100000000E-03 0. -1.
        -11    1    3    3    0    0 -0.16618624693E+01  0.35764480724E+01  0.11640307532E+02  0.12290220803E+02  0.51100000000E-03 0.  1.
        -12    1    3    3    0    0 -0.12531753119E+02  0.63944039172E+00 -0.42587795593E+02  0.44397905961E+02  0.00000000000E+00 0.  1.
</event>
<event>
 7    1  0.1698110E-015  0.9000765E+02  0.7816164E-02  0.1186339E+00
        -11   -1    0    0    0    0  0.00000000000E+00  0.00000000000E+00  0.45593999997E+02  0.45594000000E+02  0.51100000000E-03 0. -1.
         11   -1    0    0    0    0 -0.00000000000E+00 -0.00000000000E+00 -0.45593999997E+02  0.45594000000E+02  0.51100000000E-03 0.  1.
    9900012    2    1    2    0    0 -0.58183742739E+00 -0.18992522583E+00 -0.10092662287E+01  0.90007650601E+02  0.89999910789E+02 0.  0.
         12    1    1    2    0    0  0.58183742739E+00  0.18992522583E+00  0.10092662287E+01  0.11803493990E+01  0.00000000000E+00 0. -1.
         11    1    3    3    0    0 -0.10508085844E+02  0.96276232164E+00  0.15611575246E+01  0.10666957976E+02  0.51100000000E-03 0. -1.
        -11    1    3    3    0    0  0.16120315800E+02 -0.26298153320E+02  0.26315362552E+02  0.40545724264E+02  0.51100000000E-03 0.  1.
         12    1    3    3    0    0 -0.61940673843E+01  0.25145465773E+02 -0.28885786305E+02  0.38794968361E+02  0.00000000000E+00 0. -1.
</event>
<event>
 7    1  0.1698110E-015  0.9000783E+02  0.7816164E-02  0.1186339E+00
        -11   -1    0    0    0    0  0.00000000000E+00  0.00000000000E+00  0.45593999997E+02  0.45594000000E+02  0.51100000000E-03 0. -1.
         11   -1    0    0    0    0 -0.00000000000E+00 -0.00000000000E+00 -0.45593999997E+02  0.45594000000E+02  0.51100000000E-03 0.  1.
    9900012    2    1    2    0    0  0.11063542069E+01 -0.16969068067E+00  0.37414755719E+00  0.90007830117E+02  0.90000092674E+02 0.  0.
         12    1    1    2    0    0 -0.11063542069E+01  0.16969068067E+00 -0.37414755719E+00  0.11801698830E+01  0.00000000000E+00 0. -1.
         11    1    3    3    0    0 -0.26215178912E+01 -0.50295199834E+01 -0.10431273594E+01  0.57668485559E+01  0.51100000000E-03 0. -1.
        -11    1    3    3    0    0 -0.65704910455E+01 -0.37144846534E+02  0.12241905724E+02  0.39658230326E+02  0.51100000000E-03 0.  1.
         12    1    3    3    0    0  0.10298363144E+02  0.42004675837E+02 -0.10824630807E+02  0.44582751235E+02  0.00000000000E+00 0. -1.
</event>
<event>
 7    1  0.1698110E-015  0.9000778E+02  0.7816164E-02  0.1186339E+00
        -11   -1    0    0    0    0  0.00000000000E+00  0.00000000000E+00  0.45593999997E+02  0.45594000000E+02  0.51100000000E-03 0.  1.
         11   -1    0    0    0    0 -0.00000000000E+00 -0.00000000000E+00 -0.45593999997E+02  0.45594000000E+02  0.51100000000E-03 0. -1.
    9900012    2    1    2    0    0 -0.27401935636E+00  0.10623283473E+01  0.43506824780E+00  0.90007782857E+02  0.90000044790E+02 0.  0.
         12    1    1    2    0    0  0.27401935636E+00 -0.10623283473E+01 -0.43506824780E+00  0.11802171433E+01  0.00000000000E+00 0. -1.
         11    1    3    3    0    0  0.26167276519E+01 -0.50613305239E+01  0.55225203800E+01  0.79348952032E+01  0.51100000000E-03 0. -1.
        -11    1    3    3    0    0 -0.17783502016E+02 -0.17203574575E+02  0.29028532725E+02  0.38142779586E+02  0.51100000000E-03 0.  1.
         12    1    3    3    0    0  0.14892755008E+02  0.23327233447E+02 -0.34115984857E+02  0.43930108067E+02  0.00000000000E+00 0. -1.
</event>
<event>
 7    1  0.1698110E-015  0.9000778E+02  0.7816164E-02  0.1186339E+00
        -11   -1    0    0    0    0  0.00000000000E+00  0.00000000000E+00  0.45593999997E+02  0.45594000000E+02  0.51100000000E-03 0.  1.
         11   -1    0    0    0    0 -0.00000000000E+00 -0.00000000000E+00 -0.45593999997E+02  0.45594000000E+02  0.51100000000E-03 0. -1.
    9900012    2    1    2    0    0  0.10712200137E+01  0.67515101726E-01  0.49077207423E+00  0.90007776362E+02  0.90000038210E+02 0.  0.
         12    1    1    2    0    0 -0.10712200137E+01 -0.67515101726E-01 -0.49077207423E+00  0.11802236380E+01  0.00000000000E+00 0. -1.
         11    1    3    3    0    0  0.67853839955E+01 -0.69762007625E+01  0.65767888868E+01  0.11745763720E+02  0.51100000000E-03 0. -1.
        -11    1    3    3    0    0 -0.82352710489E+01 -0.20313153243E+02  0.27309792493E+02  0.35018118884E+02  0.51100000000E-03 0.  1.
         12    1    3    3    0    0  0.25211070672E+01  0.27356869107E+02 -0.33395809306E+02  0.43243893758E+02  0.00000000000E+00 0. -1.
</event>
<event>
 7    1  0.1698110E-015  0.9000782E+02  0.7816164E-02  0.1186339E+00
        -11   -1    0    0    0    0  0.00000000000E+00  0.00000000000E+00  0.45593999997E+02  0.45594000000E+02  0.51100000000E-03 0. -1.
         11   -1    0    0    0    0 -0.00000000000E+00 -0.00000000000E+00 -0.45593999997E+02  0.45594000000E+02  0.51100000000E-03 0.  1.
    9900012    2    1    2    0    0 -0.85777457033E+00 -0.77738270080E+00  0.22962916603E+00  0.90007817543E+02  0.90000079935E+02 0.  0.
         12    1    1    2    0    0  0.85777457033E+00  0.77738270080E+00 -0.22962916603E+00  0.11801824566E+01  0.00000000000E+00 0. -1.
         11    1    3    3    0    0  0.52932811533E+01 -0.20341578209E+01 -0.89030813304E+01  0.10555637396E+02  0.51100000000E-03 0. -1.
        -11    1    3    3    0    0 -0.15226358045E+02 -0.36661970157E+02  0.15260528484E+01  0.39727457415E+02  0.51100000000E-03 0.  1.
         12    1    3    3    0    0  0.90753023210E+01  0.37918745277E+02  0.76066576480E+01  0.39724722732E+02  0.00000000000E+00 0. -1.
</event>
<event>
 7    1  0.1698110E-015  0.9000775E+02  0.7816164E-02  0.1186339E+00
        -11   -1    0    0    0    0  0.00000000000E+00  0.00000000000E+00  0.45593999997E+02  0.45594000000E+02  0.51100000000E-03 0.  1.
         11   -1    0    0    0    0 -0.00000000000E+00 -0.00000000000E+00 -0.45593999997E+02  0.45594000000E+02  0.51100000000E-03 0. -1.
    9900012    2    1    2    0    0  0.10416001611E+01  0.43053752681E-01  0.55335722486E+00  0.90007750560E+02  0.90000012068E+02 0.  0.
         12    1    1    2    0    0 -0.10416001611E+01 -0.43053752681E-01 -0.55335722486E+00  0.11802494395E+01  0.00000000000E+00 0. -1.
         11    1    3    3    0    0  0.16505849747E+02  0.33658608995E+01 -0.36010528525E+02  0.39755883343E+02  0.51100000000E-03 0. -1.
        -11    1    3    3    0    0 -0.85153734317E+01 -0.10071031027E+01 -0.36914759762E+01  0.93355683536E+01  0.51100000000E-03 0.  1.
        -12    1    3    3    0    0 -0.69488761541E+01 -0.23157040442E+01  0.40255361726E+02  0.40916298864E+02  0.00000000000E+00 0.  1.
</event>
<event>
 7    1  0.1698110E-015  0.9000772E+02  0.7816164E-02  0.1186339E+00
        -11   -1    0    0    0    0  0.00000000000E+00  0.00000000000E+00  0.45593999997E+02  0.45594000000E+02  0.51100000000E-03 0. -1.
         11   -1    0    0    0    0 -0.00000000000E+00 -0.00000000000E+00 -0.45593999997E+02  0.45594000000E+02  0.51100000000E-03 0.  1.
    9900012    2    1    2    0    0  0.95743603020E+00 -0.65158319246E+00  0.22762406908E+00  0.90007721590E+02  0.89999982715E+02 0.  0.
         12    1    1    2    0    0 -0.95743603020E+00  0.65158319246E+00 -0.22762406908E+00  0.11802784101E+01  0.00000000000E+00 0. -1.
         11    1    3    3    0    0  0.26562536206E+02  0.15170963847E+02  0.19909085009E+02  0.36497919666E+02  0.51100000000E-03 0. -1.
        -11    1    3    3    0    0  0.75740097299E+01 -0.46136363222E+01  0.54454805337E+01  0.10406945854E+02  0.51100000000E-03 0.  1.
        -12    1    3    3    0    0 -0.33179109906E+02 -0.11208910718E+02 -0.25126941473E+02  0.43102856070E+02  0.00000000000E+00 0.  1.
</event>
<event>
 7    1  0.1698110E-015  0.9000771E+02  0.7816164E-02  0.1186339E+00
        -11   -1    0    0    0    0  0.00000000000E+00  0.00000000000E+00  0.45593999997E+02  0.45594000000E+02  0.51100000000E-03 0.  1.
         11   -1    0    0    0    0 -0.00000000000E+00 -0.00000000000E+00 -0.45593999997E+02  0.45594000000E+02  0.51100000000E-03 0. -1.
    9900012    2    1    2    0    0  0.31338861348E+00  0.11722409356E+00  0.11318679942E+01  0.90007712295E+02  0.89999973297E+02 0.  0.
         12    1    1    2    0    0 -0.31338861348E+00 -0.11722409356E+00 -0.11318679942E+01  0.11802877054E+01  0.00000000000E+00 0. -1.
         11    1    3    3    0    0 -0.82663318785E+01 -0.11445269526E+01  0.14897364185E+01  0.84771162272E+01  0.51100000000E-03 0. -1.
        -11    1    3    3    0    0 -0.13533003895E+02  0.30954089897E+02 -0.20367075052E+02  0.39447631389E+02  0.51100000000E-03 0.  1.
         12    1    3    3    0    0  0.22112724387E+02 -0.29692338851E+02  0.20009206627E+02  0.42082964678E+02  0.00000000000E+00 0. -1.
</event>
<event>
 7    1  0.1698110E-015  0.9000772E+02  0.7816164E-02  0.1186339E+00
        -11   -1    0    0    0    0  0.00000000000E+00  0.00000000000E+00  0.45593999997E+02  0.45594000000E+02  0.51100000000E-03 0.  1.
         11   -1    0    0    0    0 -0.00000000000E+00 -0.00000000000E+00 -0.45593999997E+02  0.45594000000E+02  0.51100000000E-03 0. -1.
    9900012    2    1    2    0    0 -0.95096253169E+00 -0.68407669023E+00 -0.14414288447E+00  0.90007717057E+02  0.89999978122E+02 0.  0.
         12    1    1    2    0    0  0.95096253169E+00  0.68407669023E+00  0.14414288447E+00  0.11802829432E+01  0.00000000000E+00 0. -1.
         11    1    3    3    0    0 -0.31722987232E+00  0.83873776391E+01  0.32325650503E+01  0.89943435290E+01  0.51100000000E-03 0. -1.
        -11    1    3    3    0    0  0.16405275451E+02  0.21042877813E+02  0.24772284676E+02  0.36408815658E+02  0.51100000000E-03 0.  1.
         12    1    3    3    0    0 -0.17039008111E+02 -0.30114332142E+02 -0.28148992611E+02  0.44604557870E+02  0.00000000000E+00 0. -1.
</event>
<event>
 7    1  0.1698110E-015  0.9000774E+02  0.7816164E-02  0.1186339E+00
        -11   -1    0    0    0    0  0.00000000000E+00  0.00000000000E+00  0.45593999997E+02  0.45594000000E+02  0.51100000000E-03 0. -1.
         11   -1    0    0    0    0 -0.00000000000E+00 -0.00000000000E+00 -0.45593999997E+02  0.45594000000E+02  0.51100000000E-03 0.  1.
    9900012    2    1    2    0    0  0.93180447519E+00  0.66885926595E+00 -0.27819128058E+00  0.90007736179E+02  0.89999997497E+02 0.  0.
         12    1    1    2    0    0 -0.93180447519E+00 -0.66885926595E+00  0.27819128058E+00  0.11802638206E+01  0.00000000000E+00 0. -1.
         11    1    3    3    0    0  0.21203992003E+02 -0.23863221111E+02  0.17556876249E+02  0.36432217919E+02  0.51100000000E-03 0. -1.
        -11    1    3    3    0    0  0.40422585000E+01 -0.48724113859E+01  0.58887802685E+01  0.86462697047E+01  0.51100000000E-03 0.  1.
        -12    1    3    3    0    0 -0.24314446028E+02  0.29404491762E+02 -0.23723847798E+02  0.44929248556E+02  0.00000000000E+00 0.  1.
</event>
<event>
 7    1  0.1698110E-015  0.9000676E+02  0.7816164E-02  0.1186341E+00
        -11   -1    0    0    0    0  0.00000000000E+00  0.00000000000E+00  0.45593999997E+02  0.45594000000E+02  0.51100000000E-03 0. -1.
         11   -1    0    0    0    0 -0.00000000000E+00 -0.00000000000E+00 -0.45593999997E+02  0.45594000000E+02  0.51100000000E-03 0.  1.
    9900012    2    1    2    0    0  0.10181699914E+01 -0.59869086890E+00 -0.15311605998E-01  0.90006756870E+02  0.89999005255E+02 0.  0.
         12    1    1    2    0    0 -0.10181699914E+01  0.59869086890E+00  0.15311605998E-01  0.11812431304E+01  0.00000000000E+00 0. -1.
         11    1    3    3    0    0  0.17232612519E+02 -0.64286104259E+01  0.30182803671E+02  0.35345319406E+02  0.51100000000E-03 0. -1.
        -11    1    3    3    0    0 -0.99706703867E-01 -0.19563407171E+01  0.10247453389E+02  0.10433001085E+02  0.51100000000E-03 0.  1.
        -12    1    3    3    0    0 -0.16114735823E+02  0.77862602741E+01 -0.40445568666E+02  0.44228436378E+02  0.00000000000E+00 0.  1.
</event>
<event>
 7    1  0.1698110E-015  0.9000765E+02  0.7816164E-02  0.1186339E+00
        -11   -1    0    0    0    0  0.00000000000E+00  0.00000000000E+00  0.45593999997E+02  0.45594000000E+02  0.51100000000E-03 0. -1.
         11   -1    0    0    0    0 -0.00000000000E+00 -0.00000000000E+00 -0.45593999997E+02  0.45594000000E+02  0.51100000000E-03 0.  1.
    9900012    2    1    2    0    0 -0.49847325769E+00 -0.49540733146E+00 -0.94832307810E+00  0.90007652308E+02  0.89999912519E+02 0.  0.
         12    1    1    2    0    0  0.49847325769E+00  0.49540733146E+00  0.94832307810E+00  0.11803476916E+01  0.00000000000E+00 0. -1.
         11    1    3    3    0    0  0.55869831285E+00  0.46126421668E+01 -0.36048351834E+01  0.58807693820E+01  0.51100000000E-03 0. -1.
        -11    1    3    3    0    0  0.27582795006E+02 -0.22609676043E+02 -0.22510787529E+02  0.42175153664E+02  0.51100000000E-03 0.  1.
         12    1    3    3    0    0 -0.28639966577E+02  0.17501626545E+02  0.25167299634E+02  0.41951729263E+02  0.00000000000E+00 0. -1.
</event>
<event>
 7    1  0.1698110E-015  0.9000694E+02  0.7816164E-02  0.1186341E+00
        -11   -1    0    0    0    0  0.00000000000E+00  0.00000000000E+00  0.45593999997E+02  0.45594000000E+02  0.51100000000E-03 0.  1.
         11   -1    0    0    0    0 -0.00000000000E+00 -0.00000000000E+00 -0.45593999997E+02  0.45594000000E+02  0.51100000000E-03 0. -1.
    9900012    2    1    2    0    0 -0.20301228254E+00 -0.67597362413E+00  0.94696565622E+00  0.90006941881E+02  0.89999192710E+02 0.  0.
         12    1    1    2    0    0  0.20301228254E+00  0.67597362413E+00 -0.94696565622E+00  0.11810581194E+01  0.00000000000E+00 0. -1.
         11    1    3    3    0    0  0.17319362785E+02  0.31155248354E+02 -0.90823862907E+01  0.36784501740E+02  0.51100000000E-03 0. -1.
        -11    1    3    3    0    0  0.59223258218E+01  0.55641158051E+01  0.18509805979E+01  0.83342340540E+01  0.51100000000E-03 0.  1.
        -12    1    3    3    0    0 -0.23444700889E+02 -0.37395337784E+02  0.81783713490E+01  0.44888206086E+02  0.00000000000E+00 0.  1.
</event>
<event>
 7    1  0.1698110E-015  0.9000776E+02  0.7816164E-02  0.1186339E+00
        -11   -1    0    0    0    0  0.00000000000E+00  0.00000000000E+00  0.45593999997E+02  0.45594000000E+02  0.51100000000E-03 0.  1.
         11   -1    0    0    0    0 -0.00000000000E+00 -0.00000000000E+00 -0.45593999997E+02  0.45594000000E+02  0.51100000000E-03 0. -1.
    9900012    2    1    2    0    0 -0.25334010298E+00 -0.67376195963E-02  0.11527144837E+01  0.90007755413E+02  0.90000016985E+02 0.  0.
         12    1    1    2    0    0  0.25334010298E+00  0.67376195963E-02 -0.11527144837E+01  0.11802445866E+01  0.00000000000E+00 0. -1.
         11    1    3    3    0    0  0.70160078267E+01 -0.29745162996E+02  0.20674528473E+02  0.36897631568E+02  0.51100000000E-03 0. -1.
        -11    1    3    3    0    0  0.15068639897E+01 -0.61748318856E+01  0.55519197224E+01  0.84393720598E+01  0.51100000000E-03 0.  1.
        -12    1    3    3    0    0 -0.87762119193E+01  0.35913257262E+02 -0.25073733712E+02  0.44670751785E+02  0.00000000000E+00 0.  1.
</event>
<event>
 7    1  0.1698110E-015  0.9000769E+02  0.7816164E-02  0.1186339E+00
        -11   -1    0    0    0    0  0.00000000000E+00  0.00000000000E+00  0.45593999997E+02  0.45594000000E+02  0.51100000000E-03 0.  1.
         11   -1    0    0    0    0 -0.00000000000E+00 -0.00000000000E+00 -0.45593999997E+02  0.45594000000E+02  0.51100000000E-03 0. -1.
    9900012    2    1    2    0    0  0.10191612093E+01  0.45442460203E+00 -0.38464289273E+00  0.90007685870E+02  0.89999946524E+02 0.  0.
         12    1    1    2    0    0 -0.10191612093E+01 -0.45442460203E+00  0.38464289273E+00  0.11803141296E+01  0.00000000000E+00 0. -1.
         11    1    3    3    0    0  0.11515454029E+02  0.35755784908E+02  0.39763586919E+01  0.37774240755E+02  0.51100000000E-03 0. -1.
        -11    1    3    3    0    0 -0.10577034350E+02  0.49999110186E+01 -0.22906030480E-01  0.11699285909E+02  0.51100000000E-03 0.  1.
        -12    1    3    3    0    0  0.80741530104E-01 -0.40301271325E+02 -0.43380955542E+01  0.40534159207E+02  0.00000000000E+00 0.  1.
</event>
<event>
 7    1  0.1698110E-015  0.9000772E+02  0.7816164E-02  0.1186339E+00
        -11   -1    0    0    0    0  0.00000000000E+00  0.00000000000E+00  0.45593999997E+02  0.45594000000E+02  0.51100000000E-03 0. -1.
         11   -1    0    0    0    0 -0.00000000000E+00 -0.00000000000E+00 -0.45593999997E+02  0.45594000000E+02  0.51100000000E-03 0.  1.
    9900012    2    1    2    0    0 -0.42144947126E+00  0.83037347525E-01 -0.10993422356E+01  0.90007716895E+02  0.89999977958E+02 0.  0.
         12    1    1    2    0    0  0.42144947126E+00 -0.83037347525E-01  0.10993422356E+01  0.11802831054E+01  0.00000000000E+00 0. -1.
         11    1    3    3    0    0  0.34134377939E+02 -0.18033047453E+02  0.76306609632E+01  0.39351919200E+02  0.51100000000E-03 0. -1.
        -11    1    3    3    0    0 -0.45732965576E+01 -0.67891054519E+01  0.46886360236E+01  0.94334671390E+01  0.51100000000E-03 0.  1.
        -12    1    3    3    0    0 -0.29982530853E+02  0.24905190252E+02 -0.13418639222E+02  0.41222330555E+02  0.00000000000E+00 0.  1.
</event>
<event>
 7    1  0.1698110E-015  0.9000820E+02  0.7816164E-02  0.1186338E+00
        -11   -1    0    0    0    0  0.00000000000E+00  0.00000000000E+00  0.45593999997E+02  0.45594000000E+02  0.51100000000E-03 0.  1.
         11   -1    0    0    0    0 -0.00000000000E+00 -0.00000000000E+00 -0.45593999997E+02  0.45594000000E+02  0.51100000000E-03 0. -1.
    9900012    2    1    2    0    0  0.24165559738E+00 -0.89682705551E+00  0.72747806081E+00  0.90008203185E+02  0.90000470666E+02 0.  0.
         12    1    1    2    0    0 -0.24165559738E+00  0.89682705551E+00 -0.72747806081E+00  0.11797968148E+01  0.00000000000E+00 0. -1.
         11    1    3    3    0    0  0.28425083062E+02  0.11923223088E+01  0.18914360818E+01  0.28512883234E+02  0.51100000000E-03 0. -1.
        -11    1    3    3    0    0 -0.11918035365E+02  0.24261876537E+02 -0.10732802666E+02  0.29083866204E+02  0.51100000000E-03 0.  1.
         12    1    3    3    0    0 -0.16265392100E+02 -0.26351025901E+02  0.95688446451E+01  0.32411453748E+02  0.00000000000E+00 0. -1.
</event>
<event>
 7    1  0.1698110E-015  0.9000774E+02  0.7816164E-02  0.1186339E+00
        -11   -1    0    0    0    0  0.00000000000E+00  0.00000000000E+00  0.45593999997E+02  0.45594000000E+02  0.51100000000E-03 0.  1.
         11   -1    0    0    0    0 -0.00000000000E+00 -0.00000000000E+00 -0.45593999997E+02  0.45594000000E+02  0.51100000000E-03 0. -1.
    9900012    2    1    2    0    0  0.12564305367E+00  0.11353541672E+01 -0.29699447632E+00  0.90007736902E+02  0.89999998229E+02 0.  0.
         12    1    1    2    0    0 -0.12564305367E+00 -0.11353541672E+01  0.29699447632E+00  0.11802630982E+01  0.00000000000E+00 0. -1.
         11    1    3    3    0    0  0.10646508779E+02 -0.30868135561E+02 -0.82301602670E+01  0.33673810009E+02  0.51100000000E-03 0. -1.
        -11    1    3    3    0    0  0.95135835770E+01 -0.65068150301E+00 -0.10187677521E+02  0.13954226328E+02  0.51100000000E-03 0.  1.
        -12    1    3    3    0    0 -0.20034449302E+02  0.32654171232E+02  0.18120843311E+02  0.42379700565E+02  0.00000000000E+00 0.  1.
</event>
<event>
 7    1  0.1698110E-015  0.9000770E+02  0.7816164E-02  0.1186339E+00
        -11   -1    0    0    0    0  0.00000000000E+00  0.00000000000E+00  0.45593999997E+02  0.45594000000E+02  0.51100000000E-03 0.  1.
         11   -1    0    0    0    0 -0.00000000000E+00 -0.00000000000E+00 -0.45593999997E+02  0.45594000000E+02  0.51100000000E-03 0. -1.
    9900012    2    1    2    0    0 -0.93176451482E+00 -0.72219667426E+00 -0.57840956663E-01  0.90007703968E+02  0.89999964860E+02 0.  0.
         12    1    1    2    0    0  0.93176451482E+00  0.72219667426E+00  0.57840956663E-01  0.11802960322E+01  0.00000000000E+00 0. -1.
         11    1    3    3    0    0  0.41574470488E+02  0.11839393390E+01 -0.10720370673E+02  0.42950723584E+02  0.51100000000E-03 0. -1.
        -11    1    3    3    0    0 -0.85028321638E+01  0.37915777866E+01 -0.32747279078E+01  0.98690455491E+01  0.51100000000E-03 0.  1.
        -12    1    3    3    0    0 -0.34003402839E+02 -0.56977137999E+01  0.13937257624E+02  0.37187934835E+02  0.00000000000E+00 0.  1.
</event>
<event>
 7    1  0.1698110E-015  0.9000774E+02  0.7816164E-02  0.1186339E+00
        -11   -1    0    0    0    0  0.00000000000E+00  0.00000000000E+00  0.45593999997E+02  0.45594000000E+02  0.51100000000E-03 0.  1.
         11   -1    0    0    0    0 -0.00000000000E+00 -0.00000000000E+00 -0.45593999997E+02  0.45594000000E+02  0.51100000000E-03 0. -1.
    9900012    2    1    2    0    0  0.48787385005E+00  0.84554335857E+00  0.66335825664E+00  0.90007742129E+02  0.90000003525E+02 0.  0.
         12    1    1    2    0    0 -0.48787385005E+00 -0.84554335857E+00 -0.66335825664E+00  0.11802578707E+01  0.00000000000E+00 0. -1.
         11    1    3    3    0    0 -0.32278760699E+01 -0.72713415170E+01  0.48637676846E+01  0.93245819064E+01  0.51100000000E-03 0. -1.
        -11    1    3    3    0    0 -0.34990656200E+02 -0.28190993887E+01 -0.16267830608E+02  0.38690252721E+02  0.51100000000E-03 0.  1.
         12    1    3    3    0    0  0.38706406120E+02  0.10935984264E+02  0.12067421180E+02  0.41992907502E+02  0.00000000000E+00 0. -1.
</event>
<event>
 7    1  0.1698110E-015  0.9000799E+02  0.7816164E-02  0.1186339E+00
        -11   -1    0    0    0    0  0.00000000000E+00  0.00000000000E+00  0.45593999997E+02  0.45594000000E+02  0.51100000000E-03 0.  1.
         11   -1    0    0    0    0 -0.00000000000E+00 -0.00000000000E+00 -0.45593999997E+02  0.45594000000E+02  0.51100000000E-03 0. -1.
    9900012    2    1    2    0    0  0.19440797908E+00  0.10680729961E+01  0.46243293229E+00  0.90007992117E+02  0.90000256813E+02 0.  0.
         12    1    1    2    0    0 -0.19440797908E+00 -0.10680729961E+01 -0.46243293229E+00  0.11800078831E+01  0.00000000000E+00 0. -1.
         11    1    3    3    0    0 -0.27471106074E+02 -0.17367517071E+02 -0.11340040824E+02  0.34422214401E+02  0.51100000000E-03 0. -1.
        -11    1    3    3    0    0 -0.66518654428E+01 -0.80679220696E+01 -0.63838295320E+00  0.10475982696E+02  0.51100000000E-03 0.  1.
        -12    1    3    3    0    0  0.34317379496E+02  0.26503512137E+02  0.12440856710E+02  0.45109795020E+02  0.00000000000E+00 0.  1.
</event>
<event>
 7    1  0.1698110E-015  0.9000780E+02  0.7816164E-02  0.1186339E+00
        -11   -1    0    0    0    0  0.00000000000E+00  0.00000000000E+00  0.45593999997E+02  0.45594000000E+02  0.51100000000E-03 0.  1.
         11   -1    0    0    0    0 -0.00000000000E+00 -0.00000000000E+00 -0.45593999997E+02  0.45594000000E+02  0.51100000000E-03 0. -1.
    9900012    2    1    2    0    0  0.81379940583E+00 -0.74291696930E+00  0.42271559869E+00  0.90007795114E+02  0.90000057209E+02 0.  0.
         12    1    1    2    0    0 -0.81379940583E+00  0.74291696930E+00 -0.42271559869E+00  0.11802048863E+01  0.00000000000E+00 0. -1.
         11    1    3    3    0    0 -0.66721618958E+01 -0.21027358129E+01  0.12553924956E+02  0.14371509118E+02  0.51100000000E-03 0. -1.
        -11    1    3    3    0    0 -0.34035739434E+01  0.36854863159E+02 -0.16110853221E+01  0.37046738726E+02  0.51100000000E-03 0.  1.
         12    1    3    3    0    0  0.10889535245E+02 -0.35495044315E+02 -0.10520124035E+02  0.38589547270E+02  0.00000000000E+00 0. -1.
</event>
<event>
 7    1  0.1698110E-015  0.9000765E+02  0.7816164E-02  0.1186339E+00
        -11   -1    0    0    0    0  0.00000000000E+00  0.00000000000E+00  0.45593999997E+02  0.45594000000E+02  0.51100000000E-03 0. -1.
         11   -1    0    0    0    0 -0.00000000000E+00 -0.00000000000E+00 -0.45593999997E+02  0.45594000000E+02  0.51100000000E-03 0.  1.
    9900012    2    1    2    0    0 -0.55090802700E+00 -0.78762014461E+00  0.68510576427E+00  0.90007654688E+02  0.89999914930E+02 0.  0.
         12    1    1    2    0    0  0.55090802700E+00  0.78762014461E+00 -0.68510576427E+00  0.11803453116E+01  0.00000000000E+00 0. -1.
         11    1    3    3    0    0 -0.24353162641E+02  0.25710027494E+02 -0.84168118553E+01  0.36399516019E+02  0.51100000000E-03 0. -1.
        -11    1    3    3    0    0 -0.10269011712E+02 -0.10035881663E+02 -0.11488998498E+01  0.14404565020E+02  0.51100000000E-03 0.  1.
        -12    1    3    3    0    0  0.34071266326E+02 -0.16461765976E+02  0.10250817469E+02  0.39203573649E+02  0.00000000000E+00 0.  1.
</event>
<event>
 7    1  0.1698110E-015  0.9000781E+02  0.7816164E-02  0.1186339E+00
        -11   -1    0    0    0    0  0.00000000000E+00  0.00000000000E+00  0.45593999997E+02  0.45594000000E+02  0.51100000000E-03 0.  1.
         11   -1    0    0    0    0 -0.00000000000E+00 -0.00000000000E+00 -0.45593999997E+02  0.45594000000E+02  0.51100000000E-03 0. -1.
    9900012    2    1    2    0    0  0.78011986717E+00 -0.40593531111E+00  0.78707414514E+00  0.90007806713E+02  0.90000068962E+02 0.  0.
         12    1    1    2    0    0 -0.78011986717E+00  0.40593531111E+00 -0.78707414514E+00  0.11801932867E+01  0.00000000000E+00 0. -1.
         11    1    3    3    0    0 -0.14131975669E+02 -0.22479447391E+02 -0.30895712054E+02  0.40737983687E+02  0.51100000000E-03 0. -1.
        -11    1    3    3    0    0 -0.41997111195E+01 -0.31860892786E+01  0.85594735471E+01  0.10052528341E+02  0.51100000000E-03 0.  1.
        -12    1    3    3    0    0  0.19111806656E+02  0.25259601359E+02  0.23123312652E+02  0.39217294685E+02  0.00000000000E+00 0.  1.
</event>
<event>
 7    1  0.1698110E-015  0.9000770E+02  0.7816164E-02  0.1186339E+00
        -11   -1    0    0    0    0  0.00000000000E+00  0.00000000000E+00  0.45593999997E+02  0.45594000000E+02  0.51100000000E-03 0. -1.
         11   -1    0    0    0    0 -0.00000000000E+00 -0.00000000000E+00 -0.45593999997E+02  0.45594000000E+02  0.51100000000E-03 0.  1.
    9900012    2    1    2    0    0 -0.97207717174E+00  0.44845384861E+00 -0.49706252455E+00  0.90007696634E+02  0.89999957430E+02 0.  0.
         12    1    1    2    0    0  0.97207717174E+00 -0.44845384861E+00  0.49706252455E+00  0.11803033659E+01  0.00000000000E+00 0. -1.
         11    1    3    3    0    0  0.46977429445E+01 -0.64771037939E+01 -0.72443175112E+01  0.10793599900E+02  0.51100000000E-03 0. -1.
        -11    1    3    3    0    0 -0.20940828351E+01  0.28359418667E+02 -0.26910455560E+02  0.39151174041E+02  0.51100000000E-03 0.  1.
         12    1    3    3    0    0 -0.35757372811E+01 -0.21433861025E+02  0.33657710546E+02  0.40062922694E+02  0.00000000000E+00 0. -1.
</event>
<event>
 7    1  0.1698110E-015  0.9000762E+02  0.7816164E-02  0.1186339E+00
        -11   -1    0    0    0    0  0.00000000000E+00  0.00000000000E+00  0.45593999997E+02  0.45594000000E+02  0.51100000000E-03 0.  1.
         11   -1    0    0    0    0 -0.00000000000E+00 -0.00000000000E+00 -0.45593999997E+02  0.45594000000E+02  0.51100000000E-03 0. -1.
    9900012    2    1    2    0    0 -0.90857317389E-01  0.10697161122E+01  0.49066000193E+00  0.90007620887E+02  0.89999880683E+02 0.  0.
         12    1    1    2    0    0  0.90857317389E-01 -0.10697161122E+01 -0.49066000193E+00  0.11803791130E+01  0.00000000000E+00 0. -1.
         11    1    3    3    0    0 -0.18344148104E+02  0.15163122590E+02 -0.29561188522E+02  0.37951178156E+02  0.51100000000E-03 0. -1.
        -11    1    3    3    0    0 -0.34854308996E+01  0.41537343381E+01 -0.47082073634E+01  0.71811527170E+01  0.51100000000E-03 0.  1.
        -12    1    3    3    0    0  0.21738721686E+02 -0.18247140816E+02  0.34760055888E+02  0.44875290014E+02  0.00000000000E+00 0.  1.
</event>
<event>
 7    1  0.1698110E-015  0.9000777E+02  0.7816164E-02  0.1186339E+00
        -11   -1    0    0    0    0  0.00000000000E+00  0.00000000000E+00  0.45593999997E+02  0.45594000000E+02  0.51100000000E-03 0.  1.
         11   -1    0    0    0    0 -0.00000000000E+00 -0.00000000000E+00 -0.45593999997E+02  0.45594000000E+02  0.51100000000E-03 0. -1.
    9900012    2    1    2    0    0 -0.72550316063E+00 -0.80108234856E+00 -0.47419263760E+00  0.90007768488E+02  0.90000030232E+02 0.  0.
         12    1    1    2    0    0  0.72550316063E+00  0.80108234856E+00  0.47419263760E+00  0.11802315124E+01  0.00000000000E+00 0. -1.
         11    1    3    3    0    0 -0.29725925866E+02 -0.24793783204E+02 -0.98009770555E+01  0.39930207934E+02  0.51100000000E-03 0. -1.
        -11    1    3    3    0    0 -0.53343133885E+01  0.34675668064E+01 -0.44562167351E+01  0.77676757614E+01  0.51100000000E-03 0.  1.
        -12    1    3    3    0    0  0.34334736094E+02  0.20525134049E+02  0.13783001153E+02  0.42309884792E+02  0.00000000000E+00 0.  1.
</event>
<event>
 7    1  0.1698110E-015  0.9000782E+02  0.7816164E-02  0.1186339E+00
        -11   -1    0    0    0    0  0.00000000000E+00  0.00000000000E+00  0.45593999997E+02  0.45594000000E+02  0.51100000000E-03 0. -1.
         11   -1    0    0    0    0 -0.00000000000E+00 -0.00000000000E+00 -0.45593999997E+02  0.45594000000E+02  0.51100000000E-03 0.  1.
    9900012    2    1    2    0    0  0.97840397043E+00 -0.48709981965E+00  0.44527799279E+00  0.90007824990E+02  0.90000087480E+02 0.  0.
         12    1    1    2    0    0 -0.97840397043E+00  0.48709981965E+00 -0.44527799279E+00  0.11801750101E+01  0.00000000000E+00 0. -1.
         11    1    3    3    0    0 -0.40522466920E+02  0.49171128558E+01 -0.77455562890E+01  0.41548068145E+02  0.51100000000E-03 0. -1.
        -11    1    3    3    0    0  0.43925854868E+01 -0.93336716822E+01  0.30658343122E+00  0.10320185463E+02  0.51100000000E-03 0.  1.
        -12    1    3    3    0    0  0.37108285404E+02  0.39294590067E+01  0.78842508506E+01  0.38139571382E+02  0.00000000000E+00 0.  1.
</event>
<event>
 7    1  0.1698110E-015  0.9000773E+02  0.7816164E-02  0.1186339E+00
        -11   -1    0    0    0    0  0.00000000000E+00  0.00000000000E+00  0.45593999997E+02  0.45594000000E+02  0.51100000000E-03 0. -1.
         11   -1    0    0    0    0 -0.00000000000E+00 -0.00000000000E+00 -0.45593999997E+02  0.45594000000E+02  0.51100000000E-03 0.  1.
    9900012    2    1    2    0    0 -0.67692640620E+00 -0.45844563505E+00 -0.85126137344E+00  0.90007725589E+02  0.89999986767E+02 0.  0.
         12    1    1    2    0    0  0.67692640620E+00  0.45844563505E+00  0.85126137344E+00  0.11802744112E+01  0.00000000000E+00 0. -1.
         11    1    3    3    0    0  0.53263427126E+01 -0.89965045064E+01  0.30236581718E+01  0.10883452073E+02  0.51100000000E-03 0. -1.
        -11    1    3    3    0    0  0.79994773575E+01 -0.10426975719E+02 -0.36545320249E+02  0.38836502070E+02  0.51100000000E-03 0.  1.
         12    1    3    3    0    0 -0.14002746476E+02  0.18965034591E+02  0.32670400704E+02  0.40287771446E+02  0.00000000000E+00 0. -1.
</event>
<event>
 7    1  0.1698110E-015  0.9000781E+02  0.7816164E-02  0.1186339E+00
        -11   -1    0    0    0    0  0.00000000000E+00  0.00000000000E+00  0.45593999997E+02  0.45594000000E+02  0.51100000000E-03 0.  1.
         11   -1    0    0    0    0 -0.00000000000E+00 -0.00000000000E+00 -0.45593999997E+02  0.45594000000E+02  0.51100000000E-03 0. -1.
    9900012    2    1    2    0    0 -0.86261248845E+00 -0.60042806927E-01  0.80320389495E+00  0.90007812752E+02  0.90000075080E+02 0.  0.
         12    1    1    2    0    0  0.86261248845E+00  0.60042806927E-01 -0.80320389495E+00  0.11801872482E+01  0.00000000000E+00 0. -1.
         11    1    3    3    0    0 -0.36159661367E+02  0.43483964864E+01 -0.86134763586E+01  0.37424879925E+02  0.51100000000E-03 0. -1.
        -11    1    3    3    0    0 -0.53896161387E+01 -0.11699900438E+01  0.10382229902E+02  0.11756170160E+02  0.51100000000E-03 0.  1.
        -12    1    3    3    0    0  0.40686665017E+02 -0.32384492495E+01 -0.96554964863E+00  0.40826762667E+02  0.00000000000E+00 0.  1.
</event>
<event>
 7    1  0.1698110E-015  0.9000778E+02  0.7816164E-02  0.1186339E+00
        -11   -1    0    0    0    0  0.00000000000E+00  0.00000000000E+00  0.45593999997E+02  0.45594000000E+02  0.51100000000E-03 0.  1.
         11   -1    0    0    0    0 -0.00000000000E+00 -0.00000000000E+00 -0.45593999997E+02  0.45594000000E+02  0.51100000000E-03 0. -1.
    9900012    2    1    2    0    0  0.54528299657E+00  0.30620441084E+00  0.10009086215E+01  0.90007782750E+02  0.90000044683E+02 0.  0.
         12    1    1    2    0    0 -0.54528299657E+00 -0.30620441084E+00 -0.10009086215E+01  0.11802172496E+01  0.00000000000E+00 0. -1.
         11    1    3    3    0    0  0.78603766479E+01  0.45329581895E+01  0.45104562249E+01  0.10132988040E+02  0.51100000000E-03 0. -1.
        -11    1    3    3    0    0  0.23916328009E+02  0.26446374056E+02  0.22239623284E+01  0.35726005302E+02  0.51100000000E-03 0.  1.
         12    1    3    3    0    0 -0.31231421660E+02 -0.30673127835E+02 -0.57335099318E+01  0.44148789409E+02  0.00000000000E+00 0. -1.
</event>
<event>
 7    1  0.1698110E-015  0.9000777E+02  0.7816164E-02  0.1186339E+00
        -11   -1    0    0    0    0  0.00000000000E+00  0.00000000000E+00  0.45593999997E+02  0.45594000000E+02  0.51100000000E-03 0. -1.
         11   -1    0    0    0    0 -0.00000000000E+00 -0.00000000000E+00 -0.45593999997E+02  0.45594000000E+02  0.51100000000E-03 0.  1.
    9900012    2    1    2    0    0  0.16829824905E+00 -0.83927090070E+00 -0.81255787498E+00  0.90007766868E+02  0.90000028591E+02 0.  0.
         12    1    1    2    0    0 -0.16829824905E+00  0.83927090070E+00  0.81255787498E+00  0.11802331319E+01  0.00000000000E+00 0. -1.
         11    1    3    3    0    0 -0.30407337823E+02 -0.11727085279E+02  0.24358948278E+02  0.40687701878E+02  0.51100000000E-03 0. -1.
        -11    1    3    3    0    0 -0.63495035284E+00  0.87577992483E+01  0.58183501688E+00  0.88000421517E+01  0.51100000000E-03 0.  1.
        -12    1    3    3    0    0  0.31210586425E+02  0.21300151297E+01 -0.25753341170E+02  0.40520022839E+02  0.00000000000E+00 0.  1.
</event>
<event>
 7    1  0.1698110E-015  0.9000772E+02  0.7816164E-02  0.1186339E+00
        -11   -1    0    0    0    0  0.00000000000E+00  0.00000000000E+00  0.45593999997E+02  0.45594000000E+02  0.51100000000E-03 0.  1.
         11   -1    0    0    0    0 -0.00000000000E+00 -0.00000000000E+00 -0.45593999997E+02  0.45594000000E+02  0.51100000000E-03 0. -1.
    9900012    2    1    2    0    0  0.50267114841E+00 -0.53883947932E+00  0.92197953939E+00  0.90007715060E+02  0.89999976099E+02 0.  0.
         12    1    1    2    0    0 -0.50267114841E+00  0.53883947932E+00 -0.92197953939E+00  0.11802849397E+01  0.00000000000E+00 0. -1.
         11    1    3    3    0    0  0.52133690758E+01  0.50393450077E+01 -0.15396551310E+02  0.17018460792E+02  0.51100000000E-03 0. -1.
        -11    1    3    3    0    0 -0.19387794662E+00  0.31903156099E+02  0.10892813142E+00  0.31903931158E+02  0.51100000000E-03 0.  1.
         12    1    3    3    0    0 -0.45168199807E+01 -0.37481340586E+02  0.16209602718E+02  0.41085323111E+02  0.00000000000E+00 0. -1.
</event>
<event>
 7    1  0.1779874E-015  0.9000776E+02  0.7816164E-02  0.1186339E+00
        -11   -1    0    0    0    0  0.00000000000E+00  0.00000000000E+00  0.45593999997E+02  0.45594000000E+02  0.51100000000E-03 0.  1.
         11   -1    0    0    0    0 -0.00000000000E+00 -0.00000000000E+00 -0.45593999997E+02  0.45594000000E+02  0.51100000000E-03 0. -1.
    9900012    2    1    2    0    0  0.35473163676E+00  0.29897610023E+00  0.10852407785E+01  0.90007759012E+02  0.90000020631E+02 0.  0.
         12    1    1    2    0    0 -0.35473163676E+00 -0.29897610023E+00 -0.10852407785E+01  0.11802409881E+01  0.00000000000E+00 0. -1.
         11    1    3    3    0    0  0.77303682383E+01  0.26822238626E+01 -0.40814431304E+01  0.91439103362E+01  0.51100000000E-03 0. -1.
        -11    1    3    3    0    0  0.31605208227E+02  0.10020502359E+02  0.18337829912E+02  0.37888991287E+02  0.51100000000E-03 0.  1.
         12    1    3    3    0    0 -0.38980844828E+02 -0.12403750121E+02 -0.13171146003E+02  0.42974857389E+02  0.00000000000E+00 0. -1.
</event>
<event>
 7    1  0.1698110E-015  0.9000771E+02  0.7816164E-02  0.1186339E+00
        -11   -1    0    0    0    0  0.00000000000E+00  0.00000000000E+00  0.45593999997E+02  0.45594000000E+02  0.51100000000E-03 0.  1.
         11   -1    0    0    0    0 -0.00000000000E+00 -0.00000000000E+00 -0.45593999997E+02  0.45594000000E+02  0.51100000000E-03 0. -1.
    9900012    2    1    2    0    0  0.66906416088E+00 -0.71087118773E+00  0.66340627512E+00  0.90007706569E+02  0.89999967496E+02 0.  0.
         12    1    1    2    0    0 -0.66906416088E+00  0.71087118773E+00 -0.66340627512E+00  0.11802934308E+01  0.00000000000E+00 0. -1.
         11    1    3    3    0    0 -0.17533059593E+02  0.33123564091E+02  0.89962670410E+01  0.38542333838E+02  0.51100000000E-03 0. -1.
        -11    1    3    3    0    0 -0.68566761809E+01 -0.21109080815E+01  0.51701672071E+01  0.88431086383E+01  0.51100000000E-03 0.  1.
        -12    1    3    3    0    0  0.25058799934E+02 -0.31723527197E+02 -0.13503027973E+02  0.42622264093E+02  0.00000000000E+00 0.  1.
</event>
<event>
 7    1  0.1698110E-015  0.9000774E+02  0.7816164E-02  0.1186339E+00
        -11   -1    0    0    0    0  0.00000000000E+00  0.00000000000E+00  0.45593999997E+02  0.45594000000E+02  0.51100000000E-03 0.  1.
         11   -1    0    0    0    0 -0.00000000000E+00 -0.00000000000E+00 -0.45593999997E+02  0.45594000000E+02  0.51100000000E-03 0. -1.
    9900012    2    1    2    0    0 -0.46015559225E+00  0.10868239953E+01  0.88527306931E-02  0.90007742428E+02  0.90000003828E+02 0.  0.
         12    1    1    2    0    0  0.46015559225E+00 -0.10868239953E+01 -0.88527306931E-02  0.11802575722E+01  0.00000000000E+00 0. -1.
         11    1    3    3    0    0  0.22405786765E+01 -0.20850231718E+01 -0.37669101842E+01  0.48535684840E+01  0.51100000000E-03 0. -1.
        -11    1    3    3    0    0  0.18170611116E+02  0.25506513884E+02  0.31112872738E+02  0.44144809538E+02  0.51100000000E-03 0.  1.
         12    1    3    3    0    0 -0.20871345384E+02 -0.22334666717E+02 -0.27337109823E+02  0.41009364406E+02  0.00000000000E+00 0. -1.
</event>
<event>
 7    1  0.1698110E-015  0.9000811E+02  0.7816164E-02  0.1186338E+00
        -11   -1    0    0    0    0  0.00000000000E+00  0.00000000000E+00  0.45593999997E+02  0.45594000000E+02  0.51100000000E-03 0.  1.
         11   -1    0    0    0    0 -0.00000000000E+00 -0.00000000000E+00 -0.45593999997E+02  0.45594000000E+02  0.51100000000E-03 0. -1.
    9900012    2    1    2    0    0  0.27953237300E-01  0.73293134438E-02  0.11795389266E+01  0.90008107131E+02  0.90000373345E+02 0.  0.
         12    1    1    2    0    0 -0.27953237300E-01 -0.73293134438E-02 -0.11795389266E+01  0.11798928688E+01  0.00000000000E+00 0. -1.
         11    1    3    3    0    0 -0.38585407263E+01  0.19481819351E+01 -0.81690879026E+01  0.92421721911E+01  0.51100000000E-03 0. -1.
        -11    1    3    3    0    0  0.11097594522E+02  0.38012026046E+02  0.35929134483E+01  0.39761536132E+02  0.51100000000E-03 0.  1.
         12    1    3    3    0    0 -0.72111005580E+01 -0.39952878668E+02  0.57557133809E+01  0.41004398808E+02  0.00000000000E+00 0. -1.
</event>
<event>
 7    1  0.1698110E-015  0.9000791E+02  0.7816164E-02  0.1186339E+00
        -11   -1    0    0    0    0  0.00000000000E+00  0.00000000000E+00  0.45593999997E+02  0.45594000000E+02  0.51100000000E-03 0.  1.
         11   -1    0    0    0    0 -0.00000000000E+00 -0.00000000000E+00 -0.45593999997E+02  0.45594000000E+02  0.51100000000E-03 0. -1.
    9900012    2    1    2    0    0 -0.73256660640E+00 -0.20636896098E+00  0.90186704828E+00  0.90007912650E+02  0.90000176297E+02 0.  0.
         12    1    1    2    0    0  0.73256660640E+00  0.20636896098E+00 -0.90186704828E+00  0.11800873500E+01  0.00000000000E+00 0. -1.
         11    1    3    3    0    0  0.59635803263E+01 -0.78540973373E+01  0.36960898299E+01  0.10531486865E+02  0.51100000000E-03 0. -1.
        -11    1    3    3    0    0 -0.18907405746E+02  0.17905140021E+02  0.31967475665E+02  0.41231099086E+02  0.51100000000E-03 0.  1.
         12    1    3    3    0    0  0.12211258813E+02 -0.10257411645E+02 -0.34761698446E+02  0.38245326699E+02  0.00000000000E+00 0. -1.
</event>
<event>
 7    1  0.1698110E-015  0.9000785E+02  0.7816164E-02  0.1186339E+00
        -11   -1    0    0    0    0  0.00000000000E+00  0.00000000000E+00  0.45593999997E+02  0.45594000000E+02  0.51100000000E-03 0.  1.
         11   -1    0    0    0    0 -0.00000000000E+00 -0.00000000000E+00 -0.45593999997E+02  0.45594000000E+02  0.51100000000E-03 0. -1.
    9900012    2    1    2    0    0  0.13505426158E+00  0.97593270949E+00  0.64966397046E+00  0.90007852729E+02  0.90000115585E+02 0.  0.
         12    1    1    2    0    0 -0.13505426158E+00 -0.97593270949E+00 -0.64966397046E+00  0.11801472711E+01  0.00000000000E+00 0. -1.
         11    1    3    3    0    0  0.26679460710E+02  0.32391664864E+01 -0.24279412687E+02  0.36218444251E+02  0.51100000000E-03 0. -1.
        -11    1    3    3    0    0  0.90435228041E+01 -0.51453927417E+01  0.29042891390E+00  0.10408876999E+02  0.51100000000E-03 0.  1.
        -12    1    3    3    0    0 -0.35587929252E+02  0.28821589648E+01  0.24638647743E+02  0.43380531479E+02  0.00000000000E+00 0.  1.
</event>
<event>
 7    1  0.1698110E-015  0.9000779E+02  0.7816164E-02  0.1186339E+00
        -11   -1    0    0    0    0  0.00000000000E+00  0.00000000000E+00  0.45593999997E+02  0.45594000000E+02  0.51100000000E-03 0.  1.
         11   -1    0    0    0    0 -0.00000000000E+00 -0.00000000000E+00 -0.45593999997E+02  0.45594000000E+02  0.51100000000E-03 0. -1.
    9900012    2    1    2    0    0 -0.83751466648E-01  0.50842113118E+00 -0.10617910910E+01  0.90007785326E+02  0.90000047293E+02 0.  0.
         12    1    1    2    0    0  0.83751466648E-01 -0.50842113118E+00  0.10617910910E+01  0.11802146735E+01  0.00000000000E+00 0. -1.
         11    1    3    3    0    0  0.18113078194E+01 -0.35643997587E+01  0.70367446399E+01  0.80933032220E+01  0.51100000000E-03 0. -1.
        -11    1    3    3    0    0 -0.25899278731E+02  0.19942232204E+02  0.22675735786E+02  0.39782587369E+02  0.51100000000E-03 0.  1.
         12    1    3    3    0    0  0.24004219445E+02 -0.15869411314E+02 -0.30774271517E+02  0.42131894736E+02  0.00000000000E+00 0. -1.
</event>
<event>
 7    1  0.1698110E-015  0.9000758E+02  0.7816164E-02  0.1186339E+00
        -11   -1    0    0    0    0  0.00000000000E+00  0.00000000000E+00  0.45593999997E+02  0.45594000000E+02  0.51100000000E-03 0. -1.
         11   -1    0    0    0    0 -0.00000000000E+00 -0.00000000000E+00 -0.45593999997E+02  0.45594000000E+02  0.51100000000E-03 0.  1.
    9900012    2    1    2    0    0 -0.80683461211E+00 -0.44690093026E+00 -0.73666856533E+00  0.90007583502E+02  0.89999842804E+02 0.  0.
         12    1    1    2    0    0  0.80683461211E+00  0.44690093026E+00  0.73666856533E+00  0.11804164976E+01  0.00000000000E+00 0. -1.
         11    1    3    3    0    0 -0.34188316200E+02 -0.85331882766E+00 -0.11427939181E+02  0.36057827331E+02  0.51100000000E-03 0. -1.
        -11    1    3    3    0    0 -0.81987516999E+01  0.48474524953E+01 -0.29389696550E+01  0.99676912084E+01  0.51100000000E-03 0.  1.
        -12    1    3    3    0    0  0.41580233288E+02 -0.44410345979E+01  0.13630240271E+02  0.43982064963E+02  0.00000000000E+00 0.  1.
</event>
<event>
 7    1  0.1698110E-015  0.9000731E+02  0.7816164E-02  0.1186340E+00
        -11   -1    0    0    0    0  0.00000000000E+00  0.00000000000E+00  0.45593999997E+02  0.45594000000E+02  0.51100000000E-03 0.  1.
         11   -1    0    0    0    0 -0.00000000000E+00 -0.00000000000E+00 -0.45593999997E+02  0.45594000000E+02  0.51100000000E-03 0. -1.
    9900012    2    1    2    0    0  0.76057901277E+00  0.88652260767E+00 -0.17209617504E+00  0.90007313817E+02  0.89999569559E+02 0.  0.
         12    1    1    2    0    0 -0.76057901277E+00 -0.88652260767E+00  0.17209617504E+00  0.11806861827E+01  0.00000000000E+00 0. -1.
         11    1    3    3    0    0 -0.24943914039E+02 -0.15299914545E+02  0.58439686068E+01  0.29840211159E+02  0.51100000000E-03 0. -1.
        -11    1    3    3    0    0  0.29236153911E+01  0.12253835410E+02  0.21074917810E+02  0.24553129540E+02  0.51100000000E-03 0.  1.
         12    1    3    3    0    0  0.22780877661E+02  0.39326017425E+01 -0.27090982592E+02  0.35613973118E+02  0.00000000000E+00 0. -1.
</event>
<event>
 7    1  0.1698110E-015  0.9000778E+02  0.7816164E-02  0.1186339E+00
        -11   -1    0    0    0    0  0.00000000000E+00  0.00000000000E+00  0.45593999997E+02  0.45594000000E+02  0.51100000000E-03 0. -1.
         11   -1    0    0    0    0 -0.00000000000E+00 -0.00000000000E+00 -0.45593999997E+02  0.45594000000E+02  0.51100000000E-03 0.  1.
    9900012    2    1    2    0    0  0.56284179562E+00  0.32435078423E+00 -0.98535289488E+00  0.90007781950E+02  0.90000043872E+02 0.  0.
         12    1    1    2    0    0 -0.56284179562E+00 -0.32435078423E+00  0.98535289488E+00  0.11802180500E+01  0.00000000000E+00 0. -1.
         11    1    3    3    0    0 -0.14605990409E+02 -0.52751194348E+01  0.34468264527E+02  0.37805067129E+02  0.51100000000E-03 0. -1.
        -11    1    3    3    0    0  0.66656839445E+01  0.17731017711E+02 -0.71326246478E+01  0.20240915645E+02  0.51100000000E-03 0.  1.
        -12    1    3    3    0    0  0.85031482597E+01 -0.12131547492E+02 -0.28320992774E+02  0.31961799176E+02  0.00000000000E+00 0.  1.
</event>
<event>
 7    1  0.1698110E-015  0.9000769E+02  0.7816164E-02  0.1186339E+00
        -11   -1    0    0    0    0  0.00000000000E+00  0.00000000000E+00  0.45593999997E+02  0.45594000000E+02  0.51100000000E-03 0. -1.
         11   -1    0    0    0    0 -0.00000000000E+00 -0.00000000000E+00 -0.45593999997E+02  0.45594000000E+02  0.51100000000E-03 0.  1.
    9900012    2    1    2    0    0  0.11191418078E+01 -0.11141407538E+00 -0.35809873099E+00  0.90007692335E+02  0.89999953074E+02 0.  0.
         12    1    1    2    0    0 -0.11191418078E+01  0.11141407538E+00  0.35809873099E+00  0.11803076647E+01  0.00000000000E+00 0. -1.
         11    1    3    3    0    0  0.13938648854E-01  0.54854179317E+01 -0.68580703400E+01  0.87819777511E+01  0.51100000000E-03 0. -1.
        -11    1    3    3    0    0 -0.27124821572E+02  0.18512092549E+02 -0.17309919236E+02  0.37122591774E+02  0.51100000000E-03 0.  1.
         12    1    3    3    0    0  0.28230024731E+02 -0.24108924556E+02  0.23809890845E+02  0.44103122810E+02  0.00000000000E+00 0. -1.
</event>
<event>
 7    1  0.1698110E-015  0.9000774E+02  0.7816164E-02  0.1186339E+00
        -11   -1    0    0    0    0  0.00000000000E+00  0.00000000000E+00  0.45593999997E+02  0.45594000000E+02  0.51100000000E-03 0. -1.
         11   -1    0    0    0    0 -0.00000000000E+00 -0.00000000000E+00 -0.45593999997E+02  0.45594000000E+02  0.51100000000E-03 0.  1.
    9900012    2    1    2    0    0 -0.10722106482E+01 -0.47680145702E+00 -0.12660824864E+00  0.90007743692E+02  0.90000005109E+02 0.  0.
         12    1    1    2    0    0  0.10722106482E+01  0.47680145702E+00  0.12660824864E+00  0.11802563079E+01  0.00000000000E+00 0. -1.
         11    1    3    3    0    0 -0.89445012916E+01 -0.31421202155E+01 -0.42433753793E+01  0.10386686559E+02  0.51100000000E-03 0. -1.
        -11    1    3    3    0    0  0.37266950999E+01 -0.15818739581E+02 -0.33650395665E+02  0.37369371241E+02  0.51100000000E-03 0.  1.
         12    1    3    3    0    0  0.41455955435E+01  0.18484058339E+02  0.37767162795E+02  0.42251685892E+02  0.00000000000E+00 0. -1.
</event>
<event>
 7    1  0.1698110E-015  0.9000760E+02  0.7816164E-02  0.1186339E+00
        -11   -1    0    0    0    0  0.00000000000E+00  0.00000000000E+00  0.45593999997E+02  0.45594000000E+02  0.51100000000E-03 0. -1.
         11   -1    0    0    0    0 -0.00000000000E+00 -0.00000000000E+00 -0.45593999997E+02  0.45594000000E+02  0.51100000000E-03 0.  1.
    9900012    2    1    2    0    0 -0.83540501665E+00  0.78855217363E+00 -0.27132776101E+00  0.90007603954E+02  0.89999863526E+02 0.  0.
         12    1    1    2    0    0  0.83540501665E+00 -0.78855217363E+00  0.27132776101E+00  0.11803960464E+01  0.00000000000E+00 0. -1.
         11    1    3    3    0    0 -0.26371322050E+01  0.11471233282E+02  0.31504528892E+01  0.12184786126E+02  0.51100000000E-03 0. -1.
        -11    1    3    3    0    0 -0.48060755225E+01  0.29339130994E+02  0.14967750600E+02  0.33285380089E+02  0.51100000000E-03 0.  1.
         12    1    3    3    0    0  0.66078027108E+01 -0.40021812103E+02 -0.18389531250E+02  0.44537437738E+02  0.00000000000E+00 0. -1.
</event>
<event>
 7    1  0.1698110E-015  0.9000768E+02  0.7816164E-02  0.1186339E+00
        -11   -1    0    0    0    0  0.00000000000E+00  0.00000000000E+00  0.45593999997E+02  0.45594000000E+02  0.51100000000E-03 0.  1.
         11   -1    0    0    0    0 -0.00000000000E+00 -0.00000000000E+00 -0.45593999997E+02  0.45594000000E+02  0.51100000000E-03 0. -1.
    9900012    2    1    2    0    0 -0.10541619467E+01 -0.33667286783E+00  0.41054107535E+00  0.90007682244E+02  0.89999942850E+02 0.  0.
         12    1    1    2    0    0  0.10541619467E+01  0.33667286783E+00 -0.41054107535E+00  0.11803177557E+01  0.00000000000E+00 0. -1.
         11    1    3    3    0    0  0.94399732689E+01  0.15861589087E+01  0.49319293509E+01  0.10768143888E+02  0.51100000000E-03 0. -1.
        -11    1    3    3    0    0  0.21407979295E+02 -0.71628791198E+01  0.26239618497E+02  0.34613956634E+02  0.51100000000E-03 0.  1.
         12    1    3    3    0    0 -0.31902114511E+02  0.52400473433E+01 -0.30761006772E+02  0.44625581722E+02  0.00000000000E+00 0. -1.
</event>
<event>
 7    1  0.1698110E-015  0.9000785E+02  0.7816164E-02  0.1186339E+00
        -11   -1    0    0    0    0  0.00000000000E+00  0.00000000000E+00  0.45593999997E+02  0.45594000000E+02  0.51100000000E-03 0.  1.
         11   -1    0    0    0    0 -0.00000000000E+00 -0.00000000000E+00 -0.45593999997E+02  0.45594000000E+02  0.51100000000E-03 0. -1.
    9900012    2    1    2    0    0 -0.64664504461E+00 -0.98711165500E+00  0.14903215147E-01  0.90007846900E+02  0.90000109679E+02 0.  0.
         12    1    1    2    0    0  0.64664504461E+00  0.98711165500E+00 -0.14903215147E-01  0.11801530998E+01  0.00000000000E+00 0. -1.
         11    1    3    3    0    0 -0.82153459848E+01 -0.27786138990E+02 -0.21380759860E+02  0.36009697611E+02  0.51100000000E-03 0. -1.
        -11    1    3    3    0    0 -0.10632677721E+01 -0.81089704343E+01 -0.48237082585E+01  0.94949513681E+01  0.51100000000E-03 0.  1.
        -12    1    3    3    0    0  0.86319687123E+01  0.34907997769E+02  0.26219371333E+02  0.44503197921E+02  0.00000000000E+00 0.  1.
</event>
<event>
 7    1  0.1698110E-015  0.9000769E+02  0.7816164E-02  0.1186339E+00
        -11   -1    0    0    0    0  0.00000000000E+00  0.00000000000E+00  0.45593999997E+02  0.45594000000E+02  0.51100000000E-03 0.  1.
         11   -1    0    0    0    0 -0.00000000000E+00 -0.00000000000E+00 -0.45593999997E+02  0.45594000000E+02  0.51100000000E-03 0. -1.
    9900012    2    1    2    0    0  0.41028764909E+00  0.87057610219E+00  0.68329356789E+00  0.90007691225E+02  0.89999951949E+02 0.  0.
         12    1    1    2    0    0 -0.41028764909E+00 -0.87057610219E+00 -0.68329356789E+00  0.11803087751E+01  0.00000000000E+00 0. -1.
         11    1    3    3    0    0  0.60412658121E+00 -0.40448622315E+02 -0.96164866778E+01  0.41580438098E+02  0.51100000000E-03 0. -1.
        -11    1    3    3    0    0 -0.38139469924E+01  0.33470371415E+01  0.89147778166E+01  0.10257783048E+02  0.51100000000E-03 0.  1.
        -12    1    3    3    0    0  0.36201080603E+01  0.37972161276E+02  0.13850024291E+01  0.38169470078E+02  0.00000000000E+00 0.  1.
</event>
<event>
 7    1  0.1698110E-015  0.9000767E+02  0.7816164E-02  0.1186339E+00
        -11   -1    0    0    0    0  0.00000000000E+00  0.00000000000E+00  0.45593999997E+02  0.45594000000E+02  0.51100000000E-03 0.  1.
         11   -1    0    0    0    0 -0.00000000000E+00 -0.00000000000E+00 -0.45593999997E+02  0.45594000000E+02  0.51100000000E-03 0. -1.
    9900012    2    1    2    0    0  0.74375041365E+00  0.34867930349E+00  0.84761272474E+00  0.90007665613E+02  0.89999925999E+02 0.  0.
         12    1    1    2    0    0 -0.74375041365E+00 -0.34867930349E+00 -0.84761272474E+00  0.11803343872E+01  0.00000000000E+00 0. -1.
         11    1    3    3    0    0  0.96270202954E+00 -0.83999810877E+01  0.18487648688E+01  0.86547333450E+01  0.51100000000E-03 0. -1.
        -11    1    3    3    0    0 -0.22038504436E+02 -0.22864383921E+02  0.20044525453E+02  0.37553411706E+02  0.51100000000E-03 0.  1.
         12    1    3    3    0    0  0.21819552820E+02  0.31613044312E+02 -0.21045677597E+02  0.43799520562E+02  0.00000000000E+00 0. -1.
</event>
<event>
 7    1  0.1698110E-015  0.9000800E+02  0.7816164E-02  0.1186339E+00
        -11   -1    0    0    0    0  0.00000000000E+00  0.00000000000E+00  0.45593999997E+02  0.45594000000E+02  0.51100000000E-03 0.  1.
         11   -1    0    0    0    0 -0.00000000000E+00 -0.00000000000E+00 -0.45593999997E+02  0.45594000000E+02  0.51100000000E-03 0. -1.
    9900012    2    1    2    0    0  0.85767881229E+00  0.70652788750E+00  0.39698891491E+00  0.90008002204E+02  0.90000267032E+02 0.  0.
         12    1    1    2    0    0 -0.85767881229E+00 -0.70652788750E+00 -0.39698891491E+00  0.11799977964E+01  0.00000000000E+00 0. -1.
         11    1    3    3    0    0 -0.39312037716E+02  0.11997097817E+02 -0.15608849044E+01  0.41131533248E+02  0.51100000000E-03 0. -1.
        -11    1    3    3    0    0  0.72752306239E+01  0.74074563158E+01 -0.27676456551E+01  0.10745196715E+02  0.51100000000E-03 0.  1.
        -12    1    3    3    0    0  0.32894485904E+02 -0.18698026245E+02  0.47255194744E+01  0.38131272241E+02  0.00000000000E+00 0.  1.
</event>
<event>
 7    1  0.1698110E-015  0.9000776E+02  0.7816164E-02  0.1186339E+00
        -11   -1    0    0    0    0  0.00000000000E+00  0.00000000000E+00  0.45593999997E+02  0.45594000000E+02  0.51100000000E-03 0. -1.
         11   -1    0    0    0    0 -0.00000000000E+00 -0.00000000000E+00 -0.45593999997E+02  0.45594000000E+02  0.51100000000E-03 0.  1.
    9900012    2    1    2    0    0  0.16396128650E+00  0.11571551539E+01 -0.16458097729E+00  0.90007755004E+02  0.90000016570E+02 0.  0.
         12    1    1    2    0    0 -0.16396128650E+00 -0.11571551539E+01  0.16458097729E+00  0.11802449965E+01  0.00000000000E+00 0. -1.
         11    1    3    3    0    0 -0.37763102452E+02  0.12681298328E+01 -0.50360012571E+00  0.37787745017E+02  0.51100000000E-03 0. -1.
        -11    1    3    3    0    0 -0.17947620058E+01 -0.86653118253E+01  0.66909286762E+01  0.11094022106E+02  0.51100000000E-03 0.  1.
        -12    1    3    3    0    0  0.39721825745E+02  0.85543371464E+01 -0.63519095278E+01  0.41125987880E+02  0.00000000000E+00 0.  1.
</event>
<event>
 7    1  0.1698110E-015  0.9000770E+02  0.7816164E-02  0.1186339E+00
        -11   -1    0    0    0    0  0.00000000000E+00  0.00000000000E+00  0.45593999997E+02  0.45594000000E+02  0.51100000000E-03 0.  1.
         11   -1    0    0    0    0 -0.00000000000E+00 -0.00000000000E+00 -0.45593999997E+02  0.45594000000E+02  0.51100000000E-03 0. -1.
    9900012    2    1    2    0    0 -0.28339186835E+00 -0.11111903091E+01  0.27937399176E+00  0.90007701444E+02  0.89999962303E+02 0.  0.
         12    1    1    2    0    0  0.28339186835E+00  0.11111903091E+01 -0.27937399176E+00  0.11802985560E+01  0.00000000000E+00 0. -1.
         11    1    3    3    0    0 -0.16318214476E+02  0.38149384991E+01  0.20671137346E+01  0.16885225461E+02  0.51100000000E-03 0. -1.
        -11    1    3    3    0    0 -0.15251651791E+02  0.64807201292E+01  0.25267066443E+02  0.30216506460E+02  0.51100000000E-03 0.  1.
         12    1    3    3    0    0  0.31286474398E+02 -0.11406848937E+02 -0.27054806186E+02  0.42905969523E+02  0.00000000000E+00 0. -1.
</event>
<event>
 7    1  0.1698110E-015  0.9000773E+02  0.7816164E-02  0.1186339E+00
        -11   -1    0    0    0    0  0.00000000000E+00  0.00000000000E+00  0.45593999997E+02  0.45594000000E+02  0.51100000000E-03 0.  1.
         11   -1    0    0    0    0 -0.00000000000E+00 -0.00000000000E+00 -0.45593999997E+02  0.45594000000E+02  0.51100000000E-03 0. -1.
    9900012    2    1    2    0    0 -0.44439142682E+00  0.10683432800E+01 -0.23280264691E+00  0.90007729617E+02  0.89999990848E+02 0.  0.
         12    1    1    2    0    0  0.44439142682E+00 -0.10683432800E+01  0.23280264691E+00  0.11802703829E+01  0.00000000000E+00 0. -1.
         11    1    3    3    0    0  0.47232812526E+00 -0.17965092558E+02 -0.30722356847E+02  0.35592567412E+02  0.51100000000E-03 0. -1.
        -11    1    3    3    0    0  0.66198348816E+01 -0.69614211947E+01 -0.41425876270E+01  0.10461578821E+02  0.51100000000E-03 0.  1.
        -12    1    3    3    0    0 -0.75365544337E+01  0.25994857033E+02  0.34632141827E+02  0.43953583385E+02  0.00000000000E+00 0.  1.
</event>
<event>
 7    1  0.1698110E-015  0.9000815E+02  0.7816164E-02  0.1186338E+00
        -11   -1    0    0    0    0  0.00000000000E+00  0.00000000000E+00  0.45593999997E+02  0.45594000000E+02  0.51100000000E-03 0.  1.
         11   -1    0    0    0    0 -0.00000000000E+00 -0.00000000000E+00 -0.45593999997E+02  0.45594000000E+02  0.51100000000E-03 0. -1.
    9900012    2    1    2    0    0 -0.39808242086E-01  0.10340932048E+01  0.56667394515E+00  0.90008147123E+02  0.90000413864E+02 0.  0.
         12    1    1    2    0    0  0.39808242086E-01 -0.10340932048E+01 -0.56667394515E+00  0.11798528775E+01  0.00000000000E+00 0. -1.
         11    1    3    3    0    0  0.15173676554E+02  0.71531986303E+01  0.84703126573E+01  0.18792416226E+02  0.51100000000E-03 0. -1.
        -11    1    3    3    0    0 -0.84076680524E+01 -0.69919900261E+01  0.30397637918E+02  0.32304693124E+02  0.51100000000E-03 0.  1.
         12    1    3    3    0    0 -0.68058167440E+01  0.87288460064E+00 -0.38301276630E+02  0.38911037773E+02  0.00000000000E+00 0. -1.
</event>
<event>
 7    1  0.1698110E-015  0.9000774E+02  0.7816164E-02  0.1186339E+00
        -11   -1    0    0    0    0  0.00000000000E+00  0.00000000000E+00  0.45593999997E+02  0.45594000000E+02  0.51100000000E-03 0. -1.
         11   -1    0    0    0    0 -0.00000000000E+00 -0.00000000000E+00 -0.45593999997E+02  0.45594000000E+02  0.51100000000E-03 0.  1.
    9900012    2    1    2    0    0 -0.10501373124E+01  0.14505807317E+00 -0.51882515931E+00  0.90007741653E+02  0.90000003043E+02 0.  0.
         12    1    1    2    0    0  0.10501373124E+01 -0.14505807317E+00  0.51882515931E+00  0.11802583469E+01  0.00000000000E+00 0. -1.
         11    1    3    3    0    0 -0.37330574938E+02  0.81106892267E+01 -0.95139215290E+01  0.39368385896E+02  0.51100000000E-03 0. -1.
        -11    1    3    3    0    0 -0.64493885251E+01 -0.64417082369E+00  0.11920409988E+01  0.65901843982E+01  0.51100000000E-03 0.  1.
        -12    1    3    3    0    0  0.42729826151E+02 -0.73214603298E+01  0.78030553710E+01  0.44049171359E+02  0.00000000000E+00 0.  1.
</event>
<event>
 7    1  0.1698110E-015  0.9000772E+02  0.7816164E-02  0.1186339E+00
        -11   -1    0    0    0    0  0.00000000000E+00  0.00000000000E+00  0.45593999997E+02  0.45594000000E+02  0.51100000000E-03 0. -1.
         11   -1    0    0    0    0 -0.00000000000E+00 -0.00000000000E+00 -0.45593999997E+02  0.45594000000E+02  0.51100000000E-03 0.  1.
    9900012    2    1    2    0    0  0.11405346047E+01  0.13513742303E+00  0.27200745433E+00  0.90007716406E+02  0.89999977462E+02 0.  0.
         12    1    1    2    0    0 -0.11405346047E+01 -0.13513742303E+00 -0.27200745433E+00  0.11802835943E+01  0.00000000000E+00 0. -1.
         11    1    3    3    0    0  0.25611719066E+02  0.29608466037E+02 -0.33098411395E+01  0.39288375676E+02  0.51100000000E-03 0. -1.
        -11    1    3    3    0    0 -0.59576698195E+01  0.72534232015E+01 -0.42084558968E+00  0.93959081035E+01  0.51100000000E-03 0.  1.
        -12    1    3    3    0    0 -0.18513514642E+02 -0.36726751816E+02  0.40026941835E+01  0.41323432627E+02  0.00000000000E+00 0.  1.
</event>
<event>
 7    1  0.1698110E-015  0.9000778E+02  0.7816164E-02  0.1186339E+00
        -11   -1    0    0    0    0  0.00000000000E+00  0.00000000000E+00  0.45593999997E+02  0.45594000000E+02  0.51100000000E-03 0.  1.
         11   -1    0    0    0    0 -0.00000000000E+00 -0.00000000000E+00 -0.45593999997E+02  0.45594000000E+02  0.51100000000E-03 0. -1.
    9900012    2    1    2    0    0 -0.51958097715E+00  0.10387729581E+01  0.20956448209E+00  0.90007775054E+02  0.90000036885E+02 0.  0.
         12    1    1    2    0    0  0.51958097715E+00 -0.10387729581E+01 -0.20956448209E+00  0.11802249457E+01  0.00000000000E+00 0. -1.
         11    1    3    3    0    0 -0.20968603506E+01 -0.37799458939E+01  0.98836737140E+01  0.10787577144E+02  0.51100000000E-03 0. -1.
        -11    1    3    3    0    0  0.32234033634E+02 -0.54496397110E+01  0.17415150602E+02  0.37040774399E+02  0.51100000000E-03 0.  1.
         12    1    3    3    0    0 -0.30656754261E+02  0.10268358563E+02 -0.27089259834E+02  0.42179423511E+02  0.00000000000E+00 0. -1.
</event>
<event>
 7    1  0.1698110E-015  0.9000783E+02  0.7816164E-02  0.1186339E+00
        -11   -1    0    0    0    0  0.00000000000E+00  0.00000000000E+00  0.45593999997E+02  0.45594000000E+02  0.51100000000E-03 0.  1.
         11   -1    0    0    0    0 -0.00000000000E+00 -0.00000000000E+00 -0.45593999997E+02  0.45594000000E+02  0.51100000000E-03 0. -1.
    9900012    2    1    2    0    0 -0.11230637622E+01  0.30546691999E+00 -0.19550273634E+00  0.90007829007E+02  0.90000091550E+02 0.  0.
         12    1    1    2    0    0  0.11230637622E+01 -0.30546691999E+00  0.19550273634E+00  0.11801709932E+01  0.00000000000E+00 0. -1.
         11    1    3    3    0    0  0.17614804868E+02 -0.15124227212E+02 -0.26887691474E+02  0.35524238941E+02  0.51100000000E-03 0. -1.
        -11    1    3    3    0    0  0.85414619137E+01 -0.17328986606E+01 -0.43459688991E+01  0.97389401540E+01  0.51100000000E-03 0.  1.
        -12    1    3    3    0    0 -0.27279330543E+02  0.17162592792E+02  0.31038157637E+02  0.44744649912E+02  0.00000000000E+00 0.  1.
</event>
<event>
 7    1  0.1698110E-015  0.9000773E+02  0.7816164E-02  0.1186339E+00
        -11   -1    0    0    0    0  0.00000000000E+00  0.00000000000E+00  0.45593999997E+02  0.45594000000E+02  0.51100000000E-03 0.  1.
         11   -1    0    0    0    0 -0.00000000000E+00 -0.00000000000E+00 -0.45593999997E+02  0.45594000000E+02  0.51100000000E-03 0. -1.
    9900012    2    1    2    0    0  0.98551066359E+00  0.62905464343E+00 -0.16152471941E+00  0.90007732553E+02  0.89999993822E+02 0.  0.
         12    1    1    2    0    0 -0.98551066359E+00 -0.62905464343E+00  0.16152471941E+00  0.11802674474E+01  0.00000000000E+00 0. -1.
         11    1    3    3    0    0 -0.81393844984E+01  0.30448219433E+01 -0.36846093956E+00  0.86980621062E+01  0.51100000000E-03 0. -1.
        -11    1    3    3    0    0 -0.37131219567E+01  0.83750779617E+00  0.39583230921E+02  0.39765825333E+02  0.51100000000E-03 0.  1.
         12    1    3    3    0    0  0.12838017119E+02 -0.32532750960E+01 -0.39376294701E+02  0.41543845113E+02  0.00000000000E+00 0. -1.
</event>
<event>
 7    1  0.1698110E-015  0.9000780E+02  0.7816164E-02  0.1186339E+00
        -11   -1    0    0    0    0  0.00000000000E+00  0.00000000000E+00  0.45593999997E+02  0.45594000000E+02  0.51100000000E-03 0.  1.
         11   -1    0    0    0    0 -0.00000000000E+00 -0.00000000000E+00 -0.45593999997E+02  0.45594000000E+02  0.51100000000E-03 0. -1.
    9900012    2    1    2    0    0 -0.71755972702E+00 -0.15792470726E+00 -0.92360749408E+00  0.90007795366E+02  0.90000057465E+02 0.  0.
         12    1    1    2    0    0  0.71755972702E+00  0.15792470726E+00  0.92360749408E+00  0.11802046340E+01  0.00000000000E+00 0. -1.
         11    1    3    3    0    0 -0.27832348494E+02 -0.27186210415E+02 -0.35464249459E+01  0.39067976523E+02  0.51100000000E-03 0. -1.
        -11    1    3    3    0    0 -0.38630437823E+01  0.10480390088E+01 -0.81665712722E+01  0.90947446161E+01  0.51100000000E-03 0.  1.
        -12    1    3    3    0    0  0.30977832549E+02  0.25980246699E+02  0.10789388724E+02  0.41845074227E+02  0.00000000000E+00 0.  1.
</event>
<event>
 7    1  0.1698110E-015  0.9000780E+02  0.7816164E-02  0.1186339E+00
        -11   -1    0    0    0    0  0.00000000000E+00  0.00000000000E+00  0.45593999997E+02  0.45594000000E+02  0.51100000000E-03 0.  1.
         11   -1    0    0    0    0 -0.00000000000E+00 -0.00000000000E+00 -0.45593999997E+02  0.45594000000E+02  0.51100000000E-03 0. -1.
    9900012    2    1    2    0    0 -0.55048979768E+00  0.98045845806E+00  0.35853225462E+00  0.90007795279E+02  0.90000057377E+02 0.  0.
         12    1    1    2    0    0  0.55048979768E+00 -0.98045845806E+00 -0.35853225462E+00  0.11802047208E+01  0.00000000000E+00 0. -1.
         11    1    3    3    0    0 -0.16163880041E+02  0.12797850335E+01  0.92881883423E+01  0.18686340216E+02  0.51100000000E-03 0. -1.
        -11    1    3    3    0    0 -0.24503381531E+02  0.10959297262E+02 -0.12284356663E+02  0.29519947863E+02  0.51100000000E-03 0.  1.
         12    1    3    3    0    0  0.40116771775E+02 -0.11258623837E+02  0.33547005749E+01  0.41801507201E+02  0.00000000000E+00 0. -1.
</event>
<event>
 7    1  0.1698110E-015  0.9000770E+02  0.7816164E-02  0.1186339E+00
        -11   -1    0    0    0    0  0.00000000000E+00  0.00000000000E+00  0.45593999997E+02  0.45594000000E+02  0.51100000000E-03 0.  1.
         11   -1    0    0    0    0 -0.00000000000E+00 -0.00000000000E+00 -0.45593999997E+02  0.45594000000E+02  0.51100000000E-03 0. -1.
    9900012    2    1    2    0    0 -0.73056091902E+00  0.79310315814E+00  0.47998455920E+00  0.90007696203E+02  0.89999956993E+02 0.  0.
         12    1    1    2    0    0  0.73056091902E+00 -0.79310315814E+00 -0.47998455920E+00  0.11803037969E+01  0.00000000000E+00 0. -1.
         11    1    3    3    0    0 -0.16025543232E+02 -0.80505481609E+01 -0.27086824665E+01  0.18137428774E+02  0.51100000000E-03 0. -1.
        -11    1    3    3    0    0 -0.24001647287E+02 -0.98850391251E+01 -0.75511162704E+01  0.27033542649E+02  0.51100000000E-03 0.  1.
         12    1    3    3    0    0  0.39296629600E+02  0.18728690444E+02  0.10739783296E+02  0.44836724779E+02  0.00000000000E+00 0. -1.
</event>
<event>
 7    1  0.1698110E-015  0.9000774E+02  0.7816164E-02  0.1186339E+00
        -11   -1    0    0    0    0  0.00000000000E+00  0.00000000000E+00  0.45593999997E+02  0.45594000000E+02  0.51100000000E-03 0.  1.
         11   -1    0    0    0    0 -0.00000000000E+00 -0.00000000000E+00 -0.45593999997E+02  0.45594000000E+02  0.51100000000E-03 0. -1.
    9900012    2    1    2    0    0 -0.41082888282E+00 -0.13361026712E+00  0.10983587700E+01  0.90007735597E+02  0.89999996906E+02 0.  0.
         12    1    1    2    0    0  0.41082888282E+00  0.13361026712E+00 -0.10983587700E+01  0.11802644035E+01  0.00000000000E+00 0. -1.
         11    1    3    3    0    0 -0.10218634165E+02 -0.31495583608E+02 -0.20385652797E+02  0.38884021284E+02  0.51100000000E-03 0. -1.
        -11    1    3    3    0    0  0.93179814520E+01 -0.62657769265E+00 -0.40612912491E+01  0.10183882600E+02  0.51100000000E-03 0.  1.
        -12    1    3    3    0    0  0.48982383037E+00  0.31988551034E+02  0.25545302816E+02  0.40939831712E+02  0.00000000000E+00 0.  1.
</event>
<event>
 7    1  0.1698110E-015  0.9000763E+02  0.7816164E-02  0.1186339E+00
        -11   -1    0    0    0    0  0.00000000000E+00  0.00000000000E+00  0.45593999997E+02  0.45594000000E+02  0.51100000000E-03 0. -1.
         11   -1    0    0    0    0 -0.00000000000E+00 -0.00000000000E+00 -0.45593999997E+02  0.45594000000E+02  0.51100000000E-03 0.  1.
    9900012    2    1    2    0    0  0.90294094706E+00  0.74626827147E+00  0.14507159772E+00  0.90007633762E+02  0.89999893728E+02 0.  0.
         12    1    1    2    0    0 -0.90294094706E+00 -0.74626827147E+00 -0.14507159772E+00  0.11803662378E+01  0.00000000000E+00 0. -1.
         11    1    3    3    0    0 -0.46937141753E+00 -0.59361712828E+01  0.14027563763E+02  0.15239126760E+02  0.51100000000E-03 0. -1.
        -11    1    3    3    0    0 -0.20709844502E+02  0.24225075324E+02  0.14269995313E+02  0.34919689292E+02  0.51100000000E-03 0.  1.
         12    1    3    3    0    0  0.22082156866E+02 -0.17542635770E+02 -0.28152487478E+02  0.39848817710E+02  0.00000000000E+00 0. -1.
</event>
<event>
 7    1  0.1698110E-015  0.9000773E+02  0.7816164E-02  0.1186339E+00
        -11   -1    0    0    0    0  0.00000000000E+00  0.00000000000E+00  0.45593999997E+02  0.45594000000E+02  0.51100000000E-03 0.  1.
         11   -1    0    0    0    0 -0.00000000000E+00 -0.00000000000E+00 -0.45593999997E+02  0.45594000000E+02  0.51100000000E-03 0. -1.
    9900012    2    1    2    0    0  0.76507076213E+00 -0.84857377332E+00  0.29600282282E+00  0.90007733763E+02  0.89999995048E+02 0.  0.
         12    1    1    2    0    0 -0.76507076213E+00  0.84857377332E+00 -0.29600282282E+00  0.11802662373E+01  0.00000000000E+00 0. -1.
         11    1    3    3    0    0 -0.20340535286E+02 -0.19672246698E+02 -0.25939238921E+02  0.38387221597E+02  0.51100000000E-03 0. -1.
        -11    1    3    3    0    0  0.86901352495E+01 -0.65596101815E+01 -0.26570031939E+01  0.11207435149E+02  0.51100000000E-03 0.  1.
        -12    1    3    3    0    0  0.12415470799E+02  0.25383283106E+02  0.28892244938E+02  0.40413077017E+02  0.00000000000E+00 0.  1.
</event>
<event>
 7    1  0.1698110E-015  0.9000771E+02  0.7816164E-02  0.1186339E+00
        -11   -1    0    0    0    0  0.00000000000E+00  0.00000000000E+00  0.45593999997E+02  0.45594000000E+02  0.51100000000E-03 0.  1.
         11   -1    0    0    0    0 -0.00000000000E+00 -0.00000000000E+00 -0.45593999997E+02  0.45594000000E+02  0.51100000000E-03 0. -1.
    9900012    2    1    2    0    0  0.72746011281E-01  0.37098158197E+00  0.11181091742E+01  0.90007708747E+02  0.89999969703E+02 0.  0.
         12    1    1    2    0    0 -0.72746011281E-01 -0.37098158197E+00 -0.11181091742E+01  0.11802912529E+01  0.00000000000E+00 0. -1.
         11    1    3    3    0    0  0.29730913919E+01  0.27127448167E+02  0.26072350870E+02  0.37742617776E+02  0.51100000000E-03 0. -1.
        -11    1    3    3    0    0  0.45584096425E+01  0.82503060026E+01 -0.16895822232E+01  0.95760814510E+01  0.51100000000E-03 0.  1.
        -12    1    3    3    0    0 -0.74587550232E+01 -0.35006772587E+02 -0.23264659472E+02  0.42689009520E+02  0.00000000000E+00 0.  1.
</event>
<event>
 7    1  0.1698110E-015  0.9000763E+02  0.7816164E-02  0.1186339E+00
        -11   -1    0    0    0    0  0.00000000000E+00  0.00000000000E+00  0.45593999997E+02  0.45594000000E+02  0.51100000000E-03 0.  1.
         11   -1    0    0    0    0 -0.00000000000E+00 -0.00000000000E+00 -0.45593999997E+02  0.45594000000E+02  0.51100000000E-03 0. -1.
    9900012    2    1    2    0    0  0.80288638670E+00 -0.81676083670E+00  0.28557737498E+00  0.90007627495E+02  0.89999887377E+02 0.  0.
         12    1    1    2    0    0 -0.80288638670E+00  0.81676083670E+00 -0.28557737498E+00  0.11803725054E+01  0.00000000000E+00 0. -1.
         11    1    3    3    0    0  0.97206055276E+00 -0.61678359591E+01  0.21388075460E+01  0.66001212199E+01  0.51100000000E-03 0. -1.
        -11    1    3    3    0    0  0.34402416200E+02  0.20330723259E+02  0.14260413126E+02  0.42429045847E+02  0.51100000000E-03 0.  1.
         12    1    3    3    0    0 -0.34571590366E+02 -0.14979648137E+02 -0.16113643297E+02  0.40978460428E+02  0.00000000000E+00 0. -1.
</event>
<event>
 7    1  0.1698110E-015  0.9000776E+02  0.7816164E-02  0.1186339E+00
        -11   -1    0    0    0    0  0.00000000000E+00  0.00000000000E+00  0.45593999997E+02  0.45594000000E+02  0.51100000000E-03 0.  1.
         11   -1    0    0    0    0 -0.00000000000E+00 -0.00000000000E+00 -0.45593999997E+02  0.45594000000E+02  0.51100000000E-03 0. -1.
    9900012    2    1    2    0    0  0.21041975856E+00 -0.11607067094E+01  0.38153130890E-01  0.90007757567E+02  0.90000019167E+02 0.  0.
         12    1    1    2    0    0 -0.21041975856E+00  0.11607067094E+01 -0.38153130890E-01  0.11802424333E+01  0.00000000000E+00 0. -1.
         11    1    3    3    0    0 -0.64586521626E+01  0.38704213575E+01 -0.25407584169E+02  0.26499805335E+02  0.51100000000E-03 0. -1.
        -11    1    3    3    0    0  0.83758623390E+01 -0.30017932010E+02  0.58524104002E+01  0.31709336478E+02  0.51100000000E-03 0.  1.
        -12    1    3    3    0    0 -0.17067904179E+01  0.24986803943E+02  0.19593326900E+02  0.31798615754E+02  0.00000000000E+00 0.  1.
</event>
<event>
 7    1  0.1698110E-015  0.9000768E+02  0.7816164E-02  0.1186339E+00
        -11   -1    0    0    0    0  0.00000000000E+00  0.00000000000E+00  0.45593999997E+02  0.45594000000E+02  0.51100000000E-03 0.  1.
         11   -1    0    0    0    0 -0.00000000000E+00 -0.00000000000E+00 -0.45593999997E+02  0.45594000000E+02  0.51100000000E-03 0. -1.
    9900012    2    1    2    0    0  0.11539110069E+01 -0.22455117838E+00  0.10589216680E+00  0.90007683519E+02  0.89999944142E+02 0.  0.
         12    1    1    2    0    0 -0.11539110069E+01  0.22455117838E+00 -0.10589216680E+00  0.11803164807E+01  0.00000000000E+00 0. -1.
         11    1    3    3    0    0  0.17118104789E+02  0.35340459213E+02  0.11102150041E+02  0.40807294749E+02  0.51100000000E-03 0. -1.
        -11    1    3    3    0    0  0.69695345704E+01 -0.11419928991E+02  0.18534694816E+01  0.13506462885E+02  0.51100000000E-03 0.  1.
        -12    1    3    3    0    0 -0.22933728352E+02 -0.24145081400E+02 -0.12849727355E+02  0.35693925885E+02  0.00000000000E+00 0.  1.
</event>
<event>
 7    1  0.1698110E-015  0.9000771E+02  0.7816164E-02  0.1186339E+00
        -11   -1    0    0    0    0  0.00000000000E+00  0.00000000000E+00  0.45593999997E+02  0.45594000000E+02  0.51100000000E-03 0.  1.
         11   -1    0    0    0    0 -0.00000000000E+00 -0.00000000000E+00 -0.45593999997E+02  0.45594000000E+02  0.51100000000E-03 0. -1.
    9900012    2    1    2    0    0 -0.90853552519E+00  0.74171783672E+00  0.13227761553E+00  0.90007712104E+02  0.89999973104E+02 0.  0.
         12    1    1    2    0    0  0.90853552519E+00 -0.74171783672E+00 -0.13227761553E+00  0.11802878960E+01  0.00000000000E+00 0. -1.
         11    1    3    3    0    0  0.51776861444E+01  0.95385300078E+01 -0.20665698934E+01  0.11048198944E+02  0.51100000000E-03 0. -1.
        -11    1    3    3    0    0  0.32675910748E+02 -0.18623850310E+02  0.82800937843E+01  0.38511334655E+02  0.51100000000E-03 0.  1.
         12    1    3    3    0    0 -0.38762132417E+02  0.98270381394E+01 -0.60812462754E+01  0.40448178505E+02  0.00000000000E+00 0. -1.
</event>
<event>
 7    1  0.1698110E-015  0.9000770E+02  0.7816164E-02  0.1186339E+00
        -11   -1    0    0    0    0  0.00000000000E+00  0.00000000000E+00  0.45593999997E+02  0.45594000000E+02  0.51100000000E-03 0. -1.
         11   -1    0    0    0    0 -0.00000000000E+00 -0.00000000000E+00 -0.45593999997E+02  0.45594000000E+02  0.51100000000E-03 0.  1.
    9900012    2    1    2    0    0 -0.74327746892E+00 -0.45755694219E+00 -0.79453480118E+00  0.90007701181E+02  0.89999962037E+02 0.  0.
         12    1    1    2    0    0  0.74327746892E+00  0.45755694219E+00  0.79453480118E+00  0.11802988187E+01  0.00000000000E+00 0. -1.
         11    1    3    3    0    0 -0.12184925611E+01 -0.79515348014E+01  0.29161115328E+01  0.85565960844E+01  0.51100000000E-03 0. -1.
        -11    1    3    3    0    0 -0.30831705788E+02 -0.35468356768E+01 -0.26807493315E+02  0.41009947856E+02  0.51100000000E-03 0.  1.
         12    1    3    3    0    0  0.31306920880E+02  0.11040813536E+02  0.23096846981E+02  0.40441157241E+02  0.00000000000E+00 0. -1.
</event>
<event>
 7    1  0.1698110E-015  0.9000770E+02  0.7816164E-02  0.1186339E+00
        -11   -1    0    0    0    0  0.00000000000E+00  0.00000000000E+00  0.45593999997E+02  0.45594000000E+02  0.51100000000E-03 0.  1.
         11   -1    0    0    0    0 -0.00000000000E+00 -0.00000000000E+00 -0.45593999997E+02  0.45594000000E+02  0.51100000000E-03 0. -1.
    9900012    2    1    2    0    0 -0.28318141477E+00  0.10728354013E+01  0.40242480222E+00  0.90007697821E+02  0.89999958632E+02 0.  0.
         12    1    1    2    0    0  0.28318141477E+00 -0.10728354013E+01 -0.40242480222E+00  0.11803021788E+01  0.00000000000E+00 0. -1.
         11    1    3    3    0    0 -0.10683530908E+02 -0.19569728251E+02 -0.27444737998E+02  0.35359945426E+02  0.51100000000E-03 0. -1.
        -11    1    3    3    0    0 -0.56238228565E+01 -0.37475512870E+01 -0.66372067319E+01  0.94722773204E+01  0.51100000000E-03 0.  1.
        -12    1    3    3    0    0  0.16024172349E+02  0.24390114939E+02  0.34484369532E+02  0.45175475075E+02  0.00000000000E+00 0.  1.
</event>
<event>
 7    1  0.1698110E-015  0.9000777E+02  0.7816164E-02  0.1186339E+00
        -11   -1    0    0    0    0  0.00000000000E+00  0.00000000000E+00  0.45593999997E+02  0.45594000000E+02  0.51100000000E-03 0.  1.
         11   -1    0    0    0    0 -0.00000000000E+00 -0.00000000000E+00 -0.45593999997E+02  0.45594000000E+02  0.51100000000E-03 0. -1.
    9900012    2    1    2    0    0 -0.90789756161E+00 -0.67880325680E+00  0.32848416647E+00  0.90007765408E+02  0.90000027112E+02 0.  0.
         12    1    1    2    0    0  0.90789756161E+00  0.67880325680E+00 -0.32848416647E+00  0.11802345917E+01  0.00000000000E+00 0. -1.
         11    1    3    3    0    0 -0.27941875121E+02 -0.23086887029E+00 -0.25742705985E+02  0.37993270423E+02  0.51100000000E-03 0. -1.
        -11    1    3    3    0    0 -0.65342430857E+01  0.51599787136E+01 -0.11878310256E+01  0.84102708538E+01  0.51100000000E-03 0.  1.
        -12    1    3    3    0    0  0.33568220645E+02 -0.56079131002E+01  0.27259021177E+02  0.43604224132E+02  0.00000000000E+00 0.  1.
</event>
<event>
 7    1  0.1698110E-015  0.9000795E+02  0.7816164E-02  0.1186339E+00
        -11   -1    0    0    0    0  0.00000000000E+00  0.00000000000E+00  0.45593999997E+02  0.45594000000E+02  0.51100000000E-03 0.  1.
         11   -1    0    0    0    0 -0.00000000000E+00 -0.00000000000E+00 -0.45593999997E+02  0.45594000000E+02  0.51100000000E-03 0. -1.
    9900012    2    1    2    0    0  0.89483372599E+00 -0.63423846916E+00  0.43536003069E+00  0.90007947379E+02  0.90000211484E+02 0.  0.
         12    1    1    2    0    0 -0.89483372599E+00  0.63423846916E+00 -0.43536003069E+00  0.11800526214E+01  0.00000000000E+00 0. -1.
         11    1    3    3    0    0  0.95676633908E+01  0.71724864408E+01  0.19851439091E+01  0.12121284631E+02  0.51100000000E-03 0. -1.
        -11    1    3    3    0    0 -0.10405122973E+02  0.15803721502E+02  0.31790984123E+02  0.36995822321E+02  0.51100000000E-03 0.  1.
         12    1    3    3    0    0  0.17322933083E+01 -0.23610446412E+02 -0.33340768002E+02  0.40890840427E+02  0.00000000000E+00 0. -1.
</event>
<event>
 7    1  0.1698110E-015  0.9000772E+02  0.7816164E-02  0.1186339E+00
        -11   -1    0    0    0    0  0.00000000000E+00  0.00000000000E+00  0.45593999997E+02  0.45594000000E+02  0.51100000000E-03 0.  1.
         11   -1    0    0    0    0 -0.00000000000E+00 -0.00000000000E+00 -0.45593999997E+02  0.45594000000E+02  0.51100000000E-03 0. -1.
    9900012    2    1    2    0    0 -0.88325274033E+00 -0.24917365888E+00  0.74218313390E+00  0.90007720914E+02  0.89999982031E+02 0.  0.
         12    1    1    2    0    0  0.88325274033E+00  0.24917365888E+00 -0.74218313390E+00  0.11802790856E+01  0.00000000000E+00 0. -1.
         11    1    3    3    0    0 -0.31958352948E+02 -0.23551392749E+02 -0.15983738406E+02  0.42795844626E+02  0.51100000000E-03 0. -1.
        -11    1    3    3    0    0  0.61167156906E+01  0.18346799626E+01 -0.47032651147E+01  0.79310128234E+01  0.51100000000E-03 0.  1.
        -12    1    3    3    0    0  0.24958384517E+02  0.21467539127E+02  0.21429186654E+02  0.39280863465E+02  0.00000000000E+00 0.  1.
</event>
<event>
 7    1  0.1698110E-015  0.9000773E+02  0.7816164E-02  0.1186339E+00
        -11   -1    0    0    0    0  0.00000000000E+00  0.00000000000E+00  0.45593999997E+02  0.45594000000E+02  0.51100000000E-03 0. -1.
         11   -1    0    0    0    0 -0.00000000000E+00 -0.00000000000E+00 -0.45593999997E+02  0.45594000000E+02  0.51100000000E-03 0.  1.
    9900012    2    1    2    0    0  0.28602023295E+00 -0.37636134499E+00 -0.10814770492E+01  0.90007725437E+02  0.89999986613E+02 0.  0.
         12    1    1    2    0    0 -0.28602023295E+00  0.37636134499E+00  0.10814770492E+01  0.11802745628E+01  0.00000000000E+00 0. -1.
         11    1    3    3    0    0 -0.30321629999E+02  0.86449108243E+01  0.19939207192E+01  0.31592901878E+02  0.51100000000E-03 0.  1.
        -11    1    3    3    0    0 -0.83710316988E+01  0.90964211709E+01  0.70827081068E+01  0.14247238477E+02  0.51100000000E-03 0. -1.
        -12    1    3    3    0    0  0.38978681931E+02 -0.18117693340E+02 -0.10158105875E+02  0.44167585083E+02  0.00000000000E+00 0.  1.
</event>
<event>
 7    1  0.1698110E-015  0.9000771E+02  0.7816164E-02  0.1186339E+00
        -11   -1    0    0    0    0  0.00000000000E+00  0.00000000000E+00  0.45593999997E+02  0.45594000000E+02  0.51100000000E-03 0.  1.
         11   -1    0    0    0    0 -0.00000000000E+00 -0.00000000000E+00 -0.45593999997E+02  0.45594000000E+02  0.51100000000E-03 0. -1.
    9900012    2    1    2    0    0 -0.96528388520E-01  0.79415194759E+00  0.86781158592E+00  0.90007706818E+02  0.89999967748E+02 0.  0.
         12    1    1    2    0    0  0.96528388520E-01 -0.79415194759E+00 -0.86781158592E+00  0.11802931815E+01  0.00000000000E+00 0. -1.
         11    1    3    3    0    0  0.53549785005E+01  0.36098595022E+02 -0.69740524899E+01  0.37154027584E+02  0.51100000000E-03 0. -1.
        -11    1    3    3    0    0  0.49739909333E+01  0.68215919196E+01 -0.11927742774E+01  0.85262777846E+01  0.51100000000E-03 0.  1.
        -12    1    3    3    0    0 -0.10425497822E+02 -0.42126034994E+02  0.90346383532E+01  0.44327401450E+02  0.00000000000E+00 0.  1.
</event>
<event>
 7    1  0.1698110E-015  0.9000767E+02  0.7816164E-02  0.1186339E+00
        -11   -1    0    0    0    0  0.00000000000E+00  0.00000000000E+00  0.45593999997E+02  0.45594000000E+02  0.51100000000E-03 0.  1.
         11   -1    0    0    0    0 -0.00000000000E+00 -0.00000000000E+00 -0.45593999997E+02  0.45594000000E+02  0.51100000000E-03 0. -1.
    9900012    2    1    2    0    0  0.11085923489E+01  0.39795230844E+00 -0.76379456185E-01  0.90007670869E+02  0.89999931325E+02 0.  0.
         12    1    1    2    0    0 -0.11085923489E+01 -0.39795230844E+00  0.76379456185E-01  0.11803291309E+01  0.00000000000E+00 0. -1.
         11    1    3    3    0    0  0.41626069817E+01 -0.37991506013E+02 -0.12841193452E+02  0.40318458249E+02  0.51100000000E-03 0. -1.
        -11    1    3    3    0    0  0.11135279390E+02  0.62869227242E+01  0.17734112651E+01  0.12909873439E+02  0.51100000000E-03 0.  1.
        -12    1    3    3    0    0 -0.14189294023E+02  0.32102535597E+02  0.10991402731E+02  0.36779339181E+02  0.00000000000E+00 0.  1.
</event>
<event>
 7    1  0.1698110E-015  0.9000790E+02  0.7816164E-02  0.1186339E+00
        -11   -1    0    0    0    0  0.00000000000E+00  0.00000000000E+00  0.45593999997E+02  0.45594000000E+02  0.51100000000E-03 0.  1.
         11   -1    0    0    0    0 -0.00000000000E+00 -0.00000000000E+00 -0.45593999997E+02  0.45594000000E+02  0.51100000000E-03 0. -1.
    9900012    2    1    2    0    0  0.47153462605E+00 -0.31876942953E+00  0.10337721326E+01  0.90007896752E+02  0.90000160189E+02 0.  0.
         12    1    1    2    0    0 -0.47153462605E+00  0.31876942953E+00 -0.10337721326E+01  0.11801032476E+01  0.00000000000E+00 0. -1.
         11    1    3    3    0    0 -0.11502829389E+02 -0.23094912116E+02  0.72268910020E+01  0.26793991928E+02  0.51100000000E-03 0. -1.
        -11    1    3    3    0    0 -0.78108247341E+01 -0.74059032232E+01  0.17139651435E+02  0.20239170861E+02  0.51100000000E-03 0.  1.
         12    1    3    3    0    0  0.19785188750E+02  0.30182045910E+02 -0.23332770305E+02  0.42974733963E+02  0.00000000000E+00 0. -1.
</event>
<event>
 7    1  0.1698110E-015  0.9000766E+02  0.7816164E-02  0.1186339E+00
        -11   -1    0    0    0    0  0.00000000000E+00  0.00000000000E+00  0.45593999997E+02  0.45594000000E+02  0.51100000000E-03 0.  1.
         11   -1    0    0    0    0 -0.00000000000E+00 -0.00000000000E+00 -0.45593999997E+02  0.45594000000E+02  0.51100000000E-03 0. -1.
    9900012    2    1    2    0    0  0.11211456603E+01  0.23976502447E+00  0.28061584334E+00  0.90007661019E+02  0.89999921344E+02 0.  0.
         12    1    1    2    0    0 -0.11211456603E+01 -0.23976502447E+00 -0.28061584334E+00  0.11803389810E+01  0.00000000000E+00 0. -1.
         11    1    3    3    0    0  0.58505599442E+01 -0.18735833614E+02  0.61316593142E+01  0.20563505515E+02  0.51100000000E-03 0. -1.
        -11    1    3    3    0    0 -0.68207795833E+01 -0.14664891481E+02  0.20890057008E+02  0.26419245984E+02  0.51100000000E-03 0.  1.
         12    1    3    3    0    0  0.20913652994E+01  0.33640490120E+02 -0.26741100479E+02  0.43024909520E+02  0.00000000000E+00 0. -1.
</event>
<event>
 7    1  0.1882759E-015  0.9000685E+02  0.7816164E-02  0.1186341E+00
        -11   -1    0    0    0    0  0.00000000000E+00  0.00000000000E+00  0.45593999997E+02  0.45594000000E+02  0.51100000000E-03 0.  1.
         11   -1    0    0    0    0 -0.00000000000E+00 -0.00000000000E+00 -0.45593999997E+02  0.45594000000E+02  0.51100000000E-03 0. -1.
    9900012    2    1    2    0    0 -0.11670816652E+01 -0.58305361240E-02 -0.18166874232E+00  0.90006849231E+02  0.89999098836E+02 0.  0.
         12    1    1    2    0    0  0.11670816652E+01  0.58305361240E-02  0.18166874232E+00  0.11811507695E+01  0.00000000000E+00 0. -1.
         11    1    3    3    0    0  0.43356835658E+01 -0.76296183853E+01  0.27433304998E+01  0.91942966659E+01  0.51100000000E-03 0. -1.
        -11    1    3    3    0    0 -0.17781538796E+02 -0.26730002786E+02 -0.22696931080E+02  0.39317004612E+02  0.51100000000E-03 0.  1.
         12    1    3    3    0    0  0.12278773565E+02  0.34353790636E+02  0.19771931838E+02  0.41495547953E+02  0.00000000000E+00 0. -1.
</event>
<event>
 7    1  0.1698110E-015  0.9000775E+02  0.7816164E-02  0.1186339E+00
        -11   -1    0    0    0    0  0.00000000000E+00  0.00000000000E+00  0.45593999997E+02  0.45594000000E+02  0.51100000000E-03 0. -1.
         11   -1    0    0    0    0 -0.00000000000E+00 -0.00000000000E+00 -0.45593999997E+02  0.45594000000E+02  0.51100000000E-03 0.  1.
    9900012    2    1    2    0    0  0.46769306624E+00  0.86974918969E+00 -0.64636259289E+00  0.90007752120E+02  0.90000013648E+02 0.  0.
         12    1    1    2    0    0 -0.46769306624E+00 -0.86974918969E+00  0.64636259289E+00  0.11802478802E+01  0.00000000000E+00 0. -1.
         11    1    3    3    0    0 -0.19427653400E+02 -0.13249218091E+00  0.33126814232E+02  0.38403607802E+02  0.51100000000E-03 0. -1.
        -11    1    3    3    0    0  0.45382215387E+01 -0.90797066976E+01  0.29257634268E+01  0.10563930156E+02  0.51100000000E-03 0.  1.
        -12    1    3    3    0    0  0.15357124928E+02  0.10081948068E+02 -0.36698940251E+02  0.41040214162E+02  0.00000000000E+00 0.  1.
</event>
<event>
 7    1  0.1698110E-015  0.9000773E+02  0.7816164E-02  0.1186339E+00
        -11   -1    0    0    0    0  0.00000000000E+00  0.00000000000E+00  0.45593999997E+02  0.45594000000E+02  0.51100000000E-03 0.  1.
         11   -1    0    0    0    0 -0.00000000000E+00 -0.00000000000E+00 -0.45593999997E+02  0.45594000000E+02  0.51100000000E-03 0. -1.
    9900012    2    1    2    0    0  0.40630522392E+00  0.11045762570E+01  0.88635477792E-01  0.90007733551E+02  0.89999994834E+02 0.  0.
         12    1    1    2    0    0 -0.40630522392E+00 -0.11045762570E+01 -0.88635477792E-01  0.11802664490E+01  0.00000000000E+00 0. -1.
         11    1    3    3    0    0 -0.13081118031E+01  0.82627256796E+01 -0.55001162483E+01  0.10011746658E+02  0.51100000000E-03 0. -1.
        -11    1    3    3    0    0 -0.24424691737E+02 -0.34259252463E+02  0.46613877778E+01  0.42331908557E+02  0.51100000000E-03 0.  1.
         12    1    3    3    0    0  0.26139108764E+02  0.27101103041E+02  0.92736394834E+00  0.37664078336E+02  0.00000000000E+00 0. -1.
</event>
<event>
 7    1  0.1698110E-015  0.9000776E+02  0.7816164E-02  0.1186339E+00
        -11   -1    0    0    0    0  0.00000000000E+00  0.00000000000E+00  0.45593999997E+02  0.45594000000E+02  0.51100000000E-03 0. -1.
         11   -1    0    0    0    0 -0.00000000000E+00 -0.00000000000E+00 -0.45593999997E+02  0.45594000000E+02  0.51100000000E-03 0.  1.
    9900012    2    1    2    0    0 -0.31993203308E+00  0.96744942086E+00  0.59551795204E+00  0.90007764210E+02  0.90000025898E+02 0.  0.
         12    1    1    2    0    0  0.31993203308E+00 -0.96744942086E+00 -0.59551795204E+00  0.11802357895E+01  0.00000000000E+00 0. -1.
         11    1    3    3    0    0  0.36885174265E+02 -0.47946593744E+01  0.19055874466E+02  0.41792716961E+02  0.51100000000E-03 0. -1.
        -11    1    3    3    0    0 -0.34596563393E+00  0.58753378618E+01 -0.79405721017E+01  0.98839249680E+01  0.51100000000E-03 0.  1.
        -12    1    3    3    0    0 -0.36859140664E+02 -0.11322906655E+00 -0.10519784412E+02  0.38331122282E+02  0.00000000000E+00 0.  1.
</event>
<event>
 7    1  0.1698110E-015  0.9000762E+02  0.7816164E-02  0.1186339E+00
        -11   -1    0    0    0    0  0.00000000000E+00  0.00000000000E+00  0.45593999997E+02  0.45594000000E+02  0.51100000000E-03 0. -1.
         11   -1    0    0    0    0 -0.00000000000E+00 -0.00000000000E+00 -0.45593999997E+02  0.45594000000E+02  0.51100000000E-03 0.  1.
    9900012    2    1    2    0    0  0.27897116570E+00  0.59034907323E+00 -0.98333793085E+00  0.90007622761E+02  0.89999882582E+02 0.  0.
         12    1    1    2    0    0 -0.27897116570E+00 -0.59034907323E+00  0.98333793085E+00  0.11803772388E+01  0.00000000000E+00 0. -1.
         11    1    3    3    0    0  0.64853016236E+01  0.54705020927E+01 -0.12438002704E+01  0.85751133910E+01  0.51100000000E-03 0. -1.
        -11    1    3    3    0    0  0.25816714425E+02  0.17109680688E+02 -0.20738666117E+02  0.37273800309E+02  0.51100000000E-03 0.  1.
         12    1    3    3    0    0 -0.32023044882E+02 -0.21989833707E+02  0.20999128456E+02  0.44158709061E+02  0.00000000000E+00 0. -1.
</event>
<event>
 7    1  0.1698110E-015  0.9000764E+02  0.7816164E-02  0.1186339E+00
        -11   -1    0    0    0    0  0.00000000000E+00  0.00000000000E+00  0.45593999997E+02  0.45594000000E+02  0.51100000000E-03 0.  1.
         11   -1    0    0    0    0 -0.00000000000E+00 -0.00000000000E+00 -0.45593999997E+02  0.45594000000E+02  0.51100000000E-03 0. -1.
    9900012    2    1    2    0    0 -0.10037456064E+01 -0.58027325344E+00 -0.22143783496E+00  0.90007636918E+02  0.89999896925E+02 0.  0.
         12    1    1    2    0    0  0.10037456064E+01  0.58027325344E+00  0.22143783496E+00  0.11803630822E+01  0.00000000000E+00 0. -1.
         11    1    3    3    0    0  0.52141357576E+01  0.23363188914E+01  0.88545553016E+01  0.10537966953E+02  0.51100000000E-03 0. -1.
        -11    1    3    3    0    0 -0.22565632224E+02  0.17424665079E+02  0.24050022105E+02  0.37299199379E+02  0.51100000000E-03 0.  1.
         12    1    3    3    0    0  0.16347750860E+02 -0.20341257224E+02 -0.33126015242E+02  0.42170470586E+02  0.00000000000E+00 0. -1.
</event>
<event>
 7    1  0.1698110E-015  0.9000779E+02  0.7816164E-02  0.1186339E+00
        -11   -1    0    0    0    0  0.00000000000E+00  0.00000000000E+00  0.45593999997E+02  0.45594000000E+02  0.51100000000E-03 0.  1.
         11   -1    0    0    0    0 -0.00000000000E+00 -0.00000000000E+00 -0.45593999997E+02  0.45594000000E+02  0.51100000000E-03 0. -1.
    9900012    2    1    2    0    0  0.91424855546E+00  0.28150623788E+00 -0.69123288640E+00  0.90007788542E+02  0.90000050550E+02 0.  0.
         12    1    1    2    0    0 -0.91424855546E+00 -0.28150623788E+00  0.69123288640E+00  0.11802114583E+01  0.00000000000E+00 0. -1.
         11    1    3    3    0    0  0.79562981484E+01  0.14897965099E+01  0.43195914000E+01  0.91750228332E+01  0.51100000000E-03 0. -1.
        -11    1    3    3    0    0  0.62383819960E+01  0.12905671404E+02  0.34206415938E+02  0.37088443697E+02  0.51100000000E-03 0.  1.
         12    1    3    3    0    0 -0.13280431589E+02 -0.14113961676E+02 -0.39217240225E+02  0.43744322011E+02  0.00000000000E+00 0. -1.
</event>
<event>
 7    1  0.1698110E-015  0.9000772E+02  0.7816164E-02  0.1186339E+00
        -11   -1    0    0    0    0  0.00000000000E+00  0.00000000000E+00  0.45593999997E+02  0.45594000000E+02  0.51100000000E-03 0.  1.
         11   -1    0    0    0    0 -0.00000000000E+00 -0.00000000000E+00 -0.45593999997E+02  0.45594000000E+02  0.51100000000E-03 0. -1.
    9900012    2    1    2    0    0 -0.26124256828E+00  0.11502847685E+01 -0.40581708437E-01  0.90007724777E+02  0.89999985944E+02 0.  0.
         12    1    1    2    0    0  0.26124256828E+00 -0.11502847685E+01  0.40581708437E-01  0.11802752235E+01  0.00000000000E+00 0. -1.
         11    1    3    3    0    0  0.30713186604E+01 -0.61490216370E+01 -0.51675925051E+01  0.85992719440E+01  0.51100000000E-03 0. -1.
        -11    1    3    3    0    0  0.35780629924E+02 -0.86929709436E+00  0.17141380841E+02  0.39684204573E+02  0.51100000000E-03 0.  1.
         12    1    3    3    0    0 -0.39113191153E+02  0.81686034998E+01 -0.12014370044E+02  0.41724248260E+02  0.00000000000E+00 0. -1.
</event>
<event>
 7    1  0.1698110E-015  0.9000779E+02  0.7816164E-02  0.1186339E+00
        -11   -1    0    0    0    0  0.00000000000E+00  0.00000000000E+00  0.45593999997E+02  0.45594000000E+02  0.51100000000E-03 0. -1.
         11   -1    0    0    0    0 -0.00000000000E+00 -0.00000000000E+00 -0.45593999997E+02  0.45594000000E+02  0.51100000000E-03 0.  1.
    9900012    2    1    2    0    0 -0.12707518400E+00 -0.11079522748E+01 -0.38624831858E+00  0.90007790650E+02  0.90000052687E+02 0.  0.
         12    1    1    2    0    0  0.12707518400E+00  0.11079522748E+01  0.38624831858E+00  0.11802093498E+01  0.00000000000E+00 0. -1.
         11    1    3    3    0    0  0.36030980771E+02 -0.19059873683E+02 -0.12755243485E+02  0.42710731635E+02  0.51100000000E-03 0. -1.
        -11    1    3    3    0    0 -0.71064179253E+01 -0.41374963285E+01  0.61655364829E+01  0.10277834985E+02  0.51100000000E-03 0.  1.
        -12    1    3    3    0    0 -0.29051638030E+02  0.22089417737E+02  0.62034586833E+01  0.37019224030E+02  0.00000000000E+00 0.  1.
</event>
<event>
 7    1  0.1698110E-015  0.9000782E+02  0.7816164E-02  0.1186339E+00
        -11   -1    0    0    0    0  0.00000000000E+00  0.00000000000E+00  0.45593999997E+02  0.45594000000E+02  0.51100000000E-03 0. -1.
         11   -1    0    0    0    0 -0.00000000000E+00 -0.00000000000E+00 -0.45593999997E+02  0.45594000000E+02  0.51100000000E-03 0.  1.
    9900012    2    1    2    0    0 -0.17882676089E+00 -0.38897484277E+00 -0.10997875738E+01  0.90007824951E+02  0.90000087440E+02 0.  0.
         12    1    1    2    0    0  0.17882676089E+00  0.38897484277E+00  0.10997875738E+01  0.11801750490E+01  0.00000000000E+00 0. -1.
         11    1    3    3    0    0  0.40434407603E+02  0.12744702687E+02 -0.25737525010E+01  0.42473438371E+02  0.51100000000E-03 0. -1.
        -11    1    3    3    0    0 -0.27410604715E+01 -0.84257770747E+01 -0.23858479700E+01  0.91760232464E+01  0.51100000000E-03 0.  1.
        -12    1    3    3    0    0 -0.37872173893E+02 -0.47079004554E+01  0.38598128971E+01  0.38358363334E+02  0.00000000000E+00 0.  1.
</event>
<event>
 7    1  0.1698110E-015  0.9000775E+02  0.7816164E-02  0.1186339E+00
        -11   -1    0    0    0    0  0.00000000000E+00  0.00000000000E+00  0.45593999997E+02  0.45594000000E+02  0.51100000000E-03 0. -1.
         11   -1    0    0    0    0 -0.00000000000E+00 -0.00000000000E+00 -0.45593999997E+02  0.45594000000E+02  0.51100000000E-03 0.  1.
    9900012    2    1    2    0    0 -0.63568668457E+00 -0.83721028116E+00 -0.53661906237E+00  0.90007754842E+02  0.90000016406E+02 0.  0.
         12    1    1    2    0    0  0.63568668457E+00  0.83721028116E+00  0.53661906237E+00  0.11802451584E+01  0.00000000000E+00 0. -1.
         11    1    3    3    0    0 -0.17033992429E+02  0.26052658980E+01  0.37280154037E+02  0.41070113145E+02  0.51100000000E-03 0. -1.
        -11    1    3    3    0    0  0.40758695401E+01  0.83640684462E+01 -0.23772369532E+01  0.96032082802E+01  0.51100000000E-03 0.  1.
        -12    1    3    3    0    0  0.12322436204E+02 -0.11806544625E+02 -0.35439536146E+02  0.39334433417E+02  0.00000000000E+00 0.  1.
</event>
<event>
 7    1  0.1698110E-015  0.9000773E+02  0.7816164E-02  0.1186339E+00
        -11   -1    0    0    0    0  0.00000000000E+00  0.00000000000E+00  0.45593999997E+02  0.45594000000E+02  0.51100000000E-03 0.  1.
         11   -1    0    0    0    0 -0.00000000000E+00 -0.00000000000E+00 -0.45593999997E+02  0.45594000000E+02  0.51100000000E-03 0. -1.
    9900012    2    1    2    0    0 -0.77806027170E+00  0.84975705382E+00 -0.25609207364E+00  0.90007725461E+02  0.89999986637E+02 0.  0.
         12    1    1    2    0    0  0.77806027170E+00 -0.84975705382E+00  0.25609207364E+00  0.11802745389E+01  0.00000000000E+00 0. -1.
         11    1    3    3    0    0  0.33888280148E+02 -0.17869136816E+02  0.84375044937E+00  0.38320144794E+02  0.51100000000E-03 0. -1.
        -11    1    3    3    0    0  0.41324336966E+01  0.69121422557E+01  0.65944174092E+01  0.10408701170E+02  0.51100000000E-03 0.  1.
        -12    1    3    3    0    0 -0.38798774117E+02  0.11806751614E+02 -0.76942599322E+01  0.41278879497E+02  0.00000000000E+00 0.  1.
</event>
<event>
 7    1  0.1698110E-015  0.9000773E+02  0.7816164E-02  0.1186339E+00
        -11   -1    0    0    0    0  0.00000000000E+00  0.00000000000E+00  0.45593999997E+02  0.45594000000E+02  0.51100000000E-03 0. -1.
         11   -1    0    0    0    0 -0.00000000000E+00 -0.00000000000E+00 -0.45593999997E+02  0.45594000000E+02  0.51100000000E-03 0.  1.
    9900012    2    1    2    0    0 -0.91515920659E+00 -0.14372193500E+00 -0.73134197096E+00  0.90007731621E+02  0.89999992878E+02 0.  0.
         12    1    1    2    0    0  0.91515920659E+00  0.14372193500E+00  0.73134197096E+00  0.11802683790E+01  0.00000000000E+00 0. -1.
         11    1    3    3    0    0 -0.19838169912E+01 -0.31769716746E+01  0.10728144225E+02  0.11363175509E+02  0.51100000000E-03 0. -1.
        -11    1    3    3    0    0  0.31431417572E+02  0.24736826616E+02 -0.10306611040E+02  0.41304610312E+02  0.51100000000E-03 0.  1.
         12    1    3    3    0    0 -0.30362759788E+02 -0.21703576877E+02 -0.11528751567E+01  0.37339945799E+02  0.00000000000E+00 0. -1.
</event>
<event>
 7    1  0.1698110E-015  0.9000773E+02  0.7816164E-02  0.1186339E+00
        -11   -1    0    0    0    0  0.00000000000E+00  0.00000000000E+00  0.45593999997E+02  0.45594000000E+02  0.51100000000E-03 0.  1.
         11   -1    0    0    0    0 -0.00000000000E+00 -0.00000000000E+00 -0.45593999997E+02  0.45594000000E+02  0.51100000000E-03 0. -1.
    9900012    2    1    2    0    0 -0.80650044869E+00 -0.60391245305E+00  0.61473031824E+00  0.90007726053E+02  0.89999987237E+02 0.  0.
         12    1    1    2    0    0  0.80650044869E+00  0.60391245305E+00 -0.61473031824E+00  0.11802739465E+01  0.00000000000E+00 0. -1.
         11    1    3    3    0    0 -0.18896405277E+02  0.33655872210E+02  0.10348402185E+02  0.39960997168E+02  0.51100000000E-03 0. -1.
        -11    1    3    3    0    0  0.62651436528E+01  0.49873411865E+01 -0.27461679206E+01  0.84656385235E+01  0.51100000000E-03 0.  1.
        -12    1    3    3    0    0  0.11824761175E+02 -0.39247125850E+02 -0.69875039465E+01  0.41581090362E+02  0.00000000000E+00 0.  1.
</event>
<event>
 7    1  0.1698110E-015  0.9000737E+02  0.7816164E-02  0.1186340E+00
        -11   -1    0    0    0    0  0.00000000000E+00  0.00000000000E+00  0.45593999997E+02  0.45594000000E+02  0.51100000000E-03 0. -1.
         11   -1    0    0    0    0 -0.00000000000E+00 -0.00000000000E+00 -0.45593999997E+02  0.45594000000E+02  0.51100000000E-03 0.  1.
    9900012    2    1    2    0    0 -0.67643309740E+00  0.95446993564E+00 -0.15912766673E+00  0.90007366184E+02  0.89999622617E+02 0.  0.
         12    1    1    2    0    0  0.67643309740E+00 -0.95446993564E+00  0.15912766673E+00  0.11806338161E+01  0.00000000000E+00 0. -1.
         11    1    3    3    0    0  0.71730884454E+01  0.10784095108E+01  0.51252608234E+01  0.88816926138E+01  0.51100000000E-03 0. -1.
        -11    1    3    3    0    0 -0.40376204889E+02 -0.13856358821E+02 -0.13695612894E+02  0.44830864522E+02  0.51100000000E-03 0.  1.
         12    1    3    3    0    0  0.32526683346E+02  0.13732419246E+02  0.84112244036E+01  0.36294809048E+02  0.00000000000E+00 0. -1.
</event>
<event>
 7    1  0.1948395E-015  0.9000780E+02  0.7816164E-02  0.1186339E+00
        -11   -1    0    0    0    0  0.00000000000E+00  0.00000000000E+00  0.45593999997E+02  0.45594000000E+02  0.51100000000E-03 0.  1.
         11   -1    0    0    0    0 -0.00000000000E+00 -0.00000000000E+00 -0.45593999997E+02  0.45594000000E+02  0.51100000000E-03 0. -1.
    9900012    2    1    2    0    0  0.60483283301E+00  0.66008549582E+00  0.76898280287E+00  0.90007800793E+02  0.90000062963E+02 0.  0.
         12    1    1    2    0    0 -0.60483283301E+00 -0.66008549582E+00 -0.76898280287E+00  0.11801992072E+01  0.00000000000E+00 0. -1.
         11    1    3    3    0    0 -0.41548442894E+01  0.89441561272E+01  0.18853195457E+01  0.10040671788E+02  0.51100000000E-03 0. -1.
        -11    1    3    3    0    0 -0.27863356193E+02 -0.53369211813E+00  0.25020897942E+02  0.37452593764E+02  0.51100000000E-03 0.  1.
         12    1    3    3    0    0  0.32623033315E+02 -0.77503785133E+01 -0.26137234685E+02  0.42514535241E+02  0.00000000000E+00 0. -1.
</event>
<event>
 7    1  0.1698110E-015  0.9000772E+02  0.7816164E-02  0.1186339E+00
        -11   -1    0    0    0    0  0.00000000000E+00  0.00000000000E+00  0.45593999997E+02  0.45594000000E+02  0.51100000000E-03 0. -1.
         11   -1    0    0    0    0 -0.00000000000E+00 -0.00000000000E+00 -0.45593999997E+02  0.45594000000E+02  0.51100000000E-03 0.  1.
    9900012    2    1    2    0    0 -0.38220540837E+00 -0.10902750384E+01 -0.24141419213E+00  0.90007719760E+02  0.89999980860E+02 0.  0.
         12    1    1    2    0    0  0.38220540837E+00  0.10902750384E+01  0.24141419213E+00  0.11802802404E+01  0.00000000000E+00 0. -1.
         11    1    3    3    0    0 -0.46267456514E+01 -0.58507176968E+01 -0.53922332325E+01  0.92040128414E+01  0.51100000000E-03 0. -1.
        -11    1    3    3    0    0  0.34449377977E+02 -0.22705678743E+01 -0.20851937713E+02  0.40332597588E+02  0.51100000000E-03 0.  1.
         12    1    3    3    0    0 -0.30204837734E+02  0.70310105327E+01  0.26002756754E+02  0.40471109331E+02  0.00000000000E+00 0. -1.
</event>
<event>
 7    1  0.1698110E-015  0.9000775E+02  0.7816164E-02  0.1186339E+00
        -11   -1    0    0    0    0  0.00000000000E+00  0.00000000000E+00  0.45593999997E+02  0.45594000000E+02  0.51100000000E-03 0. -1.
         11   -1    0    0    0    0 -0.00000000000E+00 -0.00000000000E+00 -0.45593999997E+02  0.45594000000E+02  0.51100000000E-03 0.  1.
    9900012    2    1    2    0    0  0.63457086702E+00  0.20695478522E+00  0.97338080102E+00  0.90007753987E+02  0.90000015539E+02 0.  0.
         12    1    1    2    0    0 -0.63457086702E+00 -0.20695478522E+00 -0.97338080102E+00  0.11802460134E+01  0.00000000000E+00 0. -1.
         11    1    3    3    0    0  0.13767907360E+02  0.40011447230E+02 -0.91250805747E+01  0.43286698630E+02  0.51100000000E-03 0. -1.
        -11    1    3    3    0    0  0.61457425576E+00 -0.54456906574E+01  0.79443602141E+01  0.96512231206E+01  0.51100000000E-03 0.  1.
        -12    1    3    3    0    0 -0.13747910748E+02 -0.34358801787E+02  0.21541011616E+01  0.37069832236E+02  0.00000000000E+00 0.  1.
</event>
<event>
 7    1  0.1698110E-015  0.9000775E+02  0.7816164E-02  0.1186339E+00
        -11   -1    0    0    0    0  0.00000000000E+00  0.00000000000E+00  0.45593999997E+02  0.45594000000E+02  0.51100000000E-03 0. -1.
         11   -1    0    0    0    0 -0.00000000000E+00 -0.00000000000E+00 -0.45593999997E+02  0.45594000000E+02  0.51100000000E-03 0.  1.
    9900012    2    1    2    0    0 -0.10253938930E+01 -0.18685510853E+00 -0.55375209770E+00  0.90007750512E+02  0.90000012019E+02 0.  0.
         12    1    1    2    0    0  0.10253938930E+01  0.18685510853E+00  0.55375209770E+00  0.11802494877E+01  0.00000000000E+00 0. -1.
         11    1    3    3    0    0  0.31797130617E+02  0.12165558367E+02 -0.18355833561E+02  0.38678093953E+02  0.51100000000E-03 0. -1.
        -11    1    3    3    0    0 -0.13260816405E+01  0.78917363661E+01  0.10468699795E+02  0.13176937089E+02  0.51100000000E-03 0.  1.
        -12    1    3    3    0    0 -0.31496442870E+02 -0.20244149842E+02  0.73333816684E+01  0.38152719470E+02  0.00000000000E+00 0.  1.
</event>
<event>
 7    1  0.1698110E-015  0.9000785E+02  0.7816164E-02  0.1186339E+00
        -11   -1    0    0    0    0  0.00000000000E+00  0.00000000000E+00  0.45593999997E+02  0.45594000000E+02  0.51100000000E-03 0. -1.
         11   -1    0    0    0    0 -0.00000000000E+00 -0.00000000000E+00 -0.45593999997E+02  0.45594000000E+02  0.51100000000E-03 0.  1.
    9900012    2    1    2    0    0  0.42543172110E+00  0.10929914307E+01  0.13091653244E+00  0.90007846809E+02  0.90000109586E+02 0.  0.
         12    1    1    2    0    0 -0.42543172110E+00 -0.10929914307E+01 -0.13091653244E+00  0.11801531915E+01  0.00000000000E+00 0. -1.
         11    1    3    3    0    0  0.98867337967E+01  0.15098305454E+01  0.14144863258E+01  0.10100884381E+02  0.51100000000E-03 0. -1.
        -11    1    3    3    0    0  0.27447967937E+01 -0.37400247691E+02  0.10981572675E+02  0.39075662188E+02  0.51100000000E-03 0.  1.
         12    1    3    3    0    0 -0.12206098869E+02  0.36983408576E+02 -0.12265142468E+02  0.40831300240E+02  0.00000000000E+00 0. -1.
</event>
<event>
 7    1  0.1698110E-015  0.9000776E+02  0.7816164E-02  0.1186339E+00
        -11   -1    0    0    0    0  0.00000000000E+00  0.00000000000E+00  0.45593999997E+02  0.45594000000E+02  0.51100000000E-03 0.  1.
         11   -1    0    0    0    0 -0.00000000000E+00 -0.00000000000E+00 -0.45593999997E+02  0.45594000000E+02  0.51100000000E-03 0. -1.
    9900012    2    1    2    0    0  0.58999224304E+00  0.46755538983E+00 -0.90899893469E+00  0.90007755130E+02  0.90000016698E+02 0.  0.
         12    1    1    2    0    0 -0.58999224304E+00 -0.46755538983E+00  0.90899893469E+00  0.11802448698E+01  0.00000000000E+00 0. -1.
         11    1    3    3    0    0  0.26699547650E+02 -0.21924273020E+02 -0.45005521427E+01  0.34839554561E+02  0.51100000000E-03 0. -1.
        -11    1    3    3    0    0  0.54699567610E+01 -0.87377189473E+01 -0.19132177129E+01  0.10484682239E+02  0.51100000000E-03 0.  1.
        -12    1    3    3    0    0 -0.31579512168E+02  0.31129547358E+02  0.55047709209E+01  0.44683518330E+02  0.00000000000E+00 0.  1.
</event>
<event>
 7    1  0.1698110E-015  0.9000733E+02  0.7816164E-02  0.1186340E+00
        -11   -1    0    0    0    0  0.00000000000E+00  0.00000000000E+00  0.45593999997E+02  0.45594000000E+02  0.51100000000E-03 0.  1.
         11   -1    0    0    0    0 -0.00000000000E+00 -0.00000000000E+00 -0.45593999997E+02  0.45594000000E+02  0.51100000000E-03 0. -1.
    9900012    2    1    2    0    0 -0.11161275037E+01 -0.23142236273E+00  0.30769249913E+00  0.90007334260E+02  0.89999590272E+02 0.  0.
         12    1    1    2    0    0  0.11161275037E+01  0.23142236273E+00 -0.30769249913E+00  0.11806657396E+01  0.00000000000E+00 0. -1.
         11    1    3    3    0    0  0.71122615888E+01 -0.10637854936E+01  0.73237608853E+01  0.10264179375E+02  0.51100000000E-03 0. -1.
        -11    1    3    3    0    0  0.16202888196E+01  0.33366722991E+02 -0.24586359136E+02  0.41478338863E+02  0.51100000000E-03 0.  1.
         12    1    3    3    0    0 -0.98486779121E+01 -0.32534359861E+02  0.17570290750E+02  0.38264816022E+02  0.00000000000E+00 0. -1.
</event>
<event>
 7    1  0.1698110E-015  0.9000790E+02  0.7816164E-02  0.1186339E+00
        -11   -1    0    0    0    0  0.00000000000E+00  0.00000000000E+00  0.45593999997E+02  0.45594000000E+02  0.51100000000E-03 0.  1.
         11   -1    0    0    0    0 -0.00000000000E+00 -0.00000000000E+00 -0.45593999997E+02  0.45594000000E+02  0.51100000000E-03 0. -1.
    9900012    2    1    2    0    0  0.38496910078E+00  0.11136065968E+01 -0.65600093512E-01  0.90007904990E+02  0.90000168535E+02 0.  0.
         12    1    1    2    0    0 -0.38496910078E+00 -0.11136065968E+01  0.65600093512E-01  0.11800950103E+01  0.00000000000E+00 0. -1.
         11    1    3    3    0    0  0.42110297866E+01  0.68933598638E+01  0.19745192883E+01  0.83156424139E+01  0.51100000000E-03 0. -1.
        -11    1    3    3    0    0  0.23474857517E+02  0.17719488168E+02  0.23406837437E+02  0.37588950976E+02  0.51100000000E-03 0.  1.
         12    1    3    3    0    0 -0.27300918203E+02 -0.23499241435E+02 -0.25446956819E+02  0.44103311600E+02  0.00000000000E+00 0. -1.
</event>
<event>
 7    1  0.1698110E-015  0.9000766E+02  0.7816164E-02  0.1186339E+00
        -11   -1    0    0    0    0  0.00000000000E+00  0.00000000000E+00  0.45593999997E+02  0.45594000000E+02  0.51100000000E-03 0.  1.
         11   -1    0    0    0    0 -0.00000000000E+00 -0.00000000000E+00 -0.45593999997E+02  0.45594000000E+02  0.51100000000E-03 0. -1.
    9900012    2    1    2    0    0  0.56353760708E-01  0.10725145359E+01 -0.48963105930E+00  0.90007660324E+02  0.89999920640E+02 0.  0.
         12    1    1    2    0    0 -0.56353760708E-01 -0.10725145359E+01  0.48963105930E+00  0.11803396758E+01  0.00000000000E+00 0. -1.
         11    1    3    3    0    0 -0.39431702921E+01 -0.75664033408E+01  0.39980822751E+01  0.94225110034E+01  0.51100000000E-03 0. -1.
        -11    1    3    3    0    0 -0.10329052320E+02 -0.24884272434E+02  0.22600047534E+02  0.35166439758E+02  0.51100000000E-03 0.  1.
         12    1    3    3    0    0  0.14328576373E+02  0.33523190311E+02 -0.27087760869E+02  0.45418709563E+02  0.00000000000E+00 0. -1.
</event>
<event>
 7    1  0.1698110E-015  0.9000773E+02  0.7816164E-02  0.1186339E+00
        -11   -1    0    0    0    0  0.00000000000E+00  0.00000000000E+00  0.45593999997E+02  0.45594000000E+02  0.51100000000E-03 0. -1.
         11   -1    0    0    0    0 -0.00000000000E+00 -0.00000000000E+00 -0.45593999997E+02  0.45594000000E+02  0.51100000000E-03 0.  1.
    9900012    2    1    2    0    0  0.10025645491E+01 -0.54660081578E+00  0.29853067236E+00  0.90007733636E+02  0.89999994920E+02 0.  0.
         12    1    1    2    0    0 -0.10025645491E+01  0.54660081578E+00 -0.29853067236E+00  0.11802663637E+01  0.00000000000E+00 0. -1.
         11    1    3    3    0    0  0.44161303633E+01 -0.37842834979E+02 -0.16823744888E+01  0.38136763769E+02  0.51100000000E-03 0. -1.
        -11    1    3    3    0    0 -0.77355276729E+01 -0.29118263636E+01 -0.65441998876E+01  0.10542469994E+02  0.51100000000E-03 0.  1.
        -12    1    3    3    0    0  0.43219618586E+01  0.40208060527E+02  0.85251050488E+01  0.41328499873E+02  0.00000000000E+00 0.  1.
</event>
<event>
 7    1  0.1698110E-015  0.9000768E+02  0.7816164E-02  0.1186339E+00
        -11   -1    0    0    0    0  0.00000000000E+00  0.00000000000E+00  0.45593999997E+02  0.45594000000E+02  0.51100000000E-03 0. -1.
         11   -1    0    0    0    0 -0.00000000000E+00 -0.00000000000E+00 -0.45593999997E+02  0.45594000000E+02  0.51100000000E-03 0.  1.
    9900012    2    1    2    0    0  0.44746635045E+00 -0.10764500270E+01 -0.18491975046E+00  0.90007675422E+02  0.89999935937E+02 0.  0.
         12    1    1    2    0    0 -0.44746635045E+00  0.10764500270E+01  0.18491975046E+00  0.11803245781E+01  0.00000000000E+00 0. -1.
         11    1    3    3    0    0  0.24392923707E+02  0.50616288058E+01  0.33308947394E+02  0.41594720698E+02  0.51100000000E-03 0. -1.
        -11    1    3    3    0    0 -0.11739503836E+02  0.10074504223E+00  0.50897588326E+00  0.11750964071E+02  0.51100000000E-03 0.  1.
        -12    1    3    3    0    0 -0.12205953520E+02 -0.62388238751E+01 -0.34002843028E+02  0.36661990653E+02  0.00000000000E+00 0.  1.
</event>
<event>
 7    1  0.1698110E-015  0.9000774E+02  0.7816164E-02  0.1186339E+00
        -11   -1    0    0    0    0  0.00000000000E+00  0.00000000000E+00  0.45593999997E+02  0.45594000000E+02  0.51100000000E-03 0.  1.
         11   -1    0    0    0    0 -0.00000000000E+00 -0.00000000000E+00 -0.45593999997E+02  0.45594000000E+02  0.51100000000E-03 0. -1.
    9900012    2    1    2    0    0 -0.31566972301E+00 -0.36004731516E+00  0.10787611182E+01  0.90007742827E+02  0.90000004233E+02 0.  0.
         12    1    1    2    0    0  0.31566972301E+00  0.36004731516E+00 -0.10787611182E+01  0.11802571726E+01  0.00000000000E+00 0. -1.
         11    1    3    3    0    0  0.11857748347E+02 -0.19164137323E+02 -0.29228751436E+02  0.36907861845E+02  0.51100000000E-03 0. -1.
        -11    1    3    3    0    0  0.75118397146E+00 -0.65133024468E+01 -0.46543192635E+01  0.80405269846E+01  0.51100000000E-03 0.  1.
        -12    1    3    3    0    0 -0.12924602041E+02  0.25317392455E+02  0.34961831818E+02  0.45059353998E+02  0.00000000000E+00 0.  1.
</event>
<event>
 7    1  0.1698110E-015  0.9000773E+02  0.7816164E-02  0.1186339E+00
        -11   -1    0    0    0    0  0.00000000000E+00  0.00000000000E+00  0.45593999997E+02  0.45594000000E+02  0.51100000000E-03 0.  1.
         11   -1    0    0    0    0 -0.00000000000E+00 -0.00000000000E+00 -0.45593999997E+02  0.45594000000E+02  0.51100000000E-03 0. -1.
    9900012    2    1    2    0    0  0.37026009378E+00 -0.10979466437E+01  0.22464920537E+00  0.90007726034E+02  0.89999987218E+02 0.  0.
         12    1    1    2    0    0 -0.37026009378E+00  0.10979466437E+01 -0.22464920537E+00  0.11802739660E+01  0.00000000000E+00 0. -1.
         11    1    3    3    0    0  0.29626620645E+01 -0.97718451666E+01  0.69983253209E-01  0.10211328140E+02  0.51100000000E-03 0. -1.
        -11    1    3    3    0    0 -0.34832645005E+02 -0.29708149192E+01  0.19911289535E+02  0.40231807697E+02  0.51100000000E-03 0.  1.
         12    1    3    3    0    0  0.32240243034E+02  0.11644713442E+02 -0.19756623583E+02  0.39564590197E+02  0.00000000000E+00 0. -1.
</event>
<event>
 7    1  0.1698110E-015  0.9000778E+02  0.7816164E-02  0.1186339E+00
        -11   -1    0    0    0    0  0.00000000000E+00  0.00000000000E+00  0.45593999997E+02  0.45594000000E+02  0.51100000000E-03 0.  1.
         11   -1    0    0    0    0 -0.00000000000E+00 -0.00000000000E+00 -0.45593999997E+02  0.45594000000E+02  0.51100000000E-03 0. -1.
    9900012    2    1    2    0    0 -0.48469051846E-01  0.74187482757E+00  0.91661635231E+00  0.90007782628E+02  0.90000044558E+02 0.  0.
         12    1    1    2    0    0  0.48469051846E-01 -0.74187482757E+00 -0.91661635231E+00  0.11802173724E+01  0.00000000000E+00 0. -1.
         11    1    3    3    0    0 -0.19815457618E+02  0.32160008417E+02 -0.59998349522E+01  0.38248091740E+02  0.51100000000E-03 0. -1.
        -11    1    3    3    0    0 -0.39741357940E+01  0.58592581040E+01  0.45701364020E+00  0.70946122210E+01  0.51100000000E-03 0.  1.
        -12    1    3    3    0    0  0.23741124360E+02 -0.37277391694E+02  0.64594376643E+01  0.44665078667E+02  0.00000000000E+00 0.  1.
</event>
<event>
 7    1  0.1698110E-015  0.9000775E+02  0.7816164E-02  0.1186339E+00
        -11   -1    0    0    0    0  0.00000000000E+00  0.00000000000E+00  0.45593999997E+02  0.45594000000E+02  0.51100000000E-03 0.  1.
         11   -1    0    0    0    0 -0.00000000000E+00 -0.00000000000E+00 -0.45593999997E+02  0.45594000000E+02  0.51100000000E-03 0. -1.
    9900012    2    1    2    0    0  0.25677658047E+00  0.10252305431E+01  0.52530718640E+00  0.90007754467E+02  0.90000016026E+02 0.  0.
         12    1    1    2    0    0 -0.25677658047E+00 -0.10252305431E+01 -0.52530718640E+00  0.11802455333E+01  0.00000000000E+00 0. -1.
         11    1    3    3    0    0 -0.56442682250E+01  0.94222335784E+01  0.34811707376E+01  0.11521926895E+02  0.51100000000E-03 0. -1.
        -11    1    3    3    0    0  0.40463787373E+02 -0.57422444924E+01  0.89425029903E+01  0.41836106658E+02  0.51100000000E-03 0.  1.
         12    1    3    3    0    0 -0.34562742567E+02 -0.26547585429E+01 -0.11898366542E+02  0.36649720914E+02  0.00000000000E+00 0. -1.
</event>
<event>
 7    1  0.1698110E-015  0.9000776E+02  0.7816164E-02  0.1186339E+00
        -11   -1    0    0    0    0  0.00000000000E+00  0.00000000000E+00  0.45593999997E+02  0.45594000000E+02  0.51100000000E-03 0.  1.
         11   -1    0    0    0    0 -0.00000000000E+00 -0.00000000000E+00 -0.45593999997E+02  0.45594000000E+02  0.51100000000E-03 0. -1.
    9900012    2    1    2    0    0 -0.10420943880E+01 -0.28466798611E+00  0.47535634109E+00  0.90007762640E+02  0.90000024306E+02 0.  0.
         12    1    1    2    0    0  0.10420943880E+01  0.28466798611E+00 -0.47535634109E+00  0.11802373604E+01  0.00000000000E+00 0. -1.
         11    1    3    3    0    0 -0.34884720326E+02 -0.71951219654E+01  0.16258878227E+02  0.39154369026E+02  0.51100000000E-03 0. -1.
        -11    1    3    3    0    0  0.22680742344E+01 -0.67278826243E+00  0.94422351849E+01  0.97340952495E+01  0.51100000000E-03 0.  1.
        -12    1    3    3    0    0  0.31574551704E+02  0.75832422418E+01 -0.25225757071E+02  0.41119298365E+02  0.00000000000E+00 0.  1.
</event>
<event>
 7    1  0.1698110E-015  0.9000775E+02  0.7816164E-02  0.1186339E+00
        -11   -1    0    0    0    0  0.00000000000E+00  0.00000000000E+00  0.45593999997E+02  0.45594000000E+02  0.51100000000E-03 0. -1.
         11   -1    0    0    0    0 -0.00000000000E+00 -0.00000000000E+00 -0.45593999997E+02  0.45594000000E+02  0.51100000000E-03 0.  1.
    9900012    2    1    2    0    0 -0.47469742298E-01  0.17581167571E+00 -0.11661172456E+01  0.90007748945E+02  0.90000010431E+02 0.  0.
         12    1    1    2    0    0  0.47469742298E-01 -0.17581167571E+00  0.11661172456E+01  0.11802510547E+01  0.00000000000E+00 0. -1.
         11    1    3    3    0    0  0.36980396368E+02 -0.10925605948E+02  0.60097455168E+01  0.39026088996E+02  0.51100000000E-03 0. -1.
        -11    1    3    3    0    0 -0.80130560534E+00  0.23160747068E+01  0.97420527122E+01  0.10045590278E+02  0.51100000000E-03 0.  1.
        -12    1    3    3    0    0 -0.36226560505E+02  0.87853429170E+01 -0.16917915475E+02  0.40936069672E+02  0.00000000000E+00 0.  1.
</event>
<event>
 7    1  0.1698110E-015  0.9000775E+02  0.7816164E-02  0.1186339E+00
        -11   -1    0    0    0    0  0.00000000000E+00  0.00000000000E+00  0.45593999997E+02  0.45594000000E+02  0.51100000000E-03 0.  1.
         11   -1    0    0    0    0 -0.00000000000E+00 -0.00000000000E+00 -0.45593999997E+02  0.45594000000E+02  0.51100000000E-03 0. -1.
    9900012    2    1    2    0    0 -0.97281294981E-01  0.16427092967E+00  0.11647020589E+01  0.90007754485E+02  0.90000016045E+02 0.  0.
         12    1    1    2    0    0  0.97281294981E-01 -0.16427092967E+00 -0.11647020589E+01  0.11802455146E+01  0.00000000000E+00 0. -1.
         11    1    3    3    0    0 -0.44763602323E+01  0.10663112854E+01  0.74495823771E+01  0.87562034319E+01  0.51100000000E-03 0. -1.
        -11    1    3    3    0    0  0.10090141574E+02 -0.37955904245E+02 -0.16179700745E+02  0.42476397452E+02  0.51100000000E-03 0.  1.
         12    1    3    3    0    0 -0.57110626366E+01  0.37053863889E+02  0.98948204265E+01  0.38775153602E+02  0.00000000000E+00 0. -1.
</event>
<event>
 7    1  0.1698110E-015  0.9000775E+02  0.7816164E-02  0.1186339E+00
        -11   -1    0    0    0    0  0.00000000000E+00  0.00000000000E+00  0.45593999997E+02  0.45594000000E+02  0.51100000000E-03 0. -1.
         11   -1    0    0    0    0 -0.00000000000E+00 -0.00000000000E+00 -0.45593999997E+02  0.45594000000E+02  0.51100000000E-03 0.  1.
    9900012    2    1    2    0    0 -0.69583418001E+00  0.69785380517E+00 -0.64946954225E+00  0.90007747558E+02  0.90000009026E+02 0.  0.
         12    1    1    2    0    0  0.69583418001E+00 -0.69785380517E+00  0.64946954225E+00  0.11802524415E+01  0.00000000000E+00 0. -1.
         11    1    3    3    0    0  0.85366393640E+01  0.23661836314E+02  0.26557389236E+02  0.36579388085E+02  0.51100000000E-03 0. -1.
        -11    1    3    3    0    0  0.15385307765E+01  0.56023654680E+01  0.59782210193E+01  0.83362283201E+01  0.51100000000E-03 0.  1.
        -12    1    3    3    0    0 -0.10771004321E+02 -0.28566347977E+02 -0.33185079797E+02  0.45092131153E+02  0.00000000000E+00 0.  1.
</event>
<event>
 7    1  0.1698110E-015  0.9000692E+02  0.7816164E-02  0.1186341E+00
        -11   -1    0    0    0    0  0.00000000000E+00  0.00000000000E+00  0.45593999997E+02  0.45594000000E+02  0.51100000000E-03 0. -1.
         11   -1    0    0    0    0 -0.00000000000E+00 -0.00000000000E+00 -0.45593999997E+02  0.45594000000E+02  0.51100000000E-03 0.  1.
    9900012    2    1    2    0    0  0.37267329286E+00 -0.11063065763E+01  0.17933784674E+00  0.90006915038E+02  0.89999165513E+02 0.  0.
         12    1    1    2    0    0 -0.37267329286E+00  0.11063065763E+01 -0.17933784674E+00  0.11810849619E+01  0.00000000000E+00 0. -1.
         11    1    3    3    0    0 -0.10047494754E+02 -0.52569168042E+01  0.51485618285E+01  0.12453714879E+02  0.51100000000E-03 0. -1.
        -11    1    3    3    0    0 -0.62572597465E+01 -0.70365079760E+01 -0.37861599577E+02  0.39014951837E+02  0.51100000000E-03 0.  1.
         12    1    3    3    0    0  0.16677427793E+02  0.11187118204E+02  0.32892375595E+02  0.38538248323E+02  0.00000000000E+00 0. -1.
</event>
<event>
 7    1  0.1698110E-015  0.9000776E+02  0.7816164E-02  0.1186339E+00
        -11   -1    0    0    0    0  0.00000000000E+00  0.00000000000E+00  0.45593999997E+02  0.45594000000E+02  0.51100000000E-03 0.  1.
         11   -1    0    0    0    0 -0.00000000000E+00 -0.00000000000E+00 -0.45593999997E+02  0.45594000000E+02  0.51100000000E-03 0. -1.
    9900012    2    1    2    0    0  0.71435523023E+00  0.78894971555E+00  0.51011908682E+00  0.90007759969E+02  0.90000021600E+02 0.  0.
         12    1    1    2    0    0 -0.71435523023E+00 -0.78894971555E+00 -0.51011908682E+00  0.11802400312E+01  0.00000000000E+00 0. -1.
         11    1    3    3    0    0  0.56398730250E+01  0.36350550364E+02 -0.86298250718E+01  0.37784184000E+02  0.51100000000E-03 0. -1.
        -11    1    3    3    0    0  0.78603797549E+01  0.46344127258E+01  0.31833001576E+00  0.91304263572E+01  0.51100000000E-03 0.  1.
        -12    1    3    3    0    0 -0.12785897550E+02 -0.40196013374E+02  0.88216141428E+01  0.43093149611E+02  0.00000000000E+00 0.  1.
</event>
<event>
 7    1  0.1698110E-015  0.9000763E+02  0.7816164E-02  0.1186339E+00
        -11   -1    0    0    0    0  0.00000000000E+00  0.00000000000E+00  0.45593999997E+02  0.45594000000E+02  0.51100000000E-03 0.  1.
         11   -1    0    0    0    0 -0.00000000000E+00 -0.00000000000E+00 -0.45593999997E+02  0.45594000000E+02  0.51100000000E-03 0. -1.
    9900012    2    1    2    0    0 -0.12403199965E-01  0.26573188448E+00  0.11499998068E+01  0.90007632757E+02  0.89999892709E+02 0.  0.
         12    1    1    2    0    0  0.12403199965E-01 -0.26573188448E+00 -0.11499998068E+01  0.11803672435E+01  0.00000000000E+00 0. -1.
         11    1    3    3    0    0 -0.27698832581E+01 -0.22597901547E+01  0.61107126673E+01  0.70795278353E+01  0.51100000000E-03 0. -1.
        -11    1    3    3    0    0  0.39661630910E+02 -0.52667824134E+01  0.11713162139E+02  0.41689112859E+02  0.51100000000E-03 0.  1.
         12    1    3    3    0    0 -0.36904150852E+02  0.77923044526E+01 -0.16673874999E+02  0.41238992062E+02  0.00000000000E+00 0. -1.
</event>
<event>
 7    1  0.1698110E-015  0.9000788E+02  0.7816164E-02  0.1186339E+00
        -11   -1    0    0    0    0  0.00000000000E+00  0.00000000000E+00  0.45593999997E+02  0.45594000000E+02  0.51100000000E-03 0.  1.
         11   -1    0    0    0    0 -0.00000000000E+00 -0.00000000000E+00 -0.45593999997E+02  0.45594000000E+02  0.51100000000E-03 0. -1.
    9900012    2    1    2    0    0  0.11376944532E+01  0.23295801263E+00  0.20990016075E+00  0.90007882979E+02  0.90000146235E+02 0.  0.
         12    1    1    2    0    0 -0.11376944532E+01 -0.23295801263E+00 -0.20990016075E+00  0.11801170205E+01  0.00000000000E+00 0. -1.
         11    1    3    3    0    0 -0.95628163761E+01 -0.31941678922E+01  0.11317577598E+01  0.10145493653E+02  0.51100000000E-03 0. -1.
        -11    1    3    3    0    0 -0.25074310220E+02 -0.23725014676E+02 -0.44837018707E+01  0.34809494927E+02  0.51100000000E-03 0.  1.
         12    1    3    3    0    0  0.35774821049E+02  0.27152140581E+02  0.35618442716E+01  0.45052894400E+02  0.00000000000E+00 0. -1.
</event>
<event>
 7    1  0.1698110E-015  0.9000779E+02  0.7816164E-02  0.1186339E+00
        -11   -1    0    0    0    0  0.00000000000E+00  0.00000000000E+00  0.45593999997E+02  0.45594000000E+02  0.51100000000E-03 0. -1.
         11   -1    0    0    0    0 -0.00000000000E+00 -0.00000000000E+00 -0.45593999997E+02  0.45594000000E+02  0.51100000000E-03 0.  1.
    9900012    2    1    2    0    0  0.10999542376E+01  0.89842305721E-01 -0.41823695926E+00  0.90007791070E+02  0.90000053112E+02 0.  0.
         12    1    1    2    0    0 -0.10999542376E+01 -0.89842305721E-01  0.41823695926E+00  0.11802089302E+01  0.00000000000E+00 0. -1.
         11    1    3    3    0    0 -0.10802959261E+02 -0.42867635449E+00 -0.64461451905E+01  0.12587314260E+02  0.51100000000E-03 0. -1.
        -11    1    3    3    0    0 -0.14587120175E+02 -0.31952190092E+02  0.30295306230E+00  0.35125749921E+02  0.51100000000E-03 0.  1.
         12    1    3    3    0    0  0.26490033673E+02  0.32470708752E+02  0.57249551689E+01  0.42294726889E+02  0.00000000000E+00 0. -1.
</event>
<event>
 7    1  0.1698110E-015  0.9000787E+02  0.7816164E-02  0.1186339E+00
        -11   -1    0    0    0    0  0.00000000000E+00  0.00000000000E+00  0.45593999997E+02  0.45594000000E+02  0.51100000000E-03 0.  1.
         11   -1    0    0    0    0 -0.00000000000E+00 -0.00000000000E+00 -0.45593999997E+02  0.45594000000E+02  0.51100000000E-03 0. -1.
    9900012    2    1    2    0    0  0.56621995805E+00  0.10277963388E+01 -0.12548114611E+00  0.90007866163E+02  0.90000129196E+02 0.  0.
         12    1    1    2    0    0 -0.56621995805E+00 -0.10277963388E+01  0.12548114611E+00  0.11801338369E+01  0.00000000000E+00 0. -1.
         11    1    3    3    0    0  0.10138994889E+02 -0.86476140510E+01 -0.31988498610E+02  0.34653203167E+02  0.51100000000E-03 0. -1.
        -11    1    3    3    0    0 -0.33696962749E+01 -0.13167886795E+02 -0.23072351363E+01  0.13786639543E+02  0.51100000000E-03 0.  1.
        -12    1    3    3    0    0 -0.62030786565E+01  0.22843297185E+02  0.34170252600E+02  0.41568023454E+02  0.00000000000E+00 0.  1.
</event>
<event>
 7    1  0.1698110E-015  0.9000787E+02  0.7816164E-02  0.1186339E+00
        -11   -1    0    0    0    0  0.00000000000E+00  0.00000000000E+00  0.45593999997E+02  0.45594000000E+02  0.51100000000E-03 0.  1.
         11   -1    0    0    0    0 -0.00000000000E+00 -0.00000000000E+00 -0.45593999997E+02  0.45594000000E+02  0.51100000000E-03 0. -1.
    9900012    2    1    2    0    0 -0.33261050311E+00  0.10441059857E+01  0.43809832541E+00  0.90007865601E+02  0.90000128627E+02 0.  0.
         12    1    1    2    0    0  0.33261050311E+00 -0.10441059857E+01 -0.43809832541E+00  0.11801343986E+01  0.00000000000E+00 0. -1.
         11    1    3    3    0    0 -0.99983499308E+00 -0.37719005234E+01 -0.29689760015E+02  0.29945095652E+02  0.51100000000E-03 0. -1.
        -11    1    3    3    0    0  0.46956701445E+01  0.11559894799E+02 -0.11938812967E+02  0.17268924147E+02  0.51100000000E-03 0.  1.
        -12    1    3    3    0    0 -0.40284456545E+01 -0.67438882900E+01  0.42066671308E+02  0.42793845803E+02  0.00000000000E+00 0.  1.
</event>
<event>
 7    1  0.1698110E-015  0.9000773E+02  0.7816164E-02  0.1186339E+00
        -11   -1    0    0    0    0  0.00000000000E+00  0.00000000000E+00  0.45593999997E+02  0.45594000000E+02  0.51100000000E-03 0.  1.
         11   -1    0    0    0    0 -0.00000000000E+00 -0.00000000000E+00 -0.45593999997E+02  0.45594000000E+02  0.51100000000E-03 0. -1.
    9900012    2    1    2    0    0 -0.13905131793E+00 -0.11572387398E+01  0.18573725329E+00  0.90007730922E+02  0.89999992170E+02 0.  0.
         12    1    1    2    0    0  0.13905131793E+00  0.11572387398E+01 -0.18573725329E+00  0.11802690783E+01  0.00000000000E+00 0. -1.
         11    1    3    3    0    0  0.91614716601E+01  0.24659086869E+01  0.47771876684E+01  0.10622372189E+02  0.51100000000E-03 0. -1.
        -11    1    3    3    0    0  0.31819722626E+02 -0.16184792738E+02  0.25917873304E+01  0.35793290234E+02  0.51100000000E-03 0.  1.
         12    1    3    3    0    0 -0.41120245604E+02  0.12561645311E+02 -0.71832377455E+01  0.43592068499E+02  0.00000000000E+00 0. -1.
</event>
<event>
 7    1  0.1698110E-015  0.9000772E+02  0.7816164E-02  0.1186339E+00
        -11   -1    0    0    0    0  0.00000000000E+00  0.00000000000E+00  0.45593999997E+02  0.45594000000E+02  0.51100000000E-03 0.  1.
         11   -1    0    0    0    0 -0.00000000000E+00 -0.00000000000E+00 -0.45593999997E+02  0.45594000000E+02  0.51100000000E-03 0. -1.
    9900012    2    1    2    0    0  0.22697209190E+00  0.10089571126E+01  0.56882041049E+00  0.90007717218E+02  0.89999978286E+02 0.  0.
         12    1    1    2    0    0 -0.22697209190E+00 -0.10089571126E+01 -0.56882041049E+00  0.11802827818E+01  0.00000000000E+00 0. -1.
         11    1    3    3    0    0 -0.58985023264E+00  0.35471594011E+02  0.80683584092E+01  0.36382417631E+02  0.51100000000E-03 0. -1.
        -11    1    3    3    0    0 -0.27655165649E+01  0.90364574117E+01 -0.11669779465E+01  0.95219473961E+01  0.51100000000E-03 0.  1.
        -12    1    3    3    0    0  0.35823388894E+01 -0.43499094310E+02 -0.63325600522E+01  0.44103352191E+02  0.00000000000E+00 0.  1.
</event>
<event>
 7    1  0.1698110E-015  0.9000793E+02  0.7816164E-02  0.1186339E+00
        -11   -1    0    0    0    0  0.00000000000E+00  0.00000000000E+00  0.45593999997E+02  0.45594000000E+02  0.51100000000E-03 0. -1.
         11   -1    0    0    0    0 -0.00000000000E+00 -0.00000000000E+00 -0.45593999997E+02  0.45594000000E+02  0.51100000000E-03 0.  1.
    9900012    2    1    2    0    0 -0.93775313938E+00  0.40215121332E+00  0.59284009630E+00  0.90007929693E+02  0.90000193565E+02 0.  0.
         12    1    1    2    0    0  0.93775313938E+00 -0.40215121332E+00 -0.59284009630E+00  0.11800703066E+01  0.00000000000E+00 0. -1.
         11    1    3    3    0    0 -0.11935033971E+02  0.33852960515E+02 -0.92034269058E+01  0.37056322518E+02  0.51100000000E-03 0. -1.
        -11    1    3    3    0    0 -0.64329731481E+01  0.59936456009E+01  0.31746805342E+00  0.87981655667E+01  0.51100000000E-03 0.  1.
        -12    1    3    3    0    0  0.17430253980E+02 -0.39444454902E+02  0.94787989487E+01  0.44153441608E+02  0.00000000000E+00 0.  1.
</event>
<event>
 7    1  0.1698110E-015  0.9000774E+02  0.7816164E-02  0.1186339E+00
        -11   -1    0    0    0    0  0.00000000000E+00  0.00000000000E+00  0.45593999997E+02  0.45594000000E+02  0.51100000000E-03 0.  1.
         11   -1    0    0    0    0 -0.00000000000E+00 -0.00000000000E+00 -0.45593999997E+02  0.45594000000E+02  0.51100000000E-03 0. -1.
    9900012    2    1    2    0    0  0.10463515701E+01 -0.88928090658E-01  0.53875053873E+00  0.90007740725E+02  0.90000002102E+02 0.  0.
         12    1    1    2    0    0 -0.10463515701E+01  0.88928090658E-01 -0.53875053873E+00  0.11802592752E+01  0.00000000000E+00 0. -1.
         11    1    3    3    0    0  0.75592842222E+01 -0.21111692494E+01  0.96658906505E+00  0.79078510503E+01  0.51100000000E-03 0. -1.
        -11    1    3    3    0    0  0.23109496332E+02  0.87029920411E+01  0.30172623645E+02  0.38989461512E+02  0.51100000000E-03 0.  1.
         12    1    3    3    0    0 -0.29622428984E+02 -0.66807508823E+01 -0.30600462171E+02  0.43110428162E+02  0.00000000000E+00 0. -1.
</event>
<event>
 7    1  0.1698110E-015  0.9000765E+02  0.7816164E-02  0.1186339E+00
        -11   -1    0    0    0    0  0.00000000000E+00  0.00000000000E+00  0.45593999997E+02  0.45594000000E+02  0.51100000000E-03 0.  1.
         11   -1    0    0    0    0 -0.00000000000E+00 -0.00000000000E+00 -0.45593999997E+02  0.45594000000E+02  0.51100000000E-03 0. -1.
    9900012    2    1    2    0    0 -0.85798643036E+00  0.76883421604E+00  0.25687631216E+00  0.90007647423E+02  0.89999907569E+02 0.  0.
         12    1    1    2    0    0  0.85798643036E+00 -0.76883421604E+00 -0.25687631216E+00  0.11803525771E+01  0.00000000000E+00 0. -1.
         11    1    3    3    0    0 -0.34845234956E+02 -0.48073917018E+01 -0.92299917204E+01  0.36366112818E+02  0.51100000000E-03 0. -1.
        -11    1    3    3    0    0 -0.84417928156E+01 -0.38895670085E+01  0.99601244672E+00  0.93479751022E+01  0.51100000000E-03 0.  1.
        -12    1    3    3    0    0  0.42429041341E+02  0.94657929263E+01  0.84908555858E+01  0.44293559503E+02  0.00000000000E+00 0.  1.
</event>
<event>
 8    1  0.1698110E-015  0.9000772E+02  0.7816164E-02  0.1186339E+00
        -11   -1    0    0    0    0  0.00000000000E+00  0.00000000000E+00  0.45593999997E+02  0.45594000000E+02  0.51100000000E-03 0.  1.
         11   -1    0    0    0    0 -0.00000000000E+00 -0.00000000000E+00 -0.45593999997E+02  0.45594000000E+02  0.51100000000E-03 0. -1.
    9900012    2    1    2    0    0  0.10652918100E+01  0.47977114913E+00 -0.16742122325E+00  0.90007721701E+02  0.89999982828E+02 0.  0.
         23    2    3    3    0    0  0.13548304355E+02  0.15476859522E+02  0.20759163992E+02  0.61395482526E+02  0.53994190923E+02 0.  0.
         12    1    1    2    0    0 -0.10652918100E+01 -0.47977114913E+00  0.16742122325E+00  0.11802782985E+01  0.00000000000E+00 0. -1.
         11    1    4    4    0    0 -0.20689153503E+02  0.13876363840E+01  0.82429560369E+01  0.22313962711E+02  0.51100000000E-03 0. -1.
        -11    1    4    4    0    0  0.34237457858E+02  0.14089223138E+02  0.12516207955E+02  0.39081519815E+02  0.51100000000E-03 0.  1.
         12    1    3    3    0    0 -0.12483012546E+02 -0.14997088373E+02 -0.20926585215E+02  0.28612239175E+02  0.00000000000E+00 0. -1.
</event>
<event>
 7    1  0.1698110E-015  0.9000784E+02  0.7816164E-02  0.1186339E+00
        -11   -1    0    0    0    0  0.00000000000E+00  0.00000000000E+00  0.45593999997E+02  0.45594000000E+02  0.51100000000E-03 0.  1.
         11   -1    0    0    0    0 -0.00000000000E+00 -0.00000000000E+00 -0.45593999997E+02  0.45594000000E+02  0.51100000000E-03 0. -1.
    9900012    2    1    2    0    0  0.11207363090E+01 -0.28063497076E+00 -0.24078533250E+00  0.90007837538E+02  0.90000100193E+02 0.  0.
         12    1    1    2    0    0 -0.11207363090E+01  0.28063497076E+00  0.24078533250E+00  0.11801624624E+01  0.00000000000E+00 0. -1.
         11    1    3    3    0    0 -0.62651505299E+01  0.63452453372E+01  0.26515316879E+01  0.93029495379E+01  0.51100000000E-03 0. -1.
        -11    1    3    3    0    0  0.22812126792E+02 -0.60685505084E+01  0.33610883670E+02  0.41072033495E+02  0.51100000000E-03 0.  1.
         12    1    3    3    0    0 -0.15426239953E+02 -0.55732979957E+00 -0.36503200690E+02  0.39632854505E+02  0.00000000000E+00 0. -1.
</event>
<event>
 7    1  0.1698110E-015  0.9000774E+02  0.7816164E-02  0.1186339E+00
        -11   -1    0    0    0    0  0.00000000000E+00  0.00000000000E+00  0.45593999997E+02  0.45594000000E+02  0.51100000000E-03 0.  1.
         11   -1    0    0    0    0 -0.00000000000E+00 -0.00000000000E+00 -0.45593999997E+02  0.45594000000E+02  0.51100000000E-03 0. -1.
    9900012    2    1    2    0    0 -0.21447496546E+00 -0.10497082107E+01 -0.49510977934E+00  0.90007737092E+02  0.89999998422E+02 0.  0.
         12    1    1    2    0    0  0.21447496546E+00  0.10497082107E+01  0.49510977934E+00  0.11802629080E+01  0.00000000000E+00 0. -1.
         11    1    3    3    0    0 -0.98434866502E+00  0.41650625245E+02  0.11617002961E+02  0.43251569725E+02  0.51100000000E-03 0. -1.
        -11    1    3    3    0    0  0.36714084264E+01 -0.11173550966E+02  0.22770501771E+01  0.11979667725E+02  0.51100000000E-03 0.  1.
        -12    1    3    3    0    0 -0.29015347268E+01 -0.31526782489E+02 -0.14389162918E+02  0.34776499642E+02  0.00000000000E+00 0.  1.
</event>
<event>
 7    1  0.1698110E-015  0.9000769E+02  0.7816164E-02  0.1186339E+00
        -11   -1    0    0    0    0  0.00000000000E+00  0.00000000000E+00  0.45593999997E+02  0.45594000000E+02  0.51100000000E-03 0.  1.
         11   -1    0    0    0    0 -0.00000000000E+00 -0.00000000000E+00 -0.45593999997E+02  0.45594000000E+02  0.51100000000E-03 0. -1.
    9900012    2    1    2    0    0 -0.96891281579E+00 -0.67395502527E+00 -0.11656406000E-01  0.90007685088E+02  0.89999945731E+02 0.  0.
         12    1    1    2    0    0  0.96891281579E+00  0.67395502527E+00  0.11656406000E-01  0.11803149124E+01  0.00000000000E+00 0. -1.
         11    1    3    3    0    0  0.85195588278E+01  0.80811222802E+01 -0.26454546252E+02  0.28943573339E+02  0.51100000000E-03 0. -1.
        -11    1    3    3    0    0  0.57973373930E+01 -0.66402898124E+01 -0.14690030782E+02  0.17131829274E+02  0.51100000000E-03 0.  1.
        -12    1    3    3    0    0 -0.15285809037E+02 -0.21147874931E+01  0.41132920628E+02  0.43932282475E+02  0.00000000000E+00 0.  1.
</event>
<event>
 7    1  0.1698110E-015  0.9000764E+02  0.7816164E-02  0.1186339E+00
        -11   -1    0    0    0    0  0.00000000000E+00  0.00000000000E+00  0.45593999997E+02  0.45594000000E+02  0.51100000000E-03 0. -1.
         11   -1    0    0    0    0 -0.00000000000E+00 -0.00000000000E+00 -0.45593999997E+02  0.45594000000E+02  0.51100000000E-03 0.  1.
    9900012    2    1    2    0    0 -0.63713536780E+00  0.81674233533E+00 -0.56590520271E+00  0.90007636404E+02  0.89999896405E+02 0.  0.
         12    1    1    2    0    0  0.63713536780E+00 -0.81674233533E+00  0.56590520271E+00  0.11803635955E+01  0.00000000000E+00 0. -1.
         11    1    3    3    0    0 -0.15369440184E+01  0.27295748484E+02 -0.30630294174E+02  0.41056485525E+02  0.51100000000E-03 0. -1.
        -11    1    3    3    0    0  0.91352327171E+01  0.19492832008E+00  0.19737478474E+01  0.93480561975E+01  0.51100000000E-03 0.  1.
        -12    1    3    3    0    0 -0.82354240665E+01 -0.26673934469E+02  0.28090641124E+02  0.39603094682E+02  0.00000000000E+00 0.  1.
</event>
<event>
 7    1  0.1698110E-015  0.9000775E+02  0.7816164E-02  0.1186339E+00
        -11   -1    0    0    0    0  0.00000000000E+00  0.00000000000E+00  0.45593999997E+02  0.45594000000E+02  0.51100000000E-03 0.  1.
         11   -1    0    0    0    0 -0.00000000000E+00 -0.00000000000E+00 -0.45593999997E+02  0.45594000000E+02  0.51100000000E-03 0. -1.
    9900012    2    1    2    0    0  0.53040102624E+00 -0.91115928040E+00  0.53053247424E+00  0.90007745286E+02  0.90000006724E+02 0.  0.
         12    1    1    2    0    0 -0.53040102624E+00  0.91115928040E+00 -0.53053247424E+00  0.11802547137E+01  0.00000000000E+00 0. -1.
         11    1    3    3    0    0 -0.34675576340E+02 -0.14335740262E+02  0.18940115399E+02  0.42031381312E+02  0.51100000000E-03 0. -1.
        -11    1    3    3    0    0 -0.21504938969E+00  0.19882122931E+01 -0.94935469550E+01  0.97018899401E+01  0.51100000000E-03 0.  1.
        -12    1    3    3    0    0  0.35421026756E+02  0.11436368689E+02 -0.89160359699E+01  0.38274474035E+02  0.00000000000E+00 0.  1.
</event>
<event>
 7    1  0.1698110E-015  0.9000770E+02  0.7816164E-02  0.1186339E+00
        -11   -1    0    0    0    0  0.00000000000E+00  0.00000000000E+00  0.45593999997E+02  0.45594000000E+02  0.51100000000E-03 0.  1.
         11   -1    0    0    0    0 -0.00000000000E+00 -0.00000000000E+00 -0.45593999997E+02  0.45594000000E+02  0.51100000000E-03 0. -1.
    9900012    2    1    2    0    0  0.90151210111E+00  0.45991167353E+00  0.60734889808E+00  0.90007696861E+02  0.89999957660E+02 0.  0.
         12    1    1    2    0    0 -0.90151210111E+00 -0.45991167353E+00 -0.60734889808E+00  0.11803031390E+01  0.00000000000E+00 0. -1.
         11    1    3    3    0    0 -0.10944420654E+02 -0.36023139078E+02 -0.15093912939E+02  0.40561966182E+02  0.51100000000E-03 0. -1.
        -11    1    3    3    0    0  0.66265266386E+01  0.18785867016E+01 -0.52475596474E+01  0.86589159715E+01  0.51100000000E-03 0.  1.
        -12    1    3    3    0    0  0.52194061167E+01  0.34604464050E+02  0.20948821485E+02  0.40786814707E+02  0.00000000000E+00 0.  1.
</event>
<event>
 7    1  0.1698110E-015  0.9000779E+02  0.7816164E-02  0.1186339E+00
        -11   -1    0    0    0    0  0.00000000000E+00  0.00000000000E+00  0.45593999997E+02  0.45594000000E+02  0.51100000000E-03 0.  1.
         11   -1    0    0    0    0 -0.00000000000E+00 -0.00000000000E+00 -0.45593999997E+02  0.45594000000E+02  0.51100000000E-03 0. -1.
    9900012    2    1    2    0    0 -0.78088085032E+00 -0.17247747464E+00  0.86796746873E+00  0.90007792006E+02  0.90000054061E+02 0.  0.
         12    1    1    2    0    0  0.78088085032E+00  0.17247747464E+00 -0.86796746873E+00  0.11802079937E+01  0.00000000000E+00 0. -1.
         11    1    3    3    0    0  0.11353484770E+02 -0.71066241238E+01  0.17196275418E+02  0.21797192741E+02  0.51100000000E-03 0. -1.
        -11    1    3    3    0    0  0.34352128160E+01 -0.13520170186E+02  0.19585228162E+02  0.24045308302E+02  0.51100000000E-03 0.  1.
         12    1    3    3    0    0 -0.15569578436E+02  0.20454316835E+02 -0.35913536111E+02  0.44165290963E+02  0.00000000000E+00 0. -1.
</event>
<event>
 7    1  0.1698110E-015  0.9000761E+02  0.7816164E-02  0.1186339E+00
        -11   -1    0    0    0    0  0.00000000000E+00  0.00000000000E+00  0.45593999997E+02  0.45594000000E+02  0.51100000000E-03 0. -1.
         11   -1    0    0    0    0 -0.00000000000E+00 -0.00000000000E+00 -0.45593999997E+02  0.45594000000E+02  0.51100000000E-03 0.  1.
    9900012    2    1    2    0    0  0.83107681380E+00 -0.78494240205E+00 -0.29408885922E+00  0.90007613833E+02  0.89999873536E+02 0.  0.
         12    1    1    2    0    0 -0.83107681380E+00  0.78494240205E+00  0.29408885922E+00  0.11803861665E+01  0.00000000000E+00 0. -1.
         11    1    3    3    0    0 -0.64907059852E+01  0.11319525455E+01 -0.80617151002E+01  0.10411620017E+02  0.51100000000E-03 0. -1.
        -11    1    3    3    0    0  0.22164186729E+02  0.30365630168E+02 -0.11321234700E+02  0.39261852023E+02  0.51100000000E-03 0.  1.
         12    1    3    3    0    0 -0.14842403930E+02 -0.32282525116E+02  0.19088860941E+02  0.40334141794E+02  0.00000000000E+00 0. -1.
</event>
<event>
 7    1  0.1698110E-015  0.9000770E+02  0.7816164E-02  0.1186339E+00
        -11   -1    0    0    0    0  0.00000000000E+00  0.00000000000E+00  0.45593999997E+02  0.45594000000E+02  0.51100000000E-03 0. -1.
         11   -1    0    0    0    0 -0.00000000000E+00 -0.00000000000E+00 -0.45593999997E+02  0.45594000000E+02  0.51100000000E-03 0.  1.
    9900012    2    1    2    0    0 -0.71552274956E+00 -0.89070382463E+00 -0.29629499269E+00  0.90007696297E+02  0.89999957088E+02 0.  0.
         12    1    1    2    0    0  0.71552274956E+00  0.89070382463E+00  0.29629499269E+00  0.11803037029E+01  0.00000000000E+00 0. -1.
         11    1    3    3    0    0 -0.29241617255E+02  0.67975294676E+01  0.24785915505E+02  0.38930967034E+02  0.51100000000E-03 0. -1.
        -11    1    3    3    0    0 -0.66948500317E+01 -0.63718781821E+01 -0.48708480425E+01  0.10447344611E+02  0.51100000000E-03 0.  1.
        -12    1    3    3    0    0  0.35220944537E+02 -0.13163551101E+01 -0.20211362456E+02  0.40629384651E+02  0.00000000000E+00 0.  1.
</event>
<event>
 7    1  0.1698110E-015  0.9000779E+02  0.7816164E-02  0.1186339E+00
        -11   -1    0    0    0    0  0.00000000000E+00  0.00000000000E+00  0.45593999997E+02  0.45594000000E+02  0.51100000000E-03 0. -1.
         11   -1    0    0    0    0 -0.00000000000E+00 -0.00000000000E+00 -0.45593999997E+02  0.45594000000E+02  0.51100000000E-03 0.  1.
    9900012    2    1    2    0    0  0.10229232852E+01  0.52104277746E-01 -0.58634787101E+00  0.90007792082E+02  0.90000054138E+02 0.  0.
         12    1    1    2    0    0 -0.10229232852E+01 -0.52104277746E-01  0.58634787101E+00  0.11802079177E+01  0.00000000000E+00 0. -1.
         11    1    3    3    0    0 -0.26786782725E+02  0.12575799976E+02  0.24937880143E+02  0.38698583180E+02  0.51100000000E-03 0. -1.
        -11    1    3    3    0    0  0.74005980710E+01  0.56697808056E+01  0.47943360082E+01  0.10483364165E+02  0.51100000000E-03 0.  1.
        -12    1    3    3    0    0  0.20409107940E+02 -0.18193476504E+02 -0.30318564022E+02  0.40825844738E+02  0.00000000000E+00 0.  1.
</event>
<event>
 7    1  0.1698110E-015  0.9000793E+02  0.7816164E-02  0.1186339E+00
        -11   -1    0    0    0    0  0.00000000000E+00  0.00000000000E+00  0.45593999997E+02  0.45594000000E+02  0.51100000000E-03 0.  1.
         11   -1    0    0    0    0 -0.00000000000E+00 -0.00000000000E+00 -0.45593999997E+02  0.45594000000E+02  0.51100000000E-03 0. -1.
    9900012    2    1    2    0    0 -0.89767315165E+00  0.70943334232E+00 -0.28889200745E+00  0.90007927398E+02  0.90000191239E+02 0.  0.
         12    1    1    2    0    0  0.89767315165E+00 -0.70943334232E+00  0.28889200745E+00  0.11800726022E+01  0.00000000000E+00 0. -1.
         11    1    3    3    0    0  0.24730732936E+02  0.30916670971E+02 -0.11552047266E+02  0.41241962753E+02  0.51100000000E-03 0. -1.
        -11    1    3    3    0    0  0.40813842305E+01 -0.84637273344E+01 -0.20480629775E+01  0.96170130419E+01  0.51100000000E-03 0.  1.
        -12    1    3    3    0    0 -0.29709790318E+02 -0.21743510294E+02  0.13311218236E+02  0.39148951602E+02  0.00000000000E+00 0.  1.
</event>
<event>
 7    1  0.1698110E-015  0.9000768E+02  0.7816164E-02  0.1186339E+00
        -11   -1    0    0    0    0  0.00000000000E+00  0.00000000000E+00  0.45593999997E+02  0.45594000000E+02  0.51100000000E-03 0. -1.
         11   -1    0    0    0    0 -0.00000000000E+00 -0.00000000000E+00 -0.45593999997E+02  0.45594000000E+02  0.51100000000E-03 0.  1.
    9900012    2    1    2    0    0 -0.63083258199E+00  0.66551774307E+00 -0.74315964015E+00  0.90007682304E+02  0.89999942910E+02 0.  0.
         12    1    1    2    0    0  0.63083258199E+00 -0.66551774307E+00  0.74315964015E+00  0.11803176960E+01  0.00000000000E+00 0. -1.
         11    1    3    3    0    0  0.31790582693E+02 -0.11428924786E+02  0.96097554718E+01  0.35122768544E+02  0.51100000000E-03 0. -1.
        -11    1    3    3    0    0  0.77887970259E+01  0.85951617705E+00  0.61805263602E+01  0.99801319390E+01  0.51100000000E-03 0.  1.
        -12    1    3    3    0    0 -0.40210212301E+02  0.11234926352E+02 -0.16533441472E+02  0.44904781821E+02  0.00000000000E+00 0.  1.
</event>
<event>
 7    1  0.1698110E-015  0.9000760E+02  0.7816164E-02  0.1186339E+00
        -11   -1    0    0    0    0  0.00000000000E+00  0.00000000000E+00  0.45593999997E+02  0.45594000000E+02  0.51100000000E-03 0. -1.
         11   -1    0    0    0    0 -0.00000000000E+00 -0.00000000000E+00 -0.45593999997E+02  0.45594000000E+02  0.51100000000E-03 0.  1.
    9900012    2    1    2    0    0  0.36657540929E+00  0.44434501522E+00 -0.10303042034E+01  0.90007598892E+02  0.89999858398E+02 0.  0.
         12    1    1    2    0    0 -0.36657540929E+00 -0.44434501522E+00  0.10303042034E+01  0.11804011076E+01  0.00000000000E+00 0. -1.
         11    1    3    3    0    0 -0.39670717022E+02 -0.41084822704E+01  0.90740856459E+01  0.40902132538E+02  0.51100000000E-03 0. -1.
        -11    1    3    3    0    0  0.47086337611E+01  0.10229205136E+02  0.17820891416E+01  0.11401039934E+02  0.51100000000E-03 0.  1.
        -12    1    3    3    0    0  0.35328658670E+02 -0.56763778503E+01 -0.11886478991E+02  0.37704426421E+02  0.00000000000E+00 0.  1.
</event>
<event>
 7    1  0.1698110E-015  0.9000777E+02  0.7816164E-02  0.1186339E+00
        -11   -1    0    0    0    0  0.00000000000E+00  0.00000000000E+00  0.45593999997E+02  0.45594000000E+02  0.51100000000E-03 0. -1.
         11   -1    0    0    0    0 -0.00000000000E+00 -0.00000000000E+00 -0.45593999997E+02  0.45594000000E+02  0.51100000000E-03 0.  1.
    9900012    2    1    2    0    0  0.57360313678E-01  0.11628056203E+01  0.19373980794E+00  0.90007770264E+02  0.90000032032E+02 0.  0.
         12    1    1    2    0    0 -0.57360313678E-01 -0.11628056203E+01 -0.19373980794E+00  0.11802297358E+01  0.00000000000E+00 0. -1.
         11    1    3    3    0    0  0.76084941665E+00 -0.96927825228E+01 -0.33224024317E+01  0.10274594058E+02  0.51100000000E-03 0. -1.
        -11    1    3    3    0    0  0.25402750793E+02 -0.13318579985E+02  0.25103549701E+02  0.38116565015E+02  0.51100000000E-03 0.  1.
         12    1    3    3    0    0 -0.26106239896E+02  0.24174168128E+02 -0.21587407462E+02  0.41616611192E+02  0.00000000000E+00 0. -1.
</event>
<event>
 7    1  0.1698110E-015  0.9000773E+02  0.7816164E-02  0.1186339E+00
        -11   -1    0    0    0    0  0.00000000000E+00  0.00000000000E+00  0.45593999997E+02  0.45594000000E+02  0.51100000000E-03 0. -1.
         11   -1    0    0    0    0 -0.00000000000E+00 -0.00000000000E+00 -0.45593999997E+02  0.45594000000E+02  0.51100000000E-03 0.  1.
    9900012    2    1    2    0    0 -0.10673918026E+01 -0.18270467700E+00 -0.46938566541E+00  0.90007733436E+02  0.89999994717E+02 0.  0.
         12    1    1    2    0    0  0.10673918026E+01  0.18270467700E+00  0.46938566541E+00  0.11802665640E+01  0.00000000000E+00 0. -1.
         11    1    3    3    0    0  0.10215672755E+02 -0.11847550235E+01 -0.38815718111E+00  0.10291466395E+02  0.51100000000E-03 0. -1.
        -11    1    3    3    0    0  0.91434699811E+01  0.27553613464E+02 -0.24721306416E+02  0.38130665473E+02  0.51100000000E-03 0.  1.
         12    1    3    3    0    0 -0.20426534539E+02 -0.26551563118E+02  0.24640077932E+02  0.41585601568E+02  0.00000000000E+00 0. -1.
</event>
<event>
 7    1  0.1698110E-015  0.9000763E+02  0.7816164E-02  0.1186339E+00
        -11   -1    0    0    0    0  0.00000000000E+00  0.00000000000E+00  0.45593999997E+02  0.45594000000E+02  0.51100000000E-03 0.  1.
         11   -1    0    0    0    0 -0.00000000000E+00 -0.00000000000E+00 -0.45593999997E+02  0.45594000000E+02  0.51100000000E-03 0. -1.
    9900012    2    1    2    0    0 -0.56873312686E+00  0.88451337059E+00  0.53614133301E+00  0.90007631921E+02  0.89999891863E+02 0.  0.
         12    1    1    2    0    0  0.56873312686E+00 -0.88451337059E+00 -0.53614133301E+00  0.11803680787E+01  0.00000000000E+00 0. -1.
         11    1    3    3    0    0 -0.22183407757E+01  0.23209463936E+02 -0.29319258189E+02  0.37459566909E+02  0.51100000000E-03 0. -1.
        -11    1    3    3    0    0 -0.14623948567E+01 -0.12539884117E+01 -0.84783066598E+01  0.86944102579E+01  0.51100000000E-03 0.  1.
        -12    1    3    3    0    0  0.31120025056E+01 -0.21070962154E+02  0.38333706182E+02  0.43853654754E+02  0.00000000000E+00 0.  1.
</event>
<event>
 7    1  0.1698110E-015  0.9000648E+02  0.7816164E-02  0.1186342E+00
        -11   -1    0    0    0    0  0.00000000000E+00  0.00000000000E+00  0.45593999997E+02  0.45594000000E+02  0.51100000000E-03 0. -1.
         11   -1    0    0    0    0 -0.00000000000E+00 -0.00000000000E+00 -0.45593999997E+02  0.45594000000E+02  0.51100000000E-03 0.  1.
    9900012    2    1    2    0    0  0.67947981793E+00 -0.26654799856E+00 -0.92910781541E+00  0.90006483182E+02  0.89998727951E+02 0.  0.
         12    1    1    2    0    0 -0.67947981793E+00  0.26654799856E+00  0.92910781541E+00  0.11815168180E+01  0.00000000000E+00 0. -1.
         11    1    3    3    0    0 -0.72905000856E+01 -0.35979708792E+02 -0.50027308143E+01  0.37050211230E+02  0.51100000000E-03 0. -1.
        -11    1    3    3    0    0  0.14247437266E+01 -0.64746140027E+01  0.76396919828E+01  0.10115108256E+02  0.51100000000E-03 0.  1.
        -12    1    3    3    0    0  0.65452361769E+01  0.42187774797E+02 -0.35660689839E+01  0.42841163697E+02  0.00000000000E+00 0.  1.
</event>
<event>
 7    1  0.1698110E-015  0.9000775E+02  0.7816164E-02  0.1186339E+00
        -11   -1    0    0    0    0  0.00000000000E+00  0.00000000000E+00  0.45593999997E+02  0.45594000000E+02  0.51100000000E-03 0. -1.
         11   -1    0    0    0    0 -0.00000000000E+00 -0.00000000000E+00 -0.45593999997E+02  0.45594000000E+02  0.51100000000E-03 0.  1.
    9900012    2    1    2    0    0  0.85077225724E+00  0.17292793722E-01 -0.81784378454E+00  0.90007753869E+02  0.90000015420E+02 0.  0.
         12    1    1    2    0    0 -0.85077225724E+00 -0.17292793722E-01  0.81784378454E+00  0.11802461312E+01  0.00000000000E+00 0. -1.
         11    1    3    3    0    0  0.18134144709E+02 -0.10998018742E+02  0.18790346824E+02  0.28335150513E+02  0.51100000000E-03 0. -1.
        -11    1    3    3    0    0 -0.21723199365E+02  0.13496830308E+01  0.14361712988E+02  0.26076384626E+02  0.51100000000E-03 0.  1.
        -12    1    3    3    0    0  0.44398269137E+01  0.96656285049E+01 -0.33969903597E+02  0.35596218729E+02  0.00000000000E+00 0.  1.
</event>
<event>
 7    1  0.1698110E-015  0.9000765E+02  0.7816164E-02  0.1186339E+00
        -11   -1    0    0    0    0  0.00000000000E+00  0.00000000000E+00  0.45593999997E+02  0.45594000000E+02  0.51100000000E-03 0. -1.
         11   -1    0    0    0    0 -0.00000000000E+00 -0.00000000000E+00 -0.45593999997E+02  0.45594000000E+02  0.51100000000E-03 0.  1.
    9900012    2    1    2    0    0  0.63584237653E+00  0.98180426166E+00  0.15805891874E+00  0.90007653543E+02  0.89999913770E+02 0.  0.
         12    1    1    2    0    0 -0.63584237653E+00 -0.98180426166E+00 -0.15805891874E+00  0.11803464567E+01  0.00000000000E+00 0. -1.
         11    1    3    3    0    0  0.79985803220E+01  0.39404841210E+01 -0.11310859983E+00  0.89172583282E+01  0.51100000000E-03 0. -1.
        -11    1    3    3    0    0 -0.22478904304E+02  0.27103503111E+02 -0.21269516216E+02  0.41137493117E+02  0.51100000000E-03 0.  1.
         12    1    3    3    0    0  0.15116166359E+02 -0.30062182970E+02  0.21540683735E+02  0.39952902098E+02  0.00000000000E+00 0. -1.
</event>
<event>
 7    1  0.1698110E-015  0.9000779E+02  0.7816164E-02  0.1186339E+00
        -11   -1    0    0    0    0  0.00000000000E+00  0.00000000000E+00  0.45593999997E+02  0.45594000000E+02  0.51100000000E-03 0. -1.
         11   -1    0    0    0    0 -0.00000000000E+00 -0.00000000000E+00 -0.45593999997E+02  0.45594000000E+02  0.51100000000E-03 0.  1.
    9900012    2    1    2    0    0  0.98902051670E+00  0.62458477207E+00 -0.15694177866E+00  0.90007788815E+02  0.90000050827E+02 0.  0.
         12    1    1    2    0    0 -0.98902051670E+00 -0.62458477207E+00  0.15694177866E+00  0.11802111853E+01  0.00000000000E+00 0. -1.
         11    1    3    3    0    0 -0.20723085813E+02  0.74679836831E+00  0.28646012006E+02  0.35363795011E+02  0.51100000000E-03 0. -1.
        -11    1    3    3    0    0 -0.88150525271E+01 -0.13001070782E+01  0.40449505342E+01  0.97855533597E+01  0.51100000000E-03 0.  1.
        -12    1    3    3    0    0  0.30527158857E+02  0.11778934820E+01 -0.32847904319E+02  0.44858440444E+02  0.00000000000E+00 0.  1.
</event>
<event>
 7    1  0.1698110E-015  0.9000791E+02  0.7816164E-02  0.1186339E+00
        -11   -1    0    0    0    0  0.00000000000E+00  0.00000000000E+00  0.45593999997E+02  0.45594000000E+02  0.51100000000E-03 0.  1.
         11   -1    0    0    0    0 -0.00000000000E+00 -0.00000000000E+00 -0.45593999997E+02  0.45594000000E+02  0.51100000000E-03 0. -1.
    9900012    2    1    2    0    0  0.28416062413E+00 -0.79257308357E+00  0.82686304570E+00  0.90007906000E+02  0.90000169559E+02 0.  0.
         12    1    1    2    0    0 -0.28416062413E+00  0.79257308357E+00 -0.82686304570E+00  0.11800940003E+01  0.00000000000E+00 0. -1.
         11    1    3    3    0    0 -0.37271733020E+01 -0.30099063672E+01 -0.10522765861E+02  0.11562004964E+02  0.51100000000E-03 0. -1.
        -11    1    3    3    0    0 -0.94179417565E+01  0.38002690691E+02  0.26224496054E+01  0.39240022539E+02  0.51100000000E-03 0.  1.
         12    1    3    3    0    0  0.13429275683E+02 -0.35785357407E+02  0.87271793011E+01  0.39205878497E+02  0.00000000000E+00 0. -1.
</event>
<event>
 7    1  0.1698110E-015  0.9000772E+02  0.7816164E-02  0.1186339E+00
        -11   -1    0    0    0    0  0.00000000000E+00  0.00000000000E+00  0.45593999997E+02  0.45594000000E+02  0.51100000000E-03 0.  1.
         11   -1    0    0    0    0 -0.00000000000E+00 -0.00000000000E+00 -0.45593999997E+02  0.45594000000E+02  0.51100000000E-03 0. -1.
    9900012    2    1    2    0    0 -0.30174045662E+00 -0.11146942095E+01 -0.24387107261E+00  0.90007718854E+02  0.89999979943E+02 0.  0.
         12    1    1    2    0    0  0.30174045662E+00  0.11146942095E+01  0.24387107261E+00  0.11802811461E+01  0.00000000000E+00 0. -1.
         11    1    3    3    0    0 -0.25587682477E+02  0.30336392015E+02 -0.17012045157E+02  0.43179113652E+02  0.51100000000E-03 0. -1.
        -11    1    3    3    0    0  0.45151615928E+00 -0.63129788484E+01  0.83950963888E+01  0.10513572771E+02  0.51100000000E-03 0.  1.
        -12    1    3    3    0    0  0.24834425862E+02 -0.25138107376E+02  0.83730776958E+01  0.36315032431E+02  0.00000000000E+00 0.  1.
</event>
<event>
 7    1  0.1698110E-015  0.9000776E+02  0.7816164E-02  0.1186339E+00
        -11   -1    0    0    0    0  0.00000000000E+00  0.00000000000E+00  0.45593999997E+02  0.45594000000E+02  0.51100000000E-03 0. -1.
         11   -1    0    0    0    0 -0.00000000000E+00 -0.00000000000E+00 -0.45593999997E+02  0.45594000000E+02  0.51100000000E-03 0.  1.
    9900012    2    1    2    0    0 -0.10714260496E+01  0.48325640404E+00  0.10709696129E+00  0.90007762612E+02  0.90000024279E+02 0.  0.
         12    1    1    2    0    0  0.10714260496E+01 -0.48325640404E+00 -0.10709696129E+00  0.11802373875E+01  0.00000000000E+00 0. -1.
         11    1    3    3    0    0  0.77100240171E+01  0.21757416260E+02  0.29716483045E+02  0.37628433365E+02  0.51100000000E-03 0. -1.
        -11    1    3    3    0    0 -0.46681547302E+01 -0.23624023374E+01  0.83022823095E+01  0.98132820808E+01  0.51100000000E-03 0.  1.
        -12    1    3    3    0    0 -0.41132953365E+01 -0.18911757519E+02 -0.37911668394E+02  0.42566047166E+02  0.00000000000E+00 0.  1.
</event>
<event>
 7    1  0.1698110E-015  0.9000785E+02  0.7816164E-02  0.1186339E+00
        -11   -1    0    0    0    0  0.00000000000E+00  0.00000000000E+00  0.45593999997E+02  0.45594000000E+02  0.51100000000E-03 0.  1.
         11   -1    0    0    0    0 -0.00000000000E+00 -0.00000000000E+00 -0.45593999997E+02  0.45594000000E+02  0.51100000000E-03 0. -1.
    9900012    2    1    2    0    0 -0.76046489839E+00  0.80399276194E+00  0.40992525807E+00  0.90007851730E+02  0.90000114572E+02 0.  0.
         12    1    1    2    0    0  0.76046489839E+00 -0.80399276194E+00 -0.40992525807E+00  0.11801482704E+01  0.00000000000E+00 0. -1.
         11    1    3    3    0    0 -0.89426157486E+00  0.79648884695E+00 -0.95075499956E+01  0.95826721444E+01  0.51100000000E-03 0. -1.
        -11    1    3    3    0    0  0.91092119128E+01 -0.38859385297E+02  0.55580852656E+01  0.40297914082E+02  0.51100000000E-03 0.  1.
         12    1    3    3    0    0 -0.89754152364E+01  0.38866889212E+02  0.43593899880E+01  0.40127265503E+02  0.00000000000E+00 0. -1.
</event>
<event>
 7    1  0.1698110E-015  0.9000758E+02  0.7816164E-02  0.1186339E+00
        -11   -1    0    0    0    0  0.00000000000E+00  0.00000000000E+00  0.45593999997E+02  0.45594000000E+02  0.51100000000E-03 0.  1.
         11   -1    0    0    0    0 -0.00000000000E+00 -0.00000000000E+00 -0.45593999997E+02  0.45594000000E+02  0.51100000000E-03 0. -1.
    9900012    2    1    2    0    0  0.39580774451E+00 -0.85434016297E+00  0.71192461389E+00  0.90007577389E+02  0.89999836610E+02 0.  0.
         12    1    1    2    0    0 -0.39580774451E+00  0.85434016297E+00 -0.71192461389E+00  0.11804226110E+01  0.00000000000E+00 0. -1.
         11    1    3    3    0    0 -0.34918424805E+01  0.38209742878E+01  0.85834090975E+01  0.10023358739E+02  0.51100000000E-03 0. -1.
        -11    1    3    3    0    0 -0.25895867572E+02 -0.16257981349E+02  0.20857172918E+02  0.37012694812E+02  0.51100000000E-03 0.  1.
         12    1    3    3    0    0  0.29783517797E+02  0.11582666898E+02 -0.28728657402E+02  0.42971523838E+02  0.00000000000E+00 0. -1.
</event>
<event>
 7    1  0.1698110E-015  0.9000814E+02  0.7816164E-02  0.1186338E+00
        -11   -1    0    0    0    0  0.00000000000E+00  0.00000000000E+00  0.45593999997E+02  0.45594000000E+02  0.51100000000E-03 0. -1.
         11   -1    0    0    0    0 -0.00000000000E+00 -0.00000000000E+00 -0.45593999997E+02  0.45594000000E+02  0.51100000000E-03 0.  1.
    9900012    2    1    2    0    0 -0.30490280182E+00  0.10652249784E+01 -0.40545385951E+00  0.90008142888E+02  0.90000409573E+02 0.  0.
         12    1    1    2    0    0  0.30490280182E+00 -0.10652249784E+01  0.40545385951E+00  0.11798571123E+01  0.00000000000E+00 0. -1.
         11    1    3    3    0    0 -0.43240086139E+01  0.32318262671E+02  0.25734511553E+02  0.41538322519E+02  0.51100000000E-03 0. -1.
        -11    1    3    3    0    0 -0.65779552268E+01  0.68900833286E+00 -0.74955414579E+01  0.99963678132E+01  0.51100000000E-03 0.  1.
        -12    1    3    3    0    0  0.10597061039E+02 -0.31942046026E+02 -0.18644423954E+02  0.38473452556E+02  0.00000000000E+00 0.  1.
</event>
<event>
 7    1  0.1698110E-015  0.9000768E+02  0.7816164E-02  0.1186339E+00
        -11   -1    0    0    0    0  0.00000000000E+00  0.00000000000E+00  0.45593999997E+02  0.45594000000E+02  0.51100000000E-03 0. -1.
         11   -1    0    0    0    0 -0.00000000000E+00 -0.00000000000E+00 -0.45593999997E+02  0.45594000000E+02  0.51100000000E-03 0.  1.
    9900012    2    1    2    0    0  0.11175504541E+01 -0.37883565446E+00  0.26700828684E-01  0.90007682922E+02  0.89999943536E+02 0.  0.
         12    1    1    2    0    0 -0.11175504541E+01  0.37883565446E+00 -0.26700828684E-01  0.11803170781E+01  0.00000000000E+00 0. -1.
         11    1    3    3    0    0  0.11502567830E+01  0.40792695687E+01  0.43040936088E+01  0.60405921014E+01  0.51100000000E-03 0. -1.
        -11    1    3    3    0    0  0.82739895090E+01  0.34950345947E+02  0.15476659642E+02  0.39108983343E+02  0.51100000000E-03 0.  1.
         12    1    3    3    0    0 -0.83066958379E+01 -0.39408451170E+02 -0.19754052422E+02  0.44858107477E+02  0.00000000000E+00 0. -1.
</event>
<event>
 7    1  0.1698110E-015  0.9000774E+02  0.7816164E-02  0.1186339E+00
        -11   -1    0    0    0    0  0.00000000000E+00  0.00000000000E+00  0.45593999997E+02  0.45594000000E+02  0.51100000000E-03 0.  1.
         11   -1    0    0    0    0 -0.00000000000E+00 -0.00000000000E+00 -0.45593999997E+02  0.45594000000E+02  0.51100000000E-03 0. -1.
    9900012    2    1    2    0    0 -0.57614987721E+00  0.28204921690E-01  0.10296941038E+01  0.90007739797E+02  0.90000001163E+02 0.  0.
         12    1    1    2    0    0  0.57614987721E+00 -0.28204921690E-01 -0.10296941038E+01  0.11802602027E+01  0.00000000000E+00 0. -1.
         11    1    3    3    0    0  0.28108729331E+02 -0.11343603642E+02 -0.63615709789E+01  0.30971722487E+02  0.51100000000E-03 0. -1.
        -11    1    3    3    0    0  0.72744493401E+01  0.63795384999E+01 -0.13909868548E+02  0.16944042256E+02  0.51100000000E-03 0.  1.
        -12    1    3    3    0    0 -0.35959328549E+02  0.49922700638E+01  0.21301133631E+02  0.42091975055E+02  0.00000000000E+00 0.  1.
</event>
<event>
 7    1  0.1698110E-015  0.9000724E+02  0.7816164E-02  0.1186340E+00
        -11   -1    0    0    0    0  0.00000000000E+00  0.00000000000E+00  0.45593999997E+02  0.45594000000E+02  0.51100000000E-03 0. -1.
         11   -1    0    0    0    0 -0.00000000000E+00 -0.00000000000E+00 -0.45593999997E+02  0.45594000000E+02  0.51100000000E-03 0.  1.
    9900012    2    1    2    0    0 -0.41030467822E+00 -0.51869706792E+00 -0.97815665769E+00  0.90007243029E+02  0.89999497836E+02 0.  0.
         12    1    1    2    0    0  0.41030467822E+00  0.51869706792E+00  0.97815665769E+00  0.11807569708E+01  0.00000000000E+00 0. -1.
         11    1    3    3    0    0  0.39299125156E+01 -0.40568101442E+02 -0.55473599946E+00  0.40761781110E+02  0.51100000000E-03 0. -1.
        -11    1    3    3    0    0 -0.61277592674E+01  0.43496125962E+00  0.65524234653E+01  0.89818081958E+01  0.51100000000E-03 0.  1.
        -12    1    3    3    0    0  0.17875420736E+01  0.39614443114E+02 -0.69758441235E+01  0.40263653723E+02  0.00000000000E+00 0.  1.
</event>
<event>
 7    1  0.1698110E-015  0.9000777E+02  0.7816164E-02  0.1186339E+00
        -11   -1    0    0    0    0  0.00000000000E+00  0.00000000000E+00  0.45593999997E+02  0.45594000000E+02  0.51100000000E-03 0. -1.
         11   -1    0    0    0    0 -0.00000000000E+00 -0.00000000000E+00 -0.45593999997E+02  0.45594000000E+02  0.51100000000E-03 0.  1.
    9900012    2    1    2    0    0 -0.38037678770E-02  0.11278923609E+01  0.34754094156E+00  0.90007771059E+02  0.90000032837E+02 0.  0.
         12    1    1    2    0    0  0.38037678770E-02 -0.11278923609E+01 -0.34754094156E+00  0.11802289407E+01  0.00000000000E+00 0. -1.
         11    1    3    3    0    0  0.14702106312E+02  0.22965276414E+02  0.30728899219E+02  0.41083099910E+02  0.51100000000E-03 0. -1.
        -11    1    3    3    0    0  0.65451084595E+01  0.15498496133E+01 -0.59754452622E+01  0.89970231139E+01  0.51100000000E-03 0.  1.
        -12    1    3    3    0    0 -0.21251018539E+02 -0.23387233666E+02 -0.24405913015E+02  0.39927648035E+02  0.00000000000E+00 0.  1.
</event>
<event>
 7    1  0.1698110E-015  0.9000772E+02  0.7816164E-02  0.1186339E+00
        -11   -1    0    0    0    0  0.00000000000E+00  0.00000000000E+00  0.45593999997E+02  0.45594000000E+02  0.51100000000E-03 0. -1.
         11   -1    0    0    0    0 -0.00000000000E+00 -0.00000000000E+00 -0.45593999997E+02  0.45594000000E+02  0.51100000000E-03 0.  1.
    9900012    2    1    2    0    0 -0.87161728033E+00  0.35005456089E+00 -0.71470462640E+00  0.90007721396E+02  0.89999982519E+02 0.  0.
         12    1    1    2    0    0  0.87161728033E+00 -0.35005456089E+00  0.71470462640E+00  0.11802786035E+01  0.00000000000E+00 0. -1.
         11    1    3    3    0    0  0.74776661204E+01  0.59504184161E+01  0.21306495871E+01  0.97909467295E+01  0.51100000000E-03 0. -1.
        -11    1    3    3    0    0  0.20169066159E+02  0.23206959434E+02  0.16946128313E+02  0.35107341981E+02  0.51100000000E-03 0.  1.
         12    1    3    3    0    0 -0.28518349560E+02 -0.28807323289E+02 -0.19791482526E+02  0.45109432686E+02  0.00000000000E+00 0. -1.
</event>
<event>
 7    1  0.1698110E-015  0.9000774E+02  0.7816164E-02  0.1186339E+00
        -11   -1    0    0    0    0  0.00000000000E+00  0.00000000000E+00  0.45593999997E+02  0.45594000000E+02  0.51100000000E-03 0.  1.
         11   -1    0    0    0    0 -0.00000000000E+00 -0.00000000000E+00 -0.45593999997E+02  0.45594000000E+02  0.51100000000E-03 0. -1.
    9900012    2    1    2    0    0 -0.24679163443E+00 -0.16679060625E+00  0.11420510548E+01  0.90007743321E+02  0.90000004733E+02 0.  0.
         12    1    1    2    0    0  0.24679163443E+00  0.16679060625E+00 -0.11420510548E+01  0.11802566792E+01  0.00000000000E+00 0. -1.
         11    1    3    3    0    0 -0.24270444955E+01 -0.10523687366E+02  0.18579659322E+01  0.10958584691E+02  0.51100000000E-03 0. -1.
        -11    1    3    3    0    0 -0.19435285174E+02  0.33287495739E+02  0.17845387932E+02  0.42476411726E+02  0.51100000000E-03 0.  1.
         12    1    3    3    0    0  0.21615538035E+02 -0.22930598980E+02 -0.18561302809E+02  0.36572746904E+02  0.00000000000E+00 0. -1.
</event>
<event>
 7    1  0.1698110E-015  0.9000774E+02  0.7816164E-02  0.1186339E+00
        -11   -1    0    0    0    0  0.00000000000E+00  0.00000000000E+00  0.45593999997E+02  0.45594000000E+02  0.51100000000E-03 0. -1.
         11   -1    0    0    0    0 -0.00000000000E+00 -0.00000000000E+00 -0.45593999997E+02  0.45594000000E+02  0.51100000000E-03 0.  1.
    9900012    2    1    2    0    0  0.84270041403E+00 -0.82633728527E+00 -0.55508214326E-02  0.90007742355E+02  0.90000003754E+02 0.  0.
         12    1    1    2    0    0 -0.84270041403E+00  0.82633728527E+00  0.55508214326E-02  0.11802576449E+01  0.00000000000E+00 0. -1.
         11    1    3    3    0    0 -0.58545296004E+01  0.27250318192E+01  0.74350341996E+01  0.98478956670E+01  0.51100000000E-03 0. -1.
        -11    1    3    3    0    0  0.39239896478E+02  0.91071350452E+01 -0.17353971250E+02  0.43861939112E+02  0.51100000000E-03 0.  1.
         12    1    3    3    0    0 -0.32542666463E+02 -0.12658504150E+02  0.99133862287E+01  0.36297907576E+02  0.00000000000E+00 0. -1.
</event>
<event>
 7    1  0.1698110E-015  0.9000777E+02  0.7816164E-02  0.1186339E+00
        -11   -1    0    0    0    0  0.00000000000E+00  0.00000000000E+00  0.45593999997E+02  0.45594000000E+02  0.51100000000E-03 0.  1.
         11   -1    0    0    0    0 -0.00000000000E+00 -0.00000000000E+00 -0.45593999997E+02  0.45594000000E+02  0.51100000000E-03 0. -1.
    9900012    2    1    2    0    0  0.44489225840E+00 -0.61040610130E+00  0.90687786644E+00  0.90007766042E+02  0.90000027754E+02 0.  0.
         12    1    1    2    0    0 -0.44489225840E+00  0.61040610130E+00 -0.90687786644E+00  0.11802339576E+01  0.00000000000E+00 0. -1.
         11    1    3    3    0    0 -0.12401068270E+02  0.70703356049E+00 -0.99127743091E+01  0.15891805607E+02  0.51100000000E-03 0. -1.
        -11    1    3    3    0    0 -0.21353952102E+02  0.10272265501E+02 -0.16466444316E+02  0.28855753284E+02  0.51100000000E-03 0.  1.
        -12    1    3    3    0    0  0.34199912630E+02 -0.11589705163E+02  0.27286096492E+02  0.45260207152E+02  0.00000000000E+00 0.  1.
</event>
<event>
 7    1  0.1698110E-015  0.9000784E+02  0.7816164E-02  0.1186339E+00
        -11   -1    0    0    0    0  0.00000000000E+00  0.00000000000E+00  0.45593999997E+02  0.45594000000E+02  0.51100000000E-03 0.  1.
         11   -1    0    0    0    0 -0.00000000000E+00 -0.00000000000E+00 -0.45593999997E+02  0.45594000000E+02  0.51100000000E-03 0. -1.
    9900012    2    1    2    0    0 -0.42816251338E+00 -0.10102148791E+00  0.10951002075E+01  0.90007841984E+02  0.90000104698E+02 0.  0.
         12    1    1    2    0    0  0.42816251338E+00  0.10102148791E+00 -0.10951002075E+01  0.11801580163E+01  0.00000000000E+00 0. -1.
         11    1    3    3    0    0 -0.98307801966E+01 -0.56894361130E+00  0.37170562158E+02  0.38452810398E+02  0.51100000000E-03 0. -1.
        -11    1    3    3    0    0  0.84357981298E+01  0.51061948784E+01  0.44037452559E+01  0.10799485579E+02  0.51100000000E-03 0.  1.
        -12    1    3    3    0    0  0.96681955334E+00 -0.46382727550E+01 -0.40479207207E+02  0.40755546007E+02  0.00000000000E+00 0.  1.
</event>
<event>
 7    1  0.1698110E-015  0.9000772E+02  0.7816164E-02  0.1186339E+00
        -11   -1    0    0    0    0  0.00000000000E+00  0.00000000000E+00  0.45593999997E+02  0.45594000000E+02  0.51100000000E-03 0.  1.
         11   -1    0    0    0    0 -0.00000000000E+00 -0.00000000000E+00 -0.45593999997E+02  0.45594000000E+02  0.51100000000E-03 0. -1.
    9900012    2    1    2    0    0  0.62493624320E+00  0.40926909852E+00  0.91378627063E+00  0.90007723824E+02  0.89999984979E+02 0.  0.
         12    1    1    2    0    0 -0.62493624320E+00 -0.40926909852E+00 -0.91378627063E+00  0.11802761759E+01  0.00000000000E+00 0. -1.
         11    1    3    3    0    0  0.65643616149E+01  0.47696158989E+00 -0.53580069562E+01  0.84868471515E+01  0.51100000000E-03 0. -1.
        -11    1    3    3    0    0  0.37030474227E+02 -0.57312590831E+00 -0.42518944660E+01  0.37278185331E+02  0.51100000000E-03 0.  1.
         12    1    3    3    0    0 -0.42969899599E+02  0.50543341694E+00  0.10523687693E+02  0.44242691341E+02  0.00000000000E+00 0. -1.
</event>
<event>
 7    1  0.1698110E-015  0.9000790E+02  0.7816164E-02  0.1186339E+00
        -11   -1    0    0    0    0  0.00000000000E+00  0.00000000000E+00  0.45593999997E+02  0.45594000000E+02  0.51100000000E-03 0.  1.
         11   -1    0    0    0    0 -0.00000000000E+00 -0.00000000000E+00 -0.45593999997E+02  0.45594000000E+02  0.51100000000E-03 0. -1.
    9900012    2    1    2    0    0 -0.17815252460E+00  0.73017250150E+00  0.90980390866E+00  0.90007901124E+02  0.90000164619E+02 0.  0.
         12    1    1    2    0    0  0.17815252460E+00 -0.73017250150E+00 -0.90980390866E+00  0.11800988756E+01  0.00000000000E+00 0. -1.
         11    1    3    3    0    0 -0.22305390911E+02  0.22567463263E+02 -0.17603878660E+02  0.36286600914E+02  0.51100000000E-03 0. -1.
        -11    1    3    3    0    0  0.12544371761E+01  0.48973526828E+01 -0.88162237349E+01  0.10162847885E+02  0.51100000000E-03 0.  1.
        -12    1    3    3    0    0  0.20872801210E+02 -0.26734643444E+02  0.27329906303E+02  0.43558452325E+02  0.00000000000E+00 0.  1.
</event>
<event>
 7    1  0.1698110E-015  0.9000763E+02  0.7816164E-02  0.1186339E+00
        -11   -1    0    0    0    0  0.00000000000E+00  0.00000000000E+00  0.45593999997E+02  0.45594000000E+02  0.51100000000E-03 0. -1.
         11   -1    0    0    0    0 -0.00000000000E+00 -0.00000000000E+00 -0.45593999997E+02  0.45594000000E+02  0.51100000000E-03 0.  1.
    9900012    2    1    2    0    0  0.13884198705E+00  0.78828840387E+00  0.86752424875E+00  0.90007629708E+02  0.89999889620E+02 0.  0.
         12    1    1    2    0    0 -0.13884198705E+00 -0.78828840387E+00 -0.86752424875E+00  0.11803702924E+01  0.00000000000E+00 0. -1.
         11    1    3    3    0    0 -0.31853530529E+02  0.12635030725E+02 -0.21908603409E+02  0.40672820312E+02  0.51100000000E-03 0. -1.
        -11    1    3    3    0    0  0.38558833681E+01  0.82925761785E+01  0.42217959875E+01  0.10072647013E+02  0.51100000000E-03 0.  1.
        -12    1    3    3    0    0  0.28136489148E+02 -0.20139318499E+02  0.18554331670E+02  0.39262162382E+02  0.00000000000E+00 0.  1.
</event>
<event>
 7    1  0.1698110E-015  0.9000772E+02  0.7816164E-02  0.1186339E+00
        -11   -1    0    0    0    0  0.00000000000E+00  0.00000000000E+00  0.45593999997E+02  0.45594000000E+02  0.51100000000E-03 0.  1.
         11   -1    0    0    0    0 -0.00000000000E+00 -0.00000000000E+00 -0.45593999997E+02  0.45594000000E+02  0.51100000000E-03 0. -1.
    9900012    2    1    2    0    0  0.21840092077E+00  0.10133353199E+01  0.56437900195E+00  0.90007715674E+02  0.89999976721E+02 0.  0.
         12    1    1    2    0    0 -0.21840092077E+00 -0.10133353199E+01 -0.56437900195E+00  0.11802843262E+01  0.00000000000E+00 0. -1.
         11    1    3    3    0    0  0.90133060537E+01 -0.30241366911E+02  0.12209854665E+01  0.31579594114E+02  0.51100000000E-03 0. -1.
        -11    1    3    3    0    0 -0.19064897014E+02 -0.11018935216E+01 -0.12095931652E+02  0.22605221305E+02  0.51100000000E-03 0.  1.
        -12    1    3    3    0    0  0.10269991881E+02  0.32356595752E+02  0.11439325187E+02  0.35822900254E+02  0.00000000000E+00 0.  1.
</event>
<event>
 7    1  0.1698110E-015  0.9000773E+02  0.7816164E-02  0.1186339E+00
        -11   -1    0    0    0    0  0.00000000000E+00  0.00000000000E+00  0.45593999997E+02  0.45594000000E+02  0.51100000000E-03 0.  1.
         11   -1    0    0    0    0 -0.00000000000E+00 -0.00000000000E+00 -0.45593999997E+02  0.45594000000E+02  0.51100000000E-03 0. -1.
    9900012    2    1    2    0    0 -0.73073965714E+00  0.20232035911E+00  0.90450341563E+00  0.90007728674E+02  0.89999989892E+02 0.  0.
         12    1    1    2    0    0  0.73073965714E+00 -0.20232035911E+00 -0.90450341563E+00  0.11802713261E+01  0.00000000000E+00 0. -1.
         11    1    3    3    0    0  0.39287348072E+01  0.30225604613E+01  0.83971729719E+01  0.97510688188E+01  0.51100000000E-03 0. -1.
        -11    1    3    3    0    0  0.20809339163E+02  0.24383997738E+02  0.16381412470E+02  0.35999425230E+02  0.51100000000E-03 0.  1.
         12    1    3    3    0    0 -0.25468813628E+02 -0.27204237840E+02 -0.23874082026E+02  0.44257234625E+02  0.00000000000E+00 0. -1.
</event>
<event>
 7    1  0.1698110E-015  0.9000781E+02  0.7816164E-02  0.1186339E+00
        -11   -1    0    0    0    0  0.00000000000E+00  0.00000000000E+00  0.45593999997E+02  0.45594000000E+02  0.51100000000E-03 0. -1.
         11   -1    0    0    0    0 -0.00000000000E+00 -0.00000000000E+00 -0.45593999997E+02  0.45594000000E+02  0.51100000000E-03 0.  1.
    9900012    2    1    2    0    0 -0.27560705270E+00  0.58104132709E+00 -0.98958905420E+00  0.90007807318E+02  0.90000069574E+02 0.  0.
         12    1    1    2    0    0  0.27560705270E+00 -0.58104132709E+00  0.98958905420E+00  0.11801926824E+01  0.00000000000E+00 0. -1.
         11    1    3    3    0    0 -0.28986495656E+01  0.46337338876E+01  0.11502853831E+02  0.12735356515E+02  0.51100000000E-03 0. -1.
        -11    1    3    3    0    0  0.27930127813E+01  0.17644386148E+02  0.26904795339E+02  0.32295406724E+02  0.51100000000E-03 0.  1.
         12    1    3    3    0    0 -0.16997026836E+00 -0.21697078709E+02 -0.39397238224E+02  0.44977044079E+02  0.00000000000E+00 0. -1.
</event>
<event>
 7    1  0.1698110E-015  0.9000774E+02  0.7816164E-02  0.1186339E+00
        -11   -1    0    0    0    0  0.00000000000E+00  0.00000000000E+00  0.45593999997E+02  0.45594000000E+02  0.51100000000E-03 0.  1.
         11   -1    0    0    0    0 -0.00000000000E+00 -0.00000000000E+00 -0.45593999997E+02  0.45594000000E+02  0.51100000000E-03 0. -1.
    9900012    2    1    2    0    0  0.11788942141E+01  0.48692922446E-01 -0.29197675175E-01  0.90007739405E+02  0.90000000765E+02 0.  0.
         12    1    1    2    0    0 -0.11788942141E+01 -0.48692922446E-01  0.29197675175E-01  0.11802605953E+01  0.00000000000E+00 0. -1.
         11    1    3    3    0    0 -0.82069359054E+01 -0.12113747397E+02 -0.32637794440E+02  0.35767615228E+02  0.51100000000E-03 0. -1.
        -11    1    3    3    0    0 -0.23475824173E+01 -0.67279561105E+01 -0.62434630960E+01  0.94740365379E+01  0.51100000000E-03 0.  1.
        -12    1    3    3    0    0  0.11733412537E+02  0.18890396430E+02  0.38852059861E+02  0.44766087638E+02  0.00000000000E+00 0.  1.
</event>
<event>
 7    1  0.1698110E-015  0.9000774E+02  0.7816164E-02  0.1186339E+00
        -11   -1    0    0    0    0  0.00000000000E+00  0.00000000000E+00  0.45593999997E+02  0.45594000000E+02  0.51100000000E-03 0.  1.
         11   -1    0    0    0    0 -0.00000000000E+00 -0.00000000000E+00 -0.45593999997E+02  0.45594000000E+02  0.51100000000E-03 0. -1.
    9900012    2    1    2    0    0 -0.40669531631E+00  0.78982779174E+00  0.77703830221E+00  0.90007738358E+02  0.89999999704E+02 0.  0.
         12    1    1    2    0    0  0.40669531631E+00 -0.78982779174E+00 -0.77703830221E+00  0.11802616422E+01  0.00000000000E+00 0. -1.
         11    1    3    3    0    0 -0.81111263760E+01 -0.50992735853E+01  0.13710281343E+02  0.16726170421E+02  0.51100000000E-03 0. -1.
        -11    1    3    3    0    0  0.18440390647E+02 -0.26232851517E+02  0.85349241172E+01  0.33182155383E+02  0.51100000000E-03 0.  1.
         12    1    3    3    0    0 -0.10735959587E+02  0.32121952894E+02 -0.21468167158E+02  0.40099412553E+02  0.00000000000E+00 0. -1.
</event>
<event>
 7    1  0.1698110E-015  0.9000785E+02  0.7816164E-02  0.1186339E+00
        -11   -1    0    0    0    0  0.00000000000E+00  0.00000000000E+00  0.45593999997E+02  0.45594000000E+02  0.51100000000E-03 0. -1.
         11   -1    0    0    0    0 -0.00000000000E+00 -0.00000000000E+00 -0.45593999997E+02  0.45594000000E+02  0.51100000000E-03 0.  1.
    9900012    2    1    2    0    0 -0.95230733100E+00 -0.36413673760E+00 -0.59435652147E+00  0.90007854038E+02  0.90000116912E+02 0.  0.
         12    1    1    2    0    0  0.95230733100E+00  0.36413673760E+00  0.59435652147E+00  0.11801459617E+01  0.00000000000E+00 0. -1.
         11    1    3    3    0    0  0.48278005260E+01  0.63939490966E+01 -0.67300623040E+01  0.10463459363E+02  0.51100000000E-03 0. -1.
        -11    1    3    3    0    0  0.29340654502E+02 -0.10730986838E+02 -0.18641164097E+02  0.36380229305E+02  0.51100000000E-03 0.  1.
         12    1    3    3    0    0 -0.35120762359E+02  0.39729010034E+01  0.24776869880E+02  0.43164165370E+02  0.00000000000E+00 0. -1.
</event>
<event>
 7    1  0.1698110E-015  0.9000791E+02  0.7816164E-02  0.1186339E+00
        -11   -1    0    0    0    0  0.00000000000E+00  0.00000000000E+00  0.45593999997E+02  0.45594000000E+02  0.51100000000E-03 0.  1.
         11   -1    0    0    0    0 -0.00000000000E+00 -0.00000000000E+00 -0.45593999997E+02  0.45594000000E+02  0.51100000000E-03 0. -1.
    9900012    2    1    2    0    0  0.10933487050E+01  0.19218011282E+00 -0.40032149878E+00  0.90007914457E+02  0.90000178128E+02 0.  0.
         12    1    1    2    0    0 -0.10933487050E+01 -0.19218011282E+00  0.40032149878E+00  0.11800855431E+01  0.00000000000E+00 0. -1.
         11    1    3    3    0    0  0.86343189811E+01  0.28267127914E+02 -0.20107160550E+02  0.35747445929E+02  0.51100000000E-03 0. -1.
        -11    1    3    3    0    0  0.51312762628E+01  0.20805883895E+01 -0.91144318390E+01  0.10664507121E+02  0.51100000000E-03 0.  1.
        -12    1    3    3    0    0 -0.12672246539E+02 -0.30155536191E+02  0.28821270890E+02  0.43595961407E+02  0.00000000000E+00 0.  1.
</event>
<event>
 7    1  0.1698110E-015  0.9000784E+02  0.7816164E-02  0.1186339E+00
        -11   -1    0    0    0    0  0.00000000000E+00  0.00000000000E+00  0.45593999997E+02  0.45594000000E+02  0.51100000000E-03 0.  1.
         11   -1    0    0    0    0 -0.00000000000E+00 -0.00000000000E+00 -0.45593999997E+02  0.45594000000E+02  0.51100000000E-03 0. -1.
    9900012    2    1    2    0    0  0.42828578188E-02  0.62824693335E+00  0.99902852474E+00  0.90007843000E+02  0.90000105727E+02 0.  0.
         12    1    1    2    0    0 -0.42828578188E-02 -0.62824693335E+00 -0.99902852474E+00  0.11801570003E+01  0.00000000000E+00 0. -1.
         11    1    3    3    0    0  0.36407203365E+01  0.31759625044E+02 -0.25400900049E+02  0.40830556585E+02  0.51100000000E-03 0. -1.
        -11    1    3    3    0    0  0.10832351082E+02 -0.65257849624E+01  0.10903977946E+02  0.16697976963E+02  0.51100000000E-03 0.  1.
        -12    1    3    3    0    0 -0.14468788561E+02 -0.24605593148E+02  0.15495950628E+02  0.32479309452E+02  0.00000000000E+00 0.  1.
</event>
<event>
 7    1  0.1698110E-015  0.9000774E+02  0.7816164E-02  0.1186339E+00
        -11   -1    0    0    0    0  0.00000000000E+00  0.00000000000E+00  0.45593999997E+02  0.45594000000E+02  0.51100000000E-03 0. -1.
         11   -1    0    0    0    0 -0.00000000000E+00 -0.00000000000E+00 -0.45593999997E+02  0.45594000000E+02  0.51100000000E-03 0.  1.
    9900012    2    1    2    0    0 -0.71880955177E+00  0.93009852158E+00  0.10604360961E+00  0.90007739148E+02  0.90000000505E+02 0.  0.
         12    1    1    2    0    0  0.71880955177E+00 -0.93009852158E+00 -0.10604360961E+00  0.11802608520E+01  0.00000000000E+00 0. -1.
         11    1    3    3    0    0 -0.27920907041E+01  0.98509479623E+01 -0.49395799732E+00  0.10250899522E+02  0.51100000000E-03 0. -1.
        -11    1    3    3    0    0  0.16105150747E+00 -0.32059826183E+02  0.28891762085E+02  0.43157760705E+02  0.51100000000E-03 0.  1.
         12    1    3    3    0    0  0.19122296448E+01  0.23138976742E+02 -0.28291760478E+02  0.36599078920E+02  0.00000000000E+00 0. -1.
</event>
<event>
 7    1  0.1698110E-015  0.9000774E+02  0.7816164E-02  0.1186339E+00
        -11   -1    0    0    0    0  0.00000000000E+00  0.00000000000E+00  0.45593999997E+02  0.45594000000E+02  0.51100000000E-03 0.  1.
         11   -1    0    0    0    0 -0.00000000000E+00 -0.00000000000E+00 -0.45593999997E+02  0.45594000000E+02  0.51100000000E-03 0. -1.
    9900012    2    1    2    0    0 -0.82560454665E+00  0.83870715877E+00  0.89184999577E-01  0.90007743024E+02  0.90000004432E+02 0.  0.
         12    1    1    2    0    0  0.82560454665E+00 -0.83870715877E+00 -0.89184999577E-01  0.11802569762E+01  0.00000000000E+00 0. -1.
         11    1    3    3    0    0 -0.37965661046E+01  0.88330894400E+01 -0.48240903315E+00  0.96265311498E+01  0.51100000000E-03 0. -1.
        -11    1    3    3    0    0  0.18000564929E+02  0.11966838930E+02  0.32996273176E+02  0.39445907462E+02  0.51100000000E-03 0.  1.
         12    1    3    3    0    0 -0.15029603371E+02 -0.19961221211E+02 -0.32424679143E+02  0.40935304412E+02  0.00000000000E+00 0. -1.
</event>
<event>
 7    1  0.1698110E-015  0.9000776E+02  0.7816164E-02  0.1186339E+00
        -11   -1    0    0    0    0  0.00000000000E+00  0.00000000000E+00  0.45593999997E+02  0.45594000000E+02  0.51100000000E-03 0. -1.
         11   -1    0    0    0    0 -0.00000000000E+00 -0.00000000000E+00 -0.45593999997E+02  0.45594000000E+02  0.51100000000E-03 0.  1.
    9900012    2    1    2    0    0 -0.84899358193E+00  0.71087335609E+00  0.40845602613E+00  0.90007759619E+02  0.90000021246E+02 0.  0.
         12    1    1    2    0    0  0.84899358193E+00 -0.71087335609E+00 -0.40845602613E+00  0.11802403805E+01  0.00000000000E+00 0. -1.
         11    1    3    3    0    0  0.33527669777E+01  0.77921912709E+01 -0.63284824263E+01  0.10583429562E+02  0.51100000000E-03 0. -1.
        -11    1    3    3    0    0  0.32396421035E+02  0.56732597924E+01  0.19961678272E+02  0.38473140920E+02  0.51100000000E-03 0.  1.
         12    1    3    3    0    0 -0.36598181595E+02 -0.12754577707E+02 -0.13224739819E+02  0.40951189138E+02  0.00000000000E+00 0. -1.
</event>
<event>
 7    1  0.1698110E-015  0.9000788E+02  0.7816164E-02  0.1186339E+00
        -11   -1    0    0    0    0  0.00000000000E+00  0.00000000000E+00  0.45593999997E+02  0.45594000000E+02  0.51100000000E-03 0.  1.
         11   -1    0    0    0    0 -0.00000000000E+00 -0.00000000000E+00 -0.45593999997E+02  0.45594000000E+02  0.51100000000E-03 0. -1.
    9900012    2    1    2    0    0 -0.22422671483E+00 -0.77234609058E+00  0.86364850589E+00  0.90007879309E+02  0.90000142516E+02 0.  0.
         12    1    1    2    0    0  0.22422671483E+00  0.77234609058E+00 -0.86364850589E+00  0.11801206909E+01  0.00000000000E+00 0. -1.
         11    1    3    3    0    0  0.17511883817E+01  0.70736095185E+01  0.55893805094E+01  0.91838873637E+01  0.51100000000E-03 0. -1.
        -11    1    3    3    0    0 -0.79378472975E+01  0.30031448879E+02  0.18344204630E+02  0.36075021625E+02  0.51100000000E-03 0.  1.
         12    1    3    3    0    0  0.59624322009E+01 -0.37877404488E+02 -0.23069936633E+02  0.44748970321E+02  0.00000000000E+00 0. -1.
</event>
<event>
 7    1  0.1698110E-015  0.9000757E+02  0.7816164E-02  0.1186339E+00
        -11   -1    0    0    0    0  0.00000000000E+00  0.00000000000E+00  0.45593999997E+02  0.45594000000E+02  0.51100000000E-03 0.  1.
         11   -1    0    0    0    0 -0.00000000000E+00 -0.00000000000E+00 -0.45593999997E+02  0.45594000000E+02  0.51100000000E-03 0. -1.
    9900012    2    1    2    0    0  0.11247144149E+01 -0.93055696444E-01  0.34608122984E+00  0.90007570377E+02  0.89999829506E+02 0.  0.
         12    1    1    2    0    0 -0.11247144149E+01  0.93055696444E-01 -0.34608122984E+00  0.11804296232E+01  0.00000000000E+00 0. -1.
         11    1    3    3    0    0  0.10682954555E+02 -0.17259980394E+01 -0.80891273006E+00  0.10851678549E+02  0.51100000000E-03 0. -1.
        -11    1    3    3    0    0  0.25102177919E+01 -0.36711732780E+02 -0.86024429416E+01  0.37789608915E+02  0.51100000000E-03 0.  1.
         12    1    3    3    0    0 -0.12068457932E+02  0.38344675123E+02  0.97574369015E+01  0.41366282913E+02  0.00000000000E+00 0. -1.
</event>
<event>
 7    1  0.1698110E-015  0.9000778E+02  0.7816164E-02  0.1186339E+00
        -11   -1    0    0    0    0  0.00000000000E+00  0.00000000000E+00  0.45593999997E+02  0.45594000000E+02  0.51100000000E-03 0. -1.
         11   -1    0    0    0    0 -0.00000000000E+00 -0.00000000000E+00 -0.45593999997E+02  0.45594000000E+02  0.51100000000E-03 0.  1.
    9900012    2    1    2    0    0  0.86021320337E+00  0.80798740441E+00  0.99450228122E-02  0.90007784213E+02  0.90000046164E+02 0.  0.
         12    1    1    2    0    0 -0.86021320337E+00 -0.80798740441E+00 -0.99450228122E-02  0.11802157872E+01  0.00000000000E+00 0. -1.
         11    1    3    3    0    0 -0.19065151935E+02 -0.20422422992E+02  0.26158049440E+02  0.38272691700E+02  0.51100000000E-03 0. -1.
        -11    1    3    3    0    0 -0.71281221566E+01 -0.31021949343E+01 -0.76897771232E+01  0.10934642717E+02  0.51100000000E-03 0.  1.
        -12    1    3    3    0    0  0.27053487296E+02  0.24332605331E+02 -0.18458327294E+02  0.40800449796E+02  0.00000000000E+00 0.  1.
</event>
<event>
 7    1  0.1698110E-015  0.9000772E+02  0.7816164E-02  0.1186339E+00
        -11   -1    0    0    0    0  0.00000000000E+00  0.00000000000E+00  0.45593999997E+02  0.45594000000E+02  0.51100000000E-03 0.  1.
         11   -1    0    0    0    0 -0.00000000000E+00 -0.00000000000E+00 -0.45593999997E+02  0.45594000000E+02  0.51100000000E-03 0. -1.
    9900012    2    1    2    0    0  0.54624981153E+00  0.86805972755E+00  0.58408388796E+00  0.90007715909E+02  0.89999976959E+02 0.  0.
         12    1    1    2    0    0 -0.54624981153E+00 -0.86805972755E+00 -0.58408388796E+00  0.11802840910E+01  0.00000000000E+00 0. -1.
         11    1    3    3    0    0 -0.10606188101E+02 -0.27232169912E+02 -0.25969001469E+02  0.39095669091E+02  0.51100000000E-03 0. -1.
        -11    1    3    3    0    0  0.72425248319E+01 -0.49076407109E+01  0.65128713158E+00  0.87728717349E+01  0.51100000000E-03 0.  1.
        -12    1    3    3    0    0  0.39099130805E+01  0.33007870351E+02  0.25901798225E+02  0.42139175083E+02  0.00000000000E+00 0.  1.
</event>
<event>
 7    1  0.1698110E-015  0.9000770E+02  0.7816164E-02  0.1186339E+00
        -11   -1    0    0    0    0  0.00000000000E+00  0.00000000000E+00  0.45593999997E+02  0.45594000000E+02  0.51100000000E-03 0.  1.
         11   -1    0    0    0    0 -0.00000000000E+00 -0.00000000000E+00 -0.45593999997E+02  0.45594000000E+02  0.51100000000E-03 0. -1.
    9900012    2    1    2    0    0  0.80307383668E+00  0.81033077785E+00 -0.30258154764E+00  0.90007695315E+02  0.89999956093E+02 0.  0.
         12    1    1    2    0    0 -0.80307383668E+00 -0.81033077785E+00  0.30258154764E+00  0.11803046851E+01  0.00000000000E+00 0. -1.
         11    1    3    3    0    0  0.94038252915E+01  0.23788079444E+02  0.95945894184E+01  0.27319604684E+02  0.51100000000E-03 0. -1.
        -11    1    3    3    0    0  0.20098500172E+02  0.59352416634E+01 -0.94531983739E+00  0.20977855768E+02  0.51100000000E-03 0.  1.
        -12    1    3    3    0    0 -0.28699251626E+02 -0.28912990329E+02 -0.89518511286E+01  0.41710234863E+02  0.00000000000E+00 0.  1.
</event>
<event>
 7    1  0.1698110E-015  0.9000777E+02  0.7816164E-02  0.1186339E+00
        -11   -1    0    0    0    0  0.00000000000E+00  0.00000000000E+00  0.45593999997E+02  0.45594000000E+02  0.51100000000E-03 0. -1.
         11   -1    0    0    0    0 -0.00000000000E+00 -0.00000000000E+00 -0.45593999997E+02  0.45594000000E+02  0.51100000000E-03 0.  1.
    9900012    2    1    2    0    0 -0.43320115394E+00  0.76530707262E+00 -0.78713469785E+00  0.90007771553E+02  0.90000033337E+02 0.  0.
         12    1    1    2    0    0  0.43320115394E+00 -0.76530707262E+00  0.78713469785E+00  0.11802284473E+01  0.00000000000E+00 0. -1.
         11    1    3    3    0    0  0.94169104230E+01 -0.26815290059E+01  0.49462319091E+00  0.98037468392E+01  0.51100000000E-03 0. -1.
        -11    1    3    3    0    0  0.29162421385E+02 -0.13242947230E+02 -0.15327573248E+02  0.35507139765E+02  0.51100000000E-03 0.  1.
         12    1    3    3    0    0 -0.39012532962E+02  0.16689783308E+02  0.14045815359E+02  0.44696884948E+02  0.00000000000E+00 0. -1.
</event>
<event>
 7    1  0.1698110E-015  0.9000772E+02  0.7816164E-02  0.1186339E+00
        -11   -1    0    0    0    0  0.00000000000E+00  0.00000000000E+00  0.45593999997E+02  0.45594000000E+02  0.51100000000E-03 0. -1.
         11   -1    0    0    0    0 -0.00000000000E+00 -0.00000000000E+00 -0.45593999997E+02  0.45594000000E+02  0.51100000000E-03 0.  1.
    9900012    2    1    2    0    0 -0.58498085180E+00 -0.75036647467E+00 -0.69843871608E+00  0.90007716524E+02  0.89999977582E+02 0.  0.
         12    1    1    2    0    0  0.58498085180E+00  0.75036647467E+00  0.69843871608E+00  0.11802834759E+01  0.00000000000E+00 0. -1.
         11    1    3    3    0    0  0.55107454956E+01  0.59002111216E+01 -0.11125662563E+00  0.80742297152E+01  0.51100000000E-03 0. -1.
        -11    1    3    3    0    0  0.97667305362E+01 -0.27030776796E+02 -0.30840150546E+02  0.42156456274E+02  0.51100000000E-03 0.  1.
         12    1    3    3    0    0 -0.15862456884E+02  0.20380199200E+02  0.30252968456E+02  0.39777030535E+02  0.00000000000E+00 0. -1.
</event>
<event>
 7    1  0.1698110E-015  0.9000774E+02  0.7816164E-02  0.1186339E+00
        -11   -1    0    0    0    0  0.00000000000E+00  0.00000000000E+00  0.45593999997E+02  0.45594000000E+02  0.51100000000E-03 0. -1.
         11   -1    0    0    0    0 -0.00000000000E+00 -0.00000000000E+00 -0.45593999997E+02  0.45594000000E+02  0.51100000000E-03 0.  1.
    9900012    2    1    2    0    0 -0.28443848863E-01  0.89459353131E+00 -0.76934831094E+00  0.90007744323E+02  0.90000005748E+02 0.  0.
         12    1    1    2    0    0  0.28443848863E-01 -0.89459353131E+00  0.76934831094E+00  0.11802556767E+01  0.00000000000E+00 0. -1.
         11    1    3    3    0    0  0.15504156855E+01  0.49062033051E-01 -0.12968004733E+02  0.13060449567E+02  0.51100000000E-03 0. -1.
        -11    1    3    3    0    0  0.42960567626E+01  0.14110319080E+02 -0.29399423408E+02  0.32891994546E+02  0.51100000000E-03 0.  1.
         12    1    3    3    0    0 -0.58749162970E+01 -0.13264787582E+02  0.41598079830E+02  0.44055300210E+02  0.00000000000E+00 0. -1.
</event>
<event>
 7    1  0.1698110E-015  0.9000753E+02  0.7816164E-02  0.1186339E+00
        -11   -1    0    0    0    0  0.00000000000E+00  0.00000000000E+00  0.45593999997E+02  0.45594000000E+02  0.51100000000E-03 0.  1.
         11   -1    0    0    0    0 -0.00000000000E+00 -0.00000000000E+00 -0.45593999997E+02  0.45594000000E+02  0.51100000000E-03 0. -1.
    9900012    2    1    2    0    0  0.68324674801E+00 -0.48996079538E+00  0.82862868469E+00  0.90007528401E+02  0.89999786975E+02 0.  0.
         12    1    1    2    0    0 -0.68324674801E+00  0.48996079538E+00 -0.82862868469E+00  0.11804715993E+01  0.00000000000E+00 0. -1.
         11    1    3    3    0    0 -0.32580566931E+02  0.20976118554E+02  0.12150476430E+01  0.38768121340E+02  0.51100000000E-03 0. -1.
        -11    1    3    3    0    0 -0.17812463169E+01 -0.93072449100E-01  0.89639033238E+01  0.91396424428E+01  0.51100000000E-03 0.  1.
        -12    1    3    3    0    0  0.35045059996E+02 -0.21373006901E+02 -0.93503222821E+01  0.42099764618E+02  0.00000000000E+00 0.  1.
</event>
<event>
 7    1  0.1698110E-015  0.9000773E+02  0.7816164E-02  0.1186339E+00
        -11   -1    0    0    0    0  0.00000000000E+00  0.00000000000E+00  0.45593999997E+02  0.45594000000E+02  0.51100000000E-03 0. -1.
         11   -1    0    0    0    0 -0.00000000000E+00 -0.00000000000E+00 -0.45593999997E+02  0.45594000000E+02  0.51100000000E-03 0.  1.
    9900012    2    1    2    0    0  0.66518555759E+00  0.96408568501E+00 -0.14530343776E+00  0.90007726251E+02  0.89999987437E+02 0.  0.
         12    1    1    2    0    0 -0.66518555759E+00 -0.96408568501E+00  0.14530343776E+00  0.11802737492E+01  0.00000000000E+00 0. -1.
         11    1    3    3    0    0 -0.17613916825E+02 -0.28132379039E+02  0.23222223139E+02  0.40508671468E+02  0.51100000000E-03 0. -1.
        -11    1    3    3    0    0  0.44594106246E+01 -0.50827883449E+01 -0.39457384402E+01  0.78287887044E+01  0.51100000000E-03 0.  1.
        -12    1    3    3    0    0  0.13819691758E+02  0.34179253069E+02 -0.19421788136E+02  0.41670266079E+02  0.00000000000E+00 0.  1.
</event>
<event>
 7    1  0.1698110E-015  0.9000771E+02  0.7816164E-02  0.1186339E+00
        -11   -1    0    0    0    0  0.00000000000E+00  0.00000000000E+00  0.45593999997E+02  0.45594000000E+02  0.51100000000E-03 0. -1.
         11   -1    0    0    0    0 -0.00000000000E+00 -0.00000000000E+00 -0.45593999997E+02  0.45594000000E+02  0.51100000000E-03 0.  1.
    9900012    2    1    2    0    0  0.10091651337E+00 -0.49258266725E+00  0.10678362631E+01  0.90007705074E+02  0.89999965981E+02 0.  0.
         12    1    1    2    0    0 -0.10091651337E+00  0.49258266725E+00 -0.10678362631E+01  0.11802949256E+01  0.00000000000E+00 0. -1.
         11    1    3    3    0    0  0.22002551831E+02  0.27828781007E+02 -0.67467856541E+01  0.36111943403E+02  0.51100000000E-03 0. -1.
        -11    1    3    3    0    0 -0.10941383804E+02  0.87995270020E+01  0.56346865720E+01  0.15129284452E+02  0.51100000000E-03 0.  1.
        -12    1    3    3    0    0 -0.10960251514E+02 -0.37120890677E+02  0.21799353451E+01  0.38766477219E+02  0.00000000000E+00 0.  1.
</event>
<event>
 7    1  0.1698110E-015  0.9000782E+02  0.7816164E-02  0.1186339E+00
        -11   -1    0    0    0    0  0.00000000000E+00  0.00000000000E+00  0.45593999997E+02  0.45594000000E+02  0.51100000000E-03 0.  1.
         11   -1    0    0    0    0 -0.00000000000E+00 -0.00000000000E+00 -0.45593999997E+02  0.45594000000E+02  0.51100000000E-03 0. -1.
    9900012    2    1    2    0    0 -0.50978046099E+00 -0.38064734484E+00  0.99401493031E+00  0.90007816031E+02  0.90000078402E+02 0.  0.
         12    1    1    2    0    0  0.50978046099E+00  0.38064734484E+00 -0.99401493031E+00  0.11801839692E+01  0.00000000000E+00 0. -1.
         11    1    3    3    0    0  0.23177348138E+02  0.31596164174E+02 -0.20271210099E+02  0.44118352376E+02  0.51100000000E-03 0. -1.
        -11    1    3    3    0    0 -0.29603510867E+01 -0.93970555939E+01  0.69755224564E+01  0.12071712645E+02  0.51100000000E-03 0.  1.
        -12    1    3    3    0    0 -0.20726777513E+02 -0.22579755925E+02  0.14289702573E+02  0.33817751009E+02  0.00000000000E+00 0.  1.
</event>
<event>
 7    1  0.1698110E-015  0.9000775E+02  0.7816164E-02  0.1186339E+00
        -11   -1    0    0    0    0  0.00000000000E+00  0.00000000000E+00  0.45593999997E+02  0.45594000000E+02  0.51100000000E-03 0.  1.
         11   -1    0    0    0    0 -0.00000000000E+00 -0.00000000000E+00 -0.45593999997E+02  0.45594000000E+02  0.51100000000E-03 0. -1.
    9900012    2    1    2    0    0  0.30737068989E+00 -0.10186578482E+01  0.51074339653E+00  0.90007746057E+02  0.90000007505E+02 0.  0.
         12    1    1    2    0    0 -0.30737068989E+00  0.10186578482E+01 -0.51074339653E+00  0.11802539429E+01  0.00000000000E+00 0. -1.
         11    1    3    3    0    0  0.15053600988E+02 -0.36738169425E+01 -0.33822337926E+02  0.37202935054E+02  0.51100000000E-03 0. -1.
        -11    1    3    3    0    0  0.88450541807E+01  0.14188116922E+00 -0.23182658427E+01  0.91449150081E+01  0.51100000000E-03 0.  1.
        -12    1    3    3    0    0 -0.23591284479E+02  0.25132779250E+01  0.36651347165E+02  0.43659895995E+02  0.00000000000E+00 0.  1.
</event>
<event>
 8    1  0.1698110E-015  0.9000777E+02  0.7816164E-02  0.1186339E+00
        -11   -1    0    0    0    0  0.00000000000E+00  0.00000000000E+00  0.45593999997E+02  0.45594000000E+02  0.51100000000E-03 0. -1.
         11   -1    0    0    0    0 -0.00000000000E+00 -0.00000000000E+00 -0.45593999997E+02  0.45594000000E+02  0.51100000000E-03 0.  1.
    9900012    2    1    2    0    0  0.87092997351E-01 -0.10771535880E+01 -0.47444278352E+00  0.90007770786E+02  0.90000032561E+02 0.  0.
         23    2    3    3    0    0  0.14916415583E+02  0.20142078043E+02 -0.11131158791E+02  0.62012589140E+02  0.55618843516E+02 0.  0.
         12    1    1    2    0    0 -0.87092997351E-01  0.10771535880E+01  0.47444278352E+00  0.11802292138E+01  0.00000000000E+00 0. -1.
         11    1    4    4    0    0  0.22368334946E+02  0.25162643837E+02  0.13132884787E+02  0.36138258345E+02  0.51100000000E-03 0. -1.
        -11    1    4    4    0    0 -0.74519193629E+01 -0.50205657941E+01 -0.24264043578E+02  0.25874330795E+02  0.51100000000E-03 0.  1.
        -12    1    3    3    0    0 -0.14829322586E+02 -0.21219231631E+02  0.10656716007E+02  0.27995181646E+02  0.00000000000E+00 0.  1.
</event>
<event>
 7    1  0.1698110E-015  0.9000767E+02  0.7816164E-02  0.1186339E+00
        -11   -1    0    0    0    0  0.00000000000E+00  0.00000000000E+00  0.45593999997E+02  0.45594000000E+02  0.51100000000E-03 0.  1.
         11   -1    0    0    0    0 -0.00000000000E+00 -0.00000000000E+00 -0.45593999997E+02  0.45594000000E+02  0.51100000000E-03 0. -1.
    9900012    2    1    2    0    0 -0.28887245265E+00 -0.19881905464E+00  0.11270296744E+01  0.90007672843E+02  0.89999933325E+02 0.  0.
         12    1    1    2    0    0  0.28887245265E+00  0.19881905464E+00 -0.11270296744E+01  0.11803271569E+01  0.00000000000E+00 0. -1.
         11    1    3    3    0    0 -0.16512517782E+00 -0.19337582687E+02 -0.13918430528E+01  0.19388310856E+02  0.51100000000E-03 0. -1.
        -11    1    3    3    0    0  0.17396115952E+02 -0.19469893741E+02 -0.72771436751E+01  0.27104583244E+02  0.51100000000E-03 0.  1.
         12    1    3    3    0    0 -0.17519863227E+02  0.38608657374E+02  0.97960164023E+01  0.43514778743E+02  0.00000000000E+00 0. -1.
</event>
<event>
 7    1  0.1698110E-015  0.9000774E+02  0.7816164E-02  0.1186339E+00
        -11   -1    0    0    0    0  0.00000000000E+00  0.00000000000E+00  0.45593999997E+02  0.45594000000E+02  0.51100000000E-03 0. -1.
         11   -1    0    0    0    0 -0.00000000000E+00 -0.00000000000E+00 -0.45593999997E+02  0.45594000000E+02  0.51100000000E-03 0.  1.
    9900012    2    1    2    0    0  0.67754653892E+00 -0.23595300452E-01 -0.96611859459E+00  0.90007741050E+02  0.90000002432E+02 0.  0.
         12    1    1    2    0    0 -0.67754653892E+00  0.23595300452E-01  0.96611859459E+00  0.11802589502E+01  0.00000000000E+00 0. -1.
         11    1    3    3    0    0  0.41359886722E+01 -0.59286718937E+01 -0.36999270103E+01  0.81206534751E+01  0.51100000000E-03 0. -1.
        -11    1    3    3    0    0  0.92494103198E+01 -0.34758828183E+02  0.12680198698E+02  0.38138106498E+02  0.51100000000E-03 0.  1.
         12    1    3    3    0    0 -0.12707852453E+02  0.40663904776E+02 -0.99463902827E+01  0.43748981077E+02  0.00000000000E+00 0. -1.
</event>
<event>
 7    1  0.1698110E-015  0.9000773E+02  0.7816164E-02  0.1186339E+00
        -11   -1    0    0    0    0  0.00000000000E+00  0.00000000000E+00  0.45593999997E+02  0.45594000000E+02  0.51100000000E-03 0.  1.
         11   -1    0    0    0    0 -0.00000000000E+00 -0.00000000000E+00 -0.45593999997E+02  0.45594000000E+02  0.51100000000E-03 0. -1.
    9900012    2    1    2    0    0  0.60456450762E+00 -0.91470345939E+00  0.43686631147E+00  0.90007731879E+02  0.89999993140E+02 0.  0.
         12    1    1    2    0    0 -0.60456450762E+00  0.91470345939E+00 -0.43686631147E+00  0.11802681206E+01  0.00000000000E+00 0. -1.
         11    1    3    3    0    0 -0.11792160571E+02  0.73527633506E+01  0.13128444250E+01  0.13958572297E+02  0.51100000000E-03 0. -1.
        -11    1    3    3    0    0 -0.15484404119E+02 -0.32343009972E+02  0.10725317292E+02  0.37428191197E+02  0.51100000000E-03 0.  1.
         12    1    3    3    0    0  0.27881129198E+02  0.24075543162E+02 -0.11601295406E+02  0.38620968385E+02  0.00000000000E+00 0. -1.
</event>
<event>
 7    1  0.1698110E-015  0.9000773E+02  0.7816164E-02  0.1186339E+00
        -11   -1    0    0    0    0  0.00000000000E+00  0.00000000000E+00  0.45593999997E+02  0.45594000000E+02  0.51100000000E-03 0. -1.
         11   -1    0    0    0    0 -0.00000000000E+00 -0.00000000000E+00 -0.45593999997E+02  0.45594000000E+02  0.51100000000E-03 0.  1.
    9900012    2    1    2    0    0 -0.78990423215E+00  0.16714613055E+00  0.86089481245E+00  0.90007734605E+02  0.89999995902E+02 0.  0.
         12    1    1    2    0    0  0.78990423215E+00 -0.16714613055E+00 -0.86089481245E+00  0.11802653952E+01  0.00000000000E+00 0. -1.
         11    1    3    3    0    0  0.44367148406E+01  0.79480901125E+01 -0.29754109415E+01  0.95765153133E+01  0.51100000000E-03 0. -1.
        -11    1    3    3    0    0 -0.32480969110E+02 -0.14886180238E+02 -0.22208695061E+02  0.42069440844E+02  0.51100000000E-03 0.  1.
         12    1    3    3    0    0  0.27254350037E+02  0.71052362560E+01  0.26045000815E+02  0.38361778447E+02  0.00000000000E+00 0. -1.
</event>
<event>
 7    1  0.1698110E-015  0.9000771E+02  0.7816164E-02  0.1186339E+00
        -11   -1    0    0    0    0  0.00000000000E+00  0.00000000000E+00  0.45593999997E+02  0.45594000000E+02  0.51100000000E-03 0. -1.
         11   -1    0    0    0    0 -0.00000000000E+00 -0.00000000000E+00 -0.45593999997E+02  0.45594000000E+02  0.51100000000E-03 0.  1.
    9900012    2    1    2    0    0  0.41379781322E-01  0.11764766641E+01 -0.85275165930E-01  0.90007711272E+02  0.89999972261E+02 0.  0.
         12    1    1    2    0    0 -0.41379781322E-01 -0.11764766641E+01  0.85275165930E-01  0.11802887280E+01  0.00000000000E+00 0. -1.
         11    1    3    3    0    0  0.71105615780E+01 -0.40129173738E+01 -0.68105898545E+00  0.81931333082E+01  0.51100000000E-03 0. -1.
        -11    1    3    3    0    0  0.27374983289E+02  0.14190656301E+02 -0.23548933545E+02  0.38798411149E+02  0.51100000000E-03 0.  1.
         12    1    3    3    0    0 -0.34444165086E+02 -0.90012622635E+01  0.24144717364E+02  0.43016166814E+02  0.00000000000E+00 0. -1.
</event>
<event>
 7    1  0.1698110E-015  0.9000694E+02  0.7816164E-02  0.1186341E+00
        -11   -1    0    0    0    0  0.00000000000E+00  0.00000000000E+00  0.45593999997E+02  0.45594000000E+02  0.51100000000E-03 0.  1.
         11   -1    0    0    0    0 -0.00000000000E+00 -0.00000000000E+00 -0.45593999997E+02  0.45594000000E+02  0.51100000000E-03 0. -1.
    9900012    2    1    2    0    0 -0.16134508418E+00 -0.37021156248E+00  0.11098694270E+01  0.90006941584E+02  0.89999192409E+02 0.  0.
         12    1    1    2    0    0  0.16134508418E+00  0.37021156248E+00 -0.11098694270E+01  0.11810584161E+01  0.00000000000E+00 0. -1.
         11    1    3    3    0    0 -0.24755672941E+02 -0.15198985878E+02 -0.84365652396E+01  0.30249432189E+02  0.51100000000E-03 0. -1.
        -11    1    3    3    0    0 -0.97007921507E+01  0.76676487823E+01 -0.13120872811E+02  0.18029295876E+02  0.51100000000E-03 0.  1.
        -12    1    3    3    0    0  0.34295120007E+02  0.71611255336E+01  0.22667307477E+02  0.41728213519E+02  0.00000000000E+00 0.  1.
</event>
<event>
 7    1  0.1698110E-015  0.9000771E+02  0.7816164E-02  0.1186339E+00
        -11   -1    0    0    0    0  0.00000000000E+00  0.00000000000E+00  0.45593999997E+02  0.45594000000E+02  0.51100000000E-03 0.  1.
         11   -1    0    0    0    0 -0.00000000000E+00 -0.00000000000E+00 -0.45593999997E+02  0.45594000000E+02  0.51100000000E-03 0. -1.
    9900012    2    1    2    0    0 -0.80347216150E+00  0.73051917173E+00  0.46243707390E+00  0.90007714517E+02  0.89999975548E+02 0.  0.
         12    1    1    2    0    0  0.80347216150E+00 -0.73051917173E+00 -0.46243707390E+00  0.11802854832E+01  0.00000000000E+00 0. -1.
         11    1    3    3    0    0  0.11010457482E+02  0.40134633627E+01 -0.91595435918E+01  0.14873980677E+02  0.51100000000E-03 0. -1.
        -11    1    3    3    0    0 -0.14530891792E+02  0.31482801803E+02  0.18287610147E+02  0.39201407000E+02  0.51100000000E-03 0.  1.
         12    1    3    3    0    0  0.27169621487E+01 -0.34765745994E+02 -0.86656294809E+01  0.35932326840E+02  0.00000000000E+00 0. -1.
</event>
<event>
 7    1  0.1698110E-015  0.9000772E+02  0.7816164E-02  0.1186339E+00
        -11   -1    0    0    0    0  0.00000000000E+00  0.00000000000E+00  0.45593999997E+02  0.45594000000E+02  0.51100000000E-03 0.  1.
         11   -1    0    0    0    0 -0.00000000000E+00 -0.00000000000E+00 -0.45593999997E+02  0.45594000000E+02  0.51100000000E-03 0. -1.
    9900012    2    1    2    0    0 -0.33522171628E+00 -0.22913953097E-01  0.11314469012E+01  0.90007715823E+02  0.89999976872E+02 0.  0.
         12    1    1    2    0    0  0.33522171628E+00  0.22913953097E-01 -0.11314469012E+01  0.11802841770E+01  0.00000000000E+00 0. -1.
         11    1    3    3    0    0  0.58809332169E+00 -0.75307258250E+01  0.87852848604E+01  0.11586151887E+02  0.51100000000E-03 0. -1.
        -11    1    3    3    0    0 -0.87714698363E+00 -0.29189041138E+01  0.34684522491E+02  0.34818177562E+02  0.51100000000E-03 0.  1.
         12    1    3    3    0    0 -0.46168054337E-01  0.10426715986E+02 -0.42338360450E+02  0.43603386374E+02  0.00000000000E+00 0. -1.
</event>
<event>
 7    1  0.1698110E-015  0.9000798E+02  0.7816164E-02  0.1186339E+00
        -11   -1    0    0    0    0  0.00000000000E+00  0.00000000000E+00  0.45593999997E+02  0.45594000000E+02  0.51100000000E-03 0. -1.
         11   -1    0    0    0    0 -0.00000000000E+00 -0.00000000000E+00 -0.45593999997E+02  0.45594000000E+02  0.51100000000E-03 0.  1.
    9900012    2    1    2    0    0  0.32135278712E+00  0.11264753398E+01 -0.14222967208E+00  0.90007981532E+02  0.90000246088E+02 0.  0.
         12    1    1    2    0    0 -0.32135278712E+00 -0.11264753398E+01  0.14222967208E+00  0.11800184679E+01  0.00000000000E+00 0. -1.
         11    1    3    3    0    0  0.12985912934E+01  0.35872432931E+02  0.25388235730E+02  0.43966809044E+02  0.51100000000E-03 0. -1.
        -11    1    3    3    0    0  0.64081976840E+00 -0.81460397142E+01  0.12434822605E+01  0.82652804788E+01  0.51100000000E-03 0.  1.
        -12    1    3    3    0    0 -0.16180582747E+01 -0.26599917877E+02 -0.26773947663E+02  0.37775892009E+02  0.00000000000E+00 0.  1.
</event>
<event>
 7    1  0.1698110E-015  0.9000780E+02  0.7816164E-02  0.1186339E+00
        -11   -1    0    0    0    0  0.00000000000E+00  0.00000000000E+00  0.45593999997E+02  0.45594000000E+02  0.51100000000E-03 0.  1.
         11   -1    0    0    0    0 -0.00000000000E+00 -0.00000000000E+00 -0.45593999997E+02  0.45594000000E+02  0.51100000000E-03 0. -1.
    9900012    2    1    2    0    0 -0.23239289442E+00 -0.23425179100E+00  0.11331346531E+01  0.90007798957E+02  0.90000061104E+02 0.  0.
         12    1    1    2    0    0  0.23239289442E+00  0.23425179100E+00 -0.11331346531E+01  0.11802010426E+01  0.00000000000E+00 0. -1.
         11    1    3    3    0    0 -0.18029640545E+02  0.36668995472E+02 -0.35663236910E+01  0.41017091950E+02  0.51100000000E-03 0. -1.
        -11    1    3    3    0    0  0.67949059828E+01  0.28036856594E+01 -0.91325795002E+00  0.74071209613E+01  0.51100000000E-03 0.  1.
        -12    1    3    3    0    0  0.11002341667E+02 -0.39706932922E+02  0.56127162941E+01  0.41583586046E+02  0.00000000000E+00 0.  1.
</event>
<event>
 7    1  0.1698110E-015  0.9000778E+02  0.7816164E-02  0.1186339E+00
        -11   -1    0    0    0    0  0.00000000000E+00  0.00000000000E+00  0.45593999997E+02  0.45594000000E+02  0.51100000000E-03 0. -1.
         11   -1    0    0    0    0 -0.00000000000E+00 -0.00000000000E+00 -0.45593999997E+02  0.45594000000E+02  0.51100000000E-03 0.  1.
    9900012    2    1    2    0    0  0.70864382091E+00  0.48933369725E+00 -0.80702857216E+00  0.90007780254E+02  0.90000042154E+02 0.  0.
         12    1    1    2    0    0 -0.70864382091E+00 -0.48933369725E+00  0.80702857216E+00  0.11802197458E+01  0.00000000000E+00 0. -1.
         11    1    3    3    0    0  0.23705489883E+01  0.64788213896E+01  0.96724527232E+01  0.11880697414E+02  0.51100000000E-03 0. -1.
        -11    1    3    3    0    0 -0.31845991825E+02  0.16926057556E+02 -0.16664170025E+02  0.39728493334E+02  0.51100000000E-03 0.  1.
         12    1    3    3    0    0  0.30184086658E+02 -0.22915545248E+02  0.61846887297E+01  0.38398589506E+02  0.00000000000E+00 0. -1.
</event>
<event>
 7    1  0.1698110E-015  0.9000764E+02  0.7816164E-02  0.1186339E+00
        -11   -1    0    0    0    0  0.00000000000E+00  0.00000000000E+00  0.45593999997E+02  0.45594000000E+02  0.51100000000E-03 0.  1.
         11   -1    0    0    0    0 -0.00000000000E+00 -0.00000000000E+00 -0.45593999997E+02  0.45594000000E+02  0.51100000000E-03 0. -1.
    9900012    2    1    2    0    0  0.96446443994E+00  0.12335747897E+00  0.66920422536E+00  0.90007642843E+02  0.89999902928E+02 0.  0.
         12    1    1    2    0    0 -0.96446443994E+00 -0.12335747897E+00 -0.66920422536E+00  0.11803571573E+01  0.00000000000E+00 0. -1.
         11    1    3    3    0    0 -0.40805298640E+00  0.34647613897E+01  0.19260609142E+02  0.19574017051E+02  0.51100000000E-03 0. -1.
        -11    1    3    3    0    0  0.12669886844E+01  0.26502194180E+01  0.25635164162E+02  0.25802917765E+02  0.51100000000E-03 0.  1.
         12    1    3    3    0    0  0.10552874196E+00 -0.59916233288E+01 -0.44226569079E+02  0.44630708027E+02  0.00000000000E+00 0. -1.
</event>
<event>
 7    1  0.1698110E-015  0.9000775E+02  0.7816164E-02  0.1186339E+00
        -11   -1    0    0    0    0  0.00000000000E+00  0.00000000000E+00  0.45593999997E+02  0.45594000000E+02  0.51100000000E-03 0.  1.
         11   -1    0    0    0    0 -0.00000000000E+00 -0.00000000000E+00 -0.45593999997E+02  0.45594000000E+02  0.51100000000E-03 0. -1.
    9900012    2    1    2    0    0 -0.78665216538E+00  0.79534785981E+00  0.37628428937E+00  0.90007750148E+02  0.90000011650E+02 0.  0.
         12    1    1    2    0    0  0.78665216538E+00 -0.79534785981E+00 -0.37628428937E+00  0.11802498523E+01  0.00000000000E+00 0. -1.
         11    1    3    3    0    0 -0.18172245167E+01 -0.65851216437E+01 -0.58970091964E+01  0.90244584175E+01  0.51100000000E-03 0. -1.
        -11    1    3    3    0    0  0.15730290226E+02 -0.10620291961E+02  0.37516504236E+02  0.42044270981E+02  0.51100000000E-03 0.  1.
         12    1    3    3    0    0 -0.14699717875E+02  0.18000761465E+02 -0.31243210751E+02  0.38939020749E+02  0.00000000000E+00 0. -1.
</event>
<event>
 7    1  0.1698110E-015  0.9000774E+02  0.7816164E-02  0.1186339E+00
        -11   -1    0    0    0    0  0.00000000000E+00  0.00000000000E+00  0.45593999997E+02  0.45594000000E+02  0.51100000000E-03 0. -1.
         11   -1    0    0    0    0 -0.00000000000E+00 -0.00000000000E+00 -0.45593999997E+02  0.45594000000E+02  0.51100000000E-03 0.  1.
    9900012    2    1    2    0    0  0.66670586252E+00  0.89871005901E+00 -0.37528079070E+00  0.90007740643E+02  0.90000002020E+02 0.  0.
         12    1    1    2    0    0 -0.66670586252E+00 -0.89871005901E+00  0.37528079070E+00  0.11802593567E+01  0.00000000000E+00 0. -1.
         11    1    3    3    0    0  0.33602815752E+01  0.19177445177E+01  0.78561398840E+01  0.87571782235E+01  0.51100000000E-03 0. -1.
        -11    1    3    3    0    0  0.21524188663E+02  0.11680147506E+02 -0.35175801924E+02  0.42860863087E+02  0.51100000000E-03 0.  1.
         12    1    3    3    0    0 -0.24217764376E+02 -0.12699181965E+02  0.26944381249E+02  0.38389699332E+02  0.00000000000E+00 0. -1.
</event>
<event>
 7    1  0.1698110E-015  0.9000769E+02  0.7816164E-02  0.1186339E+00
        -11   -1    0    0    0    0  0.00000000000E+00  0.00000000000E+00  0.45593999997E+02  0.45594000000E+02  0.51100000000E-03 0.  1.
         11   -1    0    0    0    0 -0.00000000000E+00 -0.00000000000E+00 -0.45593999997E+02  0.45594000000E+02  0.51100000000E-03 0. -1.
    9900012    2    1    2    0    0  0.92606535438E+00  0.53738931237E+00 -0.49672820819E+00  0.90007693588E+02  0.89999954343E+02 0.  0.
         12    1    1    2    0    0 -0.92606535438E+00 -0.53738931237E+00  0.49672820819E+00  0.11803064121E+01  0.00000000000E+00 0. -1.
         11    1    3    3    0    0  0.83603919756E+01  0.31224594188E+02 -0.23696366092E+02  0.40079785458E+02  0.51100000000E-03 0. -1.
        -11    1    3    3    0    0 -0.12600176909E+02 -0.48845948503E+00  0.22399618484E+01  0.12807048066E+02  0.51100000000E-03 0.  1.
        -12    1    3    3    0    0  0.51658502882E+01 -0.30198745391E+02  0.20959676035E+02  0.37120860064E+02  0.00000000000E+00 0.  1.
</event>
<event>
 7    1  0.1698110E-015  0.9000773E+02  0.7816164E-02  0.1186339E+00
        -11   -1    0    0    0    0  0.00000000000E+00  0.00000000000E+00  0.45593999997E+02  0.45594000000E+02  0.51100000000E-03 0. -1.
         11   -1    0    0    0    0 -0.00000000000E+00 -0.00000000000E+00 -0.45593999997E+02  0.45594000000E+02  0.51100000000E-03 0.  1.
    9900012    2    1    2    0    0 -0.41184573513E+00  0.10562076909E+01 -0.32841557626E+00  0.90007725292E+02  0.89999986466E+02 0.  0.
         12    1    1    2    0    0  0.41184573513E+00 -0.10562076909E+01  0.32841557626E+00  0.11802747081E+01  0.00000000000E+00 0. -1.
         11    1    3    3    0    0  0.32557943974E+00 -0.73061302236E+01 -0.56295993556E+01  0.92291890208E+01  0.51100000000E-03 0. -1.
        -11    1    3    3    0    0 -0.57638462720E-01 -0.34866123509E+02 -0.75518165424E+01  0.35674638388E+02  0.51100000000E-03 0.  1.
         12    1    3    3    0    0 -0.67978671215E+00  0.43228461423E+02  0.12853000322E+02  0.45103897884E+02  0.00000000000E+00 0. -1.
</event>
<event>
 7    1  0.1698110E-015  0.9000783E+02  0.7816164E-02  0.1186339E+00
        -11   -1    0    0    0    0  0.00000000000E+00  0.00000000000E+00  0.45593999997E+02  0.45594000000E+02  0.51100000000E-03 0. -1.
         11   -1    0    0    0    0 -0.00000000000E+00 -0.00000000000E+00 -0.45593999997E+02  0.45594000000E+02  0.51100000000E-03 0.  1.
    9900012    2    1    2    0    0  0.88841080736E+00 -0.45251119808E+00  0.63147744680E+00  0.90007828863E+02  0.90000091404E+02 0.  0.
         12    1    1    2    0    0 -0.88841080736E+00  0.45251119808E+00 -0.63147744680E+00  0.11801711371E+01  0.00000000000E+00 0. -1.
         11    1    3    3    0    0  0.38856735551E+02  0.53169343480E+01 -0.41338924574E+01  0.39436084437E+02  0.51100000000E-03 0. -1.
        -11    1    3    3    0    0 -0.84773868849E-01  0.95009307278E+01  0.90335082296E+00  0.95441560273E+01  0.51100000000E-03 0.  1.
        -12    1    3    3    0    0 -0.37883550875E+02 -0.15270376274E+02  0.38620190813E+01  0.41027588399E+02  0.00000000000E+00 0.  1.
</event>
<event>
 7    1  0.1698110E-015  0.9000835E+02  0.7816164E-02  0.1186338E+00
        -11   -1    0    0    0    0  0.00000000000E+00  0.00000000000E+00  0.45593999997E+02  0.45594000000E+02  0.51100000000E-03 0. -1.
         11   -1    0    0    0    0 -0.00000000000E+00 -0.00000000000E+00 -0.45593999997E+02  0.45594000000E+02  0.51100000000E-03 0.  1.
    9900012    2    1    2    0    0  0.35602348983E+00 -0.10701056553E+01 -0.34595952449E+00  0.90008353090E+02  0.90000622549E+02 0.  0.
         12    1    1    2    0    0 -0.35602348983E+00  0.10701056553E+01  0.34595952449E+00  0.11796469097E+01  0.00000000000E+00 0. -1.
         11    1    3    3    0    0 -0.37572854562E+01  0.73960206390E+01  0.60653916893E+01  0.10276540853E+02  0.51100000000E-03 0. -1.
        -11    1    3    3    0    0 -0.25484551902E+02  0.24201971329E+02  0.26850127025E+00  0.35146406573E+02  0.51100000000E-03 0.  1.
         12    1    3    3    0    0  0.29597860848E+02 -0.32668097623E+02 -0.66798524841E+01  0.44585405664E+02  0.00000000000E+00 0. -1.
</event>
<event>
 7    1  0.1698110E-015  0.9000762E+02  0.7816164E-02  0.1186339E+00
        -11   -1    0    0    0    0  0.00000000000E+00  0.00000000000E+00  0.45593999997E+02  0.45594000000E+02  0.51100000000E-03 0.  1.
         11   -1    0    0    0    0 -0.00000000000E+00 -0.00000000000E+00 -0.45593999997E+02  0.45594000000E+02  0.51100000000E-03 0. -1.
    9900012    2    1    2    0    0 -0.36336503660E+00  0.86375381202E+00  0.71776947976E+00  0.90007619628E+02  0.89999879407E+02 0.  0.
         12    1    1    2    0    0  0.36336503660E+00 -0.86375381202E+00 -0.71776947976E+00  0.11803803725E+01  0.00000000000E+00 0. -1.
         11    1    3    3    0    0  0.36040234898E+01  0.90814671433E+01  0.35482199125E+01  0.10394801374E+02  0.51100000000E-03 0. -1.
        -11    1    3    3    0    0 -0.27585339683E+02 -0.35710540195E+00  0.28455157855E+02  0.39632997597E+02  0.51100000000E-03 0.  1.
         12    1    3    3    0    0  0.23617951156E+02 -0.78606079294E+01 -0.31285608288E+02  0.39979820657E+02  0.00000000000E+00 0. -1.
</event>
<event>
 7    1  0.1698110E-015  0.9000800E+02  0.7816164E-02  0.1186339E+00
        -11   -1    0    0    0    0  0.00000000000E+00  0.00000000000E+00  0.45593999997E+02  0.45594000000E+02  0.51100000000E-03 0.  1.
         11   -1    0    0    0    0 -0.00000000000E+00 -0.00000000000E+00 -0.45593999997E+02  0.45594000000E+02  0.51100000000E-03 0. -1.
    9900012    2    1    2    0    0 -0.75651922256E+00 -0.41867894800E+00  0.80298643994E+00  0.90007999738E+02  0.90000264534E+02 0.  0.
         12    1    1    2    0    0  0.75651922256E+00  0.41867894800E+00 -0.80298643994E+00  0.11800002620E+01  0.00000000000E+00 0. -1.
         11    1    3    3    0    0 -0.52341557556E+01  0.12548398602E+01 -0.84477498867E+01  0.10016760352E+02  0.51100000000E-03 0. -1.
        -11    1    3    3    0    0  0.15211415600E+02  0.36216019277E+02 -0.10172029459E+01  0.39294044319E+02  0.51100000000E-03 0.  1.
         12    1    3    3    0    0 -0.10733779067E+02 -0.37889538086E+02  0.10267939272E+02  0.40697195067E+02  0.00000000000E+00 0. -1.
</event>
<event>
 7    1  0.1698110E-015  0.9000700E+02  0.7816164E-02  0.1186341E+00
        -11   -1    0    0    0    0  0.00000000000E+00  0.00000000000E+00  0.45593999997E+02  0.45594000000E+02  0.51100000000E-03 0. -1.
         11   -1    0    0    0    0 -0.00000000000E+00 -0.00000000000E+00 -0.45593999997E+02  0.45594000000E+02  0.51100000000E-03 0.  1.
    9900012    2    1    2    0    0 -0.50015099618E+00 -0.61644803152E+00 -0.87441678286E+00  0.90006998770E+02  0.89999250351E+02 0.  0.
         12    1    1    2    0    0  0.50015099618E+00  0.61644803152E+00  0.87441678286E+00  0.11810012298E+01  0.00000000000E+00 0. -1.
         11    1    3    3    0    0 -0.15677461924E+02  0.38265206791E+02  0.12611022150E+02  0.43232473247E+02  0.51100000000E-03 0. -1.
        -11    1    3    3    0    0  0.75435753803E+01 -0.30432667869E+01 -0.20399205535E+01  0.83861957037E+01  0.51100000000E-03 0.  1.
        -12    1    3    3    0    0  0.76337355479E+01 -0.35838388035E+02 -0.11445518379E+02  0.38388329820E+02  0.00000000000E+00 0.  1.
</event>
<event>
 7    1  0.1698110E-015  0.9000780E+02  0.7816164E-02  0.1186339E+00
        -11   -1    0    0    0    0  0.00000000000E+00  0.00000000000E+00  0.45593999997E+02  0.45594000000E+02  0.51100000000E-03 0. -1.
         11   -1    0    0    0    0 -0.00000000000E+00 -0.00000000000E+00 -0.45593999997E+02  0.45594000000E+02  0.51100000000E-03 0.  1.
    9900012    2    1    2    0    0 -0.22264549101E+00 -0.50483491594E+00 -0.10432848389E+01  0.90007799779E+02  0.90000061936E+02 0.  0.
         12    1    1    2    0    0  0.22264549101E+00  0.50483491594E+00  0.10432848389E+01  0.11802002212E+01  0.00000000000E+00 0. -1.
         11    1    3    3    0    0 -0.18667808476E+02 -0.17108636329E+02  0.27971236770E+02  0.37730393545E+02  0.51100000000E-03 0. -1.
        -11    1    3    3    0    0  0.47739890852E+01  0.34921013162E+00  0.81616271468E+01  0.94617692556E+01  0.51100000000E-03 0.  1.
        -12    1    3    3    0    0  0.13671173900E+02  0.16254591282E+02 -0.37176148756E+02  0.42815636978E+02  0.00000000000E+00 0.  1.
</event>
<event>
 7    1  0.1698110E-015  0.9000776E+02  0.7816164E-02  0.1186339E+00
        -11   -1    0    0    0    0  0.00000000000E+00  0.00000000000E+00  0.45593999997E+02  0.45594000000E+02  0.51100000000E-03 0.  1.
         11   -1    0    0    0    0 -0.00000000000E+00 -0.00000000000E+00 -0.45593999997E+02  0.45594000000E+02  0.51100000000E-03 0. -1.
    9900012    2    1    2    0    0  0.92479815018E+00 -0.11448771033E+00 -0.72429546603E+00  0.90007761475E+02  0.90000023126E+02 0.  0.
         12    1    1    2    0    0 -0.92479815018E+00  0.11448771033E+00  0.72429546603E+00  0.11802385253E+01  0.00000000000E+00 0. -1.
         11    1    3    3    0    0 -0.74431964110E-01 -0.46612314635E+01  0.83295058622E+01  0.95453280217E+01  0.51100000000E-03 0. -1.
        -11    1    3    3    0    0 -0.39176749176E+02  0.31179046936E+01 -0.21669039971E+00  0.39301220855E+02  0.51100000000E-03 0.  1.
         12    1    3    3    0    0  0.40175979290E+02  0.14288390595E+01 -0.88371109285E+01  0.41161212598E+02  0.00000000000E+00 0. -1.
</event>
<event>
 7    1  0.1698110E-015  0.9000773E+02  0.7816164E-02  0.1186339E+00
        -11   -1    0    0    0    0  0.00000000000E+00  0.00000000000E+00  0.45593999997E+02  0.45594000000E+02  0.51100000000E-03 0.  1.
         11   -1    0    0    0    0 -0.00000000000E+00 -0.00000000000E+00 -0.45593999997E+02  0.45594000000E+02  0.51100000000E-03 0. -1.
    9900012    2    1    2    0    0  0.99592581941E+00 -0.37251240104E+00  0.51225971348E+00  0.90007727260E+02  0.89999988460E+02 0.  0.
         12    1    1    2    0    0 -0.99592581941E+00  0.37251240104E+00 -0.51225971348E+00  0.11802727400E+01  0.00000000000E+00 0. -1.
         11    1    3    3    0    0 -0.86115004639E+01  0.64098998675E+01  0.41981127084E+01  0.11526877597E+02  0.51100000000E-03 0. -1.
        -11    1    3    3    0    0 -0.32680022955E+02 -0.12740892071E+02 -0.65403095780E+01  0.35680385098E+02  0.51100000000E-03 0.  1.
         12    1    3    3    0    0  0.42287449238E+02  0.59584798024E+01  0.28544565830E+01  0.42800464566E+02  0.00000000000E+00 0. -1.
</event>
<event>
 7    1  0.1698110E-015  0.9000808E+02  0.7816164E-02  0.1186338E+00
        -11   -1    0    0    0    0  0.00000000000E+00  0.00000000000E+00  0.45593999997E+02  0.45594000000E+02  0.51100000000E-03 0. -1.
         11   -1    0    0    0    0 -0.00000000000E+00 -0.00000000000E+00 -0.45593999997E+02  0.45594000000E+02  0.51100000000E-03 0.  1.
    9900012    2    1    2    0    0  0.11681536500E+01  0.58004106225E-01 -0.15579881742E+00  0.90008075978E+02  0.90000341780E+02 0.  0.
         12    1    1    2    0    0 -0.11681536500E+01 -0.58004106225E-01  0.15579881742E+00  0.11799240221E+01  0.00000000000E+00 0. -1.
         11    1    3    3    0    0  0.49106595854E+01  0.11659096450E+02  0.35836735898E+02  0.38004220130E+02  0.51100000000E-03 0. -1.
        -11    1    3    3    0    0 -0.82600280293E+01 -0.28412464857E+01  0.48484584043E+01  0.99904100915E+01  0.51100000000E-03 0.  1.
        -12    1    3    3    0    0  0.45175220940E+01 -0.87598458577E+01 -0.40840993120E+02  0.42013445757E+02  0.00000000000E+00 0.  1.
</event>
<event>
 7    1  0.1698110E-015  0.9000769E+02  0.7816164E-02  0.1186339E+00
        -11   -1    0    0    0    0  0.00000000000E+00  0.00000000000E+00  0.45593999997E+02  0.45594000000E+02  0.51100000000E-03 0. -1.
         11   -1    0    0    0    0 -0.00000000000E+00 -0.00000000000E+00 -0.45593999997E+02  0.45594000000E+02  0.51100000000E-03 0.  1.
    9900012    2    1    2    0    0  0.81927356316E+00 -0.35946696389E+00 -0.76987874558E+00  0.90007686926E+02  0.89999947594E+02 0.  0.
         12    1    1    2    0    0 -0.81927356316E+00  0.35946696389E+00  0.76987874558E+00  0.11803130739E+01  0.00000000000E+00 0. -1.
         11    1    3    3    0    0 -0.10228296753E+02 -0.49911591869E+00  0.10846980166E+02  0.14917243383E+02  0.51100000000E-03 0. -1.
        -11    1    3    3    0    0  0.17625159732E+02 -0.20798667413E+02 -0.34108661341E+02  0.43664992849E+02  0.51100000000E-03 0.  1.
         12    1    3    3    0    0 -0.65775894167E+01  0.20938316368E+02  0.22491802429E+02  0.31425450695E+02  0.00000000000E+00 0. -1.
</event>
<event>
 7    1  0.1698110E-015  0.9000774E+02  0.7816164E-02  0.1186339E+00
        -11   -1    0    0    0    0  0.00000000000E+00  0.00000000000E+00  0.45593999997E+02  0.45594000000E+02  0.51100000000E-03 0. -1.
         11   -1    0    0    0    0 -0.00000000000E+00 -0.00000000000E+00 -0.45593999997E+02  0.45594000000E+02  0.51100000000E-03 0.  1.
    9900012    2    1    2    0    0 -0.10673897311E+01  0.49182830747E+00  0.10861458983E+00  0.90007740261E+02  0.90000001633E+02 0.  0.
         12    1    1    2    0    0  0.10673897311E+01 -0.49182830747E+00 -0.10861458983E+00  0.11802597389E+01  0.00000000000E+00 0. -1.
         11    1    3    3    0    0 -0.60554582261E+01  0.16633748466E+02  0.29689146624E+02  0.34565815337E+02  0.51100000000E-03 0. -1.
        -11    1    3    3    0    0 -0.10475743985E+02 -0.15028479232E+02  0.37344696031E+01  0.18696060107E+02  0.51100000000E-03 0.  1.
        -12    1    3    3    0    0  0.15463812480E+02 -0.11134409268E+01 -0.33315001637E+02  0.36745864818E+02  0.00000000000E+00 0.  1.
</event>
<event>
 7    1  0.1698110E-015  0.9000781E+02  0.7816164E-02  0.1186339E+00
        -11   -1    0    0    0    0  0.00000000000E+00  0.00000000000E+00  0.45593999997E+02  0.45594000000E+02  0.51100000000E-03 0. -1.
         11   -1    0    0    0    0 -0.00000000000E+00 -0.00000000000E+00 -0.45593999997E+02  0.45594000000E+02  0.51100000000E-03 0.  1.
    9900012    2    1    2    0    0 -0.85462137187E+00  0.77110621941E+00  0.26053013279E+00  0.90007805761E+02  0.90000067997E+02 0.  0.
         12    1    1    2    0    0  0.85462137187E+00 -0.77110621941E+00 -0.26053013279E+00  0.11801942387E+01  0.00000000000E+00 0. -1.
         11    1    3    3    0    0  0.35461801994E+02 -0.38946141510E+01  0.66690382949E+01  0.36293022636E+02  0.51100000000E-03 0. -1.
        -11    1    3    3    0    0  0.64122918452E+01 -0.44867980785E+01  0.40075369960E+01  0.87925648556E+01  0.51100000000E-03 0.  1.
        -12    1    3    3    0    0 -0.42728715211E+02  0.91525184489E+01 -0.10416045158E+02  0.44922218270E+02  0.00000000000E+00 0.  1.
</event>
<event>
 7    1  0.1771435E-015  0.9000776E+02  0.7816164E-02  0.1186339E+00
        -11   -1    0    0    0    0  0.00000000000E+00  0.00000000000E+00  0.45593999997E+02  0.45594000000E+02  0.51100000000E-03 0. -1.
         11   -1    0    0    0    0 -0.00000000000E+00 -0.00000000000E+00 -0.45593999997E+02  0.45594000000E+02  0.51100000000E-03 0.  1.
    9900012    2    1    2    0    0 -0.61093352525E+00 -0.69672837061E+00 -0.73095857417E+00  0.90007758232E+02  0.90000019840E+02 0.  0.
         12    1    1    2    0    0  0.61093352525E+00  0.69672837061E+00  0.73095857417E+00  0.11802417684E+01  0.00000000000E+00 0. -1.
         11    1    3    3    0    0 -0.86750046218E+01 -0.52882713015E+01  0.88374229390E+00  0.10198162543E+02  0.51100000000E-03 0. -1.
        -11    1    3    3    0    0 -0.27993287501E+02 -0.56170524937E+01 -0.22999477234E+02  0.36662670076E+02  0.51100000000E-03 0.  1.
         12    1    3    3    0    0  0.36057358598E+02  0.10208595425E+02  0.21384776366E+02  0.43146925612E+02  0.00000000000E+00 0. -1.
</event>
<event>
 7    1  0.1698110E-015  0.9000787E+02  0.7816164E-02  0.1186339E+00
        -11   -1    0    0    0    0  0.00000000000E+00  0.00000000000E+00  0.45593999997E+02  0.45594000000E+02  0.51100000000E-03 0.  1.
         11   -1    0    0    0    0 -0.00000000000E+00 -0.00000000000E+00 -0.45593999997E+02  0.45594000000E+02  0.51100000000E-03 0. -1.
    9900012    2    1    2    0    0  0.81076454008E-01 -0.27523783355E+00  0.11447163234E+01  0.90007870890E+02  0.90000133985E+02 0.  0.
         12    1    1    2    0    0 -0.81076454008E-01  0.27523783355E+00 -0.11447163234E+01  0.11801291105E+01  0.00000000000E+00 0. -1.
         11    1    3    3    0    0 -0.11863479423E+01 -0.54358669603E+01  0.79295706859E+01  0.96868035271E+01  0.51100000000E-03 0. -1.
        -11    1    3    3    0    0 -0.65941885711E+01 -0.34504434984E+02 -0.16382331108E+02  0.38761064604E+02  0.51100000000E-03 0.  1.
         12    1    3    3    0    0  0.78616129673E+01  0.39665064111E+02  0.95974767454E+01  0.41560002758E+02  0.00000000000E+00 0. -1.
</event>
<event>
 7    1  0.1698110E-015  0.9000774E+02  0.7816164E-02  0.1186339E+00
        -11   -1    0    0    0    0  0.00000000000E+00  0.00000000000E+00  0.45593999997E+02  0.45594000000E+02  0.51100000000E-03 0.  1.
         11   -1    0    0    0    0 -0.00000000000E+00 -0.00000000000E+00 -0.45593999997E+02  0.45594000000E+02  0.51100000000E-03 0. -1.
    9900012    2    1    2    0    0  0.42872367604E+00 -0.22175412830E-01  0.10994208058E+01  0.90007736535E+02  0.89999997857E+02 0.  0.
         12    1    1    2    0    0 -0.42872367604E+00  0.22175412830E-01 -0.10994208058E+01  0.11802634653E+01  0.00000000000E+00 0. -1.
         11    1    3    3    0    0  0.17586209046E+02 -0.22516905340E+02 -0.53499261415E+01  0.29067292352E+02  0.51100000000E-03 0. -1.
        -11    1    3    3    0    0  0.14111002334E+02 -0.18495628427E+01 -0.10655504988E+02  0.17778668577E+02  0.51100000000E-03 0.  1.
        -12    1    3    3    0    0 -0.31268487704E+02  0.24344292770E+02  0.17104851935E+02  0.43161775606E+02  0.00000000000E+00 0.  1.
</event>
<event>
 7    1  0.1698110E-015  0.9000764E+02  0.7816164E-02  0.1186339E+00
        -11   -1    0    0    0    0  0.00000000000E+00  0.00000000000E+00  0.45593999997E+02  0.45594000000E+02  0.51100000000E-03 0. -1.
         11   -1    0    0    0    0 -0.00000000000E+00 -0.00000000000E+00 -0.45593999997E+02  0.45594000000E+02  0.51100000000E-03 0.  1.
    9900012    2    1    2    0    0  0.11618535114E+01  0.82880663377E-01  0.19100018263E+00  0.90007638252E+02  0.89999898277E+02 0.  0.
         12    1    1    2    0    0 -0.11618535114E+01 -0.82880663377E-01 -0.19100018263E+00  0.11803617479E+01  0.00000000000E+00 0. -1.
         11    1    3    3    0    0 -0.31152855080E+01  0.26712836434E+02  0.21968065547E+02  0.34725733085E+02  0.51100000000E-03 0. -1.
        -11    1    3    3    0    0 -0.17950783705E+01  0.48335151974E+01  0.93061178675E+01  0.10639032171E+02  0.51100000000E-03 0.  1.
        -12    1    3    3    0    0  0.60722173899E+01 -0.31463470968E+02 -0.31083183232E+02  0.44642872995E+02  0.00000000000E+00 0.  1.
</event>
<event>
 7    1  0.1698110E-015  0.9000766E+02  0.7816164E-02  0.1186339E+00
        -11   -1    0    0    0    0  0.00000000000E+00  0.00000000000E+00  0.45593999997E+02  0.45594000000E+02  0.51100000000E-03 0. -1.
         11   -1    0    0    0    0 -0.00000000000E+00 -0.00000000000E+00 -0.45593999997E+02  0.45594000000E+02  0.51100000000E-03 0.  1.
    9900012    2    1    2    0    0  0.29675102398E+00  0.52901951965E+00 -0.10125664740E+01  0.90007655268E+02  0.89999915517E+02 0.  0.
         12    1    1    2    0    0 -0.29675102398E+00 -0.52901951965E+00  0.10125664740E+01  0.11803447321E+01  0.00000000000E+00 0. -1.
         11    1    3    3    0    0 -0.21060722561E+01 -0.75995490744E+01 -0.48969390394E+01  0.92827096636E+01  0.51100000000E-03 0. -1.
        -11    1    3    3    0    0 -0.28341270074E+02 -0.22794518637E+02  0.68844742926E+01  0.37016397122E+02  0.51100000000E-03 0.  1.
         12    1    3    3    0    0  0.30744093354E+02  0.30923087231E+02 -0.30001017271E+01  0.43708548483E+02  0.00000000000E+00 0. -1.
</event>
<event>
 7    1  0.1698110E-015  0.9000772E+02  0.7816164E-02  0.1186339E+00
        -11   -1    0    0    0    0  0.00000000000E+00  0.00000000000E+00  0.45593999997E+02  0.45594000000E+02  0.51100000000E-03 0.  1.
         11   -1    0    0    0    0 -0.00000000000E+00 -0.00000000000E+00 -0.45593999997E+02  0.45594000000E+02  0.51100000000E-03 0. -1.
    9900012    2    1    2    0    0  0.11511110932E+01 -0.20453748736E+00 -0.16175948111E+00  0.90007721024E+02  0.89999982141E+02 0.  0.
         12    1    1    2    0    0 -0.11511110932E+01  0.20453748736E+00  0.16175948111E+00  0.11802789765E+01  0.00000000000E+00 0. -1.
         11    1    3    3    0    0 -0.97197641129E+01  0.12084362093E+01  0.29949152021E+00  0.97991748588E+01  0.51100000000E-03 0. -1.
        -11    1    3    3    0    0 -0.20792833304E+02  0.27644117895E+02  0.99424716212E+01  0.35991553359E+02  0.51100000000E-03 0.  1.
         12    1    3    3    0    0  0.31663708510E+02 -0.29057091591E+02 -0.10403722623E+02  0.44216992806E+02  0.00000000000E+00 0. -1.
</event>
<event>
 7    1  0.1698110E-015  0.9000766E+02  0.7816164E-02  0.1186339E+00
        -11   -1    0    0    0    0  0.00000000000E+00  0.00000000000E+00  0.45593999997E+02  0.45594000000E+02  0.51100000000E-03 0.  1.
         11   -1    0    0    0    0 -0.00000000000E+00 -0.00000000000E+00 -0.45593999997E+02  0.45594000000E+02  0.51100000000E-03 0. -1.
    9900012    2    1    2    0    0 -0.59124298888E+00 -0.67603851487E-01  0.10193432391E+01  0.90007661408E+02  0.89999921739E+02 0.  0.
         12    1    1    2    0    0  0.59124298888E+00  0.67603851487E-01 -0.10193432391E+01  0.11803385920E+01  0.00000000000E+00 0. -1.
         11    1    3    3    0    0  0.61387541458E+01  0.22978454900E+01 -0.74873259208E+01  0.99511027562E+01  0.51100000000E-03 0. -1.
        -11    1    3    3    0    0 -0.38301754186E+02  0.13673225192E+02  0.16271019239E+02  0.43803282162E+02  0.51100000000E-03 0.  1.
         12    1    3    3    0    0  0.31571757051E+02 -0.16038674533E+02 -0.77643500787E+01  0.36253276490E+02  0.00000000000E+00 0. -1.
</event>
<event>
 7    1  0.1698110E-015  0.9000785E+02  0.7816164E-02  0.1186339E+00
        -11   -1    0    0    0    0  0.00000000000E+00  0.00000000000E+00  0.45593999997E+02  0.45594000000E+02  0.51100000000E-03 0.  1.
         11   -1    0    0    0    0 -0.00000000000E+00 -0.00000000000E+00 -0.45593999997E+02  0.45594000000E+02  0.51100000000E-03 0. -1.
    9900012    2    1    2    0    0 -0.54916091455E+00 -0.42689316777E+00  0.95338330834E+00  0.90007849493E+02  0.90000112306E+02 0.  0.
         12    1    1    2    0    0  0.54916091455E+00  0.42689316777E+00 -0.95338330834E+00  0.11801505071E+01  0.00000000000E+00 0. -1.
         11    1    3    3    0    0  0.15807179554E+02  0.13801115582E+02 -0.25108731595E+02  0.32722868446E+02  0.51100000000E-03 0. -1.
        -11    1    3    3    0    0  0.59628693524E+01  0.38057693843E+01 -0.93387218638E+01  0.11715435025E+02  0.51100000000E-03 0.  1.
        -12    1    3    3    0    0 -0.22319209821E+02 -0.18033778134E+02  0.35400836767E+02  0.45569546022E+02  0.00000000000E+00 0.  1.
</event>
<event>
 7    1  0.1698110E-015  0.9000792E+02  0.7816164E-02  0.1186339E+00
        -11   -1    0    0    0    0  0.00000000000E+00  0.00000000000E+00  0.45593999997E+02  0.45594000000E+02  0.51100000000E-03 0. -1.
         11   -1    0    0    0    0 -0.00000000000E+00 -0.00000000000E+00 -0.45593999997E+02  0.45594000000E+02  0.51100000000E-03 0.  1.
    9900012    2    1    2    0    0  0.58378450076E+00  0.25501681261E+00 -0.99335735278E+00  0.90007916635E+02  0.90000180334E+02 0.  0.
         12    1    1    2    0    0 -0.58378450076E+00 -0.25501681261E+00  0.99335735278E+00  0.11800833650E+01  0.00000000000E+00 0. -1.
         11    1    3    3    0    0 -0.12322875486E+02 -0.17898165521E+02  0.13301927964E+02  0.25478203961E+02  0.51100000000E-03 0. -1.
        -11    1    3    3    0    0  0.11800679247E+02 -0.16138580645E+02 -0.21619804511E+02  0.29446999224E+02  0.51100000000E-03 0.  1.
         12    1    3    3    0    0  0.11059807393E+01  0.34291762979E+02  0.73245191942E+01  0.35082713450E+02  0.00000000000E+00 0. -1.
</event>
<event>
 7    1  0.1698110E-015  0.9000771E+02  0.7816164E-02  0.1186339E+00
        -11   -1    0    0    0    0  0.00000000000E+00  0.00000000000E+00  0.45593999997E+02  0.45594000000E+02  0.51100000000E-03 0. -1.
         11   -1    0    0    0    0 -0.00000000000E+00 -0.00000000000E+00 -0.45593999997E+02  0.45594000000E+02  0.51100000000E-03 0.  1.
    9900012    2    1    2    0    0  0.81466232443E+00 -0.44548320286E+00 -0.72866315047E+00  0.90007711911E+02  0.89999972908E+02 0.  0.
         12    1    1    2    0    0 -0.81466232443E+00  0.44548320286E+00  0.72866315047E+00  0.11802880893E+01  0.00000000000E+00 0. -1.
         11    1    3    3    0    0 -0.30217942710E+02 -0.20555728688E+02  0.13845059330E+02  0.39081296187E+02  0.51100000000E-03 0. -1.
        -11    1    3    3    0    0  0.11945735901E+02  0.26959660417E+01  0.95871047443E+01  0.15552537309E+02  0.51100000000E-03 0.  1.
        -12    1    3    3    0    0  0.19086869134E+02  0.17414279444E+02 -0.24160827225E+02  0.35373878415E+02  0.00000000000E+00 0.  1.
</event>
<event>
 7    1  0.1698110E-015  0.9000772E+02  0.7816164E-02  0.1186339E+00
        -11   -1    0    0    0    0  0.00000000000E+00  0.00000000000E+00  0.45593999997E+02  0.45594000000E+02  0.51100000000E-03 0.  1.
         11   -1    0    0    0    0 -0.00000000000E+00 -0.00000000000E+00 -0.45593999997E+02  0.45594000000E+02  0.51100000000E-03 0. -1.
    9900012    2    1    2    0    0  0.52251217010E+00 -0.10062495047E+01 -0.32786373502E+00  0.90007723904E+02  0.89999985060E+02 0.  0.
         12    1    1    2    0    0 -0.52251217010E+00  0.10062495047E+01  0.32786373502E+00  0.11802760958E+01  0.00000000000E+00 0. -1.
         11    1    3    3    0    0  0.32524154372E+01  0.83968160395E+01 -0.38349491629E+02  0.39392489566E+02  0.51100000000E-03 0. -1.
        -11    1    3    3    0    0 -0.15509106570E+01  0.10225095172E+02  0.35587309466E+01  0.10937205372E+02  0.51100000000E-03 0.  1.
        -12    1    3    3    0    0 -0.11789926101E+01 -0.19628160716E+02  0.34462896947E+02  0.39678028966E+02  0.00000000000E+00 0.  1.
</event>
<event>
 7    1  0.1698110E-015  0.9000771E+02  0.7816164E-02  0.1186339E+00
        -11   -1    0    0    0    0  0.00000000000E+00  0.00000000000E+00  0.45593999997E+02  0.45594000000E+02  0.51100000000E-03 0.  1.
         11   -1    0    0    0    0 -0.00000000000E+00 -0.00000000000E+00 -0.45593999997E+02  0.45594000000E+02  0.51100000000E-03 0. -1.
    9900012    2    1    2    0    0  0.15205288184E+00  0.98832526425E+00  0.62704354593E+00  0.90007707445E+02  0.89999968383E+02 0.  0.
         12    1    1    2    0    0 -0.15205288184E+00 -0.98832526425E+00 -0.62704354593E+00  0.11802925550E+01  0.00000000000E+00 0. -1.
         11    1    3    3    0    0  0.83126587506E+01 -0.37742022668E+01 -0.27312121318E+01  0.95291352296E+01  0.51100000000E-03 0. -1.
        -11    1    3    3    0    0  0.31158270271E+02 -0.10869299060E+02  0.15500130116E+02  0.36458654696E+02  0.51100000000E-03 0.  1.
         12    1    3    3    0    0 -0.39318876140E+02  0.15631826592E+02 -0.12141874439E+02  0.44019917519E+02  0.00000000000E+00 0. -1.
</event>
<event>
 7    1  0.1698110E-015  0.9000783E+02  0.7816164E-02  0.1186339E+00
        -11   -1    0    0    0    0  0.00000000000E+00  0.00000000000E+00  0.45593999997E+02  0.45594000000E+02  0.51100000000E-03 0.  1.
         11   -1    0    0    0    0 -0.00000000000E+00 -0.00000000000E+00 -0.45593999997E+02  0.45594000000E+02  0.51100000000E-03 0. -1.
    9900012    2    1    2    0    0  0.37959974119E+00  0.88969079400E+00  0.67613816473E+00  0.90007826924E+02  0.90000089439E+02 0.  0.
         12    1    1    2    0    0 -0.37959974119E+00 -0.88969079400E+00 -0.67613816473E+00  0.11801730764E+01  0.00000000000E+00 0. -1.
         11    1    3    3    0    0 -0.25239478802E+02 -0.16932697743E+02 -0.70532975314E+01  0.31200906227E+02  0.51100000000E-03 0. -1.
        -11    1    3    3    0    0  0.10263176721E+01 -0.15830705090E+02  0.63944643486E+01  0.17104202003E+02  0.51100000000E-03 0.  1.
        -12    1    3    3    0    0  0.24592760871E+02  0.33653093627E+02  0.13349713475E+01  0.41702718693E+02  0.00000000000E+00 0.  1.
</event>
<event>
 7    1  0.1698110E-015  0.9000775E+02  0.7816164E-02  0.1186339E+00
        -11   -1    0    0    0    0  0.00000000000E+00  0.00000000000E+00  0.45593999997E+02  0.45594000000E+02  0.51100000000E-03 0.  1.
         11   -1    0    0    0    0 -0.00000000000E+00 -0.00000000000E+00 -0.45593999997E+02  0.45594000000E+02  0.51100000000E-03 0. -1.
    9900012    2    1    2    0    0  0.98015448062E+00  0.39502370159E+00  0.52559457737E+00  0.90007747404E+02  0.90000008870E+02 0.  0.
         12    1    1    2    0    0 -0.98015448062E+00 -0.39502370159E+00 -0.52559457737E+00  0.11802525960E+01  0.00000000000E+00 0. -1.
         11    1    3    3    0    0 -0.29652527448E+02  0.72664275864E+01 -0.15091537680E+02  0.34056245591E+02  0.51100000000E-03 0. -1.
        -11    1    3    3    0    0 -0.93282244434E+01 -0.65496008569E+01 -0.31162854339E+01  0.11816271739E+02  0.51100000000E-03 0.  1.
        -12    1    3    3    0    0  0.39960906372E+02 -0.32180302792E+00  0.18733417691E+02  0.44135230074E+02  0.00000000000E+00 0.  1.
</event>
<event>
 7    1  0.1698110E-015  0.9000733E+02  0.7816164E-02  0.1186340E+00
        -11   -1    0    0    0    0  0.00000000000E+00  0.00000000000E+00  0.45593999997E+02  0.45594000000E+02  0.51100000000E-03 0. -1.
         11   -1    0    0    0    0 -0.00000000000E+00 -0.00000000000E+00 -0.45593999997E+02  0.45594000000E+02  0.51100000000E-03 0.  1.
    9900012    2    1    2    0    0  0.47278174990E+00  0.98794594907E+00 -0.44093815817E+00  0.90007328055E+02  0.89999583985E+02 0.  0.
         12    1    1    2    0    0 -0.47278174990E+00 -0.98794594907E+00  0.44093815817E+00  0.11806719446E+01  0.00000000000E+00 0. -1.
         11    1    3    3    0    0  0.57345443399E+01 -0.32256716332E+02  0.14291315136E+02  0.35743844727E+02  0.51100000000E-03 0. -1.
        -11    1    3    3    0    0  0.40844073246E+00 -0.36543772196E+01  0.92076617966E+01  0.99147532857E+01  0.51100000000E-03 0.  1.
        -12    1    3    3    0    0 -0.56702033225E+01  0.36899039501E+02 -0.23939915091E+02  0.44348730042E+02  0.00000000000E+00 0.  1.
</event>
<event>
 7    1  0.1698110E-015  0.9000771E+02  0.7816164E-02  0.1186339E+00
        -11   -1    0    0    0    0  0.00000000000E+00  0.00000000000E+00  0.45593999997E+02  0.45594000000E+02  0.51100000000E-03 0. -1.
         11   -1    0    0    0    0 -0.00000000000E+00 -0.00000000000E+00 -0.45593999997E+02  0.45594000000E+02  0.51100000000E-03 0.  1.
    9900012    2    1    2    0    0  0.31802892234E-01 -0.77519420799E+00 -0.88946984741E+00  0.90007705929E+02  0.89999966847E+02 0.  0.
         12    1    1    2    0    0 -0.31802892234E-01  0.77519420799E+00  0.88946984741E+00  0.11802940708E+01  0.00000000000E+00 0. -1.
         11    1    3    3    0    0  0.15561294731E+02  0.30812610031E+02  0.97861288455E+01  0.35879508757E+02  0.51100000000E-03 0. -1.
        -11    1    3    3    0    0  0.22515881901E+00  0.75976742487E+01  0.49786379175E+01  0.90863736583E+01  0.51100000000E-03 0.  1.
        -12    1    3    3    0    0 -0.15754650658E+02 -0.39185478487E+02 -0.15654236610E+02  0.45041823514E+02  0.00000000000E+00 0.  1.
</event>
<event>
 7    1  0.1698110E-015  0.9000774E+02  0.7816164E-02  0.1186339E+00
        -11   -1    0    0    0    0  0.00000000000E+00  0.00000000000E+00  0.45593999997E+02  0.45594000000E+02  0.51100000000E-03 0. -1.
         11   -1    0    0    0    0 -0.00000000000E+00 -0.00000000000E+00 -0.45593999997E+02  0.45594000000E+02  0.51100000000E-03 0.  1.
    9900012    2    1    2    0    0 -0.19393932903E+00  0.94563204154E+00 -0.67910188883E+00  0.90007740793E+02  0.90000002171E+02 0.  0.
         12    1    1    2    0    0  0.19393932903E+00 -0.94563204154E+00  0.67910188883E+00  0.11802592074E+01  0.00000000000E+00 0. -1.
         11    1    3    3    0    0 -0.86898771342E+01  0.37134956968E+01  0.95587319263E+01  0.13441479502E+02  0.51100000000E-03 0. -1.
        -11    1    3    3    0    0 -0.23537477410E+02  0.24194662276E+02 -0.14641910183E+01  0.33786659810E+02  0.51100000000E-03 0.  1.
         12    1    3    3    0    0  0.32033415215E+02 -0.26962525931E+02 -0.87736427968E+01  0.42779601481E+02  0.00000000000E+00 0. -1.
</event>
<event>
 7    1  0.1698110E-015  0.9000771E+02  0.7816164E-02  0.1186339E+00
        -11   -1    0    0    0    0  0.00000000000E+00  0.00000000000E+00  0.45593999997E+02  0.45594000000E+02  0.51100000000E-03 0.  1.
         11   -1    0    0    0    0 -0.00000000000E+00 -0.00000000000E+00 -0.45593999997E+02  0.45594000000E+02  0.51100000000E-03 0. -1.
    9900012    2    1    2    0    0 -0.88707821162E+00 -0.41116360823E+00 -0.66114280391E+00  0.90007714834E+02  0.89999975870E+02 0.  0.
         12    1    1    2    0    0  0.88707821162E+00  0.41116360823E+00  0.66114280391E+00  0.11802851661E+01  0.00000000000E+00 0. -1.
         11    1    3    3    0    0 -0.63632292110E+00  0.14870788903E+01 -0.98000206922E+01  0.99326087366E+01  0.51100000000E-03 0. -1.
        -11    1    3    3    0    0  0.39252341955E+02  0.89253720779E+00 -0.70349389627E+00  0.39268790095E+02  0.51100000000E-03 0.  1.
         12    1    3    3    0    0 -0.39503097245E+02 -0.27907797063E+01  0.98423717846E+01  0.40806316002E+02  0.00000000000E+00 0. -1.
</event>
<event>
 7    1  0.1698110E-015  0.9000765E+02  0.7816164E-02  0.1186339E+00
        -11   -1    0    0    0    0  0.00000000000E+00  0.00000000000E+00  0.45593999997E+02  0.45594000000E+02  0.51100000000E-03 0.  1.
         11   -1    0    0    0    0 -0.00000000000E+00 -0.00000000000E+00 -0.45593999997E+02  0.45594000000E+02  0.51100000000E-03 0. -1.
    9900012    2    1    2    0    0  0.76828961865E+00  0.51396686587E+00  0.73402453910E+00  0.90007651364E+02  0.89999911562E+02 0.  0.
         12    1    1    2    0    0 -0.76828961865E+00 -0.51396686587E+00 -0.73402453910E+00  0.11803486355E+01  0.00000000000E+00 0. -1.
         11    1    3    3    0    0  0.68835768100E+01  0.61943722702E+01  0.10767918362E+01  0.93227334210E+01  0.51100000000E-03 0. -1.
        -11    1    3    3    0    0 -0.13578976886E-01 -0.42797533945E+02 -0.34812939432E+01  0.42938892673E+02  0.51100000000E-03 0.  1.
         12    1    3    3    0    0 -0.61017082144E+01  0.37117128541E+02  0.31385266461E+01  0.37746025271E+02  0.00000000000E+00 0. -1.
</event>
<event>
 7    1  0.1698110E-015  0.9000788E+02  0.7816164E-02  0.1186339E+00
        -11   -1    0    0    0    0  0.00000000000E+00  0.00000000000E+00  0.45593999997E+02  0.45594000000E+02  0.51100000000E-03 0.  1.
         11   -1    0    0    0    0 -0.00000000000E+00 -0.00000000000E+00 -0.45593999997E+02  0.45594000000E+02  0.51100000000E-03 0. -1.
    9900012    2    1    2    0    0 -0.10476393681E+01 -0.40228729166E+00  0.36509163484E+00  0.90007883390E+02  0.90000146651E+02 0.  0.
         12    1    1    2    0    0  0.10476393681E+01  0.40228729166E+00 -0.36509163484E+00  0.11801166097E+01  0.00000000000E+00 0. -1.
         11    1    3    3    0    0  0.25765178085E+02 -0.17505362193E+02 -0.18353975131E+02  0.36154536515E+02  0.51100000000E-03 0. -1.
        -11    1    3    3    0    0  0.10196919459E+02  0.15228283162E+01  0.30843242498E+01  0.10761469643E+02  0.51100000000E-03 0.  1.
        -12    1    3    3    0    0 -0.37009736911E+02  0.15580246585E+02  0.15634742516E+02  0.43091877233E+02  0.00000000000E+00 0.  1.
</event>
<event>
 7    1  0.1698110E-015  0.9000795E+02  0.7816164E-02  0.1186339E+00
        -11   -1    0    0    0    0  0.00000000000E+00  0.00000000000E+00  0.45593999997E+02  0.45594000000E+02  0.51100000000E-03 0. -1.
         11   -1    0    0    0    0 -0.00000000000E+00 -0.00000000000E+00 -0.45593999997E+02  0.45594000000E+02  0.51100000000E-03 0.  1.
    9900012    2    1    2    0    0  0.28374903444E+00  0.76549856112E+00 -0.85206745074E+00  0.90007948941E+02  0.90000213067E+02 0.  0.
         12    1    1    2    0    0 -0.28374903444E+00 -0.76549856112E+00  0.85206745074E+00  0.11800510592E+01  0.00000000000E+00 0. -1.
         11    1    3    3    0    0  0.24857741304E+02 -0.27916484020E+02  0.99571052784E+01  0.38683088406E+02  0.51100000000E-03 0. -1.
        -11    1    3    3    0    0  0.72002398870E+01  0.78233808558E+01  0.27285449697E+01  0.10976962255E+02  0.51100000000E-03 0.  1.
        -12    1    3    3    0    0 -0.31774232157E+02  0.20858601725E+02 -0.13537717699E+02  0.40347898280E+02  0.00000000000E+00 0.  1.
</event>
<event>
 7    1  0.1698110E-015  0.9000767E+02  0.7816164E-02  0.1186339E+00
        -11   -1    0    0    0    0  0.00000000000E+00  0.00000000000E+00  0.45593999997E+02  0.45594000000E+02  0.51100000000E-03 0.  1.
         11   -1    0    0    0    0 -0.00000000000E+00 -0.00000000000E+00 -0.45593999997E+02  0.45594000000E+02  0.51100000000E-03 0. -1.
    9900012    2    1    2    0    0 -0.99934428526E+00 -0.54018208768E+00 -0.32046874064E+00  0.90007667038E+02  0.89999927442E+02 0.  0.
         12    1    1    2    0    0  0.99934428526E+00  0.54018208768E+00  0.32046874064E+00  0.11803329624E+01  0.00000000000E+00 0. -1.
         11    1    3    3    0    0  0.33254485336E+01 -0.64675527381E+01 -0.61125506003E+01  0.95000590246E+01  0.51100000000E-03 0. -1.
        -11    1    3    3    0    0  0.21145524778E+02 -0.26833140768E+02 -0.10780043873E+02  0.35824014400E+02  0.51100000000E-03 0.  1.
         12    1    3    3    0    0 -0.25470317596E+02  0.32760511418E+02  0.16572125733E+02  0.44683593613E+02  0.00000000000E+00 0. -1.
</event>
<event>
 7    1  0.1698110E-015  0.9000776E+02  0.7816164E-02  0.1186339E+00
        -11   -1    0    0    0    0  0.00000000000E+00  0.00000000000E+00  0.45593999997E+02  0.45594000000E+02  0.51100000000E-03 0.  1.
         11   -1    0    0    0    0 -0.00000000000E+00 -0.00000000000E+00 -0.45593999997E+02  0.45594000000E+02  0.51100000000E-03 0. -1.
    9900012    2    1    2    0    0  0.68909256750E+00  0.72315674078E+00  0.62861046066E+00  0.90007764706E+02  0.90000026400E+02 0.  0.
         12    1    1    2    0    0 -0.68909256750E+00 -0.72315674078E+00 -0.62861046066E+00  0.11802352942E+01  0.00000000000E+00 0. -1.
         11    1    3    3    0    0  0.34221892665E+02 -0.20914908223E+02 -0.50120663535E+01  0.40418957594E+02  0.51100000000E-03 0. -1.
        -11    1    3    3    0    0 -0.73712990310E+01 -0.72135463188E+01  0.15137007431E+01  0.10424134981E+02  0.51100000000E-03 0.  1.
        -12    1    3    3    0    0 -0.26161501067E+02  0.28851611283E+02  0.41269760711E+01  0.39164672131E+02  0.00000000000E+00 0.  1.
</event>
<event>
 7    1  0.1698110E-015  0.9000770E+02  0.7816164E-02  0.1186339E+00
        -11   -1    0    0    0    0  0.00000000000E+00  0.00000000000E+00  0.45593999997E+02  0.45594000000E+02  0.51100000000E-03 0. -1.
         11   -1    0    0    0    0 -0.00000000000E+00 -0.00000000000E+00 -0.45593999997E+02  0.45594000000E+02  0.51100000000E-03 0.  1.
    9900012    2    1    2    0    0  0.37809128203E+00 -0.36206170431E+00 -0.10578576161E+01  0.90007701550E+02  0.89999962410E+02 0.  0.
         12    1    1    2    0    0 -0.37809128203E+00  0.36206170431E+00  0.10578576161E+01  0.11802984500E+01  0.00000000000E+00 0. -1.
         11    1    3    3    0    0  0.35250649458E+02  0.15131913901E+02 -0.27482577435E+01  0.38459537522E+02  0.51100000000E-03 0. -1.
        -11    1    3    3    0    0  0.55946599634E+01 -0.48936265306E+01 -0.53088597114E+01  0.91341005262E+01  0.51100000000E-03 0.  1.
        -12    1    3    3    0    0 -0.40467218139E+02 -0.10600349075E+02  0.69992598388E+01  0.42414063502E+02  0.00000000000E+00 0.  1.
</event>
<event>
 7    1  0.1698110E-015  0.9000772E+02  0.7816164E-02  0.1186339E+00
        -11   -1    0    0    0    0  0.00000000000E+00  0.00000000000E+00  0.45593999997E+02  0.45594000000E+02  0.51100000000E-03 0. -1.
         11   -1    0    0    0    0 -0.00000000000E+00 -0.00000000000E+00 -0.45593999997E+02  0.45594000000E+02  0.51100000000E-03 0.  1.
    9900012    2    1    2    0    0  0.34007588364E+00 -0.69726230897E+00 -0.88950903683E+00  0.90007723481E+02  0.89999984631E+02 0.  0.
         12    1    1    2    0    0 -0.34007588364E+00  0.69726230897E+00  0.88950903683E+00  0.11802765188E+01  0.00000000000E+00 0. -1.
         11    1    3    3    0    0  0.27561218134E+02 -0.26916302368E+01  0.26199090095E+02  0.38121620380E+02  0.51100000000E-03 0. -1.
        -11    1    3    3    0    0  0.36907109805E+01 -0.48087327418E+01  0.42041431331E+01  0.73769965344E+01  0.51100000000E-03 0.  1.
        -12    1    3    3    0    0 -0.30911853231E+02  0.68031006697E+01 -0.31292742265E+02  0.44509106566E+02  0.00000000000E+00 0.  1.
</event>
<event>
 7    1  0.1698110E-015  0.9000768E+02  0.7816164E-02  0.1186339E+00
        -11   -1    0    0    0    0  0.00000000000E+00  0.00000000000E+00  0.45593999997E+02  0.45594000000E+02  0.51100000000E-03 0. -1.
         11   -1    0    0    0    0 -0.00000000000E+00 -0.00000000000E+00 -0.45593999997E+02  0.45594000000E+02  0.51100000000E-03 0.  1.
    9900012    2    1    2    0    0 -0.15178507417E+00  0.93114159383E+00 -0.70928725340E+00  0.90007681490E+02  0.89999942086E+02 0.  0.
         12    1    1    2    0    0  0.15178507417E+00 -0.93114159383E+00  0.70928725340E+00  0.11803185097E+01  0.00000000000E+00 0. -1.
         11    1    3    3    0    0 -0.27581142725E+01  0.22291905664E+01  0.57142915236E+01  0.67252964841E+01  0.51100000000E-03 0. -1.
        -11    1    3    3    0    0 -0.59404380405E+01  0.30733166969E+02  0.23089811252E+02  0.38896731739E+02  0.51100000000E-03 0.  1.
         12    1    3    3    0    0  0.85467672389E+01 -0.32031215942E+02 -0.29513390029E+02  0.44385653267E+02  0.00000000000E+00 0. -1.
</event>
<event>
 7    1  0.1698110E-015  0.9000773E+02  0.7816164E-02  0.1186339E+00
        -11   -1    0    0    0    0  0.00000000000E+00  0.00000000000E+00  0.45593999997E+02  0.45594000000E+02  0.51100000000E-03 0. -1.
         11   -1    0    0    0    0 -0.00000000000E+00 -0.00000000000E+00 -0.45593999997E+02  0.45594000000E+02  0.51100000000E-03 0.  1.
    9900012    2    1    2    0    0  0.55861535285E+00  0.88603461521E+00  0.54398477632E+00  0.90007733975E+02  0.89999995264E+02 0.  0.
         12    1    1    2    0    0 -0.55861535285E+00 -0.88603461521E+00 -0.54398477632E+00  0.11802660245E+01  0.00000000000E+00 0. -1.
         11    1    3    3    0    0  0.19298645896E+02  0.19738159186E+00  0.32882223424E+02  0.38127644964E+02  0.51100000000E-03 0. -1.
        -11    1    3    3    0    0  0.92987546309E+01 -0.38987661960E-01 -0.30653555852E+00  0.93038874688E+01  0.51100000000E-03 0.  1.
        -12    1    3    3    0    0 -0.28038785174E+02  0.72764068531E+00 -0.32031703089E+02  0.42576201543E+02  0.00000000000E+00 0.  1.
</event>
<event>
 7    1  0.1698110E-015  0.9000773E+02  0.7816164E-02  0.1186339E+00
        -11   -1    0    0    0    0  0.00000000000E+00  0.00000000000E+00  0.45593999997E+02  0.45594000000E+02  0.51100000000E-03 0.  1.
         11   -1    0    0    0    0 -0.00000000000E+00 -0.00000000000E+00 -0.45593999997E+02  0.45594000000E+02  0.51100000000E-03 0. -1.
    9900012    2    1    2    0    0  0.18547609921E+00  0.40285878646E+00  0.10937737902E+01  0.90007729824E+02  0.89999991057E+02 0.  0.
         12    1    1    2    0    0 -0.18547609921E+00 -0.40285878646E+00 -0.10937737902E+01  0.11802701764E+01  0.00000000000E+00 0. -1.
         11    1    3    3    0    0 -0.24296882464E+02 -0.29377134638E+02 -0.12315315994E+02  0.40062720143E+02  0.51100000000E-03 0. -1.
        -11    1    3    3    0    0  0.14243057475E+02 -0.22524868899E+01  0.51936965193E+01  0.15326867495E+02  0.51100000000E-03 0.  1.
        -12    1    3    3    0    0  0.10239301088E+02  0.32032480314E+02  0.82153932645E+01  0.34618142185E+02  0.00000000000E+00 0.  1.
</event>
<event>
 7    1  0.1698110E-015  0.9000754E+02  0.7816164E-02  0.1186339E+00
        -11   -1    0    0    0    0  0.00000000000E+00  0.00000000000E+00  0.45593999997E+02  0.45594000000E+02  0.51100000000E-03 0.  1.
         11   -1    0    0    0    0 -0.00000000000E+00 -0.00000000000E+00 -0.45593999997E+02  0.45594000000E+02  0.51100000000E-03 0. -1.
    9900012    2    1    2    0    0  0.13122041520E+00  0.15613883809E+00  0.11627095091E+01  0.90007537575E+02  0.89999796271E+02 0.  0.
         12    1    1    2    0    0 -0.13122041520E+00 -0.15613883809E+00 -0.11627095091E+01  0.11804624250E+01  0.00000000000E+00 0. -1.
         11    1    3    3    0    0  0.85208293940E+01  0.13347465515E+01  0.14035140240E+02  0.16473349500E+02  0.51100000000E-03 0. -1.
        -11    1    3    3    0    0 -0.12848652112E+01 -0.24446543304E+02  0.20710069201E+02  0.32065422572E+02  0.51100000000E-03 0.  1.
         12    1    3    3    0    0 -0.71047437677E+01  0.23267935591E+02 -0.33582499932E+02  0.41468765503E+02  0.00000000000E+00 0. -1.
</event>
<event>
 7    1  0.1698110E-015  0.9000777E+02  0.7816164E-02  0.1186339E+00
        -11   -1    0    0    0    0  0.00000000000E+00  0.00000000000E+00  0.45593999997E+02  0.45594000000E+02  0.51100000000E-03 0.  1.
         11   -1    0    0    0    0 -0.00000000000E+00 -0.00000000000E+00 -0.45593999997E+02  0.45594000000E+02  0.51100000000E-03 0. -1.
    9900012    2    1    2    0    0  0.77991716830E+00 -0.40890888923E+00  0.78579081008E+00  0.90007769316E+02  0.90000031071E+02 0.  0.
         12    1    1    2    0    0 -0.77991716830E+00  0.40890888923E+00 -0.78579081008E+00  0.11802306835E+01  0.00000000000E+00 0. -1.
         11    1    3    3    0    0  0.62929651370E+01  0.11106094308E+02  0.44105940558E+01  0.13505557419E+02  0.51100000000E-03 0. -1.
        -11    1    3    3    0    0 -0.49859811838E+01 -0.36047845813E+02  0.20769928689E+02  0.41901039774E+02  0.51100000000E-03 0.  1.
         12    1    3    3    0    0 -0.52706678483E+00  0.24532842616E+02 -0.24394731935E+02  0.34601172124E+02  0.00000000000E+00 0. -1.
</event>
<event>
 7    1  0.1976954E-015  0.9000772E+02  0.7816164E-02  0.1186339E+00
        -11   -1    0    0    0    0  0.00000000000E+00  0.00000000000E+00  0.45593999997E+02  0.45594000000E+02  0.51100000000E-03 0.  1.
         11   -1    0    0    0    0 -0.00000000000E+00 -0.00000000000E+00 -0.45593999997E+02  0.45594000000E+02  0.51100000000E-03 0. -1.
    9900012    2    1    2    0    0 -0.11025226217E+01  0.40739616367E+00  0.10734884680E+00  0.90007723956E+02  0.89999985112E+02 0.  0.
         12    1    1    2    0    0  0.11025226217E+01 -0.40739616367E+00 -0.10734884680E+00  0.11802760442E+01  0.00000000000E+00 0. -1.
         11    1    3    3    0    0 -0.48418641904E+01 -0.74326294339E+01 -0.35638817946E+01  0.95597532838E+01  0.51100000000E-03 0. -1.
        -11    1    3    3    0    0 -0.32353586002E+02  0.11134084302E+02  0.21134922547E+02  0.40217002770E+02  0.51100000000E-03 0.  1.
         12    1    3    3    0    0  0.36092927571E+02 -0.32940587042E+01 -0.17463691905E+02  0.40230967902E+02  0.00000000000E+00 0. -1.
</event>
<event>
 7    1  0.1698110E-015  0.9000782E+02  0.7816164E-02  0.1186339E+00
        -11   -1    0    0    0    0  0.00000000000E+00  0.00000000000E+00  0.45593999997E+02  0.45594000000E+02  0.51100000000E-03 0. -1.
         11   -1    0    0    0    0 -0.00000000000E+00 -0.00000000000E+00 -0.45593999997E+02  0.45594000000E+02  0.51100000000E-03 0.  1.
    9900012    2    1    2    0    0  0.14443715346E+00 -0.89820385359E+00  0.75179071955E+00  0.90007821395E+02  0.90000083837E+02 0.  0.
         12    1    1    2    0    0 -0.14443715346E+00  0.89820385359E+00 -0.75179071955E+00  0.11801786051E+01  0.00000000000E+00 0. -1.
         11    1    3    3    0    0 -0.10920037173E+02  0.94936537000E+01  0.25460482392E+01  0.14692141924E+02  0.51100000000E-03 0. -1.
        -11    1    3    3    0    0  0.47733616344E+01  0.30951887522E+02  0.80857931929E+01  0.32344773524E+02  0.51100000000E-03 0.  1.
         12    1    3    3    0    0  0.62911126918E+01 -0.41343745076E+02 -0.98800507125E+01  0.42970905947E+02  0.00000000000E+00 0. -1.
</event>
<event>
 7    1  0.1698110E-015  0.9000775E+02  0.7816164E-02  0.1186339E+00
        -11   -1    0    0    0    0  0.00000000000E+00  0.00000000000E+00  0.45593999997E+02  0.45594000000E+02  0.51100000000E-03 0.  1.
         11   -1    0    0    0    0 -0.00000000000E+00 -0.00000000000E+00 -0.45593999997E+02  0.45594000000E+02  0.51100000000E-03 0. -1.
    9900012    2    1    2    0    0  0.91973287463E+00  0.64831583771E+00  0.35604322915E+00  0.90007750549E+02  0.90000012056E+02 0.  0.
         12    1    1    2    0    0 -0.91973287463E+00 -0.64831583771E+00 -0.35604322915E+00  0.11802494512E+01  0.00000000000E+00 0. -1.
         11    1    3    3    0    0 -0.19889487293E+01  0.49794979378E+01 -0.90657464957E+01  0.10532762057E+02  0.51100000000E-03 0. -1.
        -11    1    3    3    0    0 -0.17583865755E+01  0.28805693339E+02 -0.19840473961E+02  0.35021483397E+02  0.51100000000E-03 0.  1.
         12    1    3    3    0    0  0.46670681795E+01 -0.33136875439E+02  0.29262263685E+02  0.44453505095E+02  0.00000000000E+00 0. -1.
</event>
<event>
 7    1  0.1698110E-015  0.9000761E+02  0.7816164E-02  0.1186339E+00
        -11   -1    0    0    0    0  0.00000000000E+00  0.00000000000E+00  0.45593999997E+02  0.45594000000E+02  0.51100000000E-03 0. -1.
         11   -1    0    0    0    0 -0.00000000000E+00 -0.00000000000E+00 -0.45593999997E+02  0.45594000000E+02  0.51100000000E-03 0.  1.
    9900012    2    1    2    0    0 -0.78471827662E+00  0.15429356995E+00 -0.86817064120E+00  0.90007614664E+02  0.89999874377E+02 0.  0.
         12    1    1    2    0    0  0.78471827662E+00 -0.15429356995E+00  0.86817064120E+00  0.11803853361E+01  0.00000000000E+00 0. -1.
         11    1    3    3    0    0  0.37725045233E+02 -0.42465542554E+01  0.12614436167E+02  0.40004203041E+02  0.51100000000E-03 0. -1.
        -11    1    3    3    0    0  0.29875589607E+01 -0.47671306822E+01 -0.10386111132E+01  0.57209926403E+01  0.51100000000E-03 0.  1.
        -12    1    3    3    0    0 -0.41497322470E+02  0.91679785076E+01 -0.12443995695E+02  0.44282418983E+02  0.00000000000E+00 0.  1.
</event>
<event>
 7    1  0.1698110E-015  0.9000764E+02  0.7816164E-02  0.1186339E+00
        -11   -1    0    0    0    0  0.00000000000E+00  0.00000000000E+00  0.45593999997E+02  0.45594000000E+02  0.51100000000E-03 0. -1.
         11   -1    0    0    0    0 -0.00000000000E+00 -0.00000000000E+00 -0.45593999997E+02  0.45594000000E+02  0.51100000000E-03 0.  1.
    9900012    2    1    2    0    0 -0.91318729415E+00  0.87813394685E-01 -0.74271001657E+00  0.90007643954E+02  0.89999904054E+02 0.  0.
         12    1    1    2    0    0  0.91318729415E+00 -0.87813394685E-01  0.74271001657E+00  0.11803560459E+01  0.00000000000E+00 0. -1.
         11    1    3    3    0    0 -0.70636553630E+01 -0.20993680136E+01  0.24960928288E+01  0.77802990183E+01  0.51100000000E-03 0. -1.
        -11    1    3    3    0    0 -0.20287690150E+02 -0.32524359002E+02  0.13252119569E+01  0.38355970684E+02  0.51100000000E-03 0.  1.
         12    1    3    3    0    0  0.26438158219E+02  0.34711540410E+02 -0.45640148023E+01  0.43871374252E+02  0.00000000000E+00 0. -1.
</event>
<event>
 7    1  0.1698110E-015  0.9000787E+02  0.7816164E-02  0.1186339E+00
        -11   -1    0    0    0    0  0.00000000000E+00  0.00000000000E+00  0.45593999997E+02  0.45594000000E+02  0.51100000000E-03 0. -1.
         11   -1    0    0    0    0 -0.00000000000E+00 -0.00000000000E+00 -0.45593999997E+02  0.45594000000E+02  0.51100000000E-03 0.  1.
    9900012    2    1    2    0    0 -0.64494185251E+00  0.59488922479E+00 -0.78921331567E+00  0.90007872532E+02  0.90000135649E+02 0.  0.
         12    1    1    2    0    0  0.64494185251E+00 -0.59488922479E+00  0.78921331567E+00  0.11801274679E+01  0.00000000000E+00 0. -1.
         11    1    3    3    0    0 -0.24968748446E+02  0.45578983848E+00  0.31071617326E+02  0.39863411129E+02  0.51100000000E-03 0. -1.
        -11    1    3    3    0    0 -0.70891240606E+01  0.89114904645E+00 -0.42385295704E+01  0.83075242852E+01  0.51100000000E-03 0.  1.
        -12    1    3    3    0    0  0.31412930654E+02 -0.75204966014E+00 -0.27622301071E+02  0.41836937118E+02  0.00000000000E+00 0.  1.
</event>
<event>
 7    1  0.1698110E-015  0.9000773E+02  0.7816164E-02  0.1186339E+00
        -11   -1    0    0    0    0  0.00000000000E+00  0.00000000000E+00  0.45593999997E+02  0.45594000000E+02  0.51100000000E-03 0. -1.
         11   -1    0    0    0    0 -0.00000000000E+00 -0.00000000000E+00 -0.45593999997E+02  0.45594000000E+02  0.51100000000E-03 0.  1.
    9900012    2    1    2    0    0 -0.56039983696E+00 -0.97507192964E+00 -0.35808937966E+00  0.90007728316E+02  0.89999989529E+02 0.  0.
         12    1    1    2    0    0  0.56039983696E+00  0.97507192964E+00  0.35808937966E+00  0.11802716844E+01  0.00000000000E+00 0. -1.
         11    1    3    3    0    0  0.22737903103E+02  0.56930030460E+01  0.28627649177E+02  0.36999524576E+02  0.51100000000E-03 0. -1.
        -11    1    3    3    0    0  0.29980768128E+01  0.96087112532E+01  0.76556469064E+00  0.10094646407E+02  0.51100000000E-03 0.  1.
        -12    1    3    3    0    0 -0.26296379753E+02 -0.16276786229E+02 -0.29751303247E+02  0.42913557333E+02  0.00000000000E+00 0.  1.
</event>
<event>
 7    1  0.1698110E-015  0.9000867E+02  0.7816164E-02  0.1186337E+00
        -11   -1    0    0    0    0  0.00000000000E+00  0.00000000000E+00  0.45593999997E+02  0.45594000000E+02  0.51100000000E-03 0.  1.
         11   -1    0    0    0    0 -0.00000000000E+00 -0.00000000000E+00 -0.45593999997E+02  0.45594000000E+02  0.51100000000E-03 0. -1.
    9900012    2    1    2    0    0 -0.56921457068E+00 -0.54262198041E+00 -0.87884800220E+00  0.90008670677E+02  0.90000944325E+02 0.  0.
         12    1    1    2    0    0  0.56921457068E+00  0.54262198041E+00  0.87884800220E+00  0.11793293230E+01  0.00000000000E+00 0. -1.
         11    1    3    3    0    0  0.92970399267E+01 -0.26604644471E+01  0.22801654169E+01  0.99354001964E+01  0.51100000000E-03 0. -1.
        -11    1    3    3    0    0 -0.27418069418E+01  0.15695083889E+02  0.35268119995E+02  0.38700044597E+02  0.51100000000E-03 0.  1.
         12    1    3    3    0    0 -0.71244475556E+01 -0.13577241422E+02 -0.38427133414E+02  0.41373225884E+02  0.00000000000E+00 0. -1.
</event>
<event>
 7    1  0.1698110E-015  0.9000776E+02  0.7816164E-02  0.1186339E+00
        -11   -1    0    0    0    0  0.00000000000E+00  0.00000000000E+00  0.45593999997E+02  0.45594000000E+02  0.51100000000E-03 0. -1.
         11   -1    0    0    0    0 -0.00000000000E+00 -0.00000000000E+00 -0.45593999997E+02  0.45594000000E+02  0.51100000000E-03 0.  1.
    9900012    2    1    2    0    0 -0.23440022277E+00  0.60846613629E+00 -0.98376265783E+00  0.90007761266E+02  0.90000022914E+02 0.  0.
         12    1    1    2    0    0  0.23440022277E+00 -0.60846613629E+00  0.98376265783E+00  0.11802387345E+01  0.00000000000E+00 0. -1.
         11    1    3    3    0    0  0.22078598883E+02  0.56036522384E+01 -0.57662213845E+01  0.23497122300E+02  0.51100000000E-03 0. -1.
        -11    1    3    3    0    0  0.94877237165E+00  0.26326347008E+02 -0.36498430701E+01  0.26595076058E+02  0.51100000000E-03 0.  1.
         12    1    3    3    0    0 -0.23261771478E+02 -0.31321533111E+02  0.84323017968E+01  0.39915562908E+02  0.00000000000E+00 0. -1.
</event>
<event>
 7    1  0.1814144E-015  0.9000756E+02  0.7816164E-02  0.1186339E+00
        -11   -1    0    0    0    0  0.00000000000E+00  0.00000000000E+00  0.45593999997E+02  0.45594000000E+02  0.51100000000E-03 0. -1.
         11   -1    0    0    0    0 -0.00000000000E+00 -0.00000000000E+00 -0.45593999997E+02  0.45594000000E+02  0.51100000000E-03 0.  1.
    9900012    2    1    2    0    0  0.33759200508E+00  0.41986602468E+00 -0.10503213901E+01  0.90007563274E+02  0.89999822309E+02 0.  0.
         12    1    1    2    0    0 -0.33759200508E+00 -0.41986602468E+00  0.10503213901E+01  0.11804367256E+01  0.00000000000E+00 0. -1.
         11    1    3    3    0    0 -0.54869894116E+01  0.17080922186E+01  0.80250063300E+01  0.98704284957E+01  0.51100000000E-03 0. -1.
        -11    1    3    3    0    0  0.92155625225E-01 -0.39845246213E+02 -0.10235672822E+02  0.41139046377E+02  0.51100000000E-03 0.  1.
         12    1    3    3    0    0  0.57324257915E+01  0.38557020019E+02  0.11603451022E+01  0.38998088401E+02  0.00000000000E+00 0. -1.
</event>
<event>
 7    1  0.1698110E-015  0.9000774E+02  0.7816164E-02  0.1186339E+00
        -11   -1    0    0    0    0  0.00000000000E+00  0.00000000000E+00  0.45593999997E+02  0.45594000000E+02  0.51100000000E-03 0. -1.
         11   -1    0    0    0    0 -0.00000000000E+00 -0.00000000000E+00 -0.45593999997E+02  0.45594000000E+02  0.51100000000E-03 0.  1.
    9900012    2    1    2    0    0 -0.10607538569E+01  0.32562600487E+00 -0.40223596972E+00  0.90007735277E+02  0.89999996583E+02 0.  0.
         12    1    1    2    0    0  0.10607538569E+01 -0.32562600487E+00  0.40223596972E+00  0.11802647226E+01  0.00000000000E+00 0. -1.
         11    1    3    3    0    0  0.41628739945E+01 -0.27188856957E+01 -0.71953704002E+01  0.87461542850E+01  0.51100000000E-03 0. -1.
        -11    1    3    3    0    0  0.10387960480E+02 -0.95605089725E+01 -0.33442498141E+02  0.36300326953E+02  0.51100000000E-03 0.  1.
         12    1    3    3    0    0 -0.15611588332E+02  0.12605020673E+02  0.40235632571E+02  0.44961254039E+02  0.00000000000E+00 0. -1.
</event>
<event>
 7    1  0.1698110E-015  0.9000782E+02  0.7816164E-02  0.1186339E+00
        -11   -1    0    0    0    0  0.00000000000E+00  0.00000000000E+00  0.45593999997E+02  0.45594000000E+02  0.51100000000E-03 0.  1.
         11   -1    0    0    0    0 -0.00000000000E+00 -0.00000000000E+00 -0.45593999997E+02  0.45594000000E+02  0.51100000000E-03 0. -1.
    9900012    2    1    2    0    0 -0.86292696562E+00  0.22038810580E+00  0.77434704664E+00  0.90007818991E+02  0.90000081402E+02 0.  0.
         12    1    1    2    0    0  0.86292696562E+00 -0.22038810580E+00 -0.77434704664E+00  0.11801810089E+01  0.00000000000E+00 0. -1.
         11    1    3    3    0    0  0.29676223069E+01  0.35559559631E+01 -0.85688472452E+01  0.97404696161E+01  0.51100000000E-03 0. -1.
        -11    1    3    3    0    0 -0.32063046411E+02 -0.73471694416E+01  0.30422793488E+02  0.44805872471E+02  0.51100000000E-03 0.  1.
         12    1    3    3    0    0  0.28232497139E+02  0.40116015843E+01 -0.21079599196E+02  0.35461476904E+02  0.00000000000E+00 0. -1.
</event>
<event>
 7    1  0.1698110E-015  0.9000776E+02  0.7816164E-02  0.1186339E+00
        -11   -1    0    0    0    0  0.00000000000E+00  0.00000000000E+00  0.45593999997E+02  0.45594000000E+02  0.51100000000E-03 0.  1.
         11   -1    0    0    0    0 -0.00000000000E+00 -0.00000000000E+00 -0.45593999997E+02  0.45594000000E+02  0.51100000000E-03 0. -1.
    9900012    2    1    2    0    0 -0.53388121967E+00  0.10111226875E+00  0.10477138517E+01  0.90007763938E+02  0.90000025622E+02 0.  0.
         12    1    1    2    0    0  0.53388121967E+00 -0.10111226875E+00 -0.10477138517E+01  0.11802360622E+01  0.00000000000E+00 0. -1.
         11    1    3    3    0    0  0.21245883608E+02  0.24905894233E+02 -0.14959589490E+02  0.35992783385E+02  0.51100000000E-03 0. -1.
        -11    1    3    3    0    0  0.28004447278E+01  0.13368286436E+01 -0.94974433554E+01  0.99915480305E+01  0.51100000000E-03 0.  1.
        -12    1    3    3    0    0 -0.24580209555E+02 -0.26141610608E+02  0.25504746697E+02  0.44023432522E+02  0.00000000000E+00 0.  1.
</event>
<event>
 7    1  0.1698110E-015  0.9000780E+02  0.7816164E-02  0.1186339E+00
        -11   -1    0    0    0    0  0.00000000000E+00  0.00000000000E+00  0.45593999997E+02  0.45594000000E+02  0.51100000000E-03 0. -1.
         11   -1    0    0    0    0 -0.00000000000E+00 -0.00000000000E+00 -0.45593999997E+02  0.45594000000E+02  0.51100000000E-03 0.  1.
    9900012    2    1    2    0    0  0.82764453522E+00 -0.37635993094E+00 -0.75249005155E+00  0.90007795123E+02  0.90000057218E+02 0.  0.
         12    1    1    2    0    0 -0.82764453522E+00  0.37635993094E+00  0.75249005155E+00  0.11802048771E+01  0.00000000000E+00 0. -1.
         11    1    3    3    0    0  0.31729854293E+02 -0.14560951061E+02  0.15333733470E+02  0.38130412162E+02  0.51100000000E-03 0. -1.
        -11    1    3    3    0    0  0.35675067829E+01 -0.74989994393E+01 -0.49164547410E+01  0.96505763930E+01  0.51100000000E-03 0.  1.
        -12    1    3    3    0    0 -0.34469716541E+02  0.21683590569E+02 -0.11169768780E+02  0.42226806568E+02  0.00000000000E+00 0.  1.
</event>
<event>
 7    1  0.1698110E-015  0.9000794E+02  0.7816164E-02  0.1186339E+00
        -11   -1    0    0    0    0  0.00000000000E+00  0.00000000000E+00  0.45593999997E+02  0.45594000000E+02  0.51100000000E-03 0. -1.
         11   -1    0    0    0    0 -0.00000000000E+00 -0.00000000000E+00 -0.45593999997E+02  0.45594000000E+02  0.51100000000E-03 0.  1.
    9900012    2    1    2    0    0 -0.10337715565E+01  0.52483751435E+00 -0.22000167755E+00  0.90007941194E+02  0.90000205218E+02 0.  0.
         12    1    1    2    0    0  0.10337715565E+01 -0.52483751435E+00  0.22000167755E+00  0.11800588060E+01  0.00000000000E+00 0. -1.
         11    1    3    3    0    0 -0.25117627958E+02 -0.26057105843E+02  0.98817118100E+01  0.37516879237E+02  0.51100000000E-03 0. -1.
        -11    1    3    3    0    0 -0.88326231077E+01  0.22566673180E+00  0.98400870081E+00  0.88901310351E+01  0.51100000000E-03 0.  1.
        -12    1    3    3    0    0  0.32916479509E+02  0.26356276625E+02 -0.11085722188E+02  0.43600930922E+02  0.00000000000E+00 0.  1.
</event>
<event>
 7    1  0.1698110E-015  0.9000767E+02  0.7816164E-02  0.1186339E+00
        -11   -1    0    0    0    0  0.00000000000E+00  0.00000000000E+00  0.45593999997E+02  0.45594000000E+02  0.51100000000E-03 0.  1.
         11   -1    0    0    0    0 -0.00000000000E+00 -0.00000000000E+00 -0.45593999997E+02  0.45594000000E+02  0.51100000000E-03 0. -1.
    9900012    2    1    2    0    0  0.72678911857E+00 -0.67281510983E+00  0.64209166332E+00  0.90007667717E+02  0.89999928131E+02 0.  0.
         12    1    1    2    0    0 -0.72678911857E+00  0.67281510983E+00 -0.64209166332E+00  0.11803322833E+01  0.00000000000E+00 0. -1.
         11    1    3    3    0    0  0.30426988551E+02  0.29241591152E+02  0.59046171893E+01  0.42611463126E+02  0.51100000000E-03 0. -1.
        -11    1    3    3    0    0 -0.64518428876E+01 -0.35736003105E+00 -0.72843077100E+01  0.97373056804E+01  0.51100000000E-03 0.  1.
        -12    1    3    3    0    0 -0.23248356545E+02 -0.29557046231E+02  0.20217821841E+01  0.37658898910E+02  0.00000000000E+00 0.  1.
</event>
<event>
 7    1  0.1698110E-015  0.9000768E+02  0.7816164E-02  0.1186339E+00
        -11   -1    0    0    0    0  0.00000000000E+00  0.00000000000E+00  0.45593999997E+02  0.45594000000E+02  0.51100000000E-03 0.  1.
         11   -1    0    0    0    0 -0.00000000000E+00 -0.00000000000E+00 -0.45593999997E+02  0.45594000000E+02  0.51100000000E-03 0. -1.
    9900012    2    1    2    0    0  0.63129256748E+00  0.93392916287E+00  0.34984486199E+00  0.90007684189E+02  0.89999944820E+02 0.  0.
         12    1    1    2    0    0 -0.63129256748E+00 -0.93392916287E+00 -0.34984486199E+00  0.11803158113E+01  0.00000000000E+00 0. -1.
         11    1    3    3    0    0  0.14946839965E+02 -0.31006408979E+02 -0.86801075853E+01  0.35498587164E+02  0.51100000000E-03 0. -1.
        -11    1    3    3    0    0  0.14251027120E+02  0.74782401755E+01  0.38173521170E+01  0.16540496593E+02  0.51100000000E-03 0.  1.
        -12    1    3    3    0    0 -0.28566574517E+02  0.24462097966E+02  0.52126003303E+01  0.37968600432E+02  0.00000000000E+00 0.  1.
</event>
<event>
 7    1  0.1698110E-015  0.9000774E+02  0.7816164E-02  0.1186339E+00
        -11   -1    0    0    0    0  0.00000000000E+00  0.00000000000E+00  0.45593999997E+02  0.45594000000E+02  0.51100000000E-03 0. -1.
         11   -1    0    0    0    0 -0.00000000000E+00 -0.00000000000E+00 -0.45593999997E+02  0.45594000000E+02  0.51100000000E-03 0.  1.
    9900012    2    1    2    0    0  0.52265761201E+00  0.59200080485E+00 -0.87713711013E+00  0.90007743485E+02  0.90000004899E+02 0.  0.
         12    1    1    2    0    0 -0.52265761201E+00 -0.59200080485E+00  0.87713711013E+00  0.11802565155E+01  0.00000000000E+00 0. -1.
         11    1    3    3    0    0 -0.10268372812E+02  0.65473265509E+01 -0.39926026367E+01  0.12815921397E+02  0.51100000000E-03 0. -1.
        -11    1    3    3    0    0  0.81429888631E+01 -0.15407872537E+02 -0.34319725997E+02  0.38490965129E+02  0.51100000000E-03 0.  1.
         12    1    3    3    0    0  0.26480415610E+01  0.94525467912E+01  0.37435191524E+02  0.38700856959E+02  0.00000000000E+00 0. -1.
</event>
<event>
 7    1  0.1795838E-015  0.9000780E+02  0.7816164E-02  0.1186339E+00
        -11   -1    0    0    0    0  0.00000000000E+00  0.00000000000E+00  0.45593999997E+02  0.45594000000E+02  0.51100000000E-03 0.  1.
         11   -1    0    0    0    0 -0.00000000000E+00 -0.00000000000E+00 -0.45593999997E+02  0.45594000000E+02  0.51100000000E-03 0. -1.
    9900012    2    1    2    0    0  0.11655674302E+01  0.65703293595E-01 -0.17319771584E+00  0.90007804336E+02  0.90000066553E+02 0.  0.
         12    1    1    2    0    0 -0.11655674302E+01 -0.65703293595E-01  0.17319771584E+00  0.11801956642E+01  0.00000000000E+00 0. -1.
         11    1    3    3    0    0  0.19709975633E+01  0.27042875611E+01 -0.94778887925E+01  0.10051287422E+02  0.51100000000E-03 0. -1.
        -11    1    3    3    0    0  0.29171633501E+02 -0.18277742092E+02  0.25133552925E+02  0.42623415396E+02  0.51100000000E-03 0.  1.
         12    1    3    3    0    0 -0.29977063634E+02  0.15639157825E+02 -0.15828861848E+02  0.37333101519E+02  0.00000000000E+00 0. -1.
</event>
<event>
 7    1  0.1698110E-015  0.9000750E+02  0.7816164E-02  0.1186340E+00
        -11   -1    0    0    0    0  0.00000000000E+00  0.00000000000E+00  0.45593999997E+02  0.45594000000E+02  0.51100000000E-03 0. -1.
         11   -1    0    0    0    0 -0.00000000000E+00 -0.00000000000E+00 -0.45593999997E+02  0.45594000000E+02  0.51100000000E-03 0.  1.
    9900012    2    1    2    0    0  0.31870292502E+00  0.11318370178E+01 -0.10466021135E+00  0.90007499958E+02  0.89999758157E+02 0.  0.
         12    1    1    2    0    0 -0.31870292502E+00 -0.11318370178E+01  0.10466021135E+00  0.11805000419E+01  0.00000000000E+00 0. -1.
         11    1    3    3    0    0 -0.87302083994E+01  0.13424635933E+02  0.36710795188E+02  0.40051465294E+02  0.51100000000E-03 0. -1.
        -11    1    3    3    0    0 -0.58622409880E+01  0.63328854730E+01 -0.43437290051E+01  0.96612260995E+01  0.51100000000E-03 0.  1.
        -12    1    3    3    0    0  0.14911152312E+02 -0.18625684388E+02 -0.32471726394E+02  0.40294808564E+02  0.00000000000E+00 0.  1.
</event>
<event>
 7    1  0.1698110E-015  0.9000716E+02  0.7816164E-02  0.1186340E+00
        -11   -1    0    0    0    0  0.00000000000E+00  0.00000000000E+00  0.45593999997E+02  0.45594000000E+02  0.51100000000E-03 0. -1.
         11   -1    0    0    0    0 -0.00000000000E+00 -0.00000000000E+00 -0.45593999997E+02  0.45594000000E+02  0.51100000000E-03 0.  1.
    9900012    2    1    2    0    0  0.29827143750E-02  0.10299794343E+01 -0.57750674620E+00  0.90007161072E+02  0.89999414796E+02 0.  0.
         12    1    1    2    0    0 -0.29827143750E-02 -0.10299794343E+01  0.57750674620E+00  0.11808389279E+01  0.00000000000E+00 0. -1.
         11    1    3    3    0    0  0.80830857350E+01 -0.29327155355E+01 -0.18074809740E+01  0.87865854087E+01  0.51100000000E-03 0. -1.
        -11    1    3    3    0    0  0.25676895934E+02 -0.12248745123E+02 -0.23029177530E+02  0.36601608706E+02  0.51100000000E-03 0.  1.
         12    1    3    3    0    0 -0.33756998955E+02  0.16211440093E+02  0.24259151758E+02  0.44618966957E+02  0.00000000000E+00 0. -1.
</event>
<event>
 7    1  0.1698110E-015  0.9000774E+02  0.7816164E-02  0.1186339E+00
        -11   -1    0    0    0    0  0.00000000000E+00  0.00000000000E+00  0.45593999997E+02  0.45594000000E+02  0.51100000000E-03 0. -1.
         11   -1    0    0    0    0 -0.00000000000E+00 -0.00000000000E+00 -0.45593999997E+02  0.45594000000E+02  0.51100000000E-03 0.  1.
    9900012    2    1    2    0    0  0.14580173048E+00  0.10076425149E+01 -0.59699906250E+00  0.90007741781E+02  0.90000003173E+02 0.  0.
         12    1    1    2    0    0 -0.14580173048E+00 -0.10076425149E+01  0.59699906250E+00  0.11802582188E+01  0.00000000000E+00 0. -1.
         11    1    3    3    0    0  0.50515594322E+01  0.11247544273E+02 -0.80397103313E+00  0.12356046073E+02  0.51100000000E-03 0. -1.
        -11    1    3    3    0    0 -0.23499398471E+02  0.18652374471E+02 -0.21589754012E+02  0.36962822950E+02  0.51100000000E-03 0.  1.
         12    1    3    3    0    0  0.18593640769E+02 -0.28892276229E+02  0.21796725983E+02  0.40688872758E+02  0.00000000000E+00 0. -1.
</event>
<event>
 7    1  0.1698110E-015  0.9000680E+02  0.7816164E-02  0.1186341E+00
        -11   -1    0    0    0    0  0.00000000000E+00  0.00000000000E+00  0.45593999997E+02  0.45594000000E+02  0.51100000000E-03 0. -1.
         11   -1    0    0    0    0 -0.00000000000E+00 -0.00000000000E+00 -0.45593999997E+02  0.45594000000E+02  0.51100000000E-03 0.  1.
    9900012    2    1    2    0    0 -0.71817965439E+00  0.15905840434E+00 -0.92420329150E+00  0.90006800052E+02  0.89999049008E+02 0.  0.
         12    1    1    2    0    0  0.71817965439E+00 -0.15905840434E+00  0.92420329150E+00  0.11811999475E+01  0.00000000000E+00 0. -1.
         11    1    3    3    0    0 -0.46855689206E+01 -0.57152088660E+01  0.81542295006E+01  0.11004981940E+02  0.51100000000E-03 0. -1.
        -11    1    3    3    0    0  0.25571621277E+02 -0.28103753425E+02 -0.73446391843E+01  0.38699773854E+02  0.51100000000E-03 0.  1.
         12    1    3    3    0    0 -0.21604232011E+02  0.33978020696E+02 -0.17337936079E+01  0.40302044259E+02  0.00000000000E+00 0. -1.
</event>
<event>
 7    1  0.1698110E-015  0.9000779E+02  0.7816164E-02  0.1186339E+00
        -11   -1    0    0    0    0  0.00000000000E+00  0.00000000000E+00  0.45593999997E+02  0.45594000000E+02  0.51100000000E-03 0. -1.
         11   -1    0    0    0    0 -0.00000000000E+00 -0.00000000000E+00 -0.45593999997E+02  0.45594000000E+02  0.51100000000E-03 0.  1.
    9900012    2    1    2    0    0 -0.96393761522E-01  0.42085550935E+00 -0.10984014197E+01  0.90007789512E+02  0.90000051534E+02 0.  0.
         12    1    1    2    0    0  0.96393761522E-01 -0.42085550935E+00  0.10984014197E+01  0.11802104880E+01  0.00000000000E+00 0. -1.
         11    1    3    3    0    0  0.53203165655E+00  0.66945497524E+01 -0.97421335494E+01  0.11832549194E+02  0.51100000000E-03 0. -1.
        -11    1    3    3    0    0  0.14023227202E+02  0.20094599748E+02 -0.23600101411E+02  0.34020708797E+02  0.51100000000E-03 0.  1.
         12    1    3    3    0    0 -0.14651652620E+02 -0.26368293991E+02  0.32243833541E+02  0.44154531521E+02  0.00000000000E+00 0. -1.
</event>
<event>
 7    1  0.1698110E-015  0.9000776E+02  0.7816164E-02  0.1186339E+00
        -11   -1    0    0    0    0  0.00000000000E+00  0.00000000000E+00  0.45593999997E+02  0.45594000000E+02  0.51100000000E-03 0. -1.
         11   -1    0    0    0    0 -0.00000000000E+00 -0.00000000000E+00 -0.45593999997E+02  0.45594000000E+02  0.51100000000E-03 0.  1.
    9900012    2    1    2    0    0 -0.71024552447E+00  0.30976098567E+00 -0.89025704821E+00  0.90007763505E+02  0.90000025183E+02 0.  0.
         12    1    1    2    0    0  0.71024552447E+00 -0.30976098567E+00  0.89025704821E+00  0.11802364954E+01  0.00000000000E+00 0. -1.
         11    1    3    3    0    0 -0.17412048360E+02  0.60254259594E+01  0.83982893244E+00  0.18444253820E+02  0.51100000000E-03 0. -1.
        -11    1    3    3    0    0 -0.11745350607E+01 -0.33603385419E+02 -0.13747349969E+02  0.36325702687E+02  0.51100000000E-03 0.  1.
         12    1    3    3    0    0  0.17876337896E+02  0.27887720446E+02  0.12017263989E+02  0.35237806998E+02  0.00000000000E+00 0. -1.
</event>
<event>
 7    1  0.1698110E-015  0.9000774E+02  0.7816164E-02  0.1186339E+00
        -11   -1    0    0    0    0  0.00000000000E+00  0.00000000000E+00  0.45593999997E+02  0.45594000000E+02  0.51100000000E-03 0.  1.
         11   -1    0    0    0    0 -0.00000000000E+00 -0.00000000000E+00 -0.45593999997E+02  0.45594000000E+02  0.51100000000E-03 0. -1.
    9900012    2    1    2    0    0  0.73110092522E+00 -0.36776045395E+00  0.85044594600E+00  0.90007739596E+02  0.90000000959E+02 0.  0.
         12    1    1    2    0    0 -0.73110092522E+00  0.36776045395E+00 -0.85044594600E+00  0.11802604041E+01  0.00000000000E+00 0. -1.
         11    1    3    3    0    0  0.95500767498E+01  0.35297687100E+00  0.18015975307E+01  0.97249325202E+01  0.51100000000E-03 0. -1.
        -11    1    3    3    0    0  0.11078411191E+02 -0.36451163476E+02  0.66833360144E+01  0.38679264391E+02  0.51100000000E-03 0.  1.
         12    1    3    3    0    0 -0.19897387015E+02  0.35730426152E+02 -0.76344875992E+01  0.41603542685E+02  0.00000000000E+00 0. -1.
</event>
<event>
 7    1  0.1698110E-015  0.9000775E+02  0.7816164E-02  0.1186339E+00
        -11   -1    0    0    0    0  0.00000000000E+00  0.00000000000E+00  0.45593999997E+02  0.45594000000E+02  0.51100000000E-03 0. -1.
         11   -1    0    0    0    0 -0.00000000000E+00 -0.00000000000E+00 -0.45593999997E+02  0.45594000000E+02  0.51100000000E-03 0.  1.
    9900012    2    1    2    0    0 -0.43093182668E-01  0.34317858576E+00 -0.11284342975E+01  0.90007748956E+02  0.90000010442E+02 0.  0.
         12    1    1    2    0    0  0.43093182668E-01 -0.34317858576E+00  0.11284342975E+01  0.11802510444E+01  0.00000000000E+00 0. -1.
         11    1    3    3    0    0  0.78304475422E+01  0.12322118891E+01 -0.63922029527E+01  0.10183050314E+02  0.51100000000E-03 0. -1.
        -11    1    3    3    0    0  0.85511987564E+01 -0.38060181888E+02  0.21912412383E+01  0.39070474580E+02  0.51100000000E-03 0.  1.
         12    1    3    3    0    0 -0.16424739481E+02  0.37171148584E+02  0.30725274168E+01  0.40754224061E+02  0.00000000000E+00 0. -1.
</event>
<event>
 7    1  0.2216761E-015  0.9000776E+02  0.7816164E-02  0.1186339E+00
        -11   -1    0    0    0    0  0.00000000000E+00  0.00000000000E+00  0.45593999997E+02  0.45594000000E+02  0.51100000000E-03 0.  1.
         11   -1    0    0    0    0 -0.00000000000E+00 -0.00000000000E+00 -0.45593999997E+02  0.45594000000E+02  0.51100000000E-03 0. -1.
    9900012    2    1    2    0    0 -0.85050572451E+00  0.28182732534E+00  0.76823923546E+00  0.90007755046E+02  0.90000016613E+02 0.  0.
         12    1    1    2    0    0  0.85050572451E+00 -0.28182732534E+00 -0.76823923546E+00  0.11802449541E+01  0.00000000000E+00 0. -1.
         11    1    3    3    0    0 -0.86952744870E+01 -0.41068956252E+01 -0.34699124283E+01  0.10223242274E+02  0.51100000000E-03 0. -1.
        -11    1    3    3    0    0  0.11799913957E+02  0.75264456097E+01  0.40666723054E+02  0.43007763452E+02  0.51100000000E-03 0.  1.
         12    1    3    3    0    0 -0.39551451946E+01 -0.31377226591E+01 -0.36428571390E+02  0.36776749320E+02  0.00000000000E+00 0. -1.
</event>
<event>
 7    1  0.1698110E-015  0.9000778E+02  0.7816164E-02  0.1186339E+00
        -11   -1    0    0    0    0  0.00000000000E+00  0.00000000000E+00  0.45593999997E+02  0.45594000000E+02  0.51100000000E-03 0.  1.
         11   -1    0    0    0    0 -0.00000000000E+00 -0.00000000000E+00 -0.45593999997E+02  0.45594000000E+02  0.51100000000E-03 0. -1.
    9900012    2    1    2    0    0 -0.86288294450E+00 -0.44708985248E+00  0.66967743955E+00  0.90007777909E+02  0.90000039777E+02 0.  0.
         12    1    1    2    0    0  0.86288294450E+00  0.44708985248E+00 -0.66967743955E+00  0.11802220914E+01  0.00000000000E+00 0. -1.
         11    1    3    3    0    0  0.26162086529E+02  0.16819940952E+02 -0.16324577092E+02  0.35126300726E+02  0.51100000000E-03 0. -1.
        -11    1    3    3    0    0  0.49599568040E+01  0.26096477856E+01 -0.79386469841E+01  0.97176925894E+01  0.51100000000E-03 0.  1.
        -12    1    3    3    0    0 -0.31984926278E+02 -0.19876678590E+02  0.24932901516E+02  0.45163784593E+02  0.00000000000E+00 0.  1.
</event>
<event>
 7    1  0.1698110E-015  0.9000769E+02  0.7816164E-02  0.1186339E+00
        -11   -1    0    0    0    0  0.00000000000E+00  0.00000000000E+00  0.45593999997E+02  0.45594000000E+02  0.51100000000E-03 0.  1.
         11   -1    0    0    0    0 -0.00000000000E+00 -0.00000000000E+00 -0.45593999997E+02  0.45594000000E+02  0.51100000000E-03 0. -1.
    9900012    2    1    2    0    0 -0.84757808688E+00  0.60654993903E+00  0.55392698555E+00  0.90007692181E+02  0.89999952918E+02 0.  0.
         12    1    1    2    0    0  0.84757808688E+00 -0.60654993903E+00 -0.55392698555E+00  0.11803078188E+01  0.00000000000E+00 0. -1.
         11    1    3    3    0    0 -0.34235360364E+01 -0.55860152701E+01 -0.38652287410E+02  0.39203615750E+02  0.51100000000E-03 0. -1.
        -11    1    3    3    0    0  0.29273312318E+01  0.73144024589E+01 -0.31110826222E+01  0.84704537549E+01  0.51100000000E-03 0.  1.
        -12    1    3    3    0    0 -0.35137328228E+00 -0.11218372497E+01  0.42317297018E+02  0.42333622676E+02  0.00000000000E+00 0.  1.
</event>
<event>
 7    1  0.1698110E-015  0.9000772E+02  0.7816164E-02  0.1186339E+00
        -11   -1    0    0    0    0  0.00000000000E+00  0.00000000000E+00  0.45593999997E+02  0.45594000000E+02  0.51100000000E-03 0. -1.
         11   -1    0    0    0    0 -0.00000000000E+00 -0.00000000000E+00 -0.45593999997E+02  0.45594000000E+02  0.51100000000E-03 0.  1.
    9900012    2    1    2    0    0  0.89822320950E+00 -0.28669752880E+00 -0.70996890073E+00  0.90007721962E+02  0.89999983092E+02 0.  0.
         12    1    1    2    0    0 -0.89822320950E+00  0.28669752880E+00  0.70996890073E+00  0.11802780381E+01  0.00000000000E+00 0. -1.
         11    1    3    3    0    0  0.23190250002E+02 -0.12011679437E+02 -0.25257153132E+02  0.36331693088E+02  0.51100000000E-03 0. -1.
        -11    1    3    3    0    0  0.50768123992E+01 -0.65322008200E+01 -0.48210871478E+01  0.95753095635E+01  0.51100000000E-03 0.  1.
        -12    1    3    3    0    0 -0.27368839192E+02  0.18257182728E+02  0.29368271379E+02  0.44100719310E+02  0.00000000000E+00 0.  1.
</event>
<event>
 7    1  0.1698110E-015  0.9000790E+02  0.7816164E-02  0.1186339E+00
        -11   -1    0    0    0    0  0.00000000000E+00  0.00000000000E+00  0.45593999997E+02  0.45594000000E+02  0.51100000000E-03 0. -1.
         11   -1    0    0    0    0 -0.00000000000E+00 -0.00000000000E+00 -0.45593999997E+02  0.45594000000E+02  0.51100000000E-03 0.  1.
    9900012    2    1    2    0    0 -0.10887259195E+01  0.45452216773E+00 -0.27024748054E-01  0.90007896248E+02  0.90000159678E+02 0.  0.
         12    1    1    2    0    0  0.10887259195E+01 -0.45452216773E+00  0.27024748054E-01  0.11801037521E+01  0.00000000000E+00 0. -1.
         11    1    3    3    0    0  0.37694260963E+01  0.26966359530E+02  0.25252399896E+02  0.37135923580E+02  0.51100000000E-03 0. -1.
        -11    1    3    3    0    0  0.22070107152E+01  0.88419749117E+01 -0.50452406405E+00  0.91272099476E+01  0.51100000000E-03 0.  1.
        -12    1    3    3    0    0 -0.70651627311E+01 -0.35353812274E+02 -0.24774900580E+02  0.43744762720E+02  0.00000000000E+00 0.  1.
</event>
<event>
 7    1  0.1698110E-015  0.9000774E+02  0.7816164E-02  0.1186339E+00
        -11   -1    0    0    0    0  0.00000000000E+00  0.00000000000E+00  0.45593999997E+02  0.45594000000E+02  0.51100000000E-03 0. -1.
         11   -1    0    0    0    0 -0.00000000000E+00 -0.00000000000E+00 -0.45593999997E+02  0.45594000000E+02  0.51100000000E-03 0.  1.
    9900012    2    1    2    0    0 -0.80196367911E+00 -0.86161210862E+00  0.86496814129E-01  0.90007744575E+02  0.90000006004E+02 0.  0.
         12    1    1    2    0    0  0.80196367911E+00  0.86161210862E+00 -0.86496814129E-01  0.11802554246E+01  0.00000000000E+00 0. -1.
         11    1    3    3    0    0  0.25168381787E+02 -0.22839787607E+02  0.83544917249E+01  0.34998583857E+02  0.51100000000E-03 0. -1.
        -11    1    3    3    0    0  0.11148941986E+02  0.59396801993E+01 -0.72398813830E+01  0.14560034031E+02  0.51100000000E-03 0.  1.
        -12    1    3    3    0    0 -0.37119287452E+02  0.16038495299E+02 -0.10281135277E+01  0.40449126688E+02  0.00000000000E+00 0.  1.
</event>
<event>
 7    1  0.1698110E-015  0.9000773E+02  0.7816164E-02  0.1186339E+00
        -11   -1    0    0    0    0  0.00000000000E+00  0.00000000000E+00  0.45593999997E+02  0.45594000000E+02  0.51100000000E-03 0. -1.
         11   -1    0    0    0    0 -0.00000000000E+00 -0.00000000000E+00 -0.45593999997E+02  0.45594000000E+02  0.51100000000E-03 0.  1.
    9900012    2    1    2    0    0 -0.58649036925E+00 -0.47793175221E+00 -0.90589333909E+00  0.90007732041E+02  0.89999993304E+02 0.  0.
         12    1    1    2    0    0  0.58649036925E+00  0.47793175221E+00  0.90589333909E+00  0.11802679589E+01  0.00000000000E+00 0. -1.
         11    1    3    3    0    0  0.13549551736E+02 -0.37083577702E+02  0.42899447852E+01  0.39713797526E+02  0.51100000000E-03 0. -1.
        -11    1    3    3    0    0 -0.20614731607E+01  0.62146277533E+00  0.93886363774E+01  0.96323611260E+01  0.51100000000E-03 0.  1.
        -12    1    3    3    0    0 -0.12074568944E+02  0.35984183175E+02 -0.14584474502E+02  0.40661573389E+02  0.00000000000E+00 0.  1.
</event>
<event>
 7    1  0.1698110E-015  0.9000771E+02  0.7816164E-02  0.1186339E+00
        -11   -1    0    0    0    0  0.00000000000E+00  0.00000000000E+00  0.45593999997E+02  0.45594000000E+02  0.51100000000E-03 0.  1.
         11   -1    0    0    0    0 -0.00000000000E+00 -0.00000000000E+00 -0.45593999997E+02  0.45594000000E+02  0.51100000000E-03 0. -1.
    9900012    2    1    2    0    0 -0.66704808469E+00  0.95738913934E+00 -0.17759070918E+00  0.90007709539E+02  0.89999970505E+02 0.  0.
         12    1    1    2    0    0  0.66704808469E+00 -0.95738913934E+00  0.17759070918E+00  0.11802904606E+01  0.00000000000E+00 0. -1.
         11    1    3    3    0    0  0.38257099984E+02 -0.86193597611E+01 -0.37564030934E+01  0.39395553383E+02  0.51100000000E-03 0. -1.
        -11    1    3    3    0    0 -0.13678071993E+02 -0.11272099962E+02  0.19233989704E+01  0.17828330119E+02  0.51100000000E-03 0.  1.
        -12    1    3    3    0    0 -0.25246076075E+02  0.20848848862E+02  0.16554134138E+01  0.32783826037E+02  0.00000000000E+00 0.  1.
</event>
<event>
 7    1  0.1925643E-015  0.9000772E+02  0.7816164E-02  0.1186339E+00
        -11   -1    0    0    0    0  0.00000000000E+00  0.00000000000E+00  0.45593999997E+02  0.45594000000E+02  0.51100000000E-03 0. -1.
         11   -1    0    0    0    0 -0.00000000000E+00 -0.00000000000E+00 -0.45593999997E+02  0.45594000000E+02  0.51100000000E-03 0.  1.
    9900012    2    1    2    0    0 -0.27172005862E+00 -0.10967566968E+01 -0.34111092446E+00  0.90007718803E+02  0.89999979891E+02 0.  0.
         12    1    1    2    0    0  0.27172005862E+00  0.10967566968E+01  0.34111092446E+00  0.11802811974E+01  0.00000000000E+00 0. -1.
         11    1    3    3    0    0  0.31827815199E+01  0.91970856244E+01 -0.13277339814E-01  0.97322483906E+01  0.51100000000E-03 0. -1.
        -11    1    3    3    0    0  0.10070541449E+01  0.34076920832E+02 -0.80199310083E+01  0.35022421177E+02  0.51100000000E-03 0.  1.
         12    1    3    3    0    0 -0.44615557233E+01 -0.44370763153E+02  0.76920974237E+01  0.45253049235E+02  0.00000000000E+00 0. -1.
</event>
<event>
 7    1  0.1698110E-015  0.9000776E+02  0.7816164E-02  0.1186339E+00
        -11   -1    0    0    0    0  0.00000000000E+00  0.00000000000E+00  0.45593999997E+02  0.45594000000E+02  0.51100000000E-03 0. -1.
         11   -1    0    0    0    0 -0.00000000000E+00 -0.00000000000E+00 -0.45593999997E+02  0.45594000000E+02  0.51100000000E-03 0.  1.
    9900012    2    1    2    0    0 -0.74962320494E+00  0.72342210859E+00 -0.55470126157E+00  0.90007759352E+02  0.90000020976E+02 0.  0.
         12    1    1    2    0    0  0.74962320494E+00 -0.72342210859E+00  0.55470126157E+00  0.11802406476E+01  0.00000000000E+00 0. -1.
         11    1    3    3    0    0 -0.77611648468E+01  0.30835071116E+02  0.30925583363E+02  0.44355709859E+02  0.51100000000E-03 0. -1.
        -11    1    3    3    0    0 -0.25899943410E+01 -0.75061614213E+01 -0.43408542788E+01  0.90495052959E+01  0.51100000000E-03 0.  1.
        -12    1    3    3    0    0  0.96015359829E+01 -0.22605487586E+02 -0.27139430346E+02  0.36602544197E+02  0.00000000000E+00 0.  1.
</event>
<event>
 7    1  0.1698110E-015  0.9000764E+02  0.7816164E-02  0.1186339E+00
        -11   -1    0    0    0    0  0.00000000000E+00  0.00000000000E+00  0.45593999997E+02  0.45594000000E+02  0.51100000000E-03 0.  1.
         11   -1    0    0    0    0 -0.00000000000E+00 -0.00000000000E+00 -0.45593999997E+02  0.45594000000E+02  0.51100000000E-03 0. -1.
    9900012    2    1    2    0    0  0.66777326470E+00 -0.84424746933E-01  0.96963462655E+00  0.90007644130E+02  0.89999904232E+02 0.  0.
         12    1    1    2    0    0 -0.66777326470E+00  0.84424746933E-01 -0.96963462655E+00  0.11803558700E+01  0.00000000000E+00 0. -1.
         11    1    3    3    0    0  0.66272023492E+01  0.59443882684E+01  0.10831466308E+01  0.89682088372E+01  0.51100000000E-03 0. -1.
        -11    1    3    3    0    0 -0.21254883293E+02  0.18521167102E+02  0.28687031275E+02  0.40221256299E+02  0.51100000000E-03 0.  1.
         12    1    3    3    0    0  0.15295454208E+02 -0.24549980117E+02 -0.28800543279E+02  0.40818178994E+02  0.00000000000E+00 0. -1.
</event>
<event>
 7    1  0.1698110E-015  0.9000774E+02  0.7816164E-02  0.1186339E+00
        -11   -1    0    0    0    0  0.00000000000E+00  0.00000000000E+00  0.45593999997E+02  0.45594000000E+02  0.51100000000E-03 0. -1.
         11   -1    0    0    0    0 -0.00000000000E+00 -0.00000000000E+00 -0.45593999997E+02  0.45594000000E+02  0.51100000000E-03 0.  1.
    9900012    2    1    2    0    0 -0.76330515767E+00  0.89957236541E+00 -0.33911470381E-01  0.90007739354E+02  0.90000000714E+02 0.  0.
         12    1    1    2    0    0  0.76330515767E+00 -0.89957236541E+00  0.33911470381E-01  0.11802606459E+01  0.00000000000E+00 0. -1.
         11    1    3    3    0    0 -0.26893608850E+01 -0.77373948269E+01  0.14933832977E+01  0.83264719186E+01  0.51100000000E-03 0. -1.
        -11    1    3    3    0    0 -0.27163757176E+02 -0.21902739720E+02 -0.14153058505E+02  0.37655129484E+02  0.51100000000E-03 0.  1.
         12    1    3    3    0    0  0.29089812903E+02  0.30539706912E+02  0.12625763737E+02  0.44026137952E+02  0.00000000000E+00 0. -1.
</event>
<event>
 7    1  0.1698110E-015  0.9000775E+02  0.7816164E-02  0.1186339E+00
        -11   -1    0    0    0    0  0.00000000000E+00  0.00000000000E+00  0.45593999997E+02  0.45594000000E+02  0.51100000000E-03 0.  1.
         11   -1    0    0    0    0 -0.00000000000E+00 -0.00000000000E+00 -0.45593999997E+02  0.45594000000E+02  0.51100000000E-03 0. -1.
    9900012    2    1    2    0    0 -0.19575098705E+00  0.81965436067E+00  0.82634021850E+00  0.90007750079E+02  0.90000011580E+02 0.  0.
         12    1    1    2    0    0  0.19575098705E+00 -0.81965436067E+00 -0.82634021850E+00  0.11802499212E+01  0.00000000000E+00 0. -1.
         11    1    3    3    0    0  0.87279358555E+00  0.22163615678E+02 -0.29811894203E+02  0.37158265094E+02  0.51100000000E-03 0. -1.
        -11    1    3    3    0    0 -0.96143032623E+00  0.88641185293E+01 -0.11583665963E+01  0.89910377047E+01  0.51100000000E-03 0.  1.
        -12    1    3    3    0    0 -0.10711424637E+00 -0.30208079847E+02  0.31796601018E+02  0.43858447280E+02  0.00000000000E+00 0.  1.
</event>
<event>
 7    1  0.1698110E-015  0.9000770E+02  0.7816164E-02  0.1186339E+00
        -11   -1    0    0    0    0  0.00000000000E+00  0.00000000000E+00  0.45593999997E+02  0.45594000000E+02  0.51100000000E-03 0.  1.
         11   -1    0    0    0    0 -0.00000000000E+00 -0.00000000000E+00 -0.45593999997E+02  0.45594000000E+02  0.51100000000E-03 0. -1.
    9900012    2    1    2    0    0 -0.47682823117E+00 -0.71617373544E+00  0.80798352763E+00  0.90007700308E+02  0.89999961152E+02 0.  0.
         12    1    1    2    0    0  0.47682823117E+00  0.71617373544E+00 -0.80798352763E+00  0.11802996917E+01  0.00000000000E+00 0. -1.
         11    1    3    3    0    0  0.28200833717E+02 -0.31989984295E+01 -0.30036440351E+02  0.41324428157E+02  0.51100000000E-03 0. -1.
        -11    1    3    3    0    0 -0.18863249718E+00 -0.72420452638E+01  0.86494303124E+01  0.11282528387E+02  0.51100000000E-03 0.  1.
        -12    1    3    3    0    0 -0.28489029451E+02  0.97248699578E+01  0.22194993566E+02  0.37400743764E+02  0.00000000000E+00 0.  1.
</event>
<event>
 7    1  0.1698110E-015  0.9000799E+02  0.7816164E-02  0.1186339E+00
        -11   -1    0    0    0    0  0.00000000000E+00  0.00000000000E+00  0.45593999997E+02  0.45594000000E+02  0.51100000000E-03 0. -1.
         11   -1    0    0    0    0 -0.00000000000E+00 -0.00000000000E+00 -0.45593999997E+02  0.45594000000E+02  0.51100000000E-03 0.  1.
    9900012    2    1    2    0    0  0.10461092310E+01 -0.42172952125E+00 -0.34672815291E+00  0.90007991219E+02  0.90000255902E+02 0.  0.
         12    1    1    2    0    0 -0.10461092310E+01  0.42172952125E+00  0.34672815291E+00  0.11800087815E+01  0.00000000000E+00 0. -1.
         11    1    3    3    0    0 -0.35693775294E+02  0.50481946552E+01  0.21539766310E+02  0.41993944766E+02  0.51100000000E-03 0. -1.
        -11    1    3    3    0    0  0.92063080449E+00 -0.26251509003E+00 -0.98102491942E+01  0.98568486224E+01  0.51100000000E-03 0.  1.
        -12    1    3    3    0    0  0.35819253721E+02 -0.52074090864E+01 -0.12076245268E+02  0.38157197831E+02  0.00000000000E+00 0.  1.
</event>
<event>
 7    1  0.1698110E-015  0.9000770E+02  0.7816164E-02  0.1186339E+00
        -11   -1    0    0    0    0  0.00000000000E+00  0.00000000000E+00  0.45593999997E+02  0.45594000000E+02  0.51100000000E-03 0.  1.
         11   -1    0    0    0    0 -0.00000000000E+00 -0.00000000000E+00 -0.45593999997E+02  0.45594000000E+02  0.51100000000E-03 0. -1.
    9900012    2    1    2    0    0  0.39599860217E+00  0.10713866182E+01  0.29736954619E+00  0.90007697994E+02  0.89999958807E+02 0.  0.
         12    1    1    2    0    0 -0.39599860217E+00 -0.10713866182E+01 -0.29736954619E+00  0.11803020061E+01  0.00000000000E+00 0. -1.
         11    1    3    3    0    0 -0.11903452876E+02 -0.39494097939E+01  0.55879565448E+01  0.13730086915E+02  0.51100000000E-03 0. -1.
        -11    1    3    3    0    0 -0.93383671404E+01 -0.30664983064E+02  0.69217340456E+01  0.32794156333E+02  0.51100000000E-03 0.  1.
         12    1    3    3    0    0  0.21637818618E+02  0.35685779476E+02 -0.12212321044E+02  0.43483454746E+02  0.00000000000E+00 0. -1.
</event>
<event>
 7    1  0.1698110E-015  0.9000782E+02  0.7816164E-02  0.1186339E+00
        -11   -1    0    0    0    0  0.00000000000E+00  0.00000000000E+00  0.45593999997E+02  0.45594000000E+02  0.51100000000E-03 0.  1.
         11   -1    0    0    0    0 -0.00000000000E+00 -0.00000000000E+00 -0.45593999997E+02  0.45594000000E+02  0.51100000000E-03 0. -1.
    9900012    2    1    2    0    0 -0.21364031529E+00  0.68897921519E+00  0.93407040867E+00  0.90007821170E+02  0.90000083609E+02 0.  0.
         12    1    1    2    0    0  0.21364031529E+00 -0.68897921519E+00 -0.93407040867E+00  0.11801788304E+01  0.00000000000E+00 0. -1.
         11    1    3    3    0    0  0.26966335006E+02 -0.22058633255E+02 -0.43047520985E+01  0.35104094001E+02  0.51100000000E-03 0. -1.
        -11    1    3    3    0    0  0.78448284302E+01  0.40441308280E+01 -0.91104962251E+01  0.12684536609E+02  0.51100000000E-03 0.  1.
        -12    1    3    3    0    0 -0.35024803752E+02  0.18703481642E+02  0.14349318732E+02  0.42219190559E+02  0.00000000000E+00 0.  1.
</event>
<event>
 7    1  0.1698110E-015  0.9000767E+02  0.7816164E-02  0.1186339E+00
        -11   -1    0    0    0    0  0.00000000000E+00  0.00000000000E+00  0.45593999997E+02  0.45594000000E+02  0.51100000000E-03 0.  1.
         11   -1    0    0    0    0 -0.00000000000E+00 -0.00000000000E+00 -0.45593999997E+02  0.45594000000E+02  0.51100000000E-03 0. -1.
    9900012    2    1    2    0    0  0.98478968307E-01  0.56413740761E+00  0.10321037029E+01  0.90007666498E+02  0.89999926896E+02 0.  0.
         12    1    1    2    0    0 -0.98478968307E-01 -0.56413740761E+00 -0.10321037029E+01  0.11803335017E+01  0.00000000000E+00 0. -1.
         11    1    3    3    0    0  0.67746476867E+01  0.11453399224E+02  0.35482340240E+01  0.13771934142E+02  0.51100000000E-03 0. -1.
        -11    1    3    3    0    0  0.16037035405E+02  0.22636802689E+02  0.15650539690E+02  0.31852013020E+02  0.51100000000E-03 0.  1.
         12    1    3    3    0    0 -0.22713204123E+02 -0.33526064506E+02 -0.18166670011E+02  0.44383719336E+02  0.00000000000E+00 0. -1.
</event>
<event>
 7    1  0.1698110E-015  0.9000769E+02  0.7816164E-02  0.1186339E+00
        -11   -1    0    0    0    0  0.00000000000E+00  0.00000000000E+00  0.45593999997E+02  0.45594000000E+02  0.51100000000E-03 0.  1.
         11   -1    0    0    0    0 -0.00000000000E+00 -0.00000000000E+00 -0.45593999997E+02  0.45594000000E+02  0.51100000000E-03 0. -1.
    9900012    2    1    2    0    0  0.10634333202E+01  0.50639233711E+00 -0.76233410292E-01  0.90007688533E+02  0.89999949222E+02 0.  0.
         12    1    1    2    0    0 -0.10634333202E+01 -0.50639233711E+00  0.76233410292E-01  0.11803114667E+01  0.00000000000E+00 0. -1.
         11    1    3    3    0    0  0.74720234358E+01 -0.10257826662E+02 -0.11698089268E+02  0.17259763464E+02  0.51100000000E-03 0. -1.
        -11    1    3    3    0    0  0.18746252983E+02  0.15584217364E+02  0.31851506127E+02  0.40109952314E+02  0.51100000000E-03 0.  1.
         12    1    3    3    0    0 -0.25154843099E+02 -0.48199983656E+01 -0.20229650269E+02  0.32637972755E+02  0.00000000000E+00 0. -1.
</event>
<event>
 7    1  0.1698110E-015  0.9000765E+02  0.7816164E-02  0.1186339E+00
        -11   -1    0    0    0    0  0.00000000000E+00  0.00000000000E+00  0.45593999997E+02  0.45594000000E+02  0.51100000000E-03 0. -1.
         11   -1    0    0    0    0 -0.00000000000E+00 -0.00000000000E+00 -0.45593999997E+02  0.45594000000E+02  0.51100000000E-03 0.  1.
    9900012    2    1    2    0    0 -0.55246243240E+00  0.21052007141E+00 -0.10216130878E+01  0.90007649738E+02  0.89999909915E+02 0.  0.
         12    1    1    2    0    0  0.55246243240E+00 -0.21052007141E+00  0.10216130878E+01  0.11803502620E+01  0.00000000000E+00 0. -1.
         11    1    3    3    0    0 -0.21454448918E+01  0.11423404827E+02  0.33025547628E+02  0.35011196895E+02  0.51100000000E-03 0. -1.
        -11    1    3    3    0    0 -0.15416271143E+01  0.46060127558E+01  0.83366182519E+01  0.96483766409E+01  0.51100000000E-03 0.  1.
        -12    1    3    3    0    0  0.31346095738E+01 -0.15818897511E+02 -0.42383778968E+02  0.45348076202E+02  0.00000000000E+00 0.  1.
</event>
<event>
 7    1  0.1698110E-015  0.9000746E+02  0.7816164E-02  0.1186340E+00
        -11   -1    0    0    0    0  0.00000000000E+00  0.00000000000E+00  0.45593999997E+02  0.45594000000E+02  0.51100000000E-03 0. -1.
         11   -1    0    0    0    0 -0.00000000000E+00 -0.00000000000E+00 -0.45593999997E+02  0.45594000000E+02  0.51100000000E-03 0.  1.
    9900012    2    1    2    0    0 -0.31467458818E+00 -0.78396935946E+00 -0.82465093242E+00  0.90007458932E+02  0.89999716589E+02 0.  0.
         12    1    1    2    0    0  0.31467458818E+00  0.78396935946E+00  0.82465093242E+00  0.11805410681E+01  0.00000000000E+00 0. -1.
         11    1    3    3    0    0 -0.62797323632E+01  0.46470098170E+01 -0.41708336370E+01  0.88558225074E+01  0.51100000000E-03 0. -1.
        -11    1    3    3    0    0  0.27190513618E+02  0.14964797691E+02 -0.25326478118E+02  0.40058703110E+02  0.51100000000E-03 0.  1.
         12    1    3    3    0    0 -0.21225455843E+02 -0.20395776867E+02  0.28672660822E+02  0.41092933315E+02  0.00000000000E+00 0. -1.
</event>
<event>
 7    1  0.1698110E-015  0.9000822E+02  0.7816164E-02  0.1186338E+00
        -11   -1    0    0    0    0  0.00000000000E+00  0.00000000000E+00  0.45593999997E+02  0.45594000000E+02  0.51100000000E-03 0.  1.
         11   -1    0    0    0    0 -0.00000000000E+00 -0.00000000000E+00 -0.45593999997E+02  0.45594000000E+02  0.51100000000E-03 0. -1.
    9900012    2    1    2    0    0 -0.19854081481E+00 -0.44001043645E+00  0.10765041252E+01  0.90008216642E+02  0.90000484301E+02 0.  0.
         12    1    1    2    0    0  0.19854081481E+00  0.44001043645E+00 -0.10765041252E+01  0.11797833576E+01  0.00000000000E+00 0. -1.
         11    1    3    3    0    0  0.15341452497E+02  0.31540312303E+02 -0.22438592693E+02  0.41637025676E+02  0.51100000000E-03 0. -1.
        -11    1    3    3    0    0  0.84216288561E+00 -0.86219679388E+01 -0.32488672628E+01  0.92521731618E+01  0.51100000000E-03 0.  1.
        -12    1    3    3    0    0 -0.16382156197E+02 -0.23358354800E+02  0.26763964081E+02  0.39119017804E+02  0.00000000000E+00 0.  1.
</event>
<event>
 7    1  0.1698110E-015  0.9000774E+02  0.7816164E-02  0.1186339E+00
        -11   -1    0    0    0    0  0.00000000000E+00  0.00000000000E+00  0.45593999997E+02  0.45594000000E+02  0.51100000000E-03 0. -1.
         11   -1    0    0    0    0 -0.00000000000E+00 -0.00000000000E+00 -0.45593999997E+02  0.45594000000E+02  0.51100000000E-03 0.  1.
    9900012    2    1    2    0    0 -0.67494416377E+00  0.96621429901E+00 -0.62455035209E-01  0.90007737179E+02  0.89999998510E+02 0.  0.
         12    1    1    2    0    0  0.67494416377E+00 -0.96621429901E+00  0.62455035209E-01  0.11802628213E+01  0.00000000000E+00 0. -1.
         11    1    3    3    0    0 -0.56364350742E+01  0.88224079749E+01  0.53103234864E+01  0.11738987120E+02  0.51100000000E-03 0. -1.
        -11    1    3    3    0    0  0.36999547190E+02  0.62190769581E+01  0.11743366444E+02  0.39313484534E+02  0.51100000000E-03 0.  1.
         12    1    3    3    0    0 -0.32038056280E+02 -0.14075270634E+02 -0.17116144965E+02  0.38955265525E+02  0.00000000000E+00 0. -1.
</event>
<event>
 7    1  0.1698110E-015  0.9000775E+02  0.7816164E-02  0.1186339E+00
        -11   -1    0    0    0    0  0.00000000000E+00  0.00000000000E+00  0.45593999997E+02  0.45594000000E+02  0.51100000000E-03 0. -1.
         11   -1    0    0    0    0 -0.00000000000E+00 -0.00000000000E+00 -0.45593999997E+02  0.45594000000E+02  0.51100000000E-03 0.  1.
    9900012    2    1    2    0    0  0.21705812889E+00  0.31275503626E+00 -0.11171643670E+01  0.90007751650E+02  0.90000013172E+02 0.  0.
         12    1    1    2    0    0 -0.21705812889E+00 -0.31275503626E+00  0.11171643670E+01  0.11802483497E+01  0.00000000000E+00 0. -1.
         11    1    3    3    0    0  0.38216588805E+01 -0.25502504963E+02  0.23398739453E+02  0.34820738709E+02  0.51100000000E-03 0. -1.
        -11    1    3    3    0    0 -0.10973475850E+01 -0.50879019818E+01  0.84546353728E+01  0.99283320777E+01  0.51100000000E-03 0.  1.
        -12    1    3    3    0    0 -0.25072531666E+01  0.30903161981E+02 -0.32970539193E+02  0.45258680864E+02  0.00000000000E+00 0.  1.
</event>
<event>
 7    1  0.1698110E-015  0.9000775E+02  0.7816164E-02  0.1186339E+00
        -11   -1    0    0    0    0  0.00000000000E+00  0.00000000000E+00  0.45593999997E+02  0.45594000000E+02  0.51100000000E-03 0.  1.
         11   -1    0    0    0    0 -0.00000000000E+00 -0.00000000000E+00 -0.45593999997E+02  0.45594000000E+02  0.51100000000E-03 0. -1.
    9900012    2    1    2    0    0  0.33321826590E+00 -0.34490065234E+00  0.10784262005E+01  0.90007748356E+02  0.90000009835E+02 0.  0.
         12    1    1    2    0    0 -0.33321826590E+00  0.34490065234E+00 -0.10784262005E+01  0.11802516437E+01  0.00000000000E+00 0. -1.
         11    1    3    3    0    0  0.52416170461E+01  0.94994758530E+01  0.12230830225E+01  0.10918357160E+02  0.51100000000E-03 0. -1.
        -11    1    3    3    0    0  0.73949066607E+01  0.17377099876E+02  0.30767900921E+02  0.36101412326E+02  0.51100000000E-03 0.  1.
         12    1    3    3    0    0 -0.12303305441E+02 -0.27221476381E+02 -0.30912557743E+02  0.42987978870E+02  0.00000000000E+00 0. -1.
</event>
<event>
 7    1  0.1698110E-015  0.9000767E+02  0.7816164E-02  0.1186339E+00
        -11   -1    0    0    0    0  0.00000000000E+00  0.00000000000E+00  0.45593999997E+02  0.45594000000E+02  0.51100000000E-03 0.  1.
         11   -1    0    0    0    0 -0.00000000000E+00 -0.00000000000E+00 -0.45593999997E+02  0.45594000000E+02  0.51100000000E-03 0. -1.
    9900012    2    1    2    0    0 -0.39223958669E+00  0.10803921237E+01  0.26847064026E+00  0.90007671436E+02  0.89999931899E+02 0.  0.
         12    1    1    2    0    0  0.39223958669E+00 -0.10803921237E+01 -0.26847064026E+00  0.11803285640E+01  0.00000000000E+00 0. -1.
         11    1    3    3    0    0  0.37463632719E+02 -0.19944113602E+02 -0.80853770529E+01  0.43204915996E+02  0.51100000000E-03 0. -1.
        -11    1    3    3    0    0 -0.70974669920E+01 -0.85557159355E+00  0.53645741837E+01  0.89378239459E+01  0.51100000000E-03 0.  1.
        -12    1    3    3    0    0 -0.30758405314E+02  0.21880077320E+02  0.29892735094E+01  0.37864931494E+02  0.00000000000E+00 0.  1.
</event>
<event>
 7    1  0.1698110E-015  0.9000780E+02  0.7816164E-02  0.1186339E+00
        -11   -1    0    0    0    0  0.00000000000E+00  0.00000000000E+00  0.45593999997E+02  0.45594000000E+02  0.51100000000E-03 0.  1.
         11   -1    0    0    0    0 -0.00000000000E+00 -0.00000000000E+00 -0.45593999997E+02  0.45594000000E+02  0.51100000000E-03 0. -1.
    9900012    2    1    2    0    0 -0.10365237938E+01 -0.39296890029E+00  0.40505438351E+00  0.90007798667E+02  0.90000060810E+02 0.  0.
         12    1    1    2    0    0  0.10365237938E+01  0.39296890029E+00 -0.40505438351E+00  0.11802013325E+01  0.00000000000E+00 0. -1.
         11    1    3    3    0    0  0.43807177023E+00 -0.64719099124E+01  0.34518111256E+01  0.73479606081E+01  0.51100000000E-03 0. -1.
        -11    1    3    3    0    0  0.24412585548E+01 -0.82911359866E+01  0.38012467894E+02  0.38982693531E+02  0.51100000000E-03 0.  1.
         12    1    3    3    0    0 -0.39158541188E+01  0.14370076999E+02 -0.41059224636E+02  0.43677144528E+02  0.00000000000E+00 0. -1.
</event>
<event>
 7    1  0.1698110E-015  0.9000777E+02  0.7816164E-02  0.1186339E+00
        -11   -1    0    0    0    0  0.00000000000E+00  0.00000000000E+00  0.45593999997E+02  0.45594000000E+02  0.51100000000E-03 0. -1.
         11   -1    0    0    0    0 -0.00000000000E+00 -0.00000000000E+00 -0.45593999997E+02  0.45594000000E+02  0.51100000000E-03 0.  1.
    9900012    2    1    2    0    0  0.12049109483E+00 -0.66910201440E+00 -0.96473760995E+00  0.90007773638E+02  0.90000035450E+02 0.  0.
         12    1    1    2    0    0 -0.12049109483E+00  0.66910201440E+00  0.96473760995E+00  0.11802263620E+01  0.00000000000E+00 0. -1.
         11    1    3    3    0    0 -0.85989998835E+01 -0.30493979256E+02 -0.15510516988E+02  0.35276078401E+02  0.51100000000E-03 0. -1.
        -11    1    3    3    0    0 -0.14812790381E+01 -0.10587108705E+02  0.33275181091E+00  0.10695409406E+02  0.51100000000E-03 0.  1.
        -12    1    3    3    0    0  0.10200770016E+02  0.40411985947E+02  0.14213027567E+02  0.44036285831E+02  0.00000000000E+00 0.  1.
</event>
<event>
 7    1  0.1698110E-015  0.9000768E+02  0.7816164E-02  0.1186339E+00
        -11   -1    0    0    0    0  0.00000000000E+00  0.00000000000E+00  0.45593999997E+02  0.45594000000E+02  0.51100000000E-03 0.  1.
         11   -1    0    0    0    0 -0.00000000000E+00 -0.00000000000E+00 -0.45593999997E+02  0.45594000000E+02  0.51100000000E-03 0. -1.
    9900012    2    1    2    0    0  0.24763360434E-01  0.11250469246E+01  0.35609417487E+00  0.90007683573E+02  0.89999944196E+02 0.  0.
         12    1    1    2    0    0 -0.24763360434E-01 -0.11250469246E+01 -0.35609417487E+00  0.11803164271E+01  0.00000000000E+00 0. -1.
         11    1    3    3    0    0  0.23665958269E+02  0.16900706946E+02 -0.22120099695E+02  0.36537792583E+02  0.51100000000E-03 0. -1.
        -11    1    3    3    0    0  0.56300718399E+01  0.62059066965E+01 -0.29682971811E+01  0.88894192872E+01  0.51100000000E-03 0.  1.
        -12    1    3    3    0    0 -0.29271266749E+02 -0.21981566718E+02  0.25444491051E+02  0.44580471703E+02  0.00000000000E+00 0.  1.
</event>
<event>
 7    1  0.1698110E-015  0.9000824E+02  0.7816164E-02  0.1186338E+00
        -11   -1    0    0    0    0  0.00000000000E+00  0.00000000000E+00  0.45593999997E+02  0.45594000000E+02  0.51100000000E-03 0.  1.
         11   -1    0    0    0    0 -0.00000000000E+00 -0.00000000000E+00 -0.45593999997E+02  0.45594000000E+02  0.51100000000E-03 0. -1.
    9900012    2    1    2    0    0 -0.50929111939E+00  0.10237208019E+01  0.29060800771E+00  0.90008239542E+02  0.90000507502E+02 0.  0.
         12    1    1    2    0    0  0.50929111939E+00 -0.10237208019E+01 -0.29060800771E+00  0.11797604582E+01  0.00000000000E+00 0. -1.
         11    1    3    3    0    0 -0.50628071983E+01 -0.17427617055E+02 -0.13878238342E+02  0.22846429758E+02  0.51100000000E-03 0. -1.
        -11    1    3    3    0    0  0.15465241259E+02  0.80951989453E+01 -0.21944435557E+02  0.28040402732E+02  0.51100000000E-03 0.  1.
        -12    1    3    3    0    0 -0.10911725180E+02  0.10356138912E+02  0.36113281907E+02  0.39121407052E+02  0.00000000000E+00 0.  1.
</event>
<event>
 7    1  0.1698110E-015  0.9000766E+02  0.7816164E-02  0.1186339E+00
        -11   -1    0    0    0    0  0.00000000000E+00  0.00000000000E+00  0.45593999997E+02  0.45594000000E+02  0.51100000000E-03 0.  1.
         11   -1    0    0    0    0 -0.00000000000E+00 -0.00000000000E+00 -0.45593999997E+02  0.45594000000E+02  0.51100000000E-03 0. -1.
    9900012    2    1    2    0    0 -0.11434576273E+01  0.23553230936E+00 -0.17384973126E+00  0.90007663377E+02  0.89999923734E+02 0.  0.
         12    1    1    2    0    0  0.11434576273E+01 -0.23553230936E+00  0.17384973126E+00  0.11803366229E+01  0.00000000000E+00 0. -1.
         11    1    3    3    0    0  0.29657146440E+02  0.14050339084E+02 -0.18272900972E+02  0.37561380081E+02  0.51100000000E-03 0. -1.
        -11    1    3    3    0    0  0.25982509787E+01  0.30624145591E+01 -0.65168076558E+01  0.76549378419E+01  0.51100000000E-03 0.  1.
        -12    1    3    3    0    0 -0.33398855046E+02 -0.16877221334E+02  0.24615858897E+02  0.44791345454E+02  0.00000000000E+00 0.  1.
</event>
<event>
 7    1  0.1698110E-015  0.9000761E+02  0.7816164E-02  0.1186339E+00
        -11   -1    0    0    0    0  0.00000000000E+00  0.00000000000E+00  0.45593999997E+02  0.45594000000E+02  0.51100000000E-03 0.  1.
         11   -1    0    0    0    0 -0.00000000000E+00 -0.00000000000E+00 -0.45593999997E+02  0.45594000000E+02  0.51100000000E-03 0. -1.
    9900012    2    1    2    0    0 -0.75542736894E+00 -0.38061668901E+00  0.82327903291E+00  0.90007606871E+02  0.89999866481E+02 0.  0.
         12    1    1    2    0    0  0.75542736894E+00  0.38061668901E+00 -0.82327903291E+00  0.11803931293E+01  0.00000000000E+00 0. -1.
         11    1    3    3    0    0  0.59063107002E-01 -0.17079544805E+01  0.13100757747E+02  0.13211754265E+02  0.51100000000E-03 0. -1.
        -11    1    3    3    0    0  0.18350673652E+02  0.24822448304E+02  0.16492220057E+02  0.34998492624E+02  0.51100000000E-03 0.  1.
         12    1    3    3    0    0 -0.19165164128E+02 -0.23495110512E+02 -0.28769698771E+02  0.41797359982E+02  0.00000000000E+00 0. -1.
</event>
<event>
 7    1  0.1698110E-015  0.9000754E+02  0.7816164E-02  0.1186339E+00
        -11   -1    0    0    0    0  0.00000000000E+00  0.00000000000E+00  0.45593999997E+02  0.45594000000E+02  0.51100000000E-03 0.  1.
         11   -1    0    0    0    0 -0.00000000000E+00 -0.00000000000E+00 -0.45593999997E+02  0.45594000000E+02  0.51100000000E-03 0. -1.
    9900012    2    1    2    0    0 -0.34114391604E+00  0.33361572316E+00  0.10797275990E+01  0.90007538095E+02  0.89999796797E+02 0.  0.
         12    1    1    2    0    0  0.34114391604E+00 -0.33361572316E+00 -0.10797275990E+01  0.11804619054E+01  0.00000000000E+00 0. -1.
         11    1    3    3    0    0 -0.60606764394E+01  0.29146754709E+02 -0.21474414629E+02  0.36707159968E+02  0.51100000000E-03 0. -1.
        -11    1    3    3    0    0  0.15182302144E+01  0.72816980910E+01 -0.38560430708E+01  0.83783780350E+01  0.51100000000E-03 0.  1.
        -12    1    3    3    0    0  0.42013023089E+01 -0.36094837077E+02  0.26410185299E+02  0.44922000092E+02  0.00000000000E+00 0.  1.
</event>
<event>
 7    1  0.1698110E-015  0.9000792E+02  0.7816164E-02  0.1186339E+00
        -11   -1    0    0    0    0  0.00000000000E+00  0.00000000000E+00  0.45593999997E+02  0.45594000000E+02  0.51100000000E-03 0.  1.
         11   -1    0    0    0    0 -0.00000000000E+00 -0.00000000000E+00 -0.45593999997E+02  0.45594000000E+02  0.51100000000E-03 0. -1.
    9900012    2    1    2    0    0 -0.60304163917E+00 -0.93032385540E+00 -0.40427158284E+00  0.90007916441E+02  0.90000180137E+02 0.  0.
         12    1    1    2    0    0  0.60304163917E+00  0.93032385540E+00  0.40427158284E+00  0.11800835594E+01  0.00000000000E+00 0. -1.
         11    1    3    3    0    0  0.73651576657E+01  0.37168022929E+01  0.45200837345E+01  0.94069827231E+01  0.51100000000E-03 0. -1.
        -11    1    3    3    0    0 -0.31954428347E+02  0.17980595759E+02  0.17596021121E+02  0.40669488248E+02  0.51100000000E-03 0.  1.
         12    1    3    3    0    0  0.23986229042E+02 -0.22627721907E+02 -0.22520376438E+02  0.39931445469E+02  0.00000000000E+00 0. -1.
</event>
<event>
 7    1  0.1698110E-015  0.9000791E+02  0.7816164E-02  0.1186339E+00
        -11   -1    0    0    0    0  0.00000000000E+00  0.00000000000E+00  0.45593999997E+02  0.45594000000E+02  0.51100000000E-03 0. -1.
         11   -1    0    0    0    0 -0.00000000000E+00 -0.00000000000E+00 -0.45593999997E+02  0.45594000000E+02  0.51100000000E-03 0.  1.
    9900012    2    1    2    0    0 -0.30566698076E+00 -0.10840171270E+01 -0.35226845466E+00  0.90007907419E+02  0.90000170997E+02 0.  0.
         12    1    1    2    0    0  0.30566698076E+00  0.10840171270E+01  0.35226845466E+00  0.11800925807E+01  0.00000000000E+00 0. -1.
         11    1    3    3    0    0 -0.35772767386E+02 -0.92669706657E+01  0.23322580462E+02  0.43697944934E+02  0.51100000000E-03 0. -1.
        -11    1    3    3    0    0  0.90491234281E+01  0.52754987993E+01  0.35390700722E+00  0.10480590290E+02  0.51100000000E-03 0.  1.
        -12    1    3    3    0    0  0.26417976977E+02  0.29074547394E+01 -0.24028755924E+02  0.35829372195E+02  0.00000000000E+00 0.  1.
</event>
<event>
 7    1  0.1698110E-015  0.9000779E+02  0.7816164E-02  0.1186339E+00
        -11   -1    0    0    0    0  0.00000000000E+00  0.00000000000E+00  0.45593999997E+02  0.45594000000E+02  0.51100000000E-03 0.  1.
         11   -1    0    0    0    0 -0.00000000000E+00 -0.00000000000E+00 -0.45593999997E+02  0.45594000000E+02  0.51100000000E-03 0. -1.
    9900012    2    1    2    0    0  0.18906922664E+00 -0.10364832246E+01  0.53182934787E+00  0.90007793619E+02  0.90000055694E+02 0.  0.
         12    1    1    2    0    0 -0.18906922664E+00  0.10364832246E+01 -0.53182934787E+00  0.11802063814E+01  0.00000000000E+00 0. -1.
         11    1    3    3    0    0 -0.22801180215E+02 -0.15332175627E+02 -0.42896403269E+01  0.27809538706E+02  0.51100000000E-03 0. -1.
        -11    1    3    3    0    0  0.17097187284E+02 -0.18543827100E+02  0.12214853077E+02  0.28024809946E+02  0.51100000000E-03 0.  1.
         12    1    3    3    0    0  0.58930621584E+01  0.32839519503E+02 -0.73933834019E+01  0.34173444967E+02  0.00000000000E+00 0. -1.
</event>
<event>
 7    1  0.1698110E-015  0.9000771E+02  0.7816164E-02  0.1186339E+00
        -11   -1    0    0    0    0  0.00000000000E+00  0.00000000000E+00  0.45593999997E+02  0.45594000000E+02  0.51100000000E-03 0.  1.
         11   -1    0    0    0    0 -0.00000000000E+00 -0.00000000000E+00 -0.45593999997E+02  0.45594000000E+02  0.51100000000E-03 0. -1.
    9900012    2    1    2    0    0  0.67364606861E+00 -0.90677024872E+00  0.34214278261E+00  0.90007706395E+02  0.89999967320E+02 0.  0.
         12    1    1    2    0    0 -0.67364606861E+00  0.90677024872E+00 -0.34214278261E+00  0.11802936047E+01  0.00000000000E+00 0. -1.
         11    1    3    3    0    0 -0.76213036156E+01 -0.32927368263E+02 -0.28890167138E+02  0.44462766525E+02  0.51100000000E-03 0. -1.
        -11    1    3    3    0    0 -0.46941202940E+00  0.38903164018E+01 -0.16724597916E+00  0.39221015844E+01  0.51100000000E-03 0.  1.
        -12    1    3    3    0    0  0.87643617136E+01  0.28130281613E+02  0.29399555900E+02  0.41622838286E+02  0.00000000000E+00 0.  1.
</event>
<event>
 7    1  0.1698110E-015  0.9000746E+02  0.7816164E-02  0.1186340E+00
        -11   -1    0    0    0    0  0.00000000000E+00  0.00000000000E+00  0.45593999997E+02  0.45594000000E+02  0.51100000000E-03 0. -1.
         11   -1    0    0    0    0 -0.00000000000E+00 -0.00000000000E+00 -0.45593999997E+02  0.45594000000E+02  0.51100000000E-03 0.  1.
    9900012    2    1    2    0    0  0.24126471278E+00  0.11449420870E+01  0.15675991458E+00  0.90007459990E+02  0.89999717661E+02 0.  0.
         12    1    1    2    0    0 -0.24126471278E+00 -0.11449420870E+01 -0.15675991458E+00  0.11805400099E+01  0.00000000000E+00 0. -1.
         11    1    3    3    0    0  0.29197441981E+02 -0.22537856408E+02  0.18417264094E+02  0.41226705019E+02  0.51100000000E-03 0. -1.
        -11    1    3    3    0    0 -0.54468413360E+00  0.11273539149E+02  0.23803729912E+01  0.11534970376E+02  0.51100000000E-03 0.  1.
        -12    1    3    3    0    0 -0.28411493135E+02  0.12409259347E+02 -0.20640877171E+02  0.37245784595E+02  0.00000000000E+00 0.  1.
</event>
<event>
 7    1  0.1698110E-015  0.9000789E+02  0.7816164E-02  0.1186339E+00
        -11   -1    0    0    0    0  0.00000000000E+00  0.00000000000E+00  0.45593999997E+02  0.45594000000E+02  0.51100000000E-03 0. -1.
         11   -1    0    0    0    0 -0.00000000000E+00 -0.00000000000E+00 -0.45593999997E+02  0.45594000000E+02  0.51100000000E-03 0.  1.
    9900012    2    1    2    0    0 -0.55822279151E+00 -0.15975266753E+00 -0.10273918448E+01  0.90007886615E+02  0.90000149918E+02 0.  0.
         12    1    1    2    0    0  0.55822279151E+00  0.15975266753E+00  0.10273918448E+01  0.11801133854E+01  0.00000000000E+00 0. -1.
         11    1    3    3    0    0  0.96741390940E+01  0.72574747669E+01  0.72960080696E+01  0.14124150991E+02  0.51100000000E-03 0. -1.
        -11    1    3    3    0    0  0.20728973485E+02 -0.40199985085E+01  0.23336263025E+02  0.31471128070E+02  0.51100000000E-03 0.  1.
         12    1    3    3    0    0 -0.30961335370E+02 -0.33972289259E+01 -0.31659662940E+02  0.44412607554E+02  0.00000000000E+00 0. -1.
</event>
<event>
 7    1  0.1698110E-015  0.9000771E+02  0.7816164E-02  0.1186339E+00
        -11   -1    0    0    0    0  0.00000000000E+00  0.00000000000E+00  0.45593999997E+02  0.45594000000E+02  0.51100000000E-03 0. -1.
         11   -1    0    0    0    0 -0.00000000000E+00 -0.00000000000E+00 -0.45593999997E+02  0.45594000000E+02  0.51100000000E-03 0.  1.
    9900012    2    1    2    0    0 -0.48935787521E+00  0.87011570960E+00 -0.62969796195E+00  0.90007706815E+02  0.89999967745E+02 0.  0.
         12    1    1    2    0    0  0.48935787521E+00 -0.87011570960E+00  0.62969796195E+00  0.11802931845E+01  0.00000000000E+00 0. -1.
         11    1    3    3    0    0  0.93776799195E+01  0.14915296647E+02  0.38628324013E+02  0.42456499751E+02  0.51100000000E-03 0. -1.
        -11    1    3    3    0    0  0.60466720723E+01 -0.11053286447E+01 -0.69062627061E+01  0.92455643089E+01  0.51100000000E-03 0.  1.
        -12    1    3    3    0    0 -0.15913709867E+02 -0.12939852293E+02 -0.32351759269E+02  0.38305642756E+02  0.00000000000E+00 0.  1.
</event>
<event>
 7    1  0.1698110E-015  0.9000765E+02  0.7816164E-02  0.1186339E+00
        -11   -1    0    0    0    0  0.00000000000E+00  0.00000000000E+00  0.45593999997E+02  0.45594000000E+02  0.51100000000E-03 0. -1.
         11   -1    0    0    0    0 -0.00000000000E+00 -0.00000000000E+00 -0.45593999997E+02  0.45594000000E+02  0.51100000000E-03 0.  1.
    9900012    2    1    2    0    0 -0.74108755139E+00 -0.57664682706E+00  0.71518961941E+00  0.90007648987E+02  0.89999909154E+02 0.  0.
         12    1    1    2    0    0  0.74108755139E+00  0.57664682706E+00 -0.71518961941E+00  0.11803510129E+01  0.00000000000E+00 0. -1.
         11    1    3    3    0    0 -0.25174717115E+02 -0.19817186129E+01 -0.25863278072E+02  0.36146960362E+02  0.51100000000E-03 0. -1.
        -11    1    3    3    0    0 -0.88571050140E+01 -0.28115762207E+00 -0.29393521992E+01  0.93363349580E+01  0.51100000000E-03 0.  1.
        -12    1    3    3    0    0  0.33290734578E+02  0.16862294079E+01  0.29517819891E+02  0.44524353667E+02  0.00000000000E+00 0.  1.
</event>
<event>
 7    1  0.1698110E-015  0.9000768E+02  0.7816164E-02  0.1186339E+00
        -11   -1    0    0    0    0  0.00000000000E+00  0.00000000000E+00  0.45593999997E+02  0.45594000000E+02  0.51100000000E-03 0.  1.
         11   -1    0    0    0    0 -0.00000000000E+00 -0.00000000000E+00 -0.45593999997E+02  0.45594000000E+02  0.51100000000E-03 0. -1.
    9900012    2    1    2    0    0 -0.42681069374E+00  0.97956902210E+00  0.50143688761E+00  0.90007677252E+02  0.89999937792E+02 0.  0.
         12    1    1    2    0    0  0.42681069374E+00 -0.97956902210E+00 -0.50143688761E+00  0.11803227481E+01  0.00000000000E+00 0. -1.
         11    1    3    3    0    0  0.46829034958E+01 -0.43628443400E+01  0.65859015498E+01  0.91835774821E+01  0.51100000000E-03 0. -1.
        -11    1    3    3    0    0  0.22356627121E+02 -0.13851180606E+02 -0.29820369666E+02  0.39760890680E+02  0.51100000000E-03 0.  1.
         12    1    3    3    0    0 -0.27466341310E+02  0.19193593968E+02  0.23735905004E+02  0.41063209090E+02  0.00000000000E+00 0. -1.
</event>
<event>
 7    1  0.1698110E-015  0.9000759E+02  0.7816164E-02  0.1186339E+00
        -11   -1    0    0    0    0  0.00000000000E+00  0.00000000000E+00  0.45593999997E+02  0.45594000000E+02  0.51100000000E-03 0. -1.
         11   -1    0    0    0    0 -0.00000000000E+00 -0.00000000000E+00 -0.45593999997E+02  0.45594000000E+02  0.51100000000E-03 0.  1.
    9900012    2    1    2    0    0  0.11484382116E+01  0.20575497471E+00  0.17923710027E+00  0.90007588473E+02  0.89999847840E+02 0.  0.
         12    1    1    2    0    0 -0.11484382116E+01 -0.20575497471E+00 -0.17923710027E+00  0.11804115273E+01  0.00000000000E+00 0. -1.
         11    1    3    3    0    0 -0.60142964385E+01  0.15394953205E+01 -0.94383690219E+01  0.11297106601E+02  0.51100000000E-03 0. -1.
        -11    1    3    3    0    0 -0.19338537804E+02 -0.18168371790E+01 -0.27151379380E+02  0.33383788643E+02  0.51100000000E-03 0.  1.
         12    1    3    3    0    0  0.26501272454E+02  0.48309683324E+00  0.36768985502E+02  0.45326693229E+02  0.00000000000E+00 0. -1.
</event>
<event>
 7    1  0.1698110E-015  0.9000780E+02  0.7816164E-02  0.1186339E+00
        -11   -1    0    0    0    0  0.00000000000E+00  0.00000000000E+00  0.45593999997E+02  0.45594000000E+02  0.51100000000E-03 0.  1.
         11   -1    0    0    0    0 -0.00000000000E+00 -0.00000000000E+00 -0.45593999997E+02  0.45594000000E+02  0.51100000000E-03 0. -1.
    9900012    2    1    2    0    0 -0.87673408619E+00 -0.78541329998E+00 -0.85582580309E-01  0.90007804640E+02  0.90000066861E+02 0.  0.
         12    1    1    2    0    0  0.87673408619E+00  0.78541329998E+00  0.85582580309E-01  0.11801953600E+01  0.00000000000E+00 0. -1.
         11    1    3    3    0    0  0.17510489058E+02 -0.31122994745E+02 -0.10355984108E+02  0.37182044539E+02  0.51100000000E-03 0. -1.
        -11    1    3    3    0    0  0.64924216537E+01 -0.51745431678E+01  0.31760107291E+01  0.88890089626E+01  0.51100000000E-03 0.  1.
        -12    1    3    3    0    0 -0.24879644798E+02  0.35512124613E+02  0.70943907987E+01  0.43936751139E+02  0.00000000000E+00 0.  1.
</event>
<event>
 7    1  0.1698110E-015  0.9000771E+02  0.7816164E-02  0.1186339E+00
        -11   -1    0    0    0    0  0.00000000000E+00  0.00000000000E+00  0.45593999997E+02  0.45594000000E+02  0.51100000000E-03 0. -1.
         11   -1    0    0    0    0 -0.00000000000E+00 -0.00000000000E+00 -0.45593999997E+02  0.45594000000E+02  0.51100000000E-03 0.  1.
    9900012    2    1    2    0    0 -0.96688124341E+00 -0.67416664245E+00 -0.60937229131E-01  0.90007714718E+02  0.89999975752E+02 0.  0.
         12    1    1    2    0    0  0.96688124341E+00  0.67416664245E+00  0.60937229131E-01  0.11802852818E+01  0.00000000000E+00 0. -1.
         11    1    3    3    0    0 -0.44428468594E+01  0.80166201311E+01  0.79854743586E+01  0.12156187212E+02  0.51100000000E-03 0. -1.
        -11    1    3    3    0    0 -0.11541782405E+02  0.19268852222E+02  0.23915199272E+02  0.32809117079E+02  0.51100000000E-03 0.  1.
         12    1    3    3    0    0  0.15017748021E+02 -0.27959638995E+02 -0.31961610860E+02  0.45042410427E+02  0.00000000000E+00 0. -1.
</event>
<event>
 7    1  0.1698110E-015  0.9000795E+02  0.7816164E-02  0.1186339E+00
        -11   -1    0    0    0    0  0.00000000000E+00  0.00000000000E+00  0.45593999997E+02  0.45594000000E+02  0.51100000000E-03 0. -1.
         11   -1    0    0    0    0 -0.00000000000E+00 -0.00000000000E+00 -0.45593999997E+02  0.45594000000E+02  0.51100000000E-03 0.  1.
    9900012    2    1    2    0    0  0.58467346943E+00  0.88458151477E+00 -0.51787847920E+00  0.90007946763E+02  0.90000210860E+02 0.  0.
         12    1    1    2    0    0 -0.58467346943E+00 -0.88458151477E+00  0.51787847920E+00  0.11800532367E+01  0.00000000000E+00 0. -1.
         11    1    3    3    0    0  0.78316219378E+01  0.55048633314E+01  0.62651819749E+01  0.11440731092E+02  0.51100000000E-03 0. -1.
        -11    1    3    3    0    0  0.33223550406E+01  0.35991192595E+02 -0.56849265072E+01  0.36588555275E+02  0.51100000000E-03 0.  1.
         12    1    3    3    0    0 -0.10569303509E+02 -0.40611474412E+02 -0.10981339469E+01  0.41978660397E+02  0.00000000000E+00 0. -1.
</event>
<event>
 7    1  0.1698110E-015  0.9000780E+02  0.7816164E-02  0.1186339E+00
        -11   -1    0    0    0    0  0.00000000000E+00  0.00000000000E+00  0.45593999997E+02  0.45594000000E+02  0.51100000000E-03 0.  1.
         11   -1    0    0    0    0 -0.00000000000E+00 -0.00000000000E+00 -0.45593999997E+02  0.45594000000E+02  0.51100000000E-03 0. -1.
    9900012    2    1    2    0    0 -0.76376696225E+00 -0.89114626585E+00 -0.12403186505E+00  0.90007802752E+02  0.90000064949E+02 0.  0.
         12    1    1    2    0    0  0.76376696225E+00  0.89114626585E+00  0.12403186505E+00  0.11801972476E+01  0.00000000000E+00 0. -1.
         11    1    3    3    0    0 -0.29974762786E+02 -0.12581438311E+02 -0.23200731792E+02  0.39938114002E+02  0.51100000000E-03 0. -1.
        -11    1    3    3    0    0 -0.25903550004E+01  0.42656003518E+01 -0.49546896292E+01  0.70323705087E+01  0.51100000000E-03 0.  1.
        -12    1    3    3    0    0  0.31801350825E+02  0.74246916935E+01  0.28031389556E+02  0.43037318242E+02  0.00000000000E+00 0.  1.
</event>
<event>
 7    1  0.1698110E-015  0.9000766E+02  0.7816164E-02  0.1186339E+00
        -11   -1    0    0    0    0  0.00000000000E+00  0.00000000000E+00  0.45593999997E+02  0.45594000000E+02  0.51100000000E-03 0.  1.
         11   -1    0    0    0    0 -0.00000000000E+00 -0.00000000000E+00 -0.45593999997E+02  0.45594000000E+02  0.51100000000E-03 0. -1.
    9900012    2    1    2    0    0  0.62007390670E+00  0.50912943079E+00  0.86573034203E+00  0.90007663839E+02  0.89999924202E+02 0.  0.
         12    1    1    2    0    0 -0.62007390670E+00 -0.50912943079E+00 -0.86573034203E+00  0.11803361607E+01  0.00000000000E+00 0. -1.
         11    1    3    3    0    0 -0.96817185149E+01  0.27430689811E+02 -0.31735502002E+02  0.43050209111E+02  0.51100000000E-03 0. -1.
        -11    1    3    3    0    0  0.14332679104E+01  0.13741579503E+01  0.85479572865E+01  0.87755422060E+01  0.51100000000E-03 0.  1.
        -12    1    3    3    0    0  0.88685245112E+01 -0.28295718331E+02  0.24053275058E+02  0.38181912522E+02  0.00000000000E+00 0.  1.
</event>
<event>
 7    1  0.1698110E-015  0.9000775E+02  0.7816164E-02  0.1186339E+00
        -11   -1    0    0    0    0  0.00000000000E+00  0.00000000000E+00  0.45593999997E+02  0.45594000000E+02  0.51100000000E-03 0.  1.
         11   -1    0    0    0    0 -0.00000000000E+00 -0.00000000000E+00 -0.45593999997E+02  0.45594000000E+02  0.51100000000E-03 0. -1.
    9900012    2    1    2    0    0 -0.16211491501E+00 -0.11689099622E+01 -0.18844031329E-01  0.90007751364E+02  0.90000012882E+02 0.  0.
         12    1    1    2    0    0  0.16211491501E+00  0.11689099622E+01  0.18844031329E-01  0.11802486361E+01  0.00000000000E+00 0. -1.
         11    1    3    3    0    0  0.22231563519E+01 -0.29861411351E+02 -0.31894113340E+02  0.43747923129E+02  0.51100000000E-03 0. -1.
        -11    1    3    3    0    0 -0.31810403614E+01  0.85252345887E+01  0.70613726706E+00  0.91267339543E+01  0.51100000000E-03 0.  1.
        -12    1    3    3    0    0  0.79576909441E+00  0.20167266800E+02  0.31169132042E+02  0.37133094281E+02  0.00000000000E+00 0.  1.
</event>
<event>
 7    1  0.1698110E-015  0.9000770E+02  0.7816164E-02  0.1186339E+00
        -11   -1    0    0    0    0  0.00000000000E+00  0.00000000000E+00  0.45593999997E+02  0.45594000000E+02  0.51100000000E-03 0. -1.
         11   -1    0    0    0    0 -0.00000000000E+00 -0.00000000000E+00 -0.45593999997E+02  0.45594000000E+02  0.51100000000E-03 0.  1.
    9900012    2    1    2    0    0 -0.11518232151E+01  0.59403538898E-01 -0.25075437532E+00  0.90007702048E+02  0.89999962915E+02 0.  0.
         12    1    1    2    0    0  0.11518232151E+01 -0.59403538898E-01  0.25075437532E+00  0.11802979522E+01  0.00000000000E+00 0. -1.
         11    1    3    3    0    0  0.55855232086E+00 -0.30726285887E+02  0.25435498858E+02  0.39892119867E+02  0.51100000000E-03 0. -1.
        -11    1    3    3    0    0 -0.56098718239E+01  0.51397818620E+01  0.56196273091E+01  0.94587647621E+01  0.51100000000E-03 0.  1.
        -12    1    3    3    0    0  0.38994962879E+01  0.25645907564E+02 -0.31305880542E+02  0.40656817418E+02  0.00000000000E+00 0.  1.
</event>
<event>
 7    1  0.1698110E-015  0.9000774E+02  0.7816164E-02  0.1186339E+00
        -11   -1    0    0    0    0  0.00000000000E+00  0.00000000000E+00  0.45593999997E+02  0.45594000000E+02  0.51100000000E-03 0. -1.
         11   -1    0    0    0    0 -0.00000000000E+00 -0.00000000000E+00 -0.45593999997E+02  0.45594000000E+02  0.51100000000E-03 0.  1.
    9900012    2    1    2    0    0  0.34872106118E+00  0.93696168811E+00 -0.62730766039E+00  0.90007737959E+02  0.89999999301E+02 0.  0.
         12    1    1    2    0    0 -0.34872106118E+00 -0.93696168811E+00  0.62730766039E+00  0.11802620405E+01  0.00000000000E+00 0. -1.
         11    1    3    3    0    0  0.19946112352E+02 -0.23514510509E+02  0.23785094993E+02  0.38942397802E+02  0.51100000000E-03 0. -1.
        -11    1    3    3    0    0 -0.46129707059E+01 -0.75380056628E+01 -0.15096036540E+01  0.89654855730E+01  0.51100000000E-03 0.  1.
        -12    1    3    3    0    0 -0.14984420585E+02  0.31989477860E+02 -0.22902798999E+02  0.42099854585E+02  0.00000000000E+00 0.  1.
</event>
<event>
 7    1  0.1698110E-015  0.9000781E+02  0.7816164E-02  0.1186339E+00
        -11   -1    0    0    0    0  0.00000000000E+00  0.00000000000E+00  0.45593999997E+02  0.45594000000E+02  0.51100000000E-03 0.  1.
         11   -1    0    0    0    0 -0.00000000000E+00 -0.00000000000E+00 -0.45593999997E+02  0.45594000000E+02  0.51100000000E-03 0. -1.
    9900012    2    1    2    0    0 -0.10084009512E+01 -0.40816758227E+00 -0.45758604845E+00  0.90007805844E+02  0.90000068081E+02 0.  0.
         12    1    1    2    0    0  0.10084009512E+01  0.40816758227E+00  0.45758604845E+00  0.11801941558E+01  0.00000000000E+00 0. -1.
         11    1    3    3    0    0 -0.44804423145E+01  0.93158176533E+00 -0.14689546095E+02  0.15385869253E+02  0.51100000000E-03 0. -1.
        -11    1    3    3    0    0  0.67678063722E+01  0.32330366801E+02  0.22284978214E+02  0.39845653149E+02  0.51100000000E-03 0.  1.
         12    1    3    3    0    0 -0.32957650089E+01 -0.33670116149E+02 -0.80530181677E+01  0.34776283443E+02  0.00000000000E+00 0. -1.
</event>
<event>
 7    1  0.1698110E-015  0.9000778E+02  0.7816164E-02  0.1186339E+00
        -11   -1    0    0    0    0  0.00000000000E+00  0.00000000000E+00  0.45593999997E+02  0.45594000000E+02  0.51100000000E-03 0.  1.
         11   -1    0    0    0    0 -0.00000000000E+00 -0.00000000000E+00 -0.45593999997E+02  0.45594000000E+02  0.51100000000E-03 0. -1.
    9900012    2    1    2    0    0  0.97901498044E+00  0.43024112113E+00  0.49933951549E+00  0.90007780653E+02  0.90000042558E+02 0.  0.
         12    1    1    2    0    0 -0.97901498044E+00 -0.43024112113E+00 -0.49933951549E+00  0.11802193465E+01  0.00000000000E+00 0. -1.
         11    1    3    3    0    0  0.21712238740E+01 -0.96250044805E+01 -0.23906648448E+01  0.10152349631E+02  0.51100000000E-03 0. -1.
        -11    1    3    3    0    0  0.13737031030E+02  0.18054614183E+02  0.36064927733E+02  0.42606972757E+02  0.51100000000E-03 0.  1.
         12    1    3    3    0    0 -0.14929239923E+02 -0.79993685815E+01 -0.33174923373E+02  0.37248458266E+02  0.00000000000E+00 0. -1.
</event>
<event>
 7    1  0.1698110E-015  0.9000775E+02  0.7816164E-02  0.1186339E+00
        -11   -1    0    0    0    0  0.00000000000E+00  0.00000000000E+00  0.45593999997E+02  0.45594000000E+02  0.51100000000E-03 0.  1.
         11   -1    0    0    0    0 -0.00000000000E+00 -0.00000000000E+00 -0.45593999997E+02  0.45594000000E+02  0.51100000000E-03 0. -1.
    9900012    2    1    2    0    0  0.32447071412E-01  0.10868290106E+01  0.45905463300E+00  0.90007753726E+02  0.90000015275E+02 0.  0.
         12    1    1    2    0    0 -0.32447071412E-01 -0.10868290106E+01 -0.45905463300E+00  0.11802462738E+01  0.00000000000E+00 0. -1.
         11    1    3    3    0    0 -0.17829364873E+01 -0.49013133533E+01  0.83470274228E+01  0.98424896324E+01  0.51100000000E-03 0. -1.
        -11    1    3    3    0    0 -0.35691290398E+02  0.10910305275E+02 -0.17371428907E+02  0.41166363867E+02  0.51100000000E-03 0.  1.
         12    1    3    3    0    0  0.37506673957E+02 -0.49221629106E+01  0.94834561175E+01  0.38998900227E+02  0.00000000000E+00 0. -1.
</event>
<event>
 7    1  0.1729012E-015  0.9000781E+02  0.7816164E-02  0.1186339E+00
        -11   -1    0    0    0    0  0.00000000000E+00  0.00000000000E+00  0.45593999997E+02  0.45594000000E+02  0.51100000000E-03 0.  1.
         11   -1    0    0    0    0 -0.00000000000E+00 -0.00000000000E+00 -0.45593999997E+02  0.45594000000E+02  0.51100000000E-03 0. -1.
    9900012    2    1    2    0    0 -0.69001847818E+00  0.95426164162E+00  0.78093311555E-01  0.90007813851E+02  0.90000076194E+02 0.  0.
         12    1    1    2    0    0  0.69001847818E+00 -0.95426164162E+00 -0.78093311555E-01  0.11801861490E+01  0.00000000000E+00 0. -1.
         11    1    3    3    0    0 -0.15457973146E+01 -0.93687373304E+01  0.32487322961E+01  0.10035785485E+02  0.51100000000E-03 0. -1.
        -11    1    3    3    0    0  0.29033993514E+02 -0.15818622630E+02  0.16324300147E+02  0.36873898313E+02  0.51100000000E-03 0.  1.
         12    1    3    3    0    0 -0.28178214677E+02  0.26141621602E+02 -0.19494939131E+02  0.43098130053E+02  0.00000000000E+00 0. -1.
</event>
<event>
 7    1  0.1698110E-015  0.9000769E+02  0.7816164E-02  0.1186339E+00
        -11   -1    0    0    0    0  0.00000000000E+00  0.00000000000E+00  0.45593999997E+02  0.45594000000E+02  0.51100000000E-03 0.  1.
         11   -1    0    0    0    0 -0.00000000000E+00 -0.00000000000E+00 -0.45593999997E+02  0.45594000000E+02  0.51100000000E-03 0. -1.
    9900012    2    1    2    0    0 -0.94007070487E+00  0.70666114017E+00 -0.10017491610E+00  0.90007687367E+02  0.89999948040E+02 0.  0.
         12    1    1    2    0    0  0.94007070487E+00 -0.70666114017E+00  0.10017491610E+00  0.11803126327E+01  0.00000000000E+00 0. -1.
         11    1    3    3    0    0 -0.24123308443E+02  0.36004824257E+02  0.23941801959E+01  0.43405224099E+02  0.51100000000E-03 0. -1.
        -11    1    3    3    0    0  0.18830707568E+01 -0.75077233873E+01  0.68788574560E+01  0.10355218303E+02  0.51100000000E-03 0.  1.
        -12    1    3    3    0    0  0.21300166981E+02 -0.27790439729E+02 -0.93732125680E+01  0.36247244966E+02  0.00000000000E+00 0.  1.
</event>
<event>
 7    1  0.1698110E-015  0.9000769E+02  0.7816164E-02  0.1186339E+00
        -11   -1    0    0    0    0  0.00000000000E+00  0.00000000000E+00  0.45593999997E+02  0.45594000000E+02  0.51100000000E-03 0. -1.
         11   -1    0    0    0    0 -0.00000000000E+00 -0.00000000000E+00 -0.45593999997E+02  0.45594000000E+02  0.51100000000E-03 0.  1.
    9900012    2    1    2    0    0 -0.14148496343E+00  0.96629104929E+00 -0.66286620525E+00  0.90007691569E+02  0.89999952297E+02 0.  0.
         12    1    1    2    0    0  0.14148496343E+00 -0.96629104929E+00  0.66286620525E+00  0.11803084313E+01  0.00000000000E+00 0. -1.
         11    1    3    3    0    0 -0.14263324605E+02 -0.20291792132E+02 -0.81920714392E+01  0.26121050734E+02  0.51100000000E-03 0. -1.
        -11    1    3    3    0    0 -0.16112941017E+02  0.20085030442E+02  0.18494993795E+02  0.31703313893E+02  0.51100000000E-03 0.  1.
        -12    1    3    3    0    0  0.30234780659E+02  0.11730527393E+01 -0.10965788561E+02  0.32183326941E+02  0.00000000000E+00 0.  1.
</event>
<event>
 7    1  0.1698110E-015  0.9000789E+02  0.7816164E-02  0.1186339E+00
        -11   -1    0    0    0    0  0.00000000000E+00  0.00000000000E+00  0.45593999997E+02  0.45594000000E+02  0.51100000000E-03 0. -1.
         11   -1    0    0    0    0 -0.00000000000E+00 -0.00000000000E+00 -0.45593999997E+02  0.45594000000E+02  0.51100000000E-03 0.  1.
    9900012    2    1    2    0    0 -0.84676860474E+00  0.80643854661E+00 -0.15908300090E+00  0.90007886615E+02  0.90000149919E+02 0.  0.
         12    1    1    2    0    0  0.84676860474E+00 -0.80643854661E+00  0.15908300090E+00  0.11801133846E+01  0.00000000000E+00 0. -1.
         11    1    3    3    0    0  0.22185547972E+02 -0.24659523195E+02  0.12715538585E+02  0.35524295135E+02  0.51100000000E-03 0. -1.
        -11    1    3    3    0    0  0.51126497880E+01 -0.69233344477E+01 -0.71600811115E+01  0.11195468258E+02  0.51100000000E-03 0.  1.
        -12    1    3    3    0    0 -0.28144966365E+02  0.32389296190E+02 -0.57145404746E+01  0.43288123223E+02  0.00000000000E+00 0.  1.
</event>
<event>
 7    1  0.1698110E-015  0.9000774E+02  0.7816164E-02  0.1186339E+00
        -11   -1    0    0    0    0  0.00000000000E+00  0.00000000000E+00  0.45593999997E+02  0.45594000000E+02  0.51100000000E-03 0.  1.
         11   -1    0    0    0    0 -0.00000000000E+00 -0.00000000000E+00 -0.45593999997E+02  0.45594000000E+02  0.51100000000E-03 0. -1.
    9900012    2    1    2    0    0  0.29806547731E+00  0.10860939454E+01  0.35295188980E+00  0.90007738112E+02  0.89999999455E+02 0.  0.
         12    1    1    2    0    0 -0.29806547731E+00 -0.10860939454E+01 -0.35295188980E+00  0.11802618876E+01  0.00000000000E+00 0. -1.
         11    1    3    3    0    0  0.36988083720E+01  0.17834663917E+01 -0.36810881591E+02  0.37039208138E+02  0.51100000000E-03 0. -1.
        -11    1    3    3    0    0 -0.67149226322E+01 -0.75205678746E+01 -0.41948529499E+01  0.10919977960E+02  0.51100000000E-03 0.  1.
        -12    1    3    3    0    0  0.33141797375E+01  0.68231954283E+01  0.41358686431E+02  0.42048552014E+02  0.00000000000E+00 0.  1.
</event>
<event>
 7    1  0.1916389E-015  0.9000776E+02  0.7816164E-02  0.1186339E+00
        -11   -1    0    0    0    0  0.00000000000E+00  0.00000000000E+00  0.45593999997E+02  0.45594000000E+02  0.51100000000E-03 0.  1.
         11   -1    0    0    0    0 -0.00000000000E+00 -0.00000000000E+00 -0.45593999997E+02  0.45594000000E+02  0.51100000000E-03 0. -1.
    9900012    2    1    2    0    0  0.96998095176E+00  0.66622373083E+00  0.90822781802E-01  0.90007760243E+02  0.90000021878E+02 0.  0.
         12    1    1    2    0    0 -0.96998095176E+00 -0.66622373083E+00 -0.90822781802E-01  0.11802397570E+01  0.00000000000E+00 0. -1.
         11    1    3    3    0    0  0.25846771339E+01  0.85179284960E+01  0.46507430324E+01  0.10043160497E+02  0.51100000000E-03 0. -1.
        -11    1    3    3    0    0 -0.36676086970E+02 -0.12580552823E+01  0.14568982072E+02  0.39483835900E+02  0.51100000000E-03 0.  1.
         12    1    3    3    0    0  0.35061390788E+02 -0.65936494829E+01 -0.19128902323E+02  0.40480763846E+02  0.00000000000E+00 0. -1.
</event>
<event>
 7    1  0.1698110E-015  0.9000768E+02  0.7816164E-02  0.1186339E+00
        -11   -1    0    0    0    0  0.00000000000E+00  0.00000000000E+00  0.45593999997E+02  0.45594000000E+02  0.51100000000E-03 0.  1.
         11   -1    0    0    0    0 -0.00000000000E+00 -0.00000000000E+00 -0.45593999997E+02  0.45594000000E+02  0.51100000000E-03 0. -1.
    9900012    2    1    2    0    0  0.12559010813E+00  0.79764301978E+00  0.86089652039E+00  0.90007682212E+02  0.89999942817E+02 0.  0.
         12    1    1    2    0    0 -0.12559010813E+00 -0.79764301978E+00 -0.86089652039E+00  0.11803177882E+01  0.00000000000E+00 0. -1.
         11    1    3    3    0    0 -0.41142173219E+01  0.92908825903E+01  0.20450771619E+01  0.10364826305E+02  0.51100000000E-03 0. -1.
        -11    1    3    3    0    0  0.11399336035E+02  0.21333399668E+02  0.28209116022E+02  0.37159292652E+02  0.51100000000E-03 0.  1.
         12    1    3    3    0    0 -0.71595286047E+01 -0.29826639238E+02 -0.29393296663E+02  0.42483563255E+02  0.00000000000E+00 0. -1.
</event>
<event>
 7    1  0.1698110E-015  0.9000769E+02  0.7816164E-02  0.1186339E+00
        -11   -1    0    0    0    0  0.00000000000E+00  0.00000000000E+00  0.45593999997E+02  0.45594000000E+02  0.51100000000E-03 0.  1.
         11   -1    0    0    0    0 -0.00000000000E+00 -0.00000000000E+00 -0.45593999997E+02  0.45594000000E+02  0.51100000000E-03 0. -1.
    9900012    2    1    2    0    0 -0.20306326899E+00 -0.65555911591E+00  0.96027854163E+00  0.90007691852E+02  0.89999952585E+02 0.  0.
         12    1    1    2    0    0  0.20306326899E+00  0.65555911591E+00 -0.96027854163E+00  0.11803081476E+01  0.00000000000E+00 0. -1.
         11    1    3    3    0    0 -0.72049277385E+01  0.53852797898E+01 -0.17437227182E+01  0.91625755828E+01  0.51100000000E-03 0. -1.
        -11    1    3    3    0    0  0.39790489558E+02  0.70501107117E+01  0.15516471546E+02  0.43286811038E+02  0.51100000000E-03 0.  1.
         12    1    3    3    0    0 -0.32788625088E+02 -0.13090949617E+02 -0.12812470286E+02  0.37558305232E+02  0.00000000000E+00 0. -1.
</event>
<event>
 7    1  0.1698110E-015  0.9000778E+02  0.7816164E-02  0.1186339E+00
        -11   -1    0    0    0    0  0.00000000000E+00  0.00000000000E+00  0.45593999997E+02  0.45594000000E+02  0.51100000000E-03 0.  1.
         11   -1    0    0    0    0 -0.00000000000E+00 -0.00000000000E+00 -0.45593999997E+02  0.45594000000E+02  0.51100000000E-03 0. -1.
    9900012    2    1    2    0    0  0.33286627476E+00  0.24404531407E+00  0.11056922339E+01  0.90007782483E+02  0.90000044411E+02 0.  0.
         12    1    1    2    0    0 -0.33286627476E+00 -0.24404531407E+00 -0.11056922339E+01  0.11802175173E+01  0.00000000000E+00 0. -1.
         11    1    3    3    0    0 -0.10809947142E+02 -0.78484188314E+01  0.13501808630E+02  0.18993458661E+02  0.51100000000E-03 0. -1.
        -11    1    3    3    0    0  0.29770205703E+02  0.13065985203E+02  0.16358092028E+02  0.36394673951E+02  0.51100000000E-03 0.  1.
         12    1    3    3    0    0 -0.18627392287E+02 -0.49735210572E+01 -0.28754208424E+02  0.34619649871E+02  0.00000000000E+00 0. -1.
</event>
<event>
 7    1  0.1698110E-015  0.9000783E+02  0.7816164E-02  0.1186339E+00
        -11   -1    0    0    0    0  0.00000000000E+00  0.00000000000E+00  0.45593999997E+02  0.45594000000E+02  0.51100000000E-03 0. -1.
         11   -1    0    0    0    0 -0.00000000000E+00 -0.00000000000E+00 -0.45593999997E+02  0.45594000000E+02  0.51100000000E-03 0.  1.
    9900012    2    1    2    0    0  0.11413511509E+01  0.19017731628E+00 -0.23227772001E+00  0.90007829334E+02  0.90000091881E+02 0.  0.
         12    1    1    2    0    0 -0.11413511509E+01 -0.19017731628E+00  0.23227772001E+00  0.11801706658E+01  0.00000000000E+00 0. -1.
         11    1    3    3    0    0  0.78343108884E+01  0.16573171041E+01 -0.36870227842E+01  0.88157395806E+01  0.51100000000E-03 0. -1.
        -11    1    3    3    0    0  0.38179609582E+01  0.38917125554E+02 -0.17259296346E+01  0.39142027549E+02  0.51100000000E-03 0.  1.
         12    1    3    3    0    0 -0.10510920696E+02 -0.40384265342E+02  0.51806746988E+01  0.42050062205E+02  0.00000000000E+00 0. -1.
</event>
<event>
 7    1  0.1698110E-015  0.9000775E+02  0.7816164E-02  0.1186339E+00
        -11   -1    0    0    0    0  0.00000000000E+00  0.00000000000E+00  0.45593999997E+02  0.45594000000E+02  0.51100000000E-03 0. -1.
         11   -1    0    0    0    0 -0.00000000000E+00 -0.00000000000E+00 -0.45593999997E+02  0.45594000000E+02  0.51100000000E-03 0.  1.
    9900012    2    1    2    0    0 -0.40594860938E+00 -0.62133486618E+00 -0.91768419561E+00  0.90007747666E+02  0.90000009135E+02 0.  0.
         12    1    1    2    0    0  0.40594860938E+00  0.62133486618E+00  0.91768419561E+00  0.11802523342E+01  0.00000000000E+00 0. -1.
         11    1    3    3    0    0 -0.24864581371E+02  0.22014665496E+02  0.16789165603E+02  0.37212484270E+02  0.51100000000E-03 0. -1.
        -11    1    3    3    0    0 -0.18608311590E+01  0.15905283338E+01  0.82451441767E+01  0.86008648250E+01  0.51100000000E-03 0.  1.
        -12    1    3    3    0    0  0.26319463921E+02 -0.24226528696E+02 -0.25951993975E+02  0.44194398571E+02  0.00000000000E+00 0.  1.
</event>
<event>
 7    1  0.1698110E-015  0.9000769E+02  0.7816164E-02  0.1186339E+00
        -11   -1    0    0    0    0  0.00000000000E+00  0.00000000000E+00  0.45593999997E+02  0.45594000000E+02  0.51100000000E-03 0. -1.
         11   -1    0    0    0    0 -0.00000000000E+00 -0.00000000000E+00 -0.45593999997E+02  0.45594000000E+02  0.51100000000E-03 0.  1.
    9900012    2    1    2    0    0  0.32484848366E+00  0.77351310433E+00 -0.83022498660E+00  0.90007693858E+02  0.89999954617E+02 0.  0.
         12    1    1    2    0    0 -0.32484848366E+00 -0.77351310433E+00  0.83022498660E+00  0.11803061418E+01  0.00000000000E+00 0. -1.
         11    1    3    3    0    0  0.43802803927E+01 -0.81000760131E+01  0.39892326768E+02  0.40941370556E+02  0.51100000000E-03 0. -1.
        -11    1    3    3    0    0 -0.39937179240E+01 -0.70612021630E+01 -0.40198495046E+01  0.90537036148E+01  0.51100000000E-03 0.  1.
        -12    1    3    3    0    0 -0.61713984971E-01  0.15934791280E+02 -0.36702702250E+02  0.40012619687E+02  0.00000000000E+00 0.  1.
</event>
<event>
 7    1  0.1698110E-015  0.9000768E+02  0.7816164E-02  0.1186339E+00
        -11   -1    0    0    0    0  0.00000000000E+00  0.00000000000E+00  0.45593999997E+02  0.45594000000E+02  0.51100000000E-03 0.  1.
         11   -1    0    0    0    0 -0.00000000000E+00 -0.00000000000E+00 -0.45593999997E+02  0.45594000000E+02  0.51100000000E-03 0. -1.
    9900012    2    1    2    0    0  0.11786302592E+01  0.63088419976E-01 -0.12683858063E-02  0.90007681803E+02  0.89999942403E+02 0.  0.
         12    1    1    2    0    0 -0.11786302592E+01 -0.63088419976E-01  0.12683858063E-02  0.11803181967E+01  0.00000000000E+00 0. -1.
         11    1    3    3    0    0 -0.90203082990E+01 -0.57051266422E+01  0.14257238809E+01  0.10767874473E+02  0.51100000000E-03 0. -1.
        -11    1    3    3    0    0  0.65315236471E+01 -0.22088200952E+02  0.29518631986E+02  0.37441942485E+02  0.51100000000E-03 0.  1.
         12    1    3    3    0    0  0.36674149111E+01  0.27856416014E+02 -0.30945624253E+02  0.41797864846E+02  0.00000000000E+00 0. -1.
</event>
<event>
 7    1  0.1698110E-015  0.9000779E+02  0.7816164E-02  0.1186339E+00
        -11   -1    0    0    0    0  0.00000000000E+00  0.00000000000E+00  0.45593999997E+02  0.45594000000E+02  0.51100000000E-03 0.  1.
         11   -1    0    0    0    0 -0.00000000000E+00 -0.00000000000E+00 -0.45593999997E+02  0.45594000000E+02  0.51100000000E-03 0. -1.
    9900012    2    1    2    0    0  0.23497325095E+00  0.10849456760E+01  0.40070705173E+00  0.90007794217E+02  0.90000056301E+02 0.  0.
         12    1    1    2    0    0 -0.23497325095E+00 -0.10849456760E+01 -0.40070705173E+00  0.11802057828E+01  0.00000000000E+00 0. -1.
         11    1    3    3    0    0  0.92181510986E+01  0.35511519005E+01 -0.16637362800E+01  0.10017634859E+02  0.51100000000E-03 0. -1.
        -11    1    3    3    0    0 -0.11373815760E+02  0.37599655797E+02 -0.36362534529E+01  0.39450223579E+02  0.51100000000E-03 0.  1.
         12    1    3    3    0    0  0.23906379120E+01 -0.40065862022E+02  0.57006967846E+01  0.40539935779E+02  0.00000000000E+00 0. -1.
</event>
<event>
 7    1  0.1698110E-015  0.9000766E+02  0.7816164E-02  0.1186339E+00
        -11   -1    0    0    0    0  0.00000000000E+00  0.00000000000E+00  0.45593999997E+02  0.45594000000E+02  0.51100000000E-03 0. -1.
         11   -1    0    0    0    0 -0.00000000000E+00 -0.00000000000E+00 -0.45593999997E+02  0.45594000000E+02  0.51100000000E-03 0.  1.
    9900012    2    1    2    0    0 -0.13721083425E+00  0.61425031963E+00 -0.99852916181E+00  0.90007664982E+02  0.89999925360E+02 0.  0.
         12    1    1    2    0    0  0.13721083425E+00 -0.61425031963E+00  0.99852916181E+00  0.11803350182E+01  0.00000000000E+00 0. -1.
         11    1    3    3    0    0  0.72733133630E+01  0.45304029982E+01 -0.69335616061E+01  0.11022700005E+02  0.51100000000E-03 0. -1.
        -11    1    3    3    0    0  0.33697229063E+02  0.23672226977E+01  0.14101572257E+02  0.36605482243E+02  0.51100000000E-03 0.  1.
         12    1    3    3    0    0 -0.41107753261E+02 -0.62833753763E+01 -0.81665398127E+01  0.42379482734E+02  0.00000000000E+00 0. -1.
</event>
<event>
 7    1  0.1698110E-015  0.9000776E+02  0.7816164E-02  0.1186339E+00
        -11   -1    0    0    0    0  0.00000000000E+00  0.00000000000E+00  0.45593999997E+02  0.45594000000E+02  0.51100000000E-03 0. -1.
         11   -1    0    0    0    0 -0.00000000000E+00 -0.00000000000E+00 -0.45593999997E+02  0.45594000000E+02  0.51100000000E-03 0.  1.
    9900012    2    1    2    0    0 -0.46143578455E+00 -0.50203873256E+00 -0.96333022063E+00  0.90007758081E+02  0.90000019688E+02 0.  0.
         12    1    1    2    0    0  0.46143578455E+00  0.50203873256E+00  0.96333022063E+00  0.11802419185E+01  0.00000000000E+00 0. -1.
         11    1    3    3    0    0 -0.78161393307E+01 -0.81825942754E+01  0.39834747697E+02  0.41410795783E+02  0.51100000000E-03 0. -1.
        -11    1    3    3    0    0 -0.18561075501E+01 -0.57236086061E+01 -0.17022508826E+01  0.62531983050E+01  0.51100000000E-03 0.  1.
        -12    1    3    3    0    0  0.92108110962E+01  0.13404164149E+02 -0.39095827035E+02  0.42343763993E+02  0.00000000000E+00 0.  1.
</event>
<event>
 7    1  0.1698110E-015  0.9000751E+02  0.7816164E-02  0.1186339E+00
        -11   -1    0    0    0    0  0.00000000000E+00  0.00000000000E+00  0.45593999997E+02  0.45594000000E+02  0.51100000000E-03 0.  1.
         11   -1    0    0    0    0 -0.00000000000E+00 -0.00000000000E+00 -0.45593999997E+02  0.45594000000E+02  0.51100000000E-03 0. -1.
    9900012    2    1    2    0    0 -0.37535584049E-01 -0.10853916285E+01  0.46267469166E+00  0.90007512060E+02  0.89999770418E+02 0.  0.
         12    1    1    2    0    0  0.37535584049E-01  0.10853916285E+01 -0.46267469166E+00  0.11804879404E+01  0.00000000000E+00 0. -1.
         11    1    3    3    0    0  0.40408424545E+01  0.74538667148E+01 -0.70462380940E+01  0.11024427798E+02  0.51100000000E-03 0. -1.
        -11    1    3    3    0    0  0.78033953256E+01  0.18473158467E+02  0.33904037264E+02  0.39390789601E+02  0.51100000000E-03 0.  1.
         12    1    3    3    0    0 -0.11881773364E+02 -0.27012416811E+02 -0.26395124478E+02  0.39592294660E+02  0.00000000000E+00 0. -1.
</event>
<event>
 7    1  0.1698110E-015  0.9000793E+02  0.7816164E-02  0.1186339E+00
        -11   -1    0    0    0    0  0.00000000000E+00  0.00000000000E+00  0.45593999997E+02  0.45594000000E+02  0.51100000000E-03 0.  1.
         11   -1    0    0    0    0 -0.00000000000E+00 -0.00000000000E+00 -0.45593999997E+02  0.45594000000E+02  0.51100000000E-03 0. -1.
    9900012    2    1    2    0    0  0.31463111686E+00 -0.11165099805E+01 -0.21672984026E+00  0.90007932587E+02  0.90000196497E+02 0.  0.
         12    1    1    2    0    0 -0.31463111686E+00  0.11165099805E+01  0.21672984026E+00  0.11800674133E+01  0.00000000000E+00 0. -1.
         11    1    3    3    0    0 -0.28992087944E+01  0.33566851942E+02 -0.26429992980E+02  0.42821530684E+02  0.51100000000E-03 0. -1.
        -11    1    3    3    0    0 -0.62225735093E+01 -0.72870204908E+01  0.29459540910E+01  0.10024955585E+02  0.51100000000E-03 0.  1.
        -12    1    3    3    0    0  0.94364134206E+01 -0.27396341432E+02  0.23267309049E+02  0.37161446318E+02  0.00000000000E+00 0.  1.
</event>
<event>
 7    1  0.1698110E-015  0.9000776E+02  0.7816164E-02  0.1186339E+00
        -11   -1    0    0    0    0  0.00000000000E+00  0.00000000000E+00  0.45593999997E+02  0.45594000000E+02  0.51100000000E-03 0.  1.
         11   -1    0    0    0    0 -0.00000000000E+00 -0.00000000000E+00 -0.45593999997E+02  0.45594000000E+02  0.51100000000E-03 0. -1.
    9900012    2    1    2    0    0 -0.25118090681E+00  0.94167522824E+00  0.66567345529E+00  0.90007760519E+02  0.90000022158E+02 0.  0.
         12    1    1    2    0    0  0.25118090681E+00 -0.94167522824E+00 -0.66567345529E+00  0.11802394810E+01  0.00000000000E+00 0. -1.
         11    1    3    3    0    0  0.23352203776E+01  0.92053580701E+01  0.27154030694E+01  0.98775141357E+01  0.51100000000E-03 0. -1.
        -11    1    3    3    0    0  0.27029917330E+02  0.23759960283E+02 -0.53616599840E+01  0.36385430347E+02  0.51100000000E-03 0.  1.
         12    1    3    3    0    0 -0.29616318614E+02 -0.32023643125E+02  0.33119303699E+01  0.43744816036E+02  0.00000000000E+00 0. -1.
</event>
<event>
 7    1  0.1698110E-015  0.9000770E+02  0.7816164E-02  0.1186339E+00
        -11   -1    0    0    0    0  0.00000000000E+00  0.00000000000E+00  0.45593999997E+02  0.45594000000E+02  0.51100000000E-03 0. -1.
         11   -1    0    0    0    0 -0.00000000000E+00 -0.00000000000E+00 -0.45593999997E+02  0.45594000000E+02  0.51100000000E-03 0.  1.
    9900012    2    1    2    0    0  0.27485723976E+00  0.89906290668E+00 -0.71361599434E+00  0.90007699869E+02  0.89999960707E+02 0.  0.
         12    1    1    2    0    0 -0.27485723976E+00 -0.89906290668E+00  0.71361599434E+00  0.11803001312E+01  0.00000000000E+00 0. -1.
         11    1    3    3    0    0 -0.30677745317E+01  0.38187424973E+01 -0.73211230830E+01  0.88086819841E+01  0.51100000000E-03 0. -1.
        -11    1    3    3    0    0  0.29178041733E+02  0.16647240877E+02 -0.20148995475E+02  0.39172321442E+02  0.51100000000E-03 0.  1.
         12    1    3    3    0    0 -0.25835409962E+02 -0.19566920467E+02  0.26756502564E+02  0.42026696443E+02  0.00000000000E+00 0. -1.
</event>
<event>
 7    1  0.1698110E-015  0.9000775E+02  0.7816164E-02  0.1186339E+00
        -11   -1    0    0    0    0  0.00000000000E+00  0.00000000000E+00  0.45593999997E+02  0.45594000000E+02  0.51100000000E-03 0. -1.
         11   -1    0    0    0    0 -0.00000000000E+00 -0.00000000000E+00 -0.45593999997E+02  0.45594000000E+02  0.51100000000E-03 0.  1.
    9900012    2    1    2    0    0  0.54889074896E-01 -0.61393221487E+00 -0.10065147111E+01  0.90007746875E+02  0.90000008334E+02 0.  0.
         12    1    1    2    0    0 -0.54889074896E-01  0.61393221487E+00  0.10065147111E+01  0.11802531248E+01  0.00000000000E+00 0. -1.
         11    1    3    3    0    0 -0.74463870384E+01 -0.24496457282E+01  0.69550848408E+00  0.78697634292E+01  0.51100000000E-03 0. -1.
        -11    1    3    3    0    0  0.98876708057E+01 -0.38080815146E+02 -0.11456523306E+02  0.40977633444E+02  0.51100000000E-03 0.  1.
         12    1    3    3    0    0 -0.23863946925E+01  0.39916528660E+02  0.97545001104E+01  0.41160350002E+02  0.00000000000E+00 0. -1.
</event>
<event>
 7    1  0.1698110E-015  0.9000777E+02  0.7816164E-02  0.1186339E+00
        -11   -1    0    0    0    0  0.00000000000E+00  0.00000000000E+00  0.45593999997E+02  0.45594000000E+02  0.51100000000E-03 0.  1.
         11   -1    0    0    0    0 -0.00000000000E+00 -0.00000000000E+00 -0.45593999997E+02  0.45594000000E+02  0.51100000000E-03 0. -1.
    9900012    2    1    2    0    0 -0.10615013825E+01 -0.49804477525E+00  0.13453747691E+00  0.90007773701E+02  0.90000035514E+02 0.  0.
         12    1    1    2    0    0  0.10615013825E+01  0.49804477525E+00 -0.13453747691E+00  0.11802262986E+01  0.00000000000E+00 0. -1.
         11    1    3    3    0    0 -0.30334874290E+02  0.72499045283E+01 -0.29988369043E+02  0.43267401031E+02  0.51100000000E-03 0. -1.
        -11    1    3    3    0    0  0.68278763355E+01  0.51396715049E+01  0.25398073066E+01  0.89155336266E+01  0.51100000000E-03 0.  1.
        -12    1    3    3    0    0  0.22445496572E+02 -0.12887620808E+02  0.27583099213E+02  0.37824839044E+02  0.00000000000E+00 0.  1.
</event>
<event>
 7    1  0.1698110E-015  0.9000773E+02  0.7816164E-02  0.1186339E+00
        -11   -1    0    0    0    0  0.00000000000E+00  0.00000000000E+00  0.45593999997E+02  0.45594000000E+02  0.51100000000E-03 0. -1.
         11   -1    0    0    0    0 -0.00000000000E+00 -0.00000000000E+00 -0.45593999997E+02  0.45594000000E+02  0.51100000000E-03 0.  1.
    9900012    2    1    2    0    0 -0.16517137959E+00 -0.12801806580E+00 -0.11616189509E+01  0.90007733591E+02  0.89999994874E+02 0.  0.
         12    1    1    2    0    0  0.16517137959E+00  0.12801806580E+00  0.11616189509E+01  0.11802664093E+01  0.00000000000E+00 0. -1.
         11    1    3    3    0    0 -0.40404346848E+01 -0.45651861756E+00  0.10069988368E+02  0.10859934976E+02  0.51100000000E-03 0. -1.
        -11    1    3    3    0    0 -0.19789105607E+02 -0.21398168117E+02 -0.30093745739E+02  0.41894198075E+02  0.51100000000E-03 0.  1.
         12    1    3    3    0    0  0.23664368912E+02  0.21726668668E+02  0.18862138420E+02  0.37253600540E+02  0.00000000000E+00 0. -1.
</event>
<event>
 7    1  0.1698110E-015  0.9000780E+02  0.7816164E-02  0.1186339E+00
        -11   -1    0    0    0    0  0.00000000000E+00  0.00000000000E+00  0.45593999997E+02  0.45594000000E+02  0.51100000000E-03 0.  1.
         11   -1    0    0    0    0 -0.00000000000E+00 -0.00000000000E+00 -0.45593999997E+02  0.45594000000E+02  0.51100000000E-03 0. -1.
    9900012    2    1    2    0    0 -0.28783549968E+00  0.43904233558E+00  0.10570095651E+01  0.90007798039E+02  0.90000060173E+02 0.  0.
         12    1    1    2    0    0  0.28783549968E+00 -0.43904233558E+00 -0.10570095651E+01  0.11802019607E+01  0.00000000000E+00 0. -1.
         11    1    3    3    0    0 -0.36793221570E+02  0.94567350844E+01 -0.61258083330E+01  0.38479819645E+02  0.51100000000E-03 0. -1.
        -11    1    3    3    0    0  0.83640929342E+00 -0.24223828126E+01  0.14329669096E+02  0.14557023585E+02  0.51100000000E-03 0.  1.
        -12    1    3    3    0    0  0.35668976777E+02 -0.65953099362E+01 -0.71468511978E+01  0.36970954809E+02  0.00000000000E+00 0.  1.
</event>
<event>
 7    1  0.1698110E-015  0.9000788E+02  0.7816164E-02  0.1186339E+00
        -11   -1    0    0    0    0  0.00000000000E+00  0.00000000000E+00  0.45593999997E+02  0.45594000000E+02  0.51100000000E-03 0.  1.
         11   -1    0    0    0    0 -0.00000000000E+00 -0.00000000000E+00 -0.45593999997E+02  0.45594000000E+02  0.51100000000E-03 0. -1.
    9900012    2    1    2    0    0 -0.76498101966E+00 -0.89832293315E+00 -0.22279129629E-01  0.90007882882E+02  0.90000146136E+02 0.  0.
         12    1    1    2    0    0  0.76498101966E+00  0.89832293315E+00  0.22279129629E-01  0.11801171180E+01  0.00000000000E+00 0. -1.
         11    1    3    3    0    0  0.49975315447E+01  0.54024123365E+01  0.86103907187E+01  0.11326968226E+02  0.51100000000E-03 0. -1.
        -11    1    3    3    0    0  0.34351156318E+02 -0.14332112483E+02 -0.58337268555E+01  0.37675506074E+02  0.51100000000E-03 0.  1.
         12    1    3    3    0    0 -0.40113668882E+02  0.80313772136E+01 -0.27989429928E+01  0.41005408583E+02  0.00000000000E+00 0. -1.
</event>
<event>
 7    1  0.1698110E-015  0.9000775E+02  0.7816164E-02  0.1186339E+00
        -11   -1    0    0    0    0  0.00000000000E+00  0.00000000000E+00  0.45593999997E+02  0.45594000000E+02  0.51100000000E-03 0. -1.
         11   -1    0    0    0    0 -0.00000000000E+00 -0.00000000000E+00 -0.45593999997E+02  0.45594000000E+02  0.51100000000E-03 0.  1.
    9900012    2    1    2    0    0  0.30554707217E+00 -0.14173258331E+00 -0.11311712513E+01  0.90007747680E+02  0.90000009150E+02 0.  0.
         12    1    1    2    0    0 -0.30554707217E+00  0.14173258331E+00  0.11311712513E+01  0.11802523198E+01  0.00000000000E+00 0. -1.
         11    1    3    3    0    0  0.38467064253E+00 -0.68088144463E+01 -0.60745110411E+01  0.91327767035E+01  0.51100000000E-03 0. -1.
        -11    1    3    3    0    0 -0.57927930971E+01  0.42529943195E+02 -0.50269672534E+01  0.43216003055E+02  0.51100000000E-03 0.  1.
         12    1    3    3    0    0  0.57136695268E+01 -0.35862861332E+02  0.99703070431E+01  0.37658967922E+02  0.00000000000E+00 0. -1.
</event>
<event>
 7    1  0.1698110E-015  0.9000759E+02  0.7816164E-02  0.1186339E+00
        -11   -1    0    0    0    0  0.00000000000E+00  0.00000000000E+00  0.45593999997E+02  0.45594000000E+02  0.51100000000E-03 0.  1.
         11   -1    0    0    0    0 -0.00000000000E+00 -0.00000000000E+00 -0.45593999997E+02  0.45594000000E+02  0.51100000000E-03 0. -1.
    9900012    2    1    2    0    0 -0.11355357008E+01 -0.31902458169E+00  0.46293925010E-01  0.90007592808E+02  0.89999852233E+02 0.  0.
         12    1    1    2    0    0  0.11355357008E+01  0.31902458169E+00 -0.46293925010E-01  0.11804071921E+01  0.00000000000E+00 0. -1.
         11    1    3    3    0    0 -0.16270427777E+02  0.36563200279E+02 -0.27843287487E-01  0.40019935160E+02  0.51100000000E-03 0. -1.
        -11    1    3    3    0    0 -0.25834472234E+01 -0.15704737376E+01  0.89914028591E+01  0.94860904988E+01  0.51100000000E-03 0.  1.
        -12    1    3    3    0    0  0.17718339300E+02 -0.35311751123E+02 -0.89172656466E+01  0.40501567149E+02  0.00000000000E+00 0.  1.
</event>
<event>
 7    1  0.1698110E-015  0.9000777E+02  0.7816164E-02  0.1186339E+00
        -11   -1    0    0    0    0  0.00000000000E+00  0.00000000000E+00  0.45593999997E+02  0.45594000000E+02  0.51100000000E-03 0.  1.
         11   -1    0    0    0    0 -0.00000000000E+00 -0.00000000000E+00 -0.45593999997E+02  0.45594000000E+02  0.51100000000E-03 0. -1.
    9900012    2    1    2    0    0  0.76457277911E-01  0.11459844578E+01  0.27168686155E+00  0.90007771275E+02  0.90000033056E+02 0.  0.
         12    1    1    2    0    0 -0.76457277911E-01 -0.11459844578E+01 -0.27168686155E+00  0.11802287251E+01  0.00000000000E+00 0. -1.
         11    1    3    3    0    0 -0.19564605061E+02 -0.11015886059E+01 -0.16298096925E+02  0.25487550535E+02  0.51100000000E-03 0. -1.
        -11    1    3    3    0    0 -0.10165510814E+01  0.28722913925E+02  0.87102104396E+01  0.30031765293E+02  0.51100000000E-03 0.  1.
         12    1    3    3    0    0  0.20657613420E+02 -0.26475340861E+02  0.78595733466E+01  0.34488455447E+02  0.00000000000E+00 0. -1.
</event>
<event>
 7    1  0.1698110E-015  0.9000773E+02  0.7816164E-02  0.1186339E+00
        -11   -1    0    0    0    0  0.00000000000E+00  0.00000000000E+00  0.45593999997E+02  0.45594000000E+02  0.51100000000E-03 0. -1.
         11   -1    0    0    0    0 -0.00000000000E+00 -0.00000000000E+00 -0.45593999997E+02  0.45594000000E+02  0.51100000000E-03 0.  1.
    9900012    2    1    2    0    0 -0.11616288756E+01  0.96687895168E-01 -0.18521883589E+00  0.90007730450E+02  0.89999991692E+02 0.  0.
         12    1    1    2    0    0  0.11616288756E+01 -0.96687895168E-01  0.18521883589E+00  0.11802695501E+01  0.00000000000E+00 0. -1.
         11    1    3    3    0    0  0.34126397420E+02  0.20607975776E+01  0.11571434317E+02  0.36093711086E+02  0.51100000000E-03 0. -1.
        -11    1    3    3    0    0  0.66129017822E+01 -0.75468964464E+01  0.15267121833E-01  0.10034258782E+02  0.51100000000E-03 0.  1.
        -12    1    3    3    0    0 -0.41900928078E+02  0.55827867640E+01 -0.11771920275E+02  0.43879760583E+02  0.00000000000E+00 0.  1.
</event>
<event>
 7    1  0.1698110E-015  0.9000773E+02  0.7816164E-02  0.1186339E+00
        -11   -1    0    0    0    0  0.00000000000E+00  0.00000000000E+00  0.45593999997E+02  0.45594000000E+02  0.51100000000E-03 0.  1.
         11   -1    0    0    0    0 -0.00000000000E+00 -0.00000000000E+00 -0.45593999997E+02  0.45594000000E+02  0.51100000000E-03 0. -1.
    9900012    2    1    2    0    0  0.44182171999E+00  0.92075972346E+00  0.59164457982E+00  0.90007725367E+02  0.89999986542E+02 0.  0.
         12    1    1    2    0    0 -0.44182171999E+00 -0.92075972346E+00 -0.59164457982E+00  0.11802746331E+01  0.00000000000E+00 0. -1.
         11    1    3    3    0    0  0.25093988367E+02 -0.22212860670E+02 -0.49968684948E+00  0.33516699100E+02  0.51100000000E-03 0. -1.
        -11    1    3    3    0    0  0.58755689125E+01 -0.97434336288E+01  0.23087638937E+01  0.11609788969E+02  0.51100000000E-03 0.  1.
        -12    1    3    3    0    0 -0.30527735560E+02  0.32877054022E+02 -0.12174324644E+01  0.44881237298E+02  0.00000000000E+00 0.  1.
</event>
<event>
 7    1  0.2097114E-015  0.9000749E+02  0.7816164E-02  0.1186340E+00
        -11   -1    0    0    0    0  0.00000000000E+00  0.00000000000E+00  0.45593999997E+02  0.45594000000E+02  0.51100000000E-03 0. -1.
         11   -1    0    0    0    0 -0.00000000000E+00 -0.00000000000E+00 -0.45593999997E+02  0.45594000000E+02  0.51100000000E-03 0.  1.
    9900012    2    1    2    0    0 -0.78391338967E+00  0.40797660585E+00 -0.78270865653E+00  0.90007492501E+02  0.89999750602E+02 0.  0.
         12    1    1    2    0    0  0.78391338967E+00 -0.40797660585E+00  0.78270865653E+00  0.11805074987E+01  0.00000000000E+00 0. -1.
         11    1    3    3    0    0  0.85531827225E+01  0.35182355390E+00 -0.42577093114E+01  0.95607951206E+01  0.51100000000E-03 0. -1.
        -11    1    3    3    0    0 -0.13798057891E+02  0.29810526150E+02 -0.23217669350E+02  0.40225788261E+02  0.51100000000E-03 0.  1.
         12    1    3    3    0    0  0.44609617787E+01 -0.29754373098E+02  0.26692670005E+02  0.40220909120E+02  0.00000000000E+00 0. -1.
</event>
<event>
 7    1  0.1698110E-015  0.9000768E+02  0.7816164E-02  0.1186339E+00
        -11   -1    0    0    0    0  0.00000000000E+00  0.00000000000E+00  0.45593999997E+02  0.45594000000E+02  0.51100000000E-03 0. -1.
         11   -1    0    0    0    0 -0.00000000000E+00 -0.00000000000E+00 -0.45593999997E+02  0.45594000000E+02  0.51100000000E-03 0.  1.
    9900012    2    1    2    0    0 -0.27012009558E+00  0.98928263412E+00  0.58439019406E+00  0.90007679325E+02  0.89999939892E+02 0.  0.
         12    1    1    2    0    0  0.27012009558E+00 -0.98928263412E+00 -0.58439019406E+00  0.11803206747E+01  0.00000000000E+00 0. -1.
         11    1    3    3    0    0 -0.34193271372E+01 -0.90771246515E+01  0.74286437264E+00  0.97281980730E+01  0.51100000000E-03 0. -1.
        -11    1    3    3    0    0 -0.26810532148E+02 -0.20924382374E+02  0.11017712342E+02  0.35749467091E+02  0.51100000000E-03 0.  1.
         12    1    3    3    0    0  0.29959739190E+02  0.30990789660E+02 -0.11176186520E+02  0.44530014161E+02  0.00000000000E+00 0. -1.
</event>
<event>
 7    1  0.1698110E-015  0.9000761E+02  0.7816164E-02  0.1186339E+00
        -11   -1    0    0    0    0  0.00000000000E+00  0.00000000000E+00  0.45593999997E+02  0.45594000000E+02  0.51100000000E-03 0.  1.
         11   -1    0    0    0    0 -0.00000000000E+00 -0.00000000000E+00 -0.45593999997E+02  0.45594000000E+02  0.51100000000E-03 0. -1.
    9900012    2    1    2    0    0  0.67340784399E+00 -0.55621979467E-01  0.96786069463E+00  0.90007607585E+02  0.89999867205E+02 0.  0.
         12    1    1    2    0    0 -0.67340784399E+00  0.55621979467E-01 -0.96786069463E+00  0.11803924149E+01  0.00000000000E+00 0. -1.
         11    1    3    3    0    0  0.54681931954E+01 -0.78407301837E+01 -0.11176219353E+01  0.96243059847E+01  0.51100000000E-03 0. -1.
        -11    1    3    3    0    0 -0.21200211386E+02 -0.30953478703E+02 -0.45557292664E+01  0.37793140595E+02  0.51100000000E-03 0.  1.
         12    1    3    3    0    0  0.16405426035E+02  0.38738586908E+02  0.66412118964E+01  0.42590161005E+02  0.00000000000E+00 0. -1.
</event>
<event>
 7    1  0.1698110E-015  0.9000642E+02  0.7816164E-02  0.1186342E+00
        -11   -1    0    0    0    0  0.00000000000E+00  0.00000000000E+00  0.45593999997E+02  0.45594000000E+02  0.51100000000E-03 0. -1.
         11   -1    0    0    0    0 -0.00000000000E+00 -0.00000000000E+00 -0.45593999997E+02  0.45594000000E+02  0.51100000000E-03 0.  1.
    9900012    2    1    2    0    0  0.80677143932E+00  0.71983198372E+00 -0.47654187990E+00  0.90006420378E+02  0.89998664317E+02 0.  0.
         12    1    1    2    0    0 -0.80677143932E+00 -0.71983198372E+00  0.47654187990E+00  0.11815796221E+01  0.00000000000E+00 0. -1.
         11    1    3    3    0    0 -0.82587804631E+01 -0.21516976023E+00 -0.24537704829E+01  0.86182795619E+01  0.51100000000E-03 0. -1.
        -11    1    3    3    0    0  0.16729670143E+02 -0.23864756302E+02 -0.28903975364E+02  0.41046903032E+02  0.51100000000E-03 0.  1.
         12    1    3    3    0    0 -0.76641182402E+01  0.24799758046E+02  0.30881203967E+02  0.40341237784E+02  0.00000000000E+00 0. -1.
</event>
<event>
 7    1  0.1698110E-015  0.9000776E+02  0.7816164E-02  0.1186339E+00
        -11   -1    0    0    0    0  0.00000000000E+00  0.00000000000E+00  0.45593999997E+02  0.45594000000E+02  0.51100000000E-03 0. -1.
         11   -1    0    0    0    0 -0.00000000000E+00 -0.00000000000E+00 -0.45593999997E+02  0.45594000000E+02  0.51100000000E-03 0.  1.
    9900012    2    1    2    0    0 -0.50256546784E+00  0.32560053621E+00 -0.10170483522E+01  0.90007756335E+02  0.90000017918E+02 0.  0.
         12    1    1    2    0    0  0.50256546784E+00 -0.32560053621E+00  0.10170483522E+01  0.11802436653E+01  0.00000000000E+00 0. -1.
         11    1    3    3    0    0 -0.55620744263E+00  0.53516631905E+01 -0.76433725041E+01  0.93472353732E+01  0.51100000000E-03 0. -1.
        -11    1    3    3    0    0  0.33317913892E+01  0.20061934527E+02 -0.29940314322E+02  0.36193983931E+02  0.51100000000E-03 0.  1.
         12    1    3    3    0    0 -0.32781494144E+01 -0.25087997181E+02  0.36566638474E+02  0.44466537030E+02  0.00000000000E+00 0. -1.
</event>
<event>
 7    1  0.1698110E-015  0.9000773E+02  0.7816164E-02  0.1186339E+00
        -11   -1    0    0    0    0  0.00000000000E+00  0.00000000000E+00  0.45593999997E+02  0.45594000000E+02  0.51100000000E-03 0.  1.
         11   -1    0    0    0    0 -0.00000000000E+00 -0.00000000000E+00 -0.45593999997E+02  0.45594000000E+02  0.51100000000E-03 0. -1.
    9900012    2    1    2    0    0 -0.30152085226E-01  0.47225326707E+00  0.10812564022E+01  0.90007725581E+02  0.89999986759E+02 0.  0.
         12    1    1    2    0    0  0.30152085226E-01 -0.47225326707E+00 -0.10812564022E+01  0.11802744189E+01  0.00000000000E+00 0. -1.
         11    1    3    3    0    0  0.13532377292E+01 -0.84250537297E+00  0.53328542080E+01  0.55660041251E+01  0.51100000000E-03 0. -1.
        -11    1    3    3    0    0  0.28454369551E+02  0.67905008663E+01  0.27767753257E+02  0.40333734885E+02  0.51100000000E-03 0.  1.
         12    1    3    3    0    0 -0.29837759366E+02 -0.54757422262E+01 -0.32019351063E+02  0.44107986571E+02  0.00000000000E+00 0. -1.
</event>
<event>
 7    1  0.1698110E-015  0.9000697E+02  0.7816164E-02  0.1186341E+00
        -11   -1    0    0    0    0  0.00000000000E+00  0.00000000000E+00  0.45593999997E+02  0.45594000000E+02  0.51100000000E-03 0. -1.
         11   -1    0    0    0    0 -0.00000000000E+00 -0.00000000000E+00 -0.45593999997E+02  0.45594000000E+02  0.51100000000E-03 0.  1.
    9900012    2    1    2    0    0  0.29184537411E+00 -0.73190729269E+00 -0.87975103819E+00  0.90006973372E+02  0.89999224617E+02 0.  0.
         12    1    1    2    0    0 -0.29184537411E+00  0.73190729269E+00  0.87975103819E+00  0.11810266283E+01  0.00000000000E+00 0. -1.
         11    1    3    3    0    0  0.50236243973E+01 -0.53239801344E+01 -0.90014400302E+01  0.11602046778E+02  0.51100000000E-03 0. -1.
        -11    1    3    3    0    0 -0.38064006887E+02  0.86665980537E+01 -0.99283234482E+01  0.40280890617E+02  0.51100000000E-03 0.  1.
         12    1    3    3    0    0  0.33332227864E+02 -0.40745252120E+01  0.18050012440E+02  0.38124035977E+02  0.00000000000E+00 0. -1.
</event>
<event>
 8    1  0.1698110E-015  0.9000772E+02  0.7816164E-02  0.1186339E+00
        -11   -1    0    0    0    0  0.00000000000E+00  0.00000000000E+00  0.45593999997E+02  0.45594000000E+02  0.51100000000E-03 0. -1.
         11   -1    0    0    0    0 -0.00000000000E+00 -0.00000000000E+00 -0.45593999997E+02  0.45594000000E+02  0.51100000000E-03 0.  1.
    9900012    2    1    2    0    0  0.17286121977E+00  0.19839349562E+00 -0.11505733406E+01  0.90007720375E+02  0.89999981484E+02 0.  0.
         23    2    3    3    0    0 -0.17579309697E+02  0.15551881832E+02  0.11375997692E+01  0.66425843594E+02  0.62130551309E+02 0.  0.
         12    1    1    2    0    0 -0.17286121977E+00 -0.19839349562E+00  0.11505733406E+01  0.11802796247E+01  0.00000000000E+00 0. -1.
         11    1    4    4    0    0 -0.38336552837E+02 -0.22936259073E+01  0.51882312591E+01  0.38753964276E+02  0.51100000000E-03 0. -1.
        -11    1    4    4    0    0  0.20757243140E+02  0.17845507739E+02 -0.40506314898E+01  0.27671879318E+02  0.51100000000E-03 0.  1.
        -12    1    3    3    0    0  0.17752170917E+02 -0.15353488336E+02 -0.22881731098E+01  0.23581876782E+02  0.00000000000E+00 0.  1.
</event>
<event>
 7    1  0.1698110E-015  0.9000780E+02  0.7816164E-02  0.1186339E+00
        -11   -1    0    0    0    0  0.00000000000E+00  0.00000000000E+00  0.45593999997E+02  0.45594000000E+02  0.51100000000E-03 0.  1.
         11   -1    0    0    0    0 -0.00000000000E+00 -0.00000000000E+00 -0.45593999997E+02  0.45594000000E+02  0.51100000000E-03 0. -1.
    9900012    2    1    2    0    0  0.15642701108E+00  0.50085960200E+00  0.10571415004E+01  0.90007797516E+02  0.90000059643E+02 0.  0.
         12    1    1    2    0    0 -0.15642701108E+00 -0.50085960200E+00 -0.10571415004E+01  0.11802024837E+01  0.00000000000E+00 0. -1.
         11    1    3    3    0    0 -0.64459787239E+01 -0.15126150784E+02  0.57202874132E+01  0.17408985255E+02  0.51100000000E-03 0. -1.
        -11    1    3    3    0    0  0.23550292844E+02 -0.21131289829E+02 -0.54873881174E+01  0.32113223623E+02  0.51100000000E-03 0.  1.
         12    1    3    3    0    0 -0.16947887109E+02  0.36758300215E+02  0.82424220454E+00  0.40485588638E+02  0.00000000000E+00 0. -1.
</event>
<event>
 7    1  0.1698110E-015  0.9000724E+02  0.7816164E-02  0.1186340E+00
        -11   -1    0    0    0    0  0.00000000000E+00  0.00000000000E+00  0.45593999997E+02  0.45594000000E+02  0.51100000000E-03 0.  1.
         11   -1    0    0    0    0 -0.00000000000E+00 -0.00000000000E+00 -0.45593999997E+02  0.45594000000E+02  0.51100000000E-03 0. -1.
    9900012    2    1    2    0    0 -0.83010461514E+00 -0.66697109992E+00  0.51016636297E+00  0.90007240144E+02  0.89999494912E+02 0.  0.
         12    1    1    2    0    0  0.83010461514E+00  0.66697109992E+00 -0.51016636297E+00  0.11807598562E+01  0.00000000000E+00 0. -1.
         11    1    3    3    0    0 -0.83528974680E+01  0.30805540476E+02  0.16289382700E+02  0.35834288177E+02  0.51100000000E-03 0. -1.
        -11    1    3    3    0    0 -0.46871096823E+01  0.45544268818E+01  0.72059296776E+01  0.97281665372E+01  0.51100000000E-03 0.  1.
        -12    1    3    3    0    0  0.12209902535E+02 -0.36026938458E+02 -0.22985146015E+02  0.44444785430E+02  0.00000000000E+00 0.  1.
</event>
<event>
 7    1  0.1698110E-015  0.9000762E+02  0.7816164E-02  0.1186339E+00
        -11   -1    0    0    0    0  0.00000000000E+00  0.00000000000E+00  0.45593999997E+02  0.45594000000E+02  0.51100000000E-03 0.  1.
         11   -1    0    0    0    0 -0.00000000000E+00 -0.00000000000E+00 -0.45593999997E+02  0.45594000000E+02  0.51100000000E-03 0. -1.
    9900012    2    1    2    0    0 -0.92210667503E+00  0.60474133789E+00  0.42108270478E+00  0.90007617244E+02  0.89999876992E+02 0.  0.
         12    1    1    2    0    0  0.92210667503E+00 -0.60474133789E+00 -0.42108270478E+00  0.11803827558E+01  0.00000000000E+00 0. -1.
         11    1    3    3    0    0 -0.82944667123E+01  0.43724387302E+01  0.66274913110E+01  0.11482161810E+02  0.51100000000E-03 0. -1.
        -11    1    3    3    0    0  0.37070866598E+02 -0.29086742530E+01  0.16940877134E+02  0.40861997682E+02  0.51100000000E-03 0.  1.
         12    1    3    3    0    0 -0.29698506561E+02 -0.85902313931E+00 -0.23147285741E+02  0.37663457752E+02  0.00000000000E+00 0. -1.
</event>
<event>
 7    1  0.1698110E-015  0.9000771E+02  0.7816164E-02  0.1186339E+00
        -11   -1    0    0    0    0  0.00000000000E+00  0.00000000000E+00  0.45593999997E+02  0.45594000000E+02  0.51100000000E-03 0.  1.
         11   -1    0    0    0    0 -0.00000000000E+00 -0.00000000000E+00 -0.45593999997E+02  0.45594000000E+02  0.51100000000E-03 0. -1.
    9900012    2    1    2    0    0 -0.71655177221E+00  0.81611741168E+00  0.46216441308E+00  0.90007707656E+02  0.89999968597E+02 0.  0.
         12    1    1    2    0    0  0.71655177221E+00 -0.81611741168E+00 -0.46216441308E+00  0.11802923437E+01  0.00000000000E+00 0. -1.
         11    1    3    3    0    0 -0.87466907882E+01 -0.60059867130E+01 -0.81250341144E+01  0.13363856321E+02  0.51100000000E-03 0. -1.
        -11    1    3    3    0    0  0.34708887674E+02 -0.10861864235E+02 -0.12336466076E+02  0.38404106209E+02  0.51100000000E-03 0.  1.
         12    1    3    3    0    0 -0.26678748658E+02  0.17683968359E+02  0.20923664603E+02  0.38239745126E+02  0.00000000000E+00 0. -1.
</event>
<event>
 7    1  0.1698110E-015  0.9000780E+02  0.7816164E-02  0.1186339E+00
        -11   -1    0    0    0    0  0.00000000000E+00  0.00000000000E+00  0.45593999997E+02  0.45594000000E+02  0.51100000000E-03 0. -1.
         11   -1    0    0    0    0 -0.00000000000E+00 -0.00000000000E+00 -0.45593999997E+02  0.45594000000E+02  0.51100000000E-03 0.  1.
    9900012    2    1    2    0    0  0.11383485574E+01 -0.30902860772E+00  0.39095116599E-01  0.90007803175E+02  0.90000065377E+02 0.  0.
         12    1    1    2    0    0 -0.11383485574E+01  0.30902860772E+00 -0.39095116599E-01  0.11801968254E+01  0.00000000000E+00 0. -1.
         11    1    3    3    0    0 -0.11152388006E+02 -0.40287295975E+02  0.10054735122E+01  0.41814506483E+02  0.51100000000E-03 0. -1.
        -11    1    3    3    0    0  0.23392286042E+01  0.47301645671E+01  0.88238923756E+01  0.10281416450E+02  0.51100000000E-03 0.  1.
        -12    1    3    3    0    0  0.99515079589E+01  0.35248102800E+02 -0.97902707711E+01  0.37911880241E+02  0.00000000000E+00 0.  1.
</event>
<event>
 7    1  0.1698110E-015  0.9000780E+02  0.7816164E-02  0.1186339E+00
        -11   -1    0    0    0    0  0.00000000000E+00  0.00000000000E+00  0.45593999997E+02  0.45594000000E+02  0.51100000000E-03 0. -1.
         11   -1    0    0    0    0 -0.00000000000E+00 -0.00000000000E+00 -0.45593999997E+02  0.45594000000E+02  0.51100000000E-03 0.  1.
    9900012    2    1    2    0    0  0.15723842626E+00  0.11399049746E+01  0.26220902016E+00  0.90007804743E+02  0.90000066966E+02 0.  0.
         12    1    1    2    0    0 -0.15723842626E+00 -0.11399049746E+01 -0.26220902016E+00  0.11801952568E+01  0.00000000000E+00 0. -1.
         11    1    3    3    0    0 -0.21827266825E+01  0.25709247864E+02  0.32532150766E+02  0.41521928607E+02  0.51100000000E-03 0. -1.
        -11    1    3    3    0    0  0.57309867398E+01  0.41741571659E+01 -0.46485949822E+01  0.84780441511E+01  0.51100000000E-03 0.  1.
        -12    1    3    3    0    0 -0.33910216310E+01 -0.28743500055E+02 -0.27621346764E+02  0.40007831985E+02  0.00000000000E+00 0.  1.
</event>
<event>
 7    1  0.1698110E-015  0.9000787E+02  0.7816164E-02  0.1186339E+00
        -11   -1    0    0    0    0  0.00000000000E+00  0.00000000000E+00  0.45593999997E+02  0.45594000000E+02  0.51100000000E-03 0. -1.
         11   -1    0    0    0    0 -0.00000000000E+00 -0.00000000000E+00 -0.45593999997E+02  0.45594000000E+02  0.51100000000E-03 0.  1.
    9900012    2    1    2    0    0  0.55134915276E-01 -0.11508765815E+01 -0.25522856390E+00  0.90007873573E+02  0.90000136704E+02 0.  0.
         12    1    1    2    0    0 -0.55134915276E-01  0.11508765815E+01  0.25522856390E+00  0.11801264274E+01  0.00000000000E+00 0. -1.
         11    1    3    3    0    0 -0.22383487047E+01  0.38538580622E+01 -0.88850273711E+01  0.99401276920E+01  0.51100000000E-03 0. -1.
        -11    1    3    3    0    0 -0.31624550967E+02  0.19220573336E+02 -0.19713620363E+01  0.37059802101E+02  0.51100000000E-03 0.  1.
         12    1    3    3    0    0  0.33918034587E+02 -0.24225307980E+02  0.10601160843E+02  0.43007943780E+02  0.00000000000E+00 0. -1.
</event>
<event>
 7    1  0.1698110E-015  0.9000777E+02  0.7816164E-02  0.1186339E+00
        -11   -1    0    0    0    0  0.00000000000E+00  0.00000000000E+00  0.45593999997E+02  0.45594000000E+02  0.51100000000E-03 0. -1.
         11   -1    0    0    0    0 -0.00000000000E+00 -0.00000000000E+00 -0.45593999997E+02  0.45594000000E+02  0.51100000000E-03 0.  1.
    9900012    2    1    2    0    0  0.75786982390E+00  0.80023237135E+00 -0.42213256374E+00  0.90007773573E+02  0.90000035384E+02 0.  0.
         12    1    1    2    0    0 -0.75786982390E+00 -0.80023237135E+00  0.42213256374E+00  0.11802264272E+01  0.00000000000E+00 0. -1.
         11    1    3    3    0    0  0.70233959414E+01  0.23053752370E+02  0.26907514669E+02  0.36122263700E+02  0.51100000000E-03 0. -1.
        -11    1    3    3    0    0  0.42283089745E+01  0.64642625122E+01  0.51461459043E+01  0.92816003222E+01  0.51100000000E-03 0.  1.
        -12    1    3    3    0    0 -0.10493835092E+02 -0.28717782511E+02 -0.32475793137E+02  0.44603909550E+02  0.00000000000E+00 0.  1.
</event>
<event>
 7    1  0.1698110E-015  0.9000777E+02  0.7816164E-02  0.1186339E+00
        -11   -1    0    0    0    0  0.00000000000E+00  0.00000000000E+00  0.45593999997E+02  0.45594000000E+02  0.51100000000E-03 0. -1.
         11   -1    0    0    0    0 -0.00000000000E+00 -0.00000000000E+00 -0.45593999997E+02  0.45594000000E+02  0.51100000000E-03 0.  1.
    9900012    2    1    2    0    0  0.26108858136E+00  0.79921950209E+00 -0.82826586179E+00  0.90007769769E+02  0.90000031530E+02 0.  0.
         12    1    1    2    0    0 -0.26108858136E+00 -0.79921950209E+00  0.82826586179E+00  0.11802302308E+01  0.00000000000E+00 0. -1.
         11    1    3    3    0    0 -0.12178978106E+02  0.66096082088E+01  0.33266169965E+02  0.36036821346E+02  0.51100000000E-03 0. -1.
        -11    1    3    3    0    0 -0.38816226659E+01  0.41738895249E+01  0.67694753040E+01  0.88495279218E+01  0.51100000000E-03 0.  1.
        -12    1    3    3    0    0  0.16321689353E+02 -0.99842782316E+01 -0.40863911131E+02  0.45121420501E+02  0.00000000000E+00 0.  1.
</event>
<event>
 7    1  0.1698110E-015  0.9000773E+02  0.7816164E-02  0.1186339E+00
        -11   -1    0    0    0    0  0.00000000000E+00  0.00000000000E+00  0.45593999997E+02  0.45594000000E+02  0.51100000000E-03 0.  1.
         11   -1    0    0    0    0 -0.00000000000E+00 -0.00000000000E+00 -0.45593999997E+02  0.45594000000E+02  0.51100000000E-03 0. -1.
    9900012    2    1    2    0    0 -0.75565714445E+00  0.77774248416E+00  0.46596909396E+00  0.90007733806E+02  0.89999995092E+02 0.  0.
         12    1    1    2    0    0  0.75565714445E+00 -0.77774248416E+00 -0.46596909396E+00  0.11802661938E+01  0.00000000000E+00 0. -1.
         11    1    3    3    0    0  0.87397189514E+01  0.30205336286E+02 -0.19659306799E+02  0.37084139084E+02  0.51100000000E-03 0. -1.
        -11    1    3    3    0    0 -0.11533953311E+02 -0.11478640296E+01 -0.71189344481E+01  0.13602532807E+02  0.51100000000E-03 0.  1.
        -12    1    3    3    0    0  0.20385772154E+01 -0.28279729772E+02  0.27244210341E+02  0.39321061916E+02  0.00000000000E+00 0.  1.
</event>
<event>
 7    1  0.1698110E-015  0.9000756E+02  0.7816164E-02  0.1186339E+00
        -11   -1    0    0    0    0  0.00000000000E+00  0.00000000000E+00  0.45593999997E+02  0.45594000000E+02  0.51100000000E-03 0.  1.
         11   -1    0    0    0    0 -0.00000000000E+00 -0.00000000000E+00 -0.45593999997E+02  0.45594000000E+02  0.51100000000E-03 0. -1.
    9900012    2    1    2    0    0 -0.31976693958E+00  0.29497549463E+00  0.10973542195E+01  0.90007556134E+02  0.89999815075E+02 0.  0.
         12    1    1    2    0    0  0.31976693958E+00 -0.29497549463E+00 -0.10973542195E+01  0.11804438662E+01  0.00000000000E+00 0. -1.
         11    1    3    3    0    0  0.26634898710E+02 -0.59000093995E+01 -0.32143173776E+02  0.42159359114E+02  0.51100000000E-03 0. -1.
        -11    1    3    3    0    0 -0.10040067695E+02  0.52209391576E+00 -0.77948756302E-01  0.10053935431E+02  0.51100000000E-03 0.  1.
        -12    1    3    3    0    0 -0.16914597955E+02  0.56728909784E+01  0.33318476752E+02  0.37794261589E+02  0.00000000000E+00 0.  1.
</event>
<event>
 7    1  0.1698110E-015  0.9000773E+02  0.7816164E-02  0.1186339E+00
        -11   -1    0    0    0    0  0.00000000000E+00  0.00000000000E+00  0.45593999997E+02  0.45594000000E+02  0.51100000000E-03 0.  1.
         11   -1    0    0    0    0 -0.00000000000E+00 -0.00000000000E+00 -0.45593999997E+02  0.45594000000E+02  0.51100000000E-03 0. -1.
    9900012    2    1    2    0    0  0.10765919144E+01  0.26720755324E+00  0.40321693269E+00  0.90007731420E+02  0.89999992675E+02 0.  0.
         12    1    1    2    0    0 -0.10765919144E+01 -0.26720755324E+00 -0.40321693269E+00  0.11802685802E+01  0.00000000000E+00 0. -1.
         11    1    3    3    0    0 -0.12806153381E+02 -0.18776573082E+01  0.44560468768E+00  0.12950742264E+02  0.51100000000E-03 0. -1.
        -11    1    3    3    0    0 -0.50310155507E+01 -0.27749197046E+02  0.21656327612E+02  0.35557356202E+02  0.51100000000E-03 0.  1.
         12    1    3    3    0    0  0.18913760846E+02  0.29894061908E+02 -0.21698715367E+02  0.41499632954E+02  0.00000000000E+00 0. -1.
</event>
<event>
 7    1  0.1698110E-015  0.9000775E+02  0.7816164E-02  0.1186339E+00
        -11   -1    0    0    0    0  0.00000000000E+00  0.00000000000E+00  0.45593999997E+02  0.45594000000E+02  0.51100000000E-03 0.  1.
         11   -1    0    0    0    0 -0.00000000000E+00 -0.00000000000E+00 -0.45593999997E+02  0.45594000000E+02  0.51100000000E-03 0. -1.
    9900012    2    1    2    0    0  0.91279033905E+00 -0.27645447059E+00  0.69525820035E+00  0.90007746958E+02  0.90000008418E+02 0.  0.
         12    1    1    2    0    0 -0.91279033905E+00  0.27645447059E+00 -0.69525820035E+00  0.11802530417E+01  0.00000000000E+00 0. -1.
         11    1    3    3    0    0  0.21647522016E+02  0.10043895974E+02 -0.75503254984E+01  0.25030031385E+02  0.51100000000E-03 0. -1.
        -11    1    3    3    0    0  0.77465465675E+01 -0.19037243706E+02 -0.16418869153E+02  0.26305985938E+02  0.51100000000E-03 0.  1.
        -12    1    3    3    0    0 -0.28481278244E+02  0.87168932618E+01  0.24664452851E+02  0.38671729636E+02  0.00000000000E+00 0.  1.
</event>
<event>
 7    1  0.1698110E-015  0.9000763E+02  0.7816164E-02  0.1186339E+00
        -11   -1    0    0    0    0  0.00000000000E+00  0.00000000000E+00  0.45593999997E+02  0.45594000000E+02  0.51100000000E-03 0.  1.
         11   -1    0    0    0    0 -0.00000000000E+00 -0.00000000000E+00 -0.45593999997E+02  0.45594000000E+02  0.51100000000E-03 0. -1.
    9900012    2    1    2    0    0 -0.93402450795E-01 -0.89102243737E+00  0.76851824584E+00  0.90007633406E+02  0.89999893367E+02 0.  0.
         12    1    1    2    0    0  0.93402450795E-01  0.89102243737E+00 -0.76851824584E+00  0.11803665939E+01  0.00000000000E+00 0. -1.
         11    1    3    3    0    0  0.19819422494E+02  0.21640835460E+02 -0.16600104033E+02  0.33714962874E+02  0.51100000000E-03 0. -1.
        -11    1    3    3    0    0  0.61614664788E+01 -0.13746433288E+01 -0.10769509605E+02  0.12483415031E+02  0.51100000000E-03 0.  1.
        -12    1    3    3    0    0 -0.26074291424E+02 -0.21157214569E+02  0.28138131884E+02  0.43809255501E+02  0.00000000000E+00 0.  1.
</event>
<event>
 7    1  0.1698110E-015  0.9000782E+02  0.7816164E-02  0.1186339E+00
        -11   -1    0    0    0    0  0.00000000000E+00  0.00000000000E+00  0.45593999997E+02  0.45594000000E+02  0.51100000000E-03 0.  1.
         11   -1    0    0    0    0 -0.00000000000E+00 -0.00000000000E+00 -0.45593999997E+02  0.45594000000E+02  0.51100000000E-03 0. -1.
    9900012    2    1    2    0    0  0.91438680017E+00  0.68108663676E+00 -0.30469462134E+00  0.90007821607E+02  0.90000084052E+02 0.  0.
         12    1    1    2    0    0 -0.91438680017E+00 -0.68108663676E+00  0.30469462134E+00  0.11801783930E+01  0.00000000000E+00 0. -1.
         11    1    3    3    0    0 -0.30563483502E+01  0.82245533064E+01 -0.35307705634E+02  0.36381569781E+02  0.51100000000E-03 0. -1.
        -11    1    3    3    0    0  0.15085863770E+01  0.31604507114E+00 -0.88618388599E+01  0.89948821884E+01  0.51100000000E-03 0.  1.
        -12    1    3    3    0    0  0.24621487734E+01 -0.78595117408E+01  0.43864849873E+02  0.44631369638E+02  0.00000000000E+00 0.  1.
</event>
<event>
 7    1  0.1698110E-015  0.9000756E+02  0.7816164E-02  0.1186339E+00
        -11   -1    0    0    0    0  0.00000000000E+00  0.00000000000E+00  0.45593999997E+02  0.45594000000E+02  0.51100000000E-03 0. -1.
         11   -1    0    0    0    0 -0.00000000000E+00 -0.00000000000E+00 -0.45593999997E+02  0.45594000000E+02  0.51100000000E-03 0.  1.
    9900012    2    1    2    0    0  0.86164078213E+00 -0.48599499743E+00  0.64406096457E+00  0.90007563428E+02  0.89999822465E+02 0.  0.
         12    1    1    2    0    0 -0.86164078213E+00  0.48599499743E+00 -0.64406096457E+00  0.11804365722E+01  0.00000000000E+00 0. -1.
         11    1    3    3    0    0  0.78146096128E+01 -0.43066752709E+00  0.32421860087E+02  0.33353119939E+02  0.51100000000E-03 0. -1.
        -11    1    3    3    0    0  0.58217340134E+01 -0.10238229848E+02  0.76037050675E+01  0.14018925364E+02  0.51100000000E-03 0.  1.
         12    1    3    3    0    0 -0.12774702844E+02  0.10182902377E+02 -0.39381504190E+02  0.42635518125E+02  0.00000000000E+00 0. -1.
</event>
<event>
 7    1  0.1698110E-015  0.9000773E+02  0.7816164E-02  0.1186339E+00
        -11   -1    0    0    0    0  0.00000000000E+00  0.00000000000E+00  0.45593999997E+02  0.45594000000E+02  0.51100000000E-03 0.  1.
         11   -1    0    0    0    0 -0.00000000000E+00 -0.00000000000E+00 -0.45593999997E+02  0.45594000000E+02  0.51100000000E-03 0. -1.
    9900012    2    1    2    0    0 -0.51958209893E+00 -0.10245902692E+01  0.27071732081E+00  0.90007729419E+02  0.89999990647E+02 0.  0.
         12    1    1    2    0    0  0.51958209893E+00  0.10245902692E+01 -0.27071732081E+00  0.11802705812E+01  0.00000000000E+00 0. -1.
         11    1    3    3    0    0  0.28845495088E+02 -0.10128960754E+02  0.58710061945E+01  0.31130807038E+02  0.51100000000E-03 0. -1.
        -11    1    3    3    0    0 -0.15833143455E+02  0.11844664011E+02  0.21038879813E+02  0.28872460256E+02  0.51100000000E-03 0.  1.
         12    1    3    3    0    0 -0.13531933731E+02 -0.27402935262E+01 -0.26639168686E+02  0.30004462125E+02  0.00000000000E+00 0. -1.
</event>
<event>
 7    1  0.1698110E-015  0.9000783E+02  0.7816164E-02  0.1186339E+00
        -11   -1    0    0    0    0  0.00000000000E+00  0.00000000000E+00  0.45593999997E+02  0.45594000000E+02  0.51100000000E-03 0.  1.
         11   -1    0    0    0    0 -0.00000000000E+00 -0.00000000000E+00 -0.45593999997E+02  0.45594000000E+02  0.51100000000E-03 0. -1.
    9900012    2    1    2    0    0  0.14364851044E+00  0.35597404622E+00  0.11159953748E+01  0.90007831329E+02  0.90000093902E+02 0.  0.
         12    1    1    2    0    0 -0.14364851044E+00 -0.35597404622E+00 -0.11159953748E+01  0.11801686713E+01  0.00000000000E+00 0. -1.
         11    1    3    3    0    0  0.80263771378E+01 -0.31619778922E+01 -0.11271934166E+02  0.14194271177E+02  0.51100000000E-03 0. -1.
        -11    1    3    3    0    0  0.13599845126E+02 -0.18506661638E+02  0.31954956294E+02  0.39351893785E+02  0.51100000000E-03 0.  1.
         12    1    3    3    0    0 -0.21482573753E+02  0.22024613576E+02 -0.19567026753E+02  0.36461666366E+02  0.00000000000E+00 0. -1.
</event>
<event>
 7    1  0.1758063E-015  0.9000778E+02  0.7816164E-02  0.1186339E+00
        -11   -1    0    0    0    0  0.00000000000E+00  0.00000000000E+00  0.45593999997E+02  0.45594000000E+02  0.51100000000E-03 0. -1.
         11   -1    0    0    0    0 -0.00000000000E+00 -0.00000000000E+00 -0.45593999997E+02  0.45594000000E+02  0.51100000000E-03 0.  1.
    9900012    2    1    2    0    0 -0.98357583443E+00  0.51491892535E+00 -0.40045320527E+00  0.90007777270E+02  0.90000039130E+02 0.  0.
         12    1    1    2    0    0  0.98357583443E+00 -0.51491892535E+00  0.40045320527E+00  0.11802227296E+01  0.00000000000E+00 0. -1.
         11    1    3    3    0    0 -0.25691722278E+00  0.90286276893E+01 -0.45397008035E+01  0.10108956823E+02  0.51100000000E-03 0. -1.
        -11    1    3    3    0    0  0.14139143985E+02  0.22858416892E+02 -0.23360342616E+02  0.35610788012E+02  0.51100000000E-03 0.  1.
         12    1    3    3    0    0 -0.14865802597E+02 -0.31372125656E+02  0.27499590214E+02  0.44288032435E+02  0.00000000000E+00 0. -1.
</event>
<event>
 7    1  0.1698110E-015  0.9000776E+02  0.7816164E-02  0.1186339E+00
        -11   -1    0    0    0    0  0.00000000000E+00  0.00000000000E+00  0.45593999997E+02  0.45594000000E+02  0.51100000000E-03 0.  1.
         11   -1    0    0    0    0 -0.00000000000E+00 -0.00000000000E+00 -0.45593999997E+02  0.45594000000E+02  0.51100000000E-03 0. -1.
    9900012    2    1    2    0    0  0.50161115298E+00 -0.61945040405E+00  0.87042745872E+00  0.90007755740E+02  0.90000017316E+02 0.  0.
         12    1    1    2    0    0 -0.50161115298E+00  0.61945040405E+00 -0.87042745872E+00  0.11802442598E+01  0.00000000000E+00 0. -1.
         11    1    3    3    0    0 -0.37701270289E+01  0.26170605631E+01  0.95710256175E+01  0.10614489881E+02  0.51100000000E-03 0. -1.
        -11    1    3    3    0    0  0.20132688706E+02 -0.25821256073E+01  0.30763380308E+02  0.36856181237E+02  0.51100000000E-03 0.  1.
         12    1    3    3    0    0 -0.15860950524E+02 -0.65438535982E+00 -0.39463978466E+02  0.42537084622E+02  0.00000000000E+00 0. -1.
</event>
<event>
 7    1  0.1698110E-015  0.9000765E+02  0.7816164E-02  0.1186339E+00
        -11   -1    0    0    0    0  0.00000000000E+00  0.00000000000E+00  0.45593999997E+02  0.45594000000E+02  0.51100000000E-03 0.  1.
         11   -1    0    0    0    0 -0.00000000000E+00 -0.00000000000E+00 -0.45593999997E+02  0.45594000000E+02  0.51100000000E-03 0. -1.
    9900012    2    1    2    0    0 -0.11781526980E+01 -0.60937875439E-01 -0.38194832836E-01  0.90007654267E+02  0.89999914503E+02 0.  0.
         12    1    1    2    0    0  0.11781526980E+01  0.60937875439E-01  0.38194832836E-01  0.11803457331E+01  0.00000000000E+00 0. -1.
         11    1    3    3    0    0 -0.21174167422E+01  0.76728516122E+01 -0.15618578434E+02  0.17529863037E+02  0.51100000000E-03 0. -1.
        -11    1    3    3    0    0  0.35232770886E+02 -0.75860059861E+01  0.39056612997E+01  0.36251204415E+02  0.51100000000E-03 0.  1.
         12    1    3    3    0    0 -0.34293506841E+02 -0.14778350149E+00  0.11674722302E+02  0.36226586815E+02  0.00000000000E+00 0. -1.
</event>
<event>
 7    1  0.1698110E-015  0.9000781E+02  0.7816164E-02  0.1186339E+00
        -11   -1    0    0    0    0  0.00000000000E+00  0.00000000000E+00  0.45593999997E+02  0.45594000000E+02  0.51100000000E-03 0.  1.
         11   -1    0    0    0    0 -0.00000000000E+00 -0.00000000000E+00 -0.45593999997E+02  0.45594000000E+02  0.51100000000E-03 0. -1.
    9900012    2    1    2    0    0  0.82734469952E+00 -0.74479863628E+00 -0.39193415705E+00  0.90007814996E+02  0.90000077354E+02 0.  0.
         12    1    1    2    0    0 -0.82734469952E+00  0.74479863628E+00  0.39193415705E+00  0.11801850041E+01  0.00000000000E+00 0. -1.
         11    1    3    3    0    0  0.17096153866E+02  0.23050218396E+02  0.11100770429E+02  0.30770410291E+02  0.51100000000E-03 0. -1.
        -11    1    3    3    0    0 -0.20216143383E+02  0.10565518692E+02 -0.61187153476E-01  0.22810663793E+02  0.51100000000E-03 0.  1.
        -12    1    3    3    0    0  0.39473342174E+01 -0.34360535724E+02 -0.11431517432E+02  0.36426740912E+02  0.00000000000E+00 0.  1.
</event>
<event>
 7    1  0.1698110E-015  0.9000765E+02  0.7816164E-02  0.1186339E+00
        -11   -1    0    0    0    0  0.00000000000E+00  0.00000000000E+00  0.45593999997E+02  0.45594000000E+02  0.51100000000E-03 0.  1.
         11   -1    0    0    0    0 -0.00000000000E+00 -0.00000000000E+00 -0.45593999997E+02  0.45594000000E+02  0.51100000000E-03 0. -1.
    9900012    2    1    2    0    0  0.74048527766E+00  0.91565698602E+00 -0.80541807546E-01  0.90007647025E+02  0.89999907166E+02 0.  0.
         12    1    1    2    0    0 -0.74048527766E+00 -0.91565698602E+00  0.80541807546E-01  0.11803529748E+01  0.00000000000E+00 0. -1.
         11    1    3    3    0    0 -0.12849247988E+02  0.53270082190E+01 -0.16701670610E+02  0.21735362704E+02  0.51100000000E-03 0. -1.
        -11    1    3    3    0    0 -0.13926881465E+02 -0.16317227630E+02  0.28799590383E+02  0.35911367996E+02  0.51100000000E-03 0.  1.
         12    1    3    3    0    0  0.27516614730E+02  0.11905876397E+02 -0.12178461580E+02  0.32360916326E+02  0.00000000000E+00 0. -1.
</event>
<event>
 7    1  0.1698110E-015  0.9000770E+02  0.7816164E-02  0.1186339E+00
        -11   -1    0    0    0    0  0.00000000000E+00  0.00000000000E+00  0.45593999997E+02  0.45594000000E+02  0.51100000000E-03 0.  1.
         11   -1    0    0    0    0 -0.00000000000E+00 -0.00000000000E+00 -0.45593999997E+02  0.45594000000E+02  0.51100000000E-03 0. -1.
    9900012    2    1    2    0    0 -0.50801082258E+00 -0.63716744847E+00  0.85384211081E+00  0.90007701858E+02  0.89999962723E+02 0.  0.
         12    1    1    2    0    0  0.50801082258E+00  0.63716744847E+00 -0.85384211081E+00  0.11802981418E+01  0.00000000000E+00 0. -1.
         11    1    3    3    0    0  0.89335797335E+01  0.94397000804E+01 -0.33392919234E+01  0.13418928991E+02  0.51100000000E-03 0. -1.
        -11    1    3    3    0    0  0.14855000374E+02 -0.31929560323E+02  0.19772175340E+02  0.40386962951E+02  0.51100000000E-03 0.  1.
         12    1    3    3    0    0 -0.24296590930E+02  0.21852692794E+02 -0.15579041306E+02  0.36201809916E+02  0.00000000000E+00 0. -1.
</event>
<event>
 7    1  0.1698110E-015  0.9000768E+02  0.7816164E-02  0.1186339E+00
        -11   -1    0    0    0    0  0.00000000000E+00  0.00000000000E+00  0.45593999997E+02  0.45594000000E+02  0.51100000000E-03 0. -1.
         11   -1    0    0    0    0 -0.00000000000E+00 -0.00000000000E+00 -0.45593999997E+02  0.45594000000E+02  0.51100000000E-03 0.  1.
    9900012    2    1    2    0    0 -0.27484117838E+00 -0.42966147018E+00  0.10644316373E+01  0.90007677433E+02  0.89999937975E+02 0.  0.
         12    1    1    2    0    0  0.27484117838E+00  0.42966147018E+00 -0.10644316373E+01  0.11803225672E+01  0.00000000000E+00 0. -1.
         11    1    3    3    0    0  0.88838507150E+01 -0.82984962490E+01 -0.12806694051E+01  0.12224072885E+02  0.51100000000E-03 0. -1.
        -11    1    3    3    0    0  0.14851175087E+02 -0.29332967648E+02 -0.37406800689E+01  0.33090377455E+02  0.51100000000E-03 0.  1.
         12    1    3    3    0    0 -0.24009866980E+02  0.37201802426E+02  0.60857811113E+01  0.44693227092E+02  0.00000000000E+00 0. -1.
</event>
<event>
 7    1  0.1698110E-015  0.9000674E+02  0.7816164E-02  0.1186341E+00
        -11   -1    0    0    0    0  0.00000000000E+00  0.00000000000E+00  0.45593999997E+02  0.45594000000E+02  0.51100000000E-03 0.  1.
         11   -1    0    0    0    0 -0.00000000000E+00 -0.00000000000E+00 -0.45593999997E+02  0.45594000000E+02  0.51100000000E-03 0. -1.
    9900012    2    1    2    0    0  0.62221730361E+00 -0.55578883375E+00  0.83625923866E+00  0.90006735798E+02  0.89998983905E+02 0.  0.
         12    1    1    2    0    0 -0.62221730361E+00  0.55578883375E+00 -0.83625923866E+00  0.11812642020E+01  0.00000000000E+00 0. -1.
         11    1    3    3    0    0  0.36682786250E+01  0.88709258701E+01 -0.26945429839E+00  0.96032390235E+01  0.51100000000E-03 0. -1.
        -11    1    3    3    0    0  0.10044719736E+02 -0.22358730387E+02  0.34472836272E+02  0.42298766649E+02  0.51100000000E-03 0.  1.
         12    1    3    3    0    0 -0.13090781057E+02  0.12932015684E+02 -0.33367122735E+02  0.38104730126E+02  0.00000000000E+00 0. -1.
</event>
<event>
 7    1  0.1698110E-015  0.9000770E+02  0.7816164E-02  0.1186339E+00
        -11   -1    0    0    0    0  0.00000000000E+00  0.00000000000E+00  0.45593999997E+02  0.45594000000E+02  0.51100000000E-03 0.  1.
         11   -1    0    0    0    0 -0.00000000000E+00 -0.00000000000E+00 -0.45593999997E+02  0.45594000000E+02  0.51100000000E-03 0. -1.
    9900012    2    1    2    0    0  0.31780429336E+00  0.86990587459E+00  0.73169702015E+00  0.90007696510E+02  0.89999957304E+02 0.  0.
         12    1    1    2    0    0 -0.31780429336E+00 -0.86990587459E+00 -0.73169702015E+00  0.11803034901E+01  0.00000000000E+00 0. -1.
         11    1    3    3    0    0  0.36030054910E+02 -0.32827066012E+01 -0.96545303500E+01  0.37445306462E+02  0.51100000000E-03 0. -1.
        -11    1    3    3    0    0  0.71379846674E+01 -0.25131866541E+01  0.44860499947E+01  0.87972482678E+01  0.51100000000E-03 0.  1.
        -12    1    3    3    0    0 -0.42850235284E+02  0.66657991299E+01  0.59001773754E+01  0.43765141780E+02  0.00000000000E+00 0.  1.
</event>
<event>
 7    1  0.1698110E-015  0.9000772E+02  0.7816164E-02  0.1186339E+00
        -11   -1    0    0    0    0  0.00000000000E+00  0.00000000000E+00  0.45593999997E+02  0.45594000000E+02  0.51100000000E-03 0. -1.
         11   -1    0    0    0    0 -0.00000000000E+00 -0.00000000000E+00 -0.45593999997E+02  0.45594000000E+02  0.51100000000E-03 0.  1.
    9900012    2    1    2    0    0 -0.90010966940E+00  0.48254017959E+00 -0.59163290396E+00  0.90007715316E+02  0.89999976358E+02 0.  0.
         12    1    1    2    0    0  0.90010966940E+00 -0.48254017959E+00  0.59163290396E+00  0.11802846838E+01  0.00000000000E+00 0. -1.
         11    1    3    3    0    0  0.12282040002E+02 -0.32269233843E+02 -0.69826297234E+01  0.35226539392E+02  0.51100000000E-03 0. -1.
        -11    1    3    3    0    0  0.67700488048E+01 -0.67957657916E+01 -0.17301772812E+01  0.97472820416E+01  0.51100000000E-03 0.  1.
        -12    1    3    3    0    0 -0.19952198476E+02  0.39547539814E+02  0.81211741006E+01  0.45033893882E+02  0.00000000000E+00 0.  1.
</event>
<event>
 7    1  0.1698110E-015  0.9000789E+02  0.7816164E-02  0.1186339E+00
        -11   -1    0    0    0    0  0.00000000000E+00  0.00000000000E+00  0.45593999997E+02  0.45594000000E+02  0.51100000000E-03 0. -1.
         11   -1    0    0    0    0 -0.00000000000E+00 -0.00000000000E+00 -0.45593999997E+02  0.45594000000E+02  0.51100000000E-03 0.  1.
    9900012    2    1    2    0    0 -0.86180696066E+00  0.61154282676E-01 -0.80387718907E+00  0.90007885760E+02  0.90000149052E+02 0.  0.
         12    1    1    2    0    0  0.86180696066E+00 -0.61154282676E-01  0.80387718907E+00  0.11801142397E+01  0.00000000000E+00 0. -1.
         11    1    3    3    0    0  0.25064953531E+01 -0.31923087681E+02 -0.16355148825E+02  0.35956319881E+02  0.51100000000E-03 0. -1.
        -11    1    3    3    0    0 -0.92604399822E+01 -0.33626016295E+01 -0.66597393529E+01  0.11891802508E+02  0.51100000000E-03 0.  1.
        -12    1    3    3    0    0  0.58921376685E+01  0.35346843593E+02  0.22211010989E+02  0.42159763371E+02  0.00000000000E+00 0.  1.
</event>
<event>
 7    1  0.1698110E-015  0.9000790E+02  0.7816164E-02  0.1186339E+00
        -11   -1    0    0    0    0  0.00000000000E+00  0.00000000000E+00  0.45593999997E+02  0.45594000000E+02  0.51100000000E-03 0.  1.
         11   -1    0    0    0    0 -0.00000000000E+00 -0.00000000000E+00 -0.45593999997E+02  0.45594000000E+02  0.51100000000E-03 0. -1.
    9900012    2    1    2    0    0 -0.84646396038E+00 -0.94282999661E-01  0.81684914848E+00  0.90007901253E+02  0.90000164750E+02 0.  0.
         12    1    1    2    0    0  0.84646396038E+00  0.94282999661E-01 -0.81684914848E+00  0.11800987466E+01  0.00000000000E+00 0. -1.
         11    1    3    3    0    0  0.33204318608E+02 -0.15152772686E+02 -0.11654024292E+02  0.38313830098E+02  0.51100000000E-03 0. -1.
        -11    1    3    3    0    0  0.33672705355E+01 -0.44704153375E+01  0.72586727663E+01  0.91657762759E+01  0.51100000000E-03 0.  1.
        -12    1    3    3    0    0 -0.37418053104E+02  0.19528905024E+02  0.52122006745E+01  0.42528294880E+02  0.00000000000E+00 0.  1.
</event>
<event>
 7    1  0.1698110E-015  0.9000774E+02  0.7816164E-02  0.1186339E+00
        -11   -1    0    0    0    0  0.00000000000E+00  0.00000000000E+00  0.45593999997E+02  0.45594000000E+02  0.51100000000E-03 0.  1.
         11   -1    0    0    0    0 -0.00000000000E+00 -0.00000000000E+00 -0.45593999997E+02  0.45594000000E+02  0.51100000000E-03 0. -1.
    9900012    2    1    2    0    0  0.74510254497E+00  0.37910954458E+00 -0.83312837091E+00  0.90007743786E+02  0.90000005204E+02 0.  0.
         12    1    1    2    0    0 -0.74510254497E+00 -0.37910954458E+00  0.83312837091E+00  0.11802562144E+01  0.00000000000E+00 0. -1.
         11    1    3    3    0    0 -0.31991292668E+02  0.17114188532E+02 -0.78183320967E+01  0.37114209849E+02  0.51100000000E-03 0. -1.
        -11    1    3    3    0    0 -0.75503906675E+01 -0.64833173188E+00 -0.33718512150E+01  0.82944628604E+01  0.51100000000E-03 0.  1.
        -12    1    3    3    0    0  0.40286785880E+02 -0.16086747256E+02  0.10357054941E+02  0.44599071076E+02  0.00000000000E+00 0.  1.
</event>
<event>
 7    1  0.1698110E-015  0.9000769E+02  0.7816164E-02  0.1186339E+00
        -11   -1    0    0    0    0  0.00000000000E+00  0.00000000000E+00  0.45593999997E+02  0.45594000000E+02  0.51100000000E-03 0. -1.
         11   -1    0    0    0    0 -0.00000000000E+00 -0.00000000000E+00 -0.45593999997E+02  0.45594000000E+02  0.51100000000E-03 0.  1.
    9900012    2    1    2    0    0  0.83879098223E+00 -0.66730935792E-01 -0.82771414005E+00  0.90007689012E+02  0.89999949707E+02 0.  0.
         12    1    1    2    0    0 -0.83879098223E+00  0.66730935792E-01  0.82771414005E+00  0.11803109875E+01  0.00000000000E+00 0. -1.
         11    1    3    3    0    0 -0.65591201121E+01  0.33843034582E+02  0.18517802518E+02  0.39131599210E+02  0.51100000000E-03 0. -1.
        -11    1    3    3    0    0 -0.16732764330E+01  0.28078270300E+01  0.49439236052E+01  0.59267299185E+01  0.51100000000E-03 0.  1.
        -12    1    3    3    0    0  0.90711875274E+01 -0.36717592548E+02 -0.24289440264E+02  0.44949359884E+02  0.00000000000E+00 0.  1.
</event>
<event>
 7    1  0.1698110E-015  0.9000880E+02  0.7816164E-02  0.1186337E+00
        -11   -1    0    0    0    0  0.00000000000E+00  0.00000000000E+00  0.45593999997E+02  0.45594000000E+02  0.51100000000E-03 0.  1.
         11   -1    0    0    0    0 -0.00000000000E+00 -0.00000000000E+00 -0.45593999997E+02  0.45594000000E+02  0.51100000000E-03 0. -1.
    9900012    2    1    2    0    0 -0.34269815191E+00 -0.55579227557E+00  0.98192409681E+00  0.90008796027E+02  0.90001071329E+02 0.  0.
         12    1    1    2    0    0  0.34269815191E+00  0.55579227557E+00 -0.98192409681E+00  0.11792039725E+01  0.00000000000E+00 0. -1.
         11    1    3    3    0    0 -0.19038759580E+00 -0.11873264408E+02 -0.79685070397E+01  0.14300620960E+02  0.51100000000E-03 0. -1.
        -11    1    3    3    0    0  0.25122516584E+02  0.31324895397E+02 -0.52262105197E+01  0.40493248669E+02  0.51100000000E-03 0.  1.
         12    1    3    3    0    0 -0.25274827140E+02 -0.20007423265E+02  0.14176641656E+02  0.35214926399E+02  0.00000000000E+00 0. -1.
</event>
<event>
 7    1  0.1698110E-015  0.9000773E+02  0.7816164E-02  0.1186339E+00
        -11   -1    0    0    0    0  0.00000000000E+00  0.00000000000E+00  0.45593999997E+02  0.45594000000E+02  0.51100000000E-03 0. -1.
         11   -1    0    0    0    0 -0.00000000000E+00 -0.00000000000E+00 -0.45593999997E+02  0.45594000000E+02  0.51100000000E-03 0.  1.
    9900012    2    1    2    0    0  0.56433030429E+00  0.97262391177E+00 -0.35857461594E+00  0.90007728116E+02  0.89999989327E+02 0.  0.
         12    1    1    2    0    0 -0.56433030429E+00 -0.97262391177E+00  0.35857461594E+00  0.11802718845E+01  0.00000000000E+00 0. -1.
         11    1    3    3    0    0  0.12040206631E+02 -0.35344686111E+01  0.73384656504E+00  0.12569708633E+02  0.51100000000E-03 0. -1.
        -11    1    3    3    0    0 -0.19766778183E+02  0.33492655521E+02 -0.18020216922E+02  0.42862707704E+02  0.51100000000E-03 0.  1.
         12    1    3    3    0    0  0.82909018562E+01 -0.28985562998E+02  0.16927795741E+02  0.34575311778E+02  0.00000000000E+00 0. -1.
</event>
<event>
 7    1  0.1698110E-015  0.9000770E+02  0.7816164E-02  0.1186339E+00
        -11   -1    0    0    0    0  0.00000000000E+00  0.00000000000E+00  0.45593999997E+02  0.45594000000E+02  0.51100000000E-03 0. -1.
         11   -1    0    0    0    0 -0.00000000000E+00 -0.00000000000E+00 -0.45593999997E+02  0.45594000000E+02  0.51100000000E-03 0.  1.
    9900012    2    1    2    0    0 -0.10481933967E+00  0.11296387044E+01  0.32562550690E+00  0.90007702297E+02  0.89999963168E+02 0.  0.
         12    1    1    2    0    0  0.10481933967E+00 -0.11296387044E+01 -0.32562550690E+00  0.11802977028E+01  0.00000000000E+00 0. -1.
         11    1    3    3    0    0  0.21351332494E+02 -0.33304473770E+02  0.80796354692E+01  0.40377566567E+02  0.51100000000E-03 0. -1.
        -11    1    3    3    0    0  0.21738257836E+01  0.14423182226E+01 -0.86542885997E+01  0.90389441762E+01  0.51100000000E-03 0.  1.
        -12    1    3    3    0    0 -0.23629977617E+02  0.32991794252E+02  0.90027863741E+00  0.40591191554E+02  0.00000000000E+00 0.  1.
</event>
<event>
 7    1  0.1698110E-015  0.9000770E+02  0.7816164E-02  0.1186339E+00
        -11   -1    0    0    0    0  0.00000000000E+00  0.00000000000E+00  0.45593999997E+02  0.45594000000E+02  0.51100000000E-03 0. -1.
         11   -1    0    0    0    0 -0.00000000000E+00 -0.00000000000E+00 -0.45593999997E+02  0.45594000000E+02  0.51100000000E-03 0.  1.
    9900012    2    1    2    0    0 -0.10496168741E+01  0.50885358462E+00 -0.18020559549E+00  0.90007702745E+02  0.89999963621E+02 0.  0.
         12    1    1    2    0    0  0.10496168741E+01 -0.50885358462E+00  0.18020559549E+00  0.11802972548E+01  0.00000000000E+00 0. -1.
         11    1    3    3    0    0  0.54291209603E+01  0.32300287391E+01 -0.62699417013E+01  0.89005960056E+01  0.51100000000E-03 0. -1.
        -11    1    3    3    0    0  0.86821214101E+01  0.20687244973E+02 -0.28757500157E+02  0.36473759777E+02  0.51100000000E-03 0.  1.
         12    1    3    3    0    0 -0.15160859244E+02 -0.23408420128E+02  0.34847236263E+02  0.44633346962E+02  0.00000000000E+00 0. -1.
</event>
<event>
 7    1  0.1698110E-015  0.9000644E+02  0.7816164E-02  0.1186342E+00
        -11   -1    0    0    0    0  0.00000000000E+00  0.00000000000E+00  0.45593999997E+02  0.45594000000E+02  0.51100000000E-03 0.  1.
         11   -1    0    0    0    0 -0.00000000000E+00 -0.00000000000E+00 -0.45593999997E+02  0.45594000000E+02  0.51100000000E-03 0. -1.
    9900012    2    1    2    0    0  0.53297191911E+00  0.94600406177E+00  0.46593456265E+00  0.90006442651E+02  0.89998686885E+02 0.  0.
         12    1    1    2    0    0 -0.53297191911E+00 -0.94600406177E+00 -0.46593456265E+00  0.11815573486E+01  0.00000000000E+00 0. -1.
         11    1    3    3    0    0 -0.25778971968E+02 -0.25192148619E+02  0.10103224475E+02  0.37433606463E+02  0.51100000000E-03 0. -1.
        -11    1    3    3    0    0  0.53065414050E+01 -0.33802621202E+01  0.96572689996E+01  0.11525987961E+02  0.51100000000E-03 0.  1.
        -12    1    3    3    0    0  0.21005402482E+02  0.29518414801E+02 -0.19294558912E+02  0.41046848227E+02  0.00000000000E+00 0.  1.
</event>
<event>
 7    1  0.1698110E-015  0.9000757E+02  0.7816164E-02  0.1186339E+00
        -11   -1    0    0    0    0  0.00000000000E+00  0.00000000000E+00  0.45593999997E+02  0.45594000000E+02  0.51100000000E-03 0.  1.
         11   -1    0    0    0    0 -0.00000000000E+00 -0.00000000000E+00 -0.45593999997E+02  0.45594000000E+02  0.51100000000E-03 0. -1.
    9900012    2    1    2    0    0  0.35240238150E+00 -0.76636436607E+00  0.82578598210E+00  0.90007566068E+02  0.89999825140E+02 0.  0.
         12    1    1    2    0    0 -0.35240238150E+00  0.76636436607E+00 -0.82578598210E+00  0.11804339322E+01  0.00000000000E+00 0. -1.
         11    1    3    3    0    0  0.25343847495E+01 -0.10094824113E+02 -0.43695203260E+01  0.11288103830E+02  0.51100000000E-03 0. -1.
        -11    1    3    3    0    0  0.36385911321E+01 -0.30262955462E+02 -0.14913979129E+02  0.33933944546E+02  0.51100000000E-03 0.  1.
         12    1    3    3    0    0 -0.58205735001E+01  0.39591415209E+02  0.20109285437E+02  0.44785517692E+02  0.00000000000E+00 0. -1.
</event>
<event>
 7    1  0.1698110E-015  0.9000775E+02  0.7816164E-02  0.1186339E+00
        -11   -1    0    0    0    0  0.00000000000E+00  0.00000000000E+00  0.45593999997E+02  0.45594000000E+02  0.51100000000E-03 0. -1.
         11   -1    0    0    0    0 -0.00000000000E+00 -0.00000000000E+00 -0.45593999997E+02  0.45594000000E+02  0.51100000000E-03 0.  1.
    9900012    2    1    2    0    0 -0.86618338529E+00  0.78673657279E+00 -0.15416167166E+00  0.90007748369E+02  0.90000009847E+02 0.  0.
         12    1    1    2    0    0  0.86618338529E+00 -0.78673657279E+00  0.15416167166E+00  0.11802516312E+01  0.00000000000E+00 0. -1.
         11    1    3    3    0    0 -0.92050483808E+01  0.52472820241E+01 -0.86051542876E+01  0.13649745965E+02  0.51100000000E-03 0. -1.
        -11    1    3    3    0    0 -0.33692834131E+02 -0.10804099686E+01  0.44109968191E+01  0.33997518302E+02  0.51100000000E-03 0.  1.
         12    1    3    3    0    0  0.42031699126E+02 -0.33801354827E+01  0.40399957968E+01  0.42360484102E+02  0.00000000000E+00 0. -1.
</event>
<event>
 7    1  0.1698110E-015  0.9000774E+02  0.7816164E-02  0.1186339E+00
        -11   -1    0    0    0    0  0.00000000000E+00  0.00000000000E+00  0.45593999997E+02  0.45594000000E+02  0.51100000000E-03 0.  1.
         11   -1    0    0    0    0 -0.00000000000E+00 -0.00000000000E+00 -0.45593999997E+02  0.45594000000E+02  0.51100000000E-03 0. -1.
    9900012    2    1    2    0    0  0.55246122933E+00 -0.99199944122E+00  0.32207237477E+00  0.90007742860E+02  0.90000004266E+02 0.  0.
         12    1    1    2    0    0 -0.55246122933E+00  0.99199944122E+00 -0.32207237477E+00  0.11802571397E+01  0.00000000000E+00 0. -1.
         11    1    3    3    0    0  0.23331204223E+02  0.30963560265E+02 -0.16590908114E+02  0.42170432617E+02  0.51100000000E-03 0. -1.
        -11    1    3    3    0    0  0.38982007518E+01 -0.79508443055E+01  0.30481864346E+01  0.93650058768E+01  0.51100000000E-03 0.  1.
        -12    1    3    3    0    0 -0.26676943745E+02 -0.24004715401E+02  0.13864794054E+02  0.38472304366E+02  0.00000000000E+00 0.  1.
</event>
<event>
 7    1  0.1698110E-015  0.9000767E+02  0.7816164E-02  0.1186339E+00
        -11   -1    0    0    0    0  0.00000000000E+00  0.00000000000E+00  0.45593999997E+02  0.45594000000E+02  0.51100000000E-03 0.  1.
         11   -1    0    0    0    0 -0.00000000000E+00 -0.00000000000E+00 -0.45593999997E+02  0.45594000000E+02  0.51100000000E-03 0. -1.
    9900012    2    1    2    0    0  0.18258817634E+00 -0.56311034702E+00  0.10211461270E+01  0.90007673300E+02  0.89999933788E+02 0.  0.
         12    1    1    2    0    0 -0.18258817634E+00  0.56311034702E+00 -0.10211461270E+01  0.11803266996E+01  0.00000000000E+00 0. -1.
         11    1    3    3    0    0  0.28665986808E+02  0.26917948861E+02 -0.14418442650E+02  0.41883245567E+02  0.51100000000E-03 0. -1.
        -11    1    3    3    0    0  0.32920097816E+01 -0.41769138285E+01 -0.10281648668E+01  0.54167389440E+01  0.51100000000E-03 0.  1.
        -12    1    3    3    0    0 -0.31775408413E+02 -0.23304145379E+02  0.16467753644E+02  0.42707688789E+02  0.00000000000E+00 0.  1.
</event>
<event>
 7    1  0.1698110E-015  0.9000774E+02  0.7816164E-02  0.1186339E+00
        -11   -1    0    0    0    0  0.00000000000E+00  0.00000000000E+00  0.45593999997E+02  0.45594000000E+02  0.51100000000E-03 0.  1.
         11   -1    0    0    0    0 -0.00000000000E+00 -0.00000000000E+00 -0.45593999997E+02  0.45594000000E+02  0.51100000000E-03 0. -1.
    9900012    2    1    2    0    0 -0.70720611550E+00  0.48948176169E+00  0.80826112325E+00  0.90007737771E+02  0.89999999110E+02 0.  0.
         12    1    1    2    0    0  0.70720611550E+00 -0.48948176169E+00 -0.80826112325E+00  0.11802622286E+01  0.00000000000E+00 0. -1.
         11    1    3    3    0    0 -0.28353313923E+02  0.25459080937E+02  0.20102101696E+01  0.38159090106E+02  0.51100000000E-03 0. -1.
        -11    1    3    3    0    0 -0.27793388428E+01  0.10622105391E+01  0.98662018135E+01  0.10305093601E+02  0.51100000000E-03 0.  1.
        -12    1    3    3    0    0  0.30425446650E+02 -0.26031809714E+02 -0.11068150860E+02  0.41543554065E+02  0.00000000000E+00 0.  1.
</event>
<event>
 7    1  0.1698110E-015  0.9000757E+02  0.7816164E-02  0.1186339E+00
        -11   -1    0    0    0    0  0.00000000000E+00  0.00000000000E+00  0.45593999997E+02  0.45594000000E+02  0.51100000000E-03 0.  1.
         11   -1    0    0    0    0 -0.00000000000E+00 -0.00000000000E+00 -0.45593999997E+02  0.45594000000E+02  0.51100000000E-03 0. -1.
    9900012    2    1    2    0    0  0.57347577031E+00  0.99950151012E+00  0.25601963818E+00  0.90007566273E+02  0.89999825348E+02 0.  0.
         12    1    1    2    0    0 -0.57347577031E+00 -0.99950151012E+00 -0.25601963818E+00  0.11804337266E+01  0.00000000000E+00 0. -1.
         11    1    3    3    0    0 -0.14063442023E+02 -0.23581546397E+01  0.10471197007E+01  0.14298173127E+02  0.51100000000E-03 0. -1.
        -11    1    3    3    0    0 -0.19549679544E+02 -0.61683637384E+01  0.24637520367E+02  0.32050680049E+02  0.51100000000E-03 0.  1.
         12    1    3    3    0    0  0.34186597337E+02  0.95260198882E+01 -0.25428620430E+02  0.43658713098E+02  0.00000000000E+00 0. -1.
</event>
<event>
 7    1  0.1698110E-015  0.9000777E+02  0.7816164E-02  0.1186339E+00
        -11   -1    0    0    0    0  0.00000000000E+00  0.00000000000E+00  0.45593999997E+02  0.45594000000E+02  0.51100000000E-03 0.  1.
         11   -1    0    0    0    0 -0.00000000000E+00 -0.00000000000E+00 -0.45593999997E+02  0.45594000000E+02  0.51100000000E-03 0. -1.
    9900012    2    1    2    0    0  0.46454839507E+00  0.34423458267E+00  0.10289065306E+01  0.90007766418E+02  0.90000028135E+02 0.  0.
         12    1    1    2    0    0 -0.46454839507E+00 -0.34423458267E+00 -0.10289065306E+01  0.11802335819E+01  0.00000000000E+00 0. -1.
         11    1    3    3    0    0 -0.56638113283E+01 -0.71808628265E+01 -0.58086672957E+01  0.10834397339E+02  0.51100000000E-03 0. -1.
        -11    1    3    3    0    0 -0.17473296674E+02 -0.29694140903E+02  0.67127134348E+01  0.35101547295E+02  0.51100000000E-03 0.  1.
         12    1    3    3    0    0  0.23601656397E+02  0.37219238312E+02  0.12486039147E+00  0.44071821783E+02  0.00000000000E+00 0. -1.
</event>
<event>
 7    1  0.1698110E-015  0.9000772E+02  0.7816164E-02  0.1186339E+00
        -11   -1    0    0    0    0  0.00000000000E+00  0.00000000000E+00  0.45593999997E+02  0.45594000000E+02  0.51100000000E-03 0.  1.
         11   -1    0    0    0    0 -0.00000000000E+00 -0.00000000000E+00 -0.45593999997E+02  0.45594000000E+02  0.51100000000E-03 0. -1.
    9900012    2    1    2    0    0  0.44769253868E+00  0.72294432014E+00  0.81852347606E+00  0.90007721313E+02  0.89999982434E+02 0.  0.
         12    1    1    2    0    0 -0.44769253868E+00 -0.72294432014E+00 -0.81852347606E+00  0.11802786875E+01  0.00000000000E+00 0. -1.
         11    1    3    3    0    0  0.32184614871E+02  0.11993015979E+02 -0.12649300073E+02  0.36601730276E+02  0.51100000000E-03 0. -1.
        -11    1    3    3    0    0  0.92991206592E+01 -0.27086321297E+01  0.36621136330E+01  0.10354777138E+02  0.51100000000E-03 0.  1.
        -12    1    3    3    0    0 -0.41036042991E+02 -0.85614395295E+01  0.98057099157E+01  0.43051213898E+02  0.00000000000E+00 0.  1.
</event>
<event>
 7    1  0.1698110E-015  0.9000745E+02  0.7816164E-02  0.1186340E+00
        -11   -1    0    0    0    0  0.00000000000E+00  0.00000000000E+00  0.45593999997E+02  0.45594000000E+02  0.51100000000E-03 0. -1.
         11   -1    0    0    0    0 -0.00000000000E+00 -0.00000000000E+00 -0.45593999997E+02  0.45594000000E+02  0.51100000000E-03 0.  1.
    9900012    2    1    2    0    0 -0.32137084672E+00  0.51047482057E+00 -0.10148109965E+01  0.90007447112E+02  0.89999704613E+02 0.  0.
         12    1    1    2    0    0  0.32137084672E+00 -0.51047482057E+00  0.10148109965E+01  0.11805528883E+01  0.00000000000E+00 0. -1.
         11    1    3    3    0    0  0.31847392035E+01  0.98730121232E+01 -0.12178549109E+01  0.10445195212E+02  0.51100000000E-03 0. -1.
        -11    1    3    3    0    0  0.48516440145E+01  0.32154927046E+02 -0.13267375939E+02  0.35121233571E+02  0.51100000000E-03 0.  1.
         12    1    3    3    0    0 -0.83577540647E+01 -0.41517464349E+02  0.13470419854E+02  0.44441018328E+02  0.00000000000E+00 0. -1.
</event>
<event>
 7    1  0.1698110E-015  0.9000775E+02  0.7816164E-02  0.1186339E+00
        -11   -1    0    0    0    0  0.00000000000E+00  0.00000000000E+00  0.45593999997E+02  0.45594000000E+02  0.51100000000E-03 0. -1.
         11   -1    0    0    0    0 -0.00000000000E+00 -0.00000000000E+00 -0.45593999997E+02  0.45594000000E+02  0.51100000000E-03 0.  1.
    9900012    2    1    2    0    0  0.10898936775E+01 -0.40380613733E+00  0.20507220552E+00  0.90007753316E+02  0.90000014860E+02 0.  0.
         12    1    1    2    0    0 -0.10898936775E+01  0.40380613733E+00 -0.20507220552E+00  0.11802466837E+01  0.00000000000E+00 0. -1.
         11    1    3    3    0    0  0.20375560112E+02  0.59919805751E+01  0.32947426618E+02  0.39199492370E+02  0.51100000000E-03 0. -1.
        -11    1    3    3    0    0 -0.53267809229E+01 -0.21847306107E+01  0.66548235159E+01  0.87996772174E+01  0.51100000000E-03 0.  1.
        -12    1    3    3    0    0 -0.13958885511E+02 -0.42110561017E+01 -0.39397177928E+02  0.42008583729E+02  0.00000000000E+00 0.  1.
</event>
<event>
 7    1  0.1698110E-015  0.9000771E+02  0.7816164E-02  0.1186339E+00
        -11   -1    0    0    0    0  0.00000000000E+00  0.00000000000E+00  0.45593999997E+02  0.45594000000E+02  0.51100000000E-03 0. -1.
         11   -1    0    0    0    0 -0.00000000000E+00 -0.00000000000E+00 -0.45593999997E+02  0.45594000000E+02  0.51100000000E-03 0.  1.
    9900012    2    1    2    0    0  0.35750057458E+00  0.26504269794E+00 -0.10931744155E+01  0.90007709953E+02  0.89999970924E+02 0.  0.
         12    1    1    2    0    0 -0.35750057458E+00 -0.26504269794E+00  0.10931744155E+01  0.11802900471E+01  0.00000000000E+00 0. -1.
         11    1    3    3    0    0 -0.20934933027E+01  0.34039167268E+01  0.13086271972E+02  0.13682831494E+02  0.51100000000E-03 0. -1.
        -11    1    3    3    0    0 -0.25222548838E+02  0.20381769928E+02  0.84780872437E+01  0.33518226069E+02  0.51100000000E-03 0.  1.
         12    1    3    3    0    0  0.27673542715E+02 -0.23520643957E+02 -0.22657533632E+02  0.42806652390E+02  0.00000000000E+00 0. -1.
</event>
<event>
 7    1  0.1698110E-015  0.9000762E+02  0.7816164E-02  0.1186339E+00
        -11   -1    0    0    0    0  0.00000000000E+00  0.00000000000E+00  0.45593999997E+02  0.45594000000E+02  0.51100000000E-03 0.  1.
         11   -1    0    0    0    0 -0.00000000000E+00 -0.00000000000E+00 -0.45593999997E+02  0.45594000000E+02  0.51100000000E-03 0. -1.
    9900012    2    1    2    0    0  0.41303469206E+00 -0.76614362321E+00  0.79732002836E+00  0.90007621698E+02  0.89999881504E+02 0.  0.
         12    1    1    2    0    0 -0.41303469206E+00  0.76614362321E+00 -0.79732002836E+00  0.11803783020E+01  0.00000000000E+00 0. -1.
         11    1    3    3    0    0 -0.33784186300E+02  0.22848251537E+01 -0.19760364888E+02  0.39205403845E+02  0.51100000000E-03 0. -1.
        -11    1    3    3    0    0  0.26490733067E+01 -0.79268408402E+01 -0.51482776928E+01  0.98161682215E+01  0.51100000000E-03 0.  1.
        -12    1    3    3    0    0  0.31548147685E+02  0.48758720632E+01  0.25705962609E+02  0.40986049631E+02  0.00000000000E+00 0.  1.
</event>
<event>
 7    1  0.1698110E-015  0.9000779E+02  0.7816164E-02  0.1186339E+00
        -11   -1    0    0    0    0  0.00000000000E+00  0.00000000000E+00  0.45593999997E+02  0.45594000000E+02  0.51100000000E-03 0.  1.
         11   -1    0    0    0    0 -0.00000000000E+00 -0.00000000000E+00 -0.45593999997E+02  0.45594000000E+02  0.51100000000E-03 0. -1.
    9900012    2    1    2    0    0 -0.11004422418E+01 -0.15063603601E+00  0.39903589868E+00  0.90007790700E+02  0.90000052737E+02 0.  0.
         12    1    1    2    0    0  0.11004422418E+01  0.15063603601E+00 -0.39903589868E+00  0.11802092998E+01  0.00000000000E+00 0. -1.
         11    1    3    3    0    0 -0.24630589447E+02 -0.15441811905E+02 -0.26434391110E+02  0.39292397802E+02  0.51100000000E-03 0. -1.
        -11    1    3    3    0    0  0.27205817856E+01 -0.89502506225E+01  0.59474683650E+00  0.93734879057E+01  0.51100000000E-03 0.  1.
        -12    1    3    3    0    0  0.20809565420E+02  0.24241426491E+02  0.26238680172E+02  0.41341904993E+02  0.00000000000E+00 0.  1.
</event>
<event>
 7    1  0.1698110E-015  0.9000776E+02  0.7816164E-02  0.1186339E+00
        -11   -1    0    0    0    0  0.00000000000E+00  0.00000000000E+00  0.45593999997E+02  0.45594000000E+02  0.51100000000E-03 0.  1.
         11   -1    0    0    0    0 -0.00000000000E+00 -0.00000000000E+00 -0.45593999997E+02  0.45594000000E+02  0.51100000000E-03 0. -1.
    9900012    2    1    2    0    0 -0.78520603315E+00  0.64895430022E+00 -0.59604862531E+00  0.90007760973E+02  0.90000022617E+02 0.  0.
         12    1    1    2    0    0  0.78520603315E+00 -0.64895430022E+00  0.59604862531E+00  0.11802390275E+01  0.00000000000E+00 0. -1.
         11    1    3    3    0    0  0.25254720818E+01 -0.11792941386E+01  0.89562552588E+01  0.93799388283E+01  0.51100000000E-03 0. -1.
        -11    1    3    3    0    0 -0.19616752119E+02 -0.16735889893E+02  0.26464924666E+02  0.36949955508E+02  0.51100000000E-03 0.  1.
         12    1    3    3    0    0  0.16306074004E+02  0.18564138332E+02 -0.36017228550E+02  0.43677866636E+02  0.00000000000E+00 0. -1.
</event>
<event>
 7    1  0.1698110E-015  0.9000772E+02  0.7816164E-02  0.1186339E+00
        -11   -1    0    0    0    0  0.00000000000E+00  0.00000000000E+00  0.45593999997E+02  0.45594000000E+02  0.51100000000E-03 0. -1.
         11   -1    0    0    0    0 -0.00000000000E+00 -0.00000000000E+00 -0.45593999997E+02  0.45594000000E+02  0.51100000000E-03 0.  1.
    9900012    2    1    2    0    0  0.72130727640E+00 -0.72162035278E+00 -0.59332506757E+00  0.90007722593E+02  0.89999983732E+02 0.  0.
         12    1    1    2    0    0 -0.72130727640E+00  0.72162035278E+00  0.59332506757E+00  0.11802774065E+01  0.00000000000E+00 0. -1.
         11    1    3    3    0    0  0.25504930299E+02  0.31500487138E+02  0.72540370842E+01  0.41175274302E+02  0.51100000000E-03 0. -1.
        -11    1    3    3    0    0  0.31044970783E+01 -0.39785755280E+01 -0.76204591004E+01  0.91399323030E+01  0.51100000000E-03 0.  1.
        -12    1    3    3    0    0 -0.27888120101E+02 -0.28243531963E+02 -0.22690305136E+00  0.39692515989E+02  0.00000000000E+00 0.  1.
</event>
<event>
 7    1  0.1698110E-015  0.9000774E+02  0.7816164E-02  0.1186339E+00
        -11   -1    0    0    0    0  0.00000000000E+00  0.00000000000E+00  0.45593999997E+02  0.45594000000E+02  0.51100000000E-03 0. -1.
         11   -1    0    0    0    0 -0.00000000000E+00 -0.00000000000E+00 -0.45593999997E+02  0.45594000000E+02  0.51100000000E-03 0.  1.
    9900012    2    1    2    0    0 -0.42195956453E+00  0.84474137537E+00 -0.70807621297E+00  0.90007741643E+02  0.90000003033E+02 0.  0.
         12    1    1    2    0    0  0.42195956453E+00 -0.84474137537E+00  0.70807621297E+00  0.11802583568E+01  0.00000000000E+00 0. -1.
         11    1    3    3    0    0 -0.55880836937E+00  0.26844865362E+00  0.99843392344E+01  0.10003567448E+02  0.51100000000E-03 0. -1.
        -11    1    3    3    0    0 -0.26914914073E+02 -0.10987890794E+02 -0.32334257828E+02  0.43481611898E+02  0.51100000000E-03 0.  1.
         12    1    3    3    0    0  0.27051762878E+02  0.11564183516E+02  0.21641842381E+02  0.36522562298E+02  0.00000000000E+00 0. -1.
</event>
<event>
 7    1  0.1698110E-015  0.9000778E+02  0.7816164E-02  0.1186339E+00
        -11   -1    0    0    0    0  0.00000000000E+00  0.00000000000E+00  0.45593999997E+02  0.45594000000E+02  0.51100000000E-03 0. -1.
         11   -1    0    0    0    0 -0.00000000000E+00 -0.00000000000E+00 -0.45593999997E+02  0.45594000000E+02  0.51100000000E-03 0.  1.
    9900012    2    1    2    0    0 -0.11058898464E+01  0.36816734700E+00 -0.18543293580E+00  0.90007777597E+02  0.90000039461E+02 0.  0.
         12    1    1    2    0    0  0.11058898464E+01 -0.36816734700E+00  0.18543293580E+00  0.11802224034E+01  0.00000000000E+00 0. -1.
         11    1    3    3    0    0 -0.54384715877E+01 -0.10548631985E+02  0.33459279386E+02  0.35501746257E+02  0.51100000000E-03 0. -1.
        -11    1    3    3    0    0 -0.33134171248E+01  0.21237363883E+01  0.92523057689E+01  0.10054558747E+02  0.51100000000E-03 0.  1.
        -12    1    3    3    0    0  0.76459988661E+01  0.87930629433E+01 -0.42897018091E+02  0.44451472593E+02  0.00000000000E+00 0.  1.
</event>
<event>
 7    1  0.1727765E-015  0.9000792E+02  0.7816164E-02  0.1186339E+00
        -11   -1    0    0    0    0  0.00000000000E+00  0.00000000000E+00  0.45593999997E+02  0.45594000000E+02  0.51100000000E-03 0.  1.
         11   -1    0    0    0    0 -0.00000000000E+00 -0.00000000000E+00 -0.45593999997E+02  0.45594000000E+02  0.51100000000E-03 0. -1.
    9900012    2    1    2    0    0  0.40098650566E+00 -0.10823023641E+01 -0.24581621550E+00  0.90007917716E+02  0.90000181430E+02 0.  0.
         12    1    1    2    0    0 -0.40098650566E+00  0.10823023641E+01  0.24581621550E+00  0.11800822839E+01  0.00000000000E+00 0. -1.
         11    1    3    3    0    0  0.39660736244E+00  0.42932715236E+01 -0.85915804196E+01  0.96127380149E+01  0.51100000000E-03 0. -1.
        -11    1    3    3    0    0  0.36896218334E+02 -0.87524490295E+01 -0.97677225141E+01  0.39157945487E+02  0.51100000000E-03 0.  1.
         12    1    3    3    0    0 -0.36891839191E+02  0.33768751418E+01  0.18113486718E+02  0.41237234215E+02  0.00000000000E+00 0. -1.
</event>
<event>
 7    1  0.1698110E-015  0.9000722E+02  0.7816164E-02  0.1186340E+00
        -11   -1    0    0    0    0  0.00000000000E+00  0.00000000000E+00  0.45593999997E+02  0.45594000000E+02  0.51100000000E-03 0.  1.
         11   -1    0    0    0    0 -0.00000000000E+00 -0.00000000000E+00 -0.45593999997E+02  0.45594000000E+02  0.51100000000E-03 0. -1.
    9900012    2    1    2    0    0 -0.10570936940E+01  0.17807012972E+00 -0.49506362330E+00  0.90007218886E+02  0.89999473373E+02 0.  0.
         12    1    1    2    0    0  0.10570936940E+01 -0.17807012972E+00  0.49506362330E+00  0.11807811144E+01  0.00000000000E+00 0. -1.
         11    1    3    3    0    0  0.37951819091E+01 -0.91519793065E+01 -0.10761403388E+01  0.99659525004E+01  0.51100000000E-03 0. -1.
        -11    1    3    3    0    0  0.33760107848E+01  0.28882886705E+01  0.39497317655E+02  0.39746418234E+02  0.51100000000E-03 0.  1.
         12    1    3    3    0    0 -0.82282863879E+01  0.64417607657E+01 -0.38916240939E+02  0.40294848151E+02  0.00000000000E+00 0. -1.
</event>
<event>
 7    1  0.1698110E-015  0.9000774E+02  0.7816164E-02  0.1186339E+00
        -11   -1    0    0    0    0  0.00000000000E+00  0.00000000000E+00  0.45593999997E+02  0.45594000000E+02  0.51100000000E-03 0. -1.
         11   -1    0    0    0    0 -0.00000000000E+00 -0.00000000000E+00 -0.45593999997E+02  0.45594000000E+02  0.51100000000E-03 0.  1.
    9900012    2    1    2    0    0  0.61013273928E+00 -0.98462100326E+00 -0.22644301696E+00  0.90007738622E+02  0.89999999972E+02 0.  0.
         12    1    1    2    0    0 -0.61013273928E+00  0.98462100326E+00  0.22644301696E+00  0.11802613776E+01  0.00000000000E+00 0. -1.
         11    1    3    3    0    0  0.20006369711E+02  0.55320211371E+01  0.10187010247E+01  0.20782103814E+02  0.51100000000E-03 0. -1.
        -11    1    3    3    0    0  0.18792745354E+02 -0.20106781927E+02  0.56839414875E+01  0.28102618178E+02  0.51100000000E-03 0.  1.
         12    1    3    3    0    0 -0.38188982326E+02  0.13590139786E+02 -0.69290855291E+01  0.41123016630E+02  0.00000000000E+00 0. -1.
</event>
<event>
 7    1  0.1698110E-015  0.9000770E+02  0.7816164E-02  0.1186339E+00
        -11   -1    0    0    0    0  0.00000000000E+00  0.00000000000E+00  0.45593999997E+02  0.45594000000E+02  0.51100000000E-03 0.  1.
         11   -1    0    0    0    0 -0.00000000000E+00 -0.00000000000E+00 -0.45593999997E+02  0.45594000000E+02  0.51100000000E-03 0. -1.
    9900012    2    1    2    0    0  0.97309799786E-02  0.47515990758E-01  0.11793007096E+01  0.90007702315E+02  0.89999963186E+02 0.  0.
         12    1    1    2    0    0 -0.97309799786E-02 -0.47515990758E-01 -0.11793007096E+01  0.11802976849E+01  0.00000000000E+00 0. -1.
         11    1    3    3    0    0 -0.22244778486E+01  0.31872921123E+01  0.75230417082E+01  0.84677794912E+01  0.51100000000E-03 0. -1.
        -11    1    3    3    0    0 -0.12044927596E+02  0.23150891971E+01  0.35198723404E+02  0.37274522777E+02  0.51100000000E-03 0.  1.
         12    1    3    3    0    0  0.14279136425E+02 -0.54548653187E+01 -0.41542464402E+02  0.44265400047E+02  0.00000000000E+00 0. -1.
</event>
<event>
 7    1  0.1698110E-015  0.9000767E+02  0.7816164E-02  0.1186339E+00
        -11   -1    0    0    0    0  0.00000000000E+00  0.00000000000E+00  0.45593999997E+02  0.45594000000E+02  0.51100000000E-03 0.  1.
         11   -1    0    0    0    0 -0.00000000000E+00 -0.00000000000E+00 -0.45593999997E+02  0.45594000000E+02  0.51100000000E-03 0. -1.
    9900012    2    1    2    0    0  0.79343147585E-02 -0.11214655770E+01  0.36799479053E+00  0.90007674553E+02  0.89999935058E+02 0.  0.
         12    1    1    2    0    0 -0.79343147585E-02  0.11214655770E+01 -0.36799479053E+00  0.11803254465E+01  0.00000000000E+00 0. -1.
         11    1    3    3    0    0  0.22611301296E+02  0.62654094760E+01 -0.99090784107E+01  0.25469906505E+02  0.51100000000E-03 0. -1.
        -11    1    3    3    0    0  0.15134332000E+02 -0.15109981280E+02  0.14423627814E+02  0.25795359640E+02  0.51100000000E-03 0.  1.
        -12    1    3    3    0    0 -0.37737698980E+02  0.77231062266E+01 -0.41465546132E+01  0.38742408408E+02  0.00000000000E+00 0.  1.
</event>
<event>
 7    1  0.1698110E-015  0.9000779E+02  0.7816164E-02  0.1186339E+00
        -11   -1    0    0    0    0  0.00000000000E+00  0.00000000000E+00  0.45593999997E+02  0.45594000000E+02  0.51100000000E-03 0.  1.
         11   -1    0    0    0    0 -0.00000000000E+00 -0.00000000000E+00 -0.45593999997E+02  0.45594000000E+02  0.51100000000E-03 0. -1.
    9900012    2    1    2    0    0  0.91705681583E+00  0.18936489637E+00  0.71836001134E+00  0.90007790962E+02  0.90000053003E+02 0.  0.
         12    1    1    2    0    0 -0.91705681583E+00 -0.18936489637E+00 -0.71836001134E+00  0.11802090380E+01  0.00000000000E+00 0. -1.
         11    1    3    3    0    0  0.24771514813E+01 -0.16245983344E+02 -0.37703857765E+02  0.41129662592E+02  0.51100000000E-03 0. -1.
        -11    1    3    3    0    0 -0.35018314215E+01  0.95281620307E+01  0.37279657489E+00  0.10158133319E+02  0.51100000000E-03 0.  1.
        -12    1    3    3    0    0  0.19417367561E+01  0.69071862099E+01  0.38049421202E+02  0.38719995051E+02  0.00000000000E+00 0.  1.
</event>
<event>
 7    1  0.2327962E-015  0.9000737E+02  0.7816164E-02  0.1186340E+00
        -11   -1    0    0    0    0  0.00000000000E+00  0.00000000000E+00  0.45593999997E+02  0.45594000000E+02  0.51100000000E-03 0.  1.
         11   -1    0    0    0    0 -0.00000000000E+00 -0.00000000000E+00 -0.45593999997E+02  0.45594000000E+02  0.51100000000E-03 0. -1.
    9900012    2    1    2    0    0 -0.51993332062E+00 -0.17885271533E+00  0.10447811808E+01  0.90007370224E+02  0.89999626710E+02 0.  0.
         12    1    1    2    0    0  0.51993332062E+00  0.17885271533E+00 -0.10447811808E+01  0.11806297757E+01  0.00000000000E+00 0. -1.
         11    1    3    3    0    0  0.64263425438E+00  0.13239090363E+01  0.95894937691E+01  0.97017578269E+01  0.51100000000E-03 0. -1.
        -11    1    3    3    0    0 -0.29848184956E+01 -0.36709878324E+02  0.12919494891E+02  0.39031239495E+02  0.51100000000E-03 0.  1.
         12    1    3    3    0    0  0.18222509206E+01  0.35207116572E+02 -0.21464207479E+02  0.41274372902E+02  0.00000000000E+00 0. -1.
</event>
<event>
 7    1  0.1698110E-015  0.9000773E+02  0.7816164E-02  0.1186339E+00
        -11   -1    0    0    0    0  0.00000000000E+00  0.00000000000E+00  0.45593999997E+02  0.45594000000E+02  0.51100000000E-03 0.  1.
         11   -1    0    0    0    0 -0.00000000000E+00 -0.00000000000E+00 -0.45593999997E+02  0.45594000000E+02  0.51100000000E-03 0. -1.
    9900012    2    1    2    0    0 -0.23158920250E+00 -0.41897402735E+00  0.10788237944E+01  0.90007731567E+02  0.89999992824E+02 0.  0.
         12    1    1    2    0    0  0.23158920250E+00  0.41897402735E+00 -0.10788237944E+01  0.11802684329E+01  0.00000000000E+00 0. -1.
         11    1    3    3    0    0  0.50644224034E+01 -0.20171515977E+02  0.16973157986E+02  0.26844487765E+02  0.51100000000E-03 0. -1.
        -11    1    3    3    0    0  0.17008515273E+02  0.78377046253E+01  0.14456696973E+02  0.23658302839E+02  0.51100000000E-03 0.  1.
         12    1    3    3    0    0 -0.22304526879E+02  0.11914837324E+02 -0.30351031165E+02  0.39504940963E+02  0.00000000000E+00 0. -1.
</event>
<event>
 7    1  0.1698110E-015  0.9000769E+02  0.7816164E-02  0.1186339E+00
        -11   -1    0    0    0    0  0.00000000000E+00  0.00000000000E+00  0.45593999997E+02  0.45594000000E+02  0.51100000000E-03 0. -1.
         11   -1    0    0    0    0 -0.00000000000E+00 -0.00000000000E+00 -0.45593999997E+02  0.45594000000E+02  0.51100000000E-03 0.  1.
    9900012    2    1    2    0    0  0.20779119838E+00  0.11073024832E+01 -0.35189622995E+00  0.90007692020E+02  0.89999952755E+02 0.  0.
         12    1    1    2    0    0 -0.20779119838E+00 -0.11073024832E+01  0.35189622995E+00  0.11803079801E+01  0.00000000000E+00 0. -1.
         11    1    3    3    0    0 -0.80834484896E+01 -0.71527815738E+00 -0.44531243378E+01  0.92565695025E+01  0.51100000000E-03 0. -1.
        -11    1    3    3    0    0  0.44106577185E+02 -0.16315162929E+01 -0.23351568813E+01  0.44198472307E+02  0.51100000000E-03 0.  1.
         12    1    3    3    0    0 -0.35815337497E+02  0.34540969334E+01  0.64363849891E+01  0.36552650210E+02  0.00000000000E+00 0. -1.
</event>
<event>
 7    1  0.1698110E-015  0.9000774E+02  0.7816164E-02  0.1186339E+00
        -11   -1    0    0    0    0  0.00000000000E+00  0.00000000000E+00  0.45593999997E+02  0.45594000000E+02  0.51100000000E-03 0.  1.
         11   -1    0    0    0    0 -0.00000000000E+00 -0.00000000000E+00 -0.45593999997E+02  0.45594000000E+02  0.51100000000E-03 0. -1.
    9900012    2    1    2    0    0  0.97569093614E+00  0.19130862134E+00  0.63595810236E+00  0.90007739648E+02  0.90000001011E+02 0.  0.
         12    1    1    2    0    0 -0.97569093614E+00 -0.19130862134E+00 -0.63595810236E+00  0.11802603524E+01  0.00000000000E+00 0. -1.
         11    1    3    3    0    0 -0.91084631702E+01  0.18040265250E+02 -0.33297399574E+02  0.38950379848E+02  0.51100000000E-03 0. -1.
        -11    1    3    3    0    0 -0.54517168576E+00 -0.74698594773E+01 -0.52537645625E+01  0.91486641165E+01  0.51100000000E-03 0.  1.
        -12    1    3    3    0    0  0.10629325792E+02 -0.10379097152E+02  0.39187122239E+02  0.41908695683E+02  0.00000000000E+00 0.  1.
</event>
<event>
 7    1  0.1698110E-015  0.9000773E+02  0.7816164E-02  0.1186339E+00
        -11   -1    0    0    0    0  0.00000000000E+00  0.00000000000E+00  0.45593999997E+02  0.45594000000E+02  0.51100000000E-03 0. -1.
         11   -1    0    0    0    0 -0.00000000000E+00 -0.00000000000E+00 -0.45593999997E+02  0.45594000000E+02  0.51100000000E-03 0.  1.
    9900012    2    1    2    0    0  0.82021846910E+00 -0.30057410912E+00 -0.79368950525E+00  0.90007726234E+02  0.89999987420E+02 0.  0.
         12    1    1    2    0    0 -0.82021846910E+00  0.30057410912E+00  0.79368950525E+00  0.11802737661E+01  0.00000000000E+00 0. -1.
         11    1    3    3    0    0  0.23363030243E+02 -0.18226511145E+02 -0.41980816225E+01  0.29927592289E+02  0.51100000000E-03 0. -1.
        -11    1    3    3    0    0  0.81365950001E+01  0.11165344869E+02 -0.17536604472E+02  0.22324909874E+02  0.51100000000E-03 0.  1.
        -12    1    3    3    0    0 -0.30679406774E+02  0.67605921668E+01  0.20940996589E+02  0.37755224070E+02  0.00000000000E+00 0.  1.
</event>
<event>
 7    1  0.1698110E-015  0.9000775E+02  0.7816164E-02  0.1186339E+00
        -11   -1    0    0    0    0  0.00000000000E+00  0.00000000000E+00  0.45593999997E+02  0.45594000000E+02  0.51100000000E-03 0.  1.
         11   -1    0    0    0    0 -0.00000000000E+00 -0.00000000000E+00 -0.45593999997E+02  0.45594000000E+02  0.51100000000E-03 0. -1.
    9900012    2    1    2    0    0  0.10099045754E+01 -0.18832781107E+00  0.58105053581E+00  0.90007748187E+02  0.90000009664E+02 0.  0.
         12    1    1    2    0    0 -0.10099045754E+01  0.18832781107E+00 -0.58105053581E+00  0.11802518125E+01  0.00000000000E+00 0. -1.
         11    1    3    3    0    0  0.23537870446E+01  0.85668835566E+01  0.11789896000E+01  0.89622443652E+01  0.51100000000E-03 0. -1.
        -11    1    3    3    0    0  0.34383992853E+01  0.35734463581E+02  0.37197714322E+01  0.36091705098E+02  0.51100000000E-03 0.  1.
         12    1    3    3    0    0 -0.47822817546E+01 -0.44489674949E+02 -0.43177104964E+01  0.44953798725E+02  0.00000000000E+00 0. -1.
</event>
<event>
 7    1  0.1698110E-015  0.9000772E+02  0.7816164E-02  0.1186339E+00
        -11   -1    0    0    0    0  0.00000000000E+00  0.00000000000E+00  0.45593999997E+02  0.45594000000E+02  0.51100000000E-03 0. -1.
         11   -1    0    0    0    0 -0.00000000000E+00 -0.00000000000E+00 -0.45593999997E+02  0.45594000000E+02  0.51100000000E-03 0.  1.
    9900012    2    1    2    0    0  0.71343195487E+00 -0.93505979610E+00 -0.98665637916E-01  0.90007721692E+02  0.89999982818E+02 0.  0.
         12    1    1    2    0    0 -0.71343195487E+00  0.93505979610E+00  0.98665637916E-01  0.11802783081E+01  0.00000000000E+00 0. -1.
         11    1    3    3    0    0  0.68357077017E+01  0.63684033381E+01  0.24840335443E+00  0.93458635421E+01  0.51100000000E-03 0. -1.
        -11    1    3    3    0    0 -0.25431517766E+02  0.29199671988E+02 -0.52503217712E+01  0.39076192484E+02  0.51100000000E-03 0.  1.
         12    1    3    3    0    0  0.19309242019E+02 -0.36503135122E+02  0.49032527789E+01  0.41585665666E+02  0.00000000000E+00 0. -1.
</event>
<event>
 7    1  0.1698110E-015  0.9000780E+02  0.7816164E-02  0.1186339E+00
        -11   -1    0    0    0    0  0.00000000000E+00  0.00000000000E+00  0.45593999997E+02  0.45594000000E+02  0.51100000000E-03 0. -1.
         11   -1    0    0    0    0 -0.00000000000E+00 -0.00000000000E+00 -0.45593999997E+02  0.45594000000E+02  0.51100000000E-03 0.  1.
    9900012    2    1    2    0    0 -0.76608906949E+00 -0.40488924926E+00 -0.80128337500E+00  0.90007795436E+02  0.90000057535E+02 0.  0.
         12    1    1    2    0    0  0.76608906949E+00  0.40488924926E+00  0.80128337500E+00  0.11802045643E+01  0.00000000000E+00 0. -1.
         11    1    3    3    0    0  0.28228264191E+02  0.11533289076E+02  0.17554456977E+02  0.35185375032E+02  0.51100000000E-03 0. -1.
        -11    1    3    3    0    0  0.20067439863E+01  0.71794935585E+01  0.71725494386E+01  0.10344931846E+02  0.51100000000E-03 0.  1.
        -12    1    3    3    0    0 -0.31001097247E+02 -0.19117671884E+02 -0.25528289790E+02  0.44477488558E+02  0.00000000000E+00 0.  1.
</event>
<event>
 7    1  0.1698110E-015  0.9000772E+02  0.7816164E-02  0.1186339E+00
        -11   -1    0    0    0    0  0.00000000000E+00  0.00000000000E+00  0.45593999997E+02  0.45594000000E+02  0.51100000000E-03 0.  1.
         11   -1    0    0    0    0 -0.00000000000E+00 -0.00000000000E+00 -0.45593999997E+02  0.45594000000E+02  0.51100000000E-03 0. -1.
    9900012    2    1    2    0    0 -0.84512950657E+00  0.78259713707E+00  0.25761181598E+00  0.90007717826E+02  0.89999978902E+02 0.  0.
         12    1    1    2    0    0  0.84512950657E+00 -0.78259713707E+00 -0.25761181598E+00  0.11802821737E+01  0.00000000000E+00 0. -1.
         11    1    3    3    0    0 -0.17783233011E+02  0.17178370134E+02 -0.30397958367E+02  0.39183869767E+02  0.51100000000E-03 0. -1.
        -11    1    3    3    0    0  0.98074715084E+01 -0.60756503162E+01 -0.53344133471E+01  0.12710467740E+02  0.51100000000E-03 0.  1.
        -12    1    3    3    0    0  0.71306319958E+01 -0.10320122681E+02  0.35989983530E+02  0.38113380319E+02  0.00000000000E+00 0.  1.
</event>
<event>
 7    1  0.1698110E-015  0.9000786E+02  0.7816164E-02  0.1186339E+00
        -11   -1    0    0    0    0  0.00000000000E+00  0.00000000000E+00  0.45593999997E+02  0.45594000000E+02  0.51100000000E-03 0. -1.
         11   -1    0    0    0    0 -0.00000000000E+00 -0.00000000000E+00 -0.45593999997E+02  0.45594000000E+02  0.51100000000E-03 0.  1.
    9900012    2    1    2    0    0 -0.10809498907E+01 -0.40489993932E+00 -0.24561608907E+00  0.90007862766E+02  0.90000125755E+02 0.  0.
         12    1    1    2    0    0  0.10809498907E+01  0.40489993932E+00  0.24561608907E+00  0.11801372336E+01  0.00000000000E+00 0. -1.
         11    1    3    3    0    0 -0.43252636792E+01  0.77397252318E+01 -0.57790615233E+01  0.10583421229E+02  0.51100000000E-03 0. -1.
        -11    1    3    3    0    0 -0.35762539137E+02  0.86001326218E+01  0.24554562728E+01  0.36863949224E+02  0.51100000000E-03 0.  1.
         12    1    3    3    0    0  0.39006852925E+02 -0.16744757793E+02  0.30779891615E+01  0.42560492313E+02  0.00000000000E+00 0. -1.
</event>
<event>
 7    1  0.1698110E-015  0.9000778E+02  0.7816164E-02  0.1186339E+00
        -11   -1    0    0    0    0  0.00000000000E+00  0.00000000000E+00  0.45593999997E+02  0.45594000000E+02  0.51100000000E-03 0.  1.
         11   -1    0    0    0    0 -0.00000000000E+00 -0.00000000000E+00 -0.45593999997E+02  0.45594000000E+02  0.51100000000E-03 0. -1.
    9900012    2    1    2    0    0  0.10876007829E+01 -0.43521107913E+00 -0.14362538603E+00  0.90007782902E+02  0.90000044837E+02 0.  0.
         12    1    1    2    0    0 -0.10876007829E+01  0.43521107913E+00  0.14362538603E+00  0.11802170978E+01  0.00000000000E+00 0. -1.
         11    1    3    3    0    0 -0.16135242532E+02 -0.55621514777E+01 -0.29879666276E+02  0.34410435011E+02  0.51100000000E-03 0. -1.
        -11    1    3    3    0    0 -0.84595255477E+01  0.89783211019E+00 -0.66936199305E+01  0.10824704293E+02  0.51100000000E-03 0.  1.
        -12    1    3    3    0    0  0.25682368863E+02  0.42291082884E+01  0.36429660820E+02  0.44772643598E+02  0.00000000000E+00 0.  1.
</event>
<event>
 7    1  0.1698110E-015  0.9000768E+02  0.7816164E-02  0.1186339E+00
        -11   -1    0    0    0    0  0.00000000000E+00  0.00000000000E+00  0.45593999997E+02  0.45594000000E+02  0.51100000000E-03 0. -1.
         11   -1    0    0    0    0 -0.00000000000E+00 -0.00000000000E+00 -0.45593999997E+02  0.45594000000E+02  0.51100000000E-03 0.  1.
    9900012    2    1    2    0    0 -0.22167068065E+00  0.10967610147E+01 -0.37568658251E+00  0.90007676730E+02  0.89999937263E+02 0.  0.
         12    1    1    2    0    0  0.22167068065E+00 -0.10967610147E+01  0.37568658251E+00  0.11803232703E+01  0.00000000000E+00 0. -1.
         11    1    3    3    0    0 -0.15464799012E+02  0.93123979377E+01  0.37823975138E+02  0.41911023125E+02  0.51100000000E-03 0. -1.
        -11    1    3    3    0    0 -0.49125047950E+01 -0.70030078786E+01 -0.76439444455E+01  0.11471909591E+02  0.51100000000E-03 0.  1.
        -12    1    3    3    0    0  0.20155633127E+02 -0.12126290443E+01 -0.30555717275E+02  0.36624744015E+02  0.00000000000E+00 0.  1.
</event>
<event>
 7    1  0.1698110E-015  0.9000772E+02  0.7816164E-02  0.1186339E+00
        -11   -1    0    0    0    0  0.00000000000E+00  0.00000000000E+00  0.45593999997E+02  0.45594000000E+02  0.51100000000E-03 0.  1.
         11   -1    0    0    0    0 -0.00000000000E+00 -0.00000000000E+00 -0.45593999997E+02  0.45594000000E+02  0.51100000000E-03 0. -1.
    9900012    2    1    2    0    0  0.35801876901E-02  0.39795721058E+00  0.11111597069E+01  0.90007720943E+02  0.89999982059E+02 0.  0.
         12    1    1    2    0    0 -0.35801876901E-02 -0.39795721058E+00 -0.11111597069E+01  0.11802790574E+01  0.00000000000E+00 0. -1.
         11    1    3    3    0    0 -0.33288429835E+01 -0.47216379383E+01  0.65666831573E+01  0.87462213772E+01  0.51100000000E-03 0. -1.
        -11    1    3    3    0    0  0.31532816074E+02  0.81309890141E+00  0.24466516271E+02  0.39919795066E+02  0.51100000000E-03 0.  1.
         12    1    3    3    0    0 -0.28200392903E+02  0.43064962475E+01 -0.29922039722E+02  0.41341704499E+02  0.00000000000E+00 0. -1.
</event>
<event>
 7    1  0.1826497E-015  0.9000759E+02  0.7816164E-02  0.1186339E+00
        -11   -1    0    0    0    0  0.00000000000E+00  0.00000000000E+00  0.45593999997E+02  0.45594000000E+02  0.51100000000E-03 0. -1.
         11   -1    0    0    0    0 -0.00000000000E+00 -0.00000000000E+00 -0.45593999997E+02  0.45594000000E+02  0.51100000000E-03 0.  1.
    9900012    2    1    2    0    0 -0.97726106001E+00 -0.58062273610E+00  0.31811859806E+00  0.90007592704E+02  0.89999852128E+02 0.  0.
         12    1    1    2    0    0  0.97726106001E+00  0.58062273610E+00 -0.31811859806E+00  0.11804072956E+01  0.00000000000E+00 0. -1.
         11    1    3    3    0    0 -0.58982433652E+01 -0.68511101633E+01  0.44970913006E+01  0.10097069659E+02  0.51100000000E-03 0. -1.
        -11    1    3    3    0    0 -0.30585121217E+02 -0.18569814696E+02  0.33159063202E+01  0.35934424897E+02  0.51100000000E-03 0.  1.
         12    1    3    3    0    0  0.35506103522E+02  0.24840302123E+02 -0.74948790228E+01  0.43976098149E+02  0.00000000000E+00 0. -1.
</event>
<event>
 7    1  0.1698110E-015  0.9000774E+02  0.7816164E-02  0.1186339E+00
        -11   -1    0    0    0    0  0.00000000000E+00  0.00000000000E+00  0.45593999997E+02  0.45594000000E+02  0.51100000000E-03 0.  1.
         11   -1    0    0    0    0 -0.00000000000E+00 -0.00000000000E+00 -0.45593999997E+02  0.45594000000E+02  0.51100000000E-03 0. -1.
    9900012    2    1    2    0    0  0.90816193743E+00  0.55716911875E+00 -0.50775842697E+00  0.90007739795E+02  0.90000001160E+02 0.  0.
         12    1    1    2    0    0 -0.90816193743E+00 -0.55716911875E+00  0.50775842697E+00  0.11802602051E+01  0.00000000000E+00 0. -1.
         11    1    3    3    0    0 -0.82621173046E+01  0.40481252737E+01  0.32620783597E+01  0.97617137877E+01  0.51100000000E-03 0. -1.
        -11    1    3    3    0    0 -0.34787312212E+02  0.19428602430E+01  0.46819288588E+01  0.35154690369E+02  0.51100000000E-03 0.  1.
         12    1    3    3    0    0  0.43957591454E+02 -0.54338163979E+01 -0.84517656455E+01  0.45091335638E+02  0.00000000000E+00 0. -1.
</event>
<event>
 7    1  0.1698110E-015  0.9000765E+02  0.7816164E-02  0.1186339E+00
        -11   -1    0    0    0    0  0.00000000000E+00  0.00000000000E+00  0.45593999997E+02  0.45594000000E+02  0.51100000000E-03 0.  1.
         11   -1    0    0    0    0 -0.00000000000E+00 -0.00000000000E+00 -0.45593999997E+02  0.45594000000E+02  0.51100000000E-03 0. -1.
    9900012    2    1    2    0    0 -0.94450952336E+00  0.66598613527E+00  0.23997701099E+00  0.90007650587E+02  0.89999910774E+02 0.  0.
         12    1    1    2    0    0  0.94450952336E+00 -0.66598613527E+00 -0.23997701099E+00  0.11803494135E+01  0.00000000000E+00 0. -1.
         11    1    3    3    0    0  0.11803023365E+02  0.12484104452E+01 -0.31297909453E+02  0.33472810243E+02  0.51100000000E-03 0. -1.
        -11    1    3    3    0    0  0.22956213655E+01  0.52612659634E+01 -0.10245033602E+02  0.11743573168E+02  0.51100000000E-03 0.  1.
        -12    1    3    3    0    0 -0.15043154254E+02 -0.58436902733E+01  0.41782920066E+02  0.44791267175E+02  0.00000000000E+00 0.  1.
</event>
<event>
 7    1  0.1698110E-015  0.9000774E+02  0.7816164E-02  0.1186339E+00
        -11   -1    0    0    0    0  0.00000000000E+00  0.00000000000E+00  0.45593999997E+02  0.45594000000E+02  0.51100000000E-03 0.  1.
         11   -1    0    0    0    0 -0.00000000000E+00 -0.00000000000E+00 -0.45593999997E+02  0.45594000000E+02  0.51100000000E-03 0. -1.
    9900012    2    1    2    0    0 -0.71579838710E+00  0.92318954321E+00  0.16839857382E+00  0.90007743950E+02  0.90000005370E+02 0.  0.
         12    1    1    2    0    0  0.71579838710E+00 -0.92318954321E+00 -0.16839857382E+00  0.11802560499E+01  0.00000000000E+00 0. -1.
         11    1    3    3    0    0 -0.12501394695E+01  0.56341273142E+01 -0.57834186698E+01  0.81703225798E+01  0.51100000000E-03 0. -1.
        -11    1    3    3    0    0 -0.45810194658E+00  0.32133521492E+02 -0.18995033004E+02  0.37330742559E+02  0.51100000000E-03 0.  1.
         12    1    3    3    0    0  0.99244302899E+00 -0.36844459264E+02  0.24946850247E+02  0.44506678812E+02  0.00000000000E+00 0. -1.
</event>
<event>
 7    1  0.1698110E-015  0.9000774E+02  0.7816164E-02  0.1186339E+00
        -11   -1    0    0    0    0  0.00000000000E+00  0.00000000000E+00  0.45593999997E+02  0.45594000000E+02  0.51100000000E-03 0. -1.
         11   -1    0    0    0    0 -0.00000000000E+00 -0.00000000000E+00 -0.45593999997E+02  0.45594000000E+02  0.51100000000E-03 0.  1.
    9900012    2    1    2    0    0 -0.61386169196E+00  0.44894675339E+00 -0.90257110833E+00  0.90007739872E+02  0.90000001238E+02 0.  0.
         12    1    1    2    0    0  0.61386169196E+00 -0.44894675339E+00  0.90257110833E+00  0.11802601280E+01  0.00000000000E+00 0. -1.
         11    1    3    3    0    0 -0.10944493137E+02  0.27305690060E+02  0.16249366027E+02  0.33606912031E+02  0.51100000000E-03 0. -1.
        -11    1    3    3    0    0 -0.65202824957E+01  0.96236454209E+01  0.21494032555E+01  0.11821529919E+02  0.51100000000E-03 0.  1.
        -12    1    3    3    0    0  0.16850913940E+02 -0.36480388728E+02 -0.19301340391E+02  0.44579297922E+02  0.00000000000E+00 0.  1.
</event>
<event>
 7    1  0.1698110E-015  0.9000782E+02  0.7816164E-02  0.1186339E+00
        -11   -1    0    0    0    0  0.00000000000E+00  0.00000000000E+00  0.45593999997E+02  0.45594000000E+02  0.51100000000E-03 0. -1.
         11   -1    0    0    0    0 -0.00000000000E+00 -0.00000000000E+00 -0.45593999997E+02  0.45594000000E+02  0.51100000000E-03 0.  1.
    9900012    2    1    2    0    0  0.37863489795E+00  0.92928344160E+00  0.62119984836E+00  0.90007821474E+02  0.90000083918E+02 0.  0.
         12    1    1    2    0    0 -0.37863489795E+00 -0.92928344160E+00 -0.62119984836E+00  0.11801785256E+01  0.00000000000E+00 0. -1.
         11    1    3    3    0    0 -0.24502310156E+02  0.28108630291E+02 -0.11979091616E+01  0.37308086073E+02  0.51100000000E-03 0. -1.
        -11    1    3    3    0    0 -0.16519112270E+01  0.64783616177E+01 -0.61764398314E+01  0.91019991872E+01  0.51100000000E-03 0.  1.
        -12    1    3    3    0    0  0.26532856281E+02 -0.33657708468E+02  0.79955488413E+01  0.43597736214E+02  0.00000000000E+00 0.  1.
</event>
<event>
 7    1  0.1698110E-015  0.9000770E+02  0.7816164E-02  0.1186339E+00
        -11   -1    0    0    0    0  0.00000000000E+00  0.00000000000E+00  0.45593999997E+02  0.45594000000E+02  0.51100000000E-03 0. -1.
         11   -1    0    0    0    0 -0.00000000000E+00 -0.00000000000E+00 -0.45593999997E+02  0.45594000000E+02  0.51100000000E-03 0.  1.
    9900012    2    1    2    0    0  0.94594001633E+00 -0.56384396001E+00  0.42472400359E+00  0.90007697918E+02  0.89999958730E+02 0.  0.
         12    1    1    2    0    0 -0.94594001633E+00  0.56384396001E+00 -0.42472400359E+00  0.11803020821E+01  0.00000000000E+00 0. -1.
         11    1    3    3    0    0 -0.29698379534E+01 -0.26346408201E+02  0.24936916576E+02  0.36397842947E+02  0.51100000000E-03 0. -1.
        -11    1    3    3    0    0  0.40004699314E+01 -0.94444365246E+01  0.71452510584E+00  0.10281618906E+02  0.51100000000E-03 0.  1.
        -12    1    3    3    0    0 -0.84691961721E-01  0.35227000766E+02 -0.25226717679E+02  0.43328236065E+02  0.00000000000E+00 0.  1.
</event>
<event>
 7    1  0.1698110E-015  0.9000774E+02  0.7816164E-02  0.1186339E+00
        -11   -1    0    0    0    0  0.00000000000E+00  0.00000000000E+00  0.45593999997E+02  0.45594000000E+02  0.51100000000E-03 0.  1.
         11   -1    0    0    0    0 -0.00000000000E+00 -0.00000000000E+00 -0.45593999997E+02  0.45594000000E+02  0.51100000000E-03 0. -1.
    9900012    2    1    2    0    0  0.25856644243E+00 -0.52900854980E+00  0.10228908067E+01  0.90007740599E+02  0.90000001975E+02 0.  0.
         12    1    1    2    0    0 -0.25856644243E+00  0.52900854980E+00 -0.10228908067E+01  0.11802594008E+01  0.00000000000E+00 0. -1.
         11    1    3    3    0    0 -0.16399973660E+01  0.67102758987E+01  0.36803840854E+02  0.37446496443E+02  0.51100000000E-03 0. -1.
        -11    1    3    3    0    0 -0.63956764461E+01 -0.11025990712E+01  0.64130918369E+01  0.91240423653E+01  0.51100000000E-03 0.  1.
        -12    1    3    3    0    0  0.82942402545E+01 -0.61366853773E+01 -0.42194041885E+02  0.43437201790E+02  0.00000000000E+00 0.  1.
</event>
<event>
 7    1  0.1698110E-015  0.9000771E+02  0.7816164E-02  0.1186339E+00
        -11   -1    0    0    0    0  0.00000000000E+00  0.00000000000E+00  0.45593999997E+02  0.45594000000E+02  0.51100000000E-03 0.  1.
         11   -1    0    0    0    0 -0.00000000000E+00 -0.00000000000E+00 -0.45593999997E+02  0.45594000000E+02  0.51100000000E-03 0. -1.
    9900012    2    1    2    0    0  0.12501970446E+00 -0.83961790098E+00  0.82005722984E+00  0.90007711050E+02  0.89999972035E+02 0.  0.
         12    1    1    2    0    0 -0.12501970446E+00  0.83961790098E+00 -0.82005722984E+00  0.11802889504E+01  0.00000000000E+00 0. -1.
         11    1    3    3    0    0  0.54321457262E+01 -0.54834182944E+01 -0.35698394150E+02  0.36523299804E+02  0.51100000000E-03 0. -1.
        -11    1    3    3    0    0 -0.62794839160E+01 -0.90137804846E+00 -0.70901481285E+01  0.95139161959E+01  0.51100000000E-03 0.  1.
        -12    1    3    3    0    0  0.97235789431E+00  0.55451784419E+01  0.43608599509E+02  0.43970495050E+02  0.00000000000E+00 0.  1.
</event>
<event>
 7    1  0.1698110E-015  0.9000783E+02  0.7816164E-02  0.1186339E+00
        -11   -1    0    0    0    0  0.00000000000E+00  0.00000000000E+00  0.45593999997E+02  0.45594000000E+02  0.51100000000E-03 0. -1.
         11   -1    0    0    0    0 -0.00000000000E+00 -0.00000000000E+00 -0.45593999997E+02  0.45594000000E+02  0.51100000000E-03 0.  1.
    9900012    2    1    2    0    0  0.46281952853E+00 -0.10793743642E+01 -0.11636087495E+00  0.90007834424E+02  0.90000097038E+02 0.  0.
         12    1    1    2    0    0 -0.46281952853E+00  0.10793743642E+01  0.11636087495E+00  0.11801655762E+01  0.00000000000E+00 0. -1.
         11    1    3    3    0    0  0.40948768272E+02  0.29309330304E+01 -0.52384538465E+01  0.41386391367E+02  0.51100000000E-03 0. -1.
        -11    1    3    3    0    0 -0.16603305741E+01 -0.51779742825E+00  0.92582979116E+01  0.94202384403E+01  0.51100000000E-03 0.  1.
        -12    1    3    3    0    0 -0.38825618169E+02 -0.34925099663E+01 -0.41362049400E+01  0.39201204617E+02  0.00000000000E+00 0.  1.
</event>
<event>
 7    1  0.1698110E-015  0.9000773E+02  0.7816164E-02  0.1186339E+00
        -11   -1    0    0    0    0  0.00000000000E+00  0.00000000000E+00  0.45593999997E+02  0.45594000000E+02  0.51100000000E-03 0.  1.
         11   -1    0    0    0    0 -0.00000000000E+00 -0.00000000000E+00 -0.45593999997E+02  0.45594000000E+02  0.51100000000E-03 0. -1.
    9900012    2    1    2    0    0  0.46895551356E-01 -0.12972742560E+00 -0.11721830557E+01  0.90007728203E+02  0.89999989416E+02 0.  0.
         12    1    1    2    0    0 -0.46895551356E-01  0.12972742560E+00  0.11721830557E+01  0.11802717965E+01  0.00000000000E+00 0. -1.
         11    1    3    3    0    0 -0.57924866088E+01  0.24270480943E+02 -0.25855351457E+02  0.35931996125E+02  0.51100000000E-03 0. -1.
        -11    1    3    3    0    0 -0.58692281962E+01  0.72086275493E+01 -0.37045394252E+01  0.10006785866E+02  0.51100000000E-03 0.  1.
        -12    1    3    3    0    0  0.11708610356E+02 -0.31608835918E+02  0.28387707827E+02  0.44068946212E+02  0.00000000000E+00 0.  1.
</event>
<event>
 7    1  0.1698110E-015  0.9000773E+02  0.7816164E-02  0.1186339E+00
        -11   -1    0    0    0    0  0.00000000000E+00  0.00000000000E+00  0.45593999997E+02  0.45594000000E+02  0.51100000000E-03 0. -1.
         11   -1    0    0    0    0 -0.00000000000E+00 -0.00000000000E+00 -0.45593999997E+02  0.45594000000E+02  0.51100000000E-03 0.  1.
    9900012    2    1    2    0    0 -0.16046543724E+00  0.10245335936E+01 -0.56357799415E+00  0.90007729524E+02  0.89999990754E+02 0.  0.
         12    1    1    2    0    0  0.16046543724E+00 -0.10245335936E+01  0.56357799415E+00  0.11802704760E+01  0.00000000000E+00 0. -1.
         11    1    3    3    0    0  0.23676539689E+02 -0.14989507961E+02  0.20000197129E+02  0.34427776083E+02  0.51100000000E-03 0. -1.
        -11    1    3    3    0    0  0.76736671622E+01  0.19892759408E+01  0.76522077280E+01  0.11018106455E+02  0.51100000000E-03 0.  1.
        -12    1    3    3    0    0 -0.31510672288E+02  0.14024765614E+02 -0.28215982851E+02  0.44561846986E+02  0.00000000000E+00 0.  1.
</event>
<event>
 7    1  0.1698110E-015  0.9000781E+02  0.7816164E-02  0.1186339E+00
        -11   -1    0    0    0    0  0.00000000000E+00  0.00000000000E+00  0.45593999997E+02  0.45594000000E+02  0.51100000000E-03 0. -1.
         11   -1    0    0    0    0 -0.00000000000E+00 -0.00000000000E+00 -0.45593999997E+02  0.45594000000E+02  0.51100000000E-03 0.  1.
    9900012    2    1    2    0    0 -0.35675175057E+00  0.10350144520E+01 -0.44082947282E+00  0.90007806223E+02  0.90000068465E+02 0.  0.
         12    1    1    2    0    0  0.35675175057E+00 -0.10350144520E+01  0.44082947282E+00  0.11801937771E+01  0.00000000000E+00 0. -1.
         11    1    3    3    0    0  0.22841109426E+02 -0.22776041326E+02  0.14619786366E+02  0.35414721402E+02  0.51100000000E-03 0. -1.
        -11    1    3    3    0    0  0.65446246627E+01 -0.62433727369E+01  0.15260241172E+01  0.91728166325E+01  0.51100000000E-03 0.  1.
        -12    1    3    3    0    0 -0.29742485840E+02  0.30054428515E+02 -0.16586639956E+02  0.45420268189E+02  0.00000000000E+00 0.  1.
</event>
<event>
 7    1  0.1698110E-015  0.9000779E+02  0.7816164E-02  0.1186339E+00
        -11   -1    0    0    0    0  0.00000000000E+00  0.00000000000E+00  0.45593999997E+02  0.45594000000E+02  0.51100000000E-03 0. -1.
         11   -1    0    0    0    0 -0.00000000000E+00 -0.00000000000E+00 -0.45593999997E+02  0.45594000000E+02  0.51100000000E-03 0.  1.
    9900012    2    1    2    0    0 -0.35749556206E+00 -0.77877493645E+00 -0.81154557125E+00  0.90007788285E+02  0.90000050290E+02 0.  0.
         12    1    1    2    0    0  0.35749556206E+00  0.77877493645E+00  0.81154557125E+00  0.11802117152E+01  0.00000000000E+00 0. -1.
         11    1    3    3    0    0  0.33956456043E+02 -0.11801147931E+02 -0.95924045754E+01  0.37206480958E+02  0.51100000000E-03 0. -1.
        -11    1    3    3    0    0  0.63381738740E+01 -0.93553266020E+00 -0.51240224590E+01  0.82038573755E+01  0.51100000000E-03 0.  1.
        -12    1    3    3    0    0 -0.40652125479E+02  0.11957905655E+02  0.13904881463E+02  0.44597449951E+02  0.00000000000E+00 0.  1.
</event>
<event>
 7    1  0.1698110E-015  0.9000772E+02  0.7816164E-02  0.1186339E+00
        -11   -1    0    0    0    0  0.00000000000E+00  0.00000000000E+00  0.45593999997E+02  0.45594000000E+02  0.51100000000E-03 0.  1.
         11   -1    0    0    0    0 -0.00000000000E+00 -0.00000000000E+00 -0.45593999997E+02  0.45594000000E+02  0.51100000000E-03 0. -1.
    9900012    2    1    2    0    0 -0.13006147014E+00 -0.31318330594E+00  0.11305165017E+01  0.90007717267E+02  0.89999978335E+02 0.  0.
         12    1    1    2    0    0  0.13006147014E+00  0.31318330594E+00 -0.11305165017E+01  0.11802827329E+01  0.00000000000E+00 0. -1.
         11    1    3    3    0    0 -0.28174456223E+02  0.56880380480E+01  0.24236847432E+02  0.37597586811E+02  0.51100000000E-03 0. -1.
        -11    1    3    3    0    0  0.49585451637E+01 -0.82084651803E+01  0.87665498386E+01  0.12993016089E+02  0.51100000000E-03 0.  1.
        -12    1    3    3    0    0  0.23085849589E+02  0.22072438263E+01 -0.31872880769E+02  0.39417114367E+02  0.00000000000E+00 0.  1.
</event>
<event>
 7    1  0.1698110E-015  0.9000775E+02  0.7816164E-02  0.1186339E+00
        -11   -1    0    0    0    0  0.00000000000E+00  0.00000000000E+00  0.45593999997E+02  0.45594000000E+02  0.51100000000E-03 0. -1.
         11   -1    0    0    0    0 -0.00000000000E+00 -0.00000000000E+00 -0.45593999997E+02  0.45594000000E+02  0.51100000000E-03 0.  1.
    9900012    2    1    2    0    0  0.72781608417E+00 -0.56574379969E+00 -0.73702934482E+00  0.90007748097E+02  0.90000009572E+02 0.  0.
         12    1    1    2    0    0 -0.72781608417E+00  0.56574379969E+00  0.73702934482E+00  0.11802519029E+01  0.00000000000E+00 0. -1.
         11    1    3    3    0    0  0.27029881752E+01 -0.43110259597E+02 -0.10061414627E+02  0.44351242284E+02  0.51100000000E-03 0. -1.
        -11    1    3    3    0    0 -0.12201351338E+01  0.56595599707E+01  0.64270607293E+01  0.86502288228E+01  0.51100000000E-03 0.  1.
        -12    1    3    3    0    0 -0.75503695722E+00  0.36884955826E+02  0.28973245526E+01  0.37006276990E+02  0.00000000000E+00 0.  1.
</event>
<event>
 7    1  0.1698110E-015  0.9000798E+02  0.7816164E-02  0.1186339E+00
        -11   -1    0    0    0    0  0.00000000000E+00  0.00000000000E+00  0.45593999997E+02  0.45594000000E+02  0.51100000000E-03 0. -1.
         11   -1    0    0    0    0 -0.00000000000E+00 -0.00000000000E+00 -0.45593999997E+02  0.45594000000E+02  0.51100000000E-03 0.  1.
    9900012    2    1    2    0    0 -0.68971911038E-01 -0.11496851852E+01  0.25675829382E+00  0.90007975436E+02  0.90000239912E+02 0.  0.
         12    1    1    2    0    0  0.68971911038E-01  0.11496851852E+01 -0.25675829382E+00  0.11800245637E+01  0.00000000000E+00 0. -1.
         11    1    3    3    0    0  0.24892705550E+02  0.10315554427E+01 -0.10142402890E+02  0.26899428114E+02  0.51100000000E-03 0. -1.
        -11    1    3    3    0    0  0.16401830250E+02  0.67832992548E+01  0.10811552328E+02  0.20782753628E+02  0.51100000000E-03 0.  1.
         12    1    3    3    0    0 -0.41363507711E+02 -0.89645398826E+01 -0.41239114497E+00  0.42325793695E+02  0.00000000000E+00 0. -1.
</event>
<event>
 7    1  0.1698110E-015  0.9000776E+02  0.7816164E-02  0.1186339E+00
        -11   -1    0    0    0    0  0.00000000000E+00  0.00000000000E+00  0.45593999997E+02  0.45594000000E+02  0.51100000000E-03 0. -1.
         11   -1    0    0    0    0 -0.00000000000E+00 -0.00000000000E+00 -0.45593999997E+02  0.45594000000E+02  0.51100000000E-03 0.  1.
    9900012    2    1    2    0    0 -0.86644828133E+00 -0.41317747154E+00  0.68666812161E+00  0.90007762161E+02  0.90000023822E+02 0.  0.
         12    1    1    2    0    0  0.86644828133E+00  0.41317747154E+00 -0.68666812161E+00  0.11802378389E+01  0.00000000000E+00 0. -1.
         11    1    3    3    0    0  0.59485456635E+01  0.21435566968E+01 -0.56840903416E+01  0.85022887563E+01  0.51100000000E-03 0. -1.
        -11    1    3    3    0    0  0.26414634491E+02 -0.24767582592E+02 -0.11116871719E+02  0.37878105811E+02  0.51100000000E-03 0.  1.
         12    1    3    3    0    0 -0.33229628436E+02  0.22210848424E+02  0.17487630183E+02  0.43627367593E+02  0.00000000000E+00 0. -1.
</event>
<event>
 7    1  0.1698110E-015  0.9000775E+02  0.7816164E-02  0.1186339E+00
        -11   -1    0    0    0    0  0.00000000000E+00  0.00000000000E+00  0.45593999997E+02  0.45594000000E+02  0.51100000000E-03 0.  1.
         11   -1    0    0    0    0 -0.00000000000E+00 -0.00000000000E+00 -0.45593999997E+02  0.45594000000E+02  0.51100000000E-03 0. -1.
    9900012    2    1    2    0    0 -0.57681192032E+00  0.39491937360E+00  0.95095431150E+00  0.90007751126E+02  0.90000012640E+02 0.  0.
         12    1    1    2    0    0  0.57681192032E+00 -0.39491937360E+00 -0.95095431150E+00  0.11802488744E+01  0.00000000000E+00 0. -1.
         11    1    3    3    0    0  0.33795555764E+02 -0.18677339574E+02  0.10612913291E+02  0.40045181130E+02  0.51100000000E-03 0. -1.
        -11    1    3    3    0    0  0.12019377495E+01 -0.18531366916E+00 -0.94315708654E+01  0.95096542924E+01  0.51100000000E-03 0.  1.
        -12    1    3    3    0    0 -0.35574305434E+02  0.19257572616E+02 -0.23038811456E+00  0.40452915703E+02  0.00000000000E+00 0.  1.
</event>
<event>
 7    1  0.1698110E-015  0.9000776E+02  0.7816164E-02  0.1186339E+00
        -11   -1    0    0    0    0  0.00000000000E+00  0.00000000000E+00  0.45593999997E+02  0.45594000000E+02  0.51100000000E-03 0.  1.
         11   -1    0    0    0    0 -0.00000000000E+00 -0.00000000000E+00 -0.45593999997E+02  0.45594000000E+02  0.51100000000E-03 0. -1.
    9900012    2    1    2    0    0 -0.53236624033E+00  0.19316688920E+00  0.10354903545E+01  0.90007759543E+02  0.90000021169E+02 0.  0.
         12    1    1    2    0    0  0.53236624033E+00 -0.19316688920E+00 -0.10354903545E+01  0.11802404565E+01  0.00000000000E+00 0. -1.
         11    1    3    3    0    0 -0.75563647540E+01 -0.60678585487E+01  0.30589964565E+01  0.10162431562E+02  0.51100000000E-03 0. -1.
        -11    1    3    3    0    0  0.32736284652E+02 -0.23396069595E+02  0.26079198723E+01  0.40321726794E+02  0.51100000000E-03 0.  1.
         12    1    3    3    0    0 -0.25712286139E+02  0.29657095033E+02 -0.46314259742E+01  0.39523601188E+02  0.00000000000E+00 0. -1.
</event>
<event>
 7    1  0.1698110E-015  0.9000775E+02  0.7816164E-02  0.1186339E+00
        -11   -1    0    0    0    0  0.00000000000E+00  0.00000000000E+00  0.45593999997E+02  0.45594000000E+02  0.51100000000E-03 0. -1.
         11   -1    0    0    0    0 -0.00000000000E+00 -0.00000000000E+00 -0.45593999997E+02  0.45594000000E+02  0.51100000000E-03 0.  1.
    9900012    2    1    2    0    0 -0.10625503387E+01  0.32034135682E+00  0.40169073578E+00  0.90007751190E+02  0.90000012705E+02 0.  0.
         12    1    1    2    0    0  0.10625503387E+01 -0.32034135682E+00 -0.40169073578E+00  0.11802488104E+01  0.00000000000E+00 0. -1.
         11    1    3    3    0    0 -0.12970710228E+02 -0.15846715906E+02  0.34024279809E+02  0.39711576972E+02  0.51100000000E-03 0. -1.
        -11    1    3    3    0    0  0.89160672073E+01 -0.20438059903E+01  0.27141251798E+01  0.95414817049E+01  0.51100000000E-03 0.  1.
        -12    1    3    3    0    0  0.29920926817E+01  0.18210863253E+02 -0.36336714253E+02  0.40754692512E+02  0.00000000000E+00 0.  1.
</event>
<event>
 7    1  0.1698110E-015  0.9000773E+02  0.7816164E-02  0.1186339E+00
        -11   -1    0    0    0    0  0.00000000000E+00  0.00000000000E+00  0.45593999997E+02  0.45594000000E+02  0.51100000000E-03 0.  1.
         11   -1    0    0    0    0 -0.00000000000E+00 -0.00000000000E+00 -0.45593999997E+02  0.45594000000E+02  0.51100000000E-03 0. -1.
    9900012    2    1    2    0    0  0.31148707235E+00  0.13836926832E+00  0.11299854071E+01  0.90007730001E+02  0.89999991237E+02 0.  0.
         12    1    1    2    0    0 -0.31148707235E+00 -0.13836926832E+00 -0.11299854071E+01  0.11802699992E+01  0.00000000000E+00 0. -1.
         11    1    3    3    0    0  0.81830191822E+01  0.20004440600E+02 -0.30140450524E+02  0.37088895975E+02  0.51100000000E-03 0. -1.
        -11    1    3    3    0    0 -0.10397068876E+02  0.87805788246E+01  0.13175853601E+02  0.18942035901E+02  0.51100000000E-03 0.  1.
        -12    1    3    3    0    0  0.25255367660E+01 -0.28646650156E+02  0.18094582330E+02  0.33976798125E+02  0.00000000000E+00 0.  1.
</event>
<event>
 7    1  0.1698110E-015  0.9000798E+02  0.7816164E-02  0.1186339E+00
        -11   -1    0    0    0    0  0.00000000000E+00  0.00000000000E+00  0.45593999997E+02  0.45594000000E+02  0.51100000000E-03 0.  1.
         11   -1    0    0    0    0 -0.00000000000E+00 -0.00000000000E+00 -0.45593999997E+02  0.45594000000E+02  0.51100000000E-03 0. -1.
    9900012    2    1    2    0    0  0.44268289322E+00  0.96292635664E+00 -0.51888769163E+00  0.90007983157E+02  0.90000247735E+02 0.  0.
         12    1    1    2    0    0 -0.44268289322E+00 -0.96292635664E+00  0.51888769163E+00  0.11800168426E+01  0.00000000000E+00 0. -1.
         11    1    3    3    0    0 -0.28386270176E+02 -0.13991213276E+01 -0.29281204672E+02  0.40805965524E+02  0.51100000000E-03 0. -1.
        -11    1    3    3    0    0  0.78581727975E+01  0.99042804852E+00 -0.50482360843E+01  0.93923647320E+01  0.51100000000E-03 0.  1.
        -12    1    3    3    0    0  0.20970780272E+02  0.13716196357E+01  0.33810553064E+02  0.39809652902E+02  0.00000000000E+00 0.  1.
</event>
<event>
 7    1  0.1698110E-015  0.9000769E+02  0.7816164E-02  0.1186339E+00
        -11   -1    0    0    0    0  0.00000000000E+00  0.00000000000E+00  0.45593999997E+02  0.45594000000E+02  0.51100000000E-03 0.  1.
         11   -1    0    0    0    0 -0.00000000000E+00 -0.00000000000E+00 -0.45593999997E+02  0.45594000000E+02  0.51100000000E-03 0. -1.
    9900012    2    1    2    0    0 -0.38977386742E+00 -0.92662497659E-01  0.11102345811E+01  0.90007690366E+02  0.89999951079E+02 0.  0.
         12    1    1    2    0    0  0.38977386742E+00  0.92662497659E-01 -0.11102345811E+01  0.11803096337E+01  0.00000000000E+00 0. -1.
         11    1    3    3    0    0 -0.42557441372E+01 -0.14330669530E+02 -0.32599541452E+02  0.35863763753E+02  0.51100000000E-03 0. -1.
        -11    1    3    3    0    0 -0.36415903113E+01 -0.16948754788E+01 -0.79537426505E+01  0.89104323854E+01  0.51100000000E-03 0.  1.
        -12    1    3    3    0    0  0.75075605810E+01  0.15932882511E+02  0.41663518684E+02  0.45233494228E+02  0.00000000000E+00 0.  1.
</event>
<event>
 7    1  0.1698110E-015  0.9000762E+02  0.7816164E-02  0.1186339E+00
        -11   -1    0    0    0    0  0.00000000000E+00  0.00000000000E+00  0.45593999997E+02  0.45594000000E+02  0.51100000000E-03 0.  1.
         11   -1    0    0    0    0 -0.00000000000E+00 -0.00000000000E+00 -0.45593999997E+02  0.45594000000E+02  0.51100000000E-03 0. -1.
    9900012    2    1    2    0    0 -0.61395325095E+00 -0.92042532386E+00  0.41130418044E+00  0.90007621883E+02  0.89999881691E+02 0.  0.
         12    1    1    2    0    0  0.61395325095E+00  0.92042532386E+00 -0.41130418044E+00  0.11803781174E+01  0.00000000000E+00 0. -1.
         11    1    3    3    0    0 -0.72803550893E+00 -0.37337380395E+01  0.46775209369E+01  0.60290992549E+01  0.51100000000E-03 0. -1.
        -11    1    3    3    0    0 -0.22966960995E+02 -0.11480199496E+02  0.30499512120E+02  0.39868490285E+02  0.51100000000E-03 0.  1.
         12    1    3    3    0    0  0.23081043253E+02  0.14293512212E+02 -0.34765728876E+02  0.44110032343E+02  0.00000000000E+00 0. -1.
</event>
<event>
 7    1  0.2264785E-015  0.9000775E+02  0.7816164E-02  0.1186339E+00
        -11   -1    0    0    0    0  0.00000000000E+00  0.00000000000E+00  0.45593999997E+02  0.45594000000E+02  0.51100000000E-03 0. -1.
         11   -1    0    0    0    0 -0.00000000000E+00 -0.00000000000E+00 -0.45593999997E+02  0.45594000000E+02  0.51100000000E-03 0.  1.
    9900012    2    1    2    0    0  0.44183186524E+00  0.82683169794E+00 -0.71702438103E+00  0.90007750019E+02  0.90000011520E+02 0.  0.
         12    1    1    2    0    0 -0.44183186524E+00 -0.82683169794E+00  0.71702438103E+00  0.11802499807E+01  0.00000000000E+00 0. -1.
         11    1    3    3    0    0  0.38972648652E+01  0.61126898754E+00 -0.89685286351E+01  0.97977971680E+01  0.51100000000E-03 0. -1.
        -11    1    3    3    0    0  0.21704244398E+02 -0.76613951918E+01 -0.27454053808E+02  0.35825916205E+02  0.51100000000E-03 0.  1.
         12    1    3    3    0    0 -0.25159677397E+02  0.78769579022E+01  0.35705558062E+02  0.44384036647E+02  0.00000000000E+00 0. -1.
</event>
<event>
 7    1  0.1698110E-015  0.9000780E+02  0.7816164E-02  0.1186339E+00
        -11   -1    0    0    0    0  0.00000000000E+00  0.00000000000E+00  0.45593999997E+02  0.45594000000E+02  0.51100000000E-03 0.  1.
         11   -1    0    0    0    0 -0.00000000000E+00 -0.00000000000E+00 -0.45593999997E+02  0.45594000000E+02  0.51100000000E-03 0. -1.
    9900012    2    1    2    0    0  0.51349725959E+00 -0.70579223153E+00  0.79438472560E+00  0.90007801202E+02  0.90000063378E+02 0.  0.
         12    1    1    2    0    0 -0.51349725959E+00  0.70579223153E+00 -0.79438472560E+00  0.11801987976E+01  0.00000000000E+00 0. -1.
         11    1    3    3    0    0  0.27012201264E+02  0.25869530870E+01 -0.18220180547E+02  0.32685261554E+02  0.51100000000E-03 0. -1.
        -11    1    3    3    0    0  0.10216595328E+02  0.24055646314E+01 -0.64127572711E+01  0.12299960056E+02  0.51100000000E-03 0.  1.
        -12    1    3    3    0    0 -0.36715299333E+02 -0.56983099499E+01  0.25427322544E+02  0.45022579592E+02  0.00000000000E+00 0.  1.
</event>
<event>
 7    1  0.1793682E-015  0.9000779E+02  0.7816164E-02  0.1186339E+00
        -11   -1    0    0    0    0  0.00000000000E+00  0.00000000000E+00  0.45593999997E+02  0.45594000000E+02  0.51100000000E-03 0. -1.
         11   -1    0    0    0    0 -0.00000000000E+00 -0.00000000000E+00 -0.45593999997E+02  0.45594000000E+02  0.51100000000E-03 0.  1.
    9900012    2    1    2    0    0 -0.74136208254E+00  0.91787563610E+00  0.28077569523E-01  0.90007787404E+02  0.90000049398E+02 0.  0.
         12    1    1    2    0    0  0.74136208254E+00 -0.91787563610E+00 -0.28077569523E-01  0.11802125955E+01  0.00000000000E+00 0. -1.
         11    1    3    3    0    0 -0.10954401375E+01  0.73252164270E+01  0.66138704173E+01  0.99298573482E+01  0.51100000000E-03 0. -1.
        -11    1    3    3    0    0 -0.29765966669E+02  0.96229285282E+00 -0.29192933372E+02  0.41703310880E+02  0.51100000000E-03 0.  1.
         12    1    3    3    0    0  0.30120044723E+02 -0.73696336438E+01  0.22607140525E+02  0.38374619176E+02  0.00000000000E+00 0. -1.
</event>
<event>
 7    1  0.1698110E-015  0.9000775E+02  0.7816164E-02  0.1186339E+00
        -11   -1    0    0    0    0  0.00000000000E+00  0.00000000000E+00  0.45593999997E+02  0.45594000000E+02  0.51100000000E-03 0.  1.
         11   -1    0    0    0    0 -0.00000000000E+00 -0.00000000000E+00 -0.45593999997E+02  0.45594000000E+02  0.51100000000E-03 0. -1.
    9900012    2    1    2    0    0  0.55511156526E+00 -0.10375258161E+01 -0.91533636041E-01  0.90007751265E+02  0.90000012782E+02 0.  0.
         12    1    1    2    0    0 -0.55511156526E+00  0.10375258161E+01  0.91533636041E-01  0.11802487346E+01  0.00000000000E+00 0. -1.
         11    1    3    3    0    0 -0.62070849721E+01 -0.99417528940E+00  0.61129901249E+01  0.87684056068E+01  0.51100000000E-03 0. -1.
        -11    1    3    3    0    0  0.25033029720E+02 -0.16002076956E+02  0.26980274824E+02  0.40132957450E+02  0.51100000000E-03 0.  1.
         12    1    3    3    0    0 -0.18270833183E+02  0.15958726429E+02 -0.33184798585E+02  0.41106388208E+02  0.00000000000E+00 0. -1.
</event>
<event>
 7    1  0.1698110E-015  0.9000771E+02  0.7816164E-02  0.1186339E+00
        -11   -1    0    0    0    0  0.00000000000E+00  0.00000000000E+00  0.45593999997E+02  0.45594000000E+02  0.51100000000E-03 0.  1.
         11   -1    0    0    0    0 -0.00000000000E+00 -0.00000000000E+00 -0.45593999997E+02  0.45594000000E+02  0.51100000000E-03 0. -1.
    9900012    2    1    2    0    0  0.72183423853E+00 -0.52034228507E+00  0.77543038634E+00  0.90007706373E+02  0.89999967297E+02 0.  0.
         12    1    1    2    0    0 -0.72183423853E+00  0.52034228507E+00 -0.77543038634E+00  0.11802936269E+01  0.00000000000E+00 0. -1.
         11    1    3    3    0    0 -0.11332573979E+02  0.14818208303E+02 -0.48148958269E+01  0.19266285381E+02  0.51100000000E-03 0. -1.
        -11    1    3    3    0    0 -0.19374111924E+02 -0.27134414071E+01 -0.20237764663E+02  0.28147577088E+02  0.51100000000E-03 0.  1.
        -12    1    3    3    0    0  0.31428520142E+02 -0.12625109181E+02  0.25828090877E+02  0.42593843903E+02  0.00000000000E+00 0.  1.
</event>
<event>
 7    1  0.1724424E-015  0.9000775E+02  0.7816164E-02  0.1186339E+00
        -11   -1    0    0    0    0  0.00000000000E+00  0.00000000000E+00  0.45593999997E+02  0.45594000000E+02  0.51100000000E-03 0.  1.
         11   -1    0    0    0    0 -0.00000000000E+00 -0.00000000000E+00 -0.45593999997E+02  0.45594000000E+02  0.51100000000E-03 0. -1.
    9900012    2    1    2    0    0  0.55859368836E+00 -0.14435793479E+00  0.10296229928E+01  0.90007750183E+02  0.90000011686E+02 0.  0.
         12    1    1    2    0    0 -0.55859368836E+00  0.14435793479E+00 -0.10296229928E+01  0.11802498165E+01  0.00000000000E+00 0. -1.
         11    1    3    3    0    0 -0.36675451323E+01  0.25019815882E+01  0.77186027854E+01  0.89043600772E+01  0.51100000000E-03 0. -1.
        -11    1    3    3    0    0  0.92782062786E+01  0.28509125018E+02  0.22988314407E+02  0.37779861310E+02  0.51100000000E-03 0.  1.
         12    1    3    3    0    0 -0.50520674580E+01 -0.31155464541E+02 -0.29677294199E+02  0.43323528796E+02  0.00000000000E+00 0. -1.
</event>
<event>
 7    1  0.1698110E-015  0.9000760E+02  0.7816164E-02  0.1186339E+00
        -11   -1    0    0    0    0  0.00000000000E+00  0.00000000000E+00  0.45593999997E+02  0.45594000000E+02  0.51100000000E-03 0.  1.
         11   -1    0    0    0    0 -0.00000000000E+00 -0.00000000000E+00 -0.45593999997E+02  0.45594000000E+02  0.51100000000E-03 0. -1.
    9900012    2    1    2    0    0 -0.92956948075E+00 -0.51677814153E+00  0.51203221672E+00  0.90007603432E+02  0.89999862997E+02 0.  0.
         12    1    1    2    0    0  0.92956948075E+00  0.51677814153E+00 -0.51203221672E+00  0.11803965681E+01  0.00000000000E+00 0. -1.
         11    1    3    3    0    0 -0.45494647247E+01  0.33496442174E+01  0.49268414753E+01  0.74960998425E+01  0.51100000000E-03 0. -1.
        -11    1    3    3    0    0 -0.99878225066E+00 -0.17199675216E+02  0.35888379237E+02  0.39809573698E+02  0.51100000000E-03 0.  1.
         12    1    3    3    0    0  0.46186774946E+01  0.13333252857E+02 -0.40303188495E+02  0.42701929891E+02  0.00000000000E+00 0. -1.
</event>
<event>
 7    1  0.1698110E-015  0.9000830E+02  0.7816164E-02  0.1186338E+00
        -11   -1    0    0    0    0  0.00000000000E+00  0.00000000000E+00  0.45593999997E+02  0.45594000000E+02  0.51100000000E-03 0.  1.
         11   -1    0    0    0    0 -0.00000000000E+00 -0.00000000000E+00 -0.45593999997E+02  0.45594000000E+02  0.51100000000E-03 0. -1.
    9900012    2    1    2    0    0  0.10606316190E+01  0.60536936480E-01  0.51291228281E+00  0.90008303784E+02  0.90000572592E+02 0.  0.
         12    1    1    2    0    0 -0.10606316190E+01 -0.60536936480E-01 -0.51291228281E+00  0.11796962159E+01  0.00000000000E+00 0. -1.
         11    1    3    3    0    0 -0.15248536695E+02 -0.66250091494E+01 -0.24076415223E+02  0.29258885622E+02  0.51100000000E-03 0. -1.
        -11    1    3    3    0    0  0.16816237939E+02  0.52086740369E+00 -0.13864703716E+02  0.21801081869E+02  0.51100000000E-03 0.  1.
        -12    1    3    3    0    0 -0.50706962422E+00  0.61646786822E+01  0.38454031221E+02  0.38948336294E+02  0.00000000000E+00 0.  1.
</event>
<event>
 7    1  0.1698110E-015  0.9000788E+02  0.7816164E-02  0.1186339E+00
        -11   -1    0    0    0    0  0.00000000000E+00  0.00000000000E+00  0.45593999997E+02  0.45594000000E+02  0.51100000000E-03 0.  1.
         11   -1    0    0    0    0 -0.00000000000E+00 -0.00000000000E+00 -0.45593999997E+02  0.45594000000E+02  0.51100000000E-03 0. -1.
    9900012    2    1    2    0    0  0.10458671383E+00  0.11730120048E+01  0.76024259827E-01  0.90007883382E+02  0.90000146642E+02 0.  0.
         12    1    1    2    0    0 -0.10458671383E+00 -0.11730120048E+01 -0.76024259827E-01  0.11801166181E+01  0.00000000000E+00 0. -1.
         11    1    3    3    0    0 -0.15284007001E+02 -0.28724738586E+02  0.27401455712E+02  0.42538820532E+02  0.51100000000E-03 0. -1.
        -11    1    3    3    0    0 -0.43842331990E+01  0.51800132779E+01 -0.75241170896E+01  0.10132441786E+02  0.51100000000E-03 0.  1.
        -12    1    3    3    0    0  0.19772826914E+02  0.24717737313E+02 -0.19801314363E+02  0.37336621064E+02  0.00000000000E+00 0.  1.
</event>
<event>
 7    1  0.1698110E-015  0.9000778E+02  0.7816164E-02  0.1186339E+00
        -11   -1    0    0    0    0  0.00000000000E+00  0.00000000000E+00  0.45593999997E+02  0.45594000000E+02  0.51100000000E-03 0.  1.
         11   -1    0    0    0    0 -0.00000000000E+00 -0.00000000000E+00 -0.45593999997E+02  0.45594000000E+02  0.51100000000E-03 0. -1.
    9900012    2    1    2    0    0  0.33915350066E+00  0.11236594125E+01  0.12361210639E+00  0.90007781577E+02  0.90000043494E+02 0.  0.
         12    1    1    2    0    0 -0.33915350066E+00 -0.11236594125E+01 -0.12361210639E+00  0.11802184227E+01  0.00000000000E+00 0. -1.
         11    1    3    3    0    0  0.17819104382E+01 -0.26479800805E+00 -0.10487989948E+02  0.10641581471E+02  0.51100000000E-03 0. -1.
        -11    1    3    3    0    0  0.13140550714E+01  0.35050491075E+02  0.24565951804E+02  0.42822303227E+02  0.51100000000E-03 0.  1.
         12    1    3    3    0    0 -0.27568120089E+01 -0.33662033655E+02 -0.13954349749E+02  0.36543896879E+02  0.00000000000E+00 0. -1.
</event>
<event>
 7    1  0.1698110E-015  0.9000777E+02  0.7816164E-02  0.1186339E+00
        -11   -1    0    0    0    0  0.00000000000E+00  0.00000000000E+00  0.45593999997E+02  0.45594000000E+02  0.51100000000E-03 0.  1.
         11   -1    0    0    0    0 -0.00000000000E+00 -0.00000000000E+00 -0.45593999997E+02  0.45594000000E+02  0.51100000000E-03 0. -1.
    9900012    2    1    2    0    0  0.16074276999E+00 -0.69548422067E+00  0.93989100084E+00  0.90007774753E+02  0.90000036580E+02 0.  0.
         12    1    1    2    0    0 -0.16074276999E+00  0.69548422067E+00 -0.93989100084E+00  0.11802252466E+01  0.00000000000E+00 0. -1.
         11    1    3    3    0    0  0.63082164593E+00  0.18699135121E+01 -0.10096379004E+02  0.10287438055E+02  0.51100000000E-03 0. -1.
        -11    1    3    3    0    0 -0.28074579756E+01  0.30850751066E+02 -0.17619096744E+02  0.35638227116E+02  0.51100000000E-03 0.  1.
         12    1    3    3    0    0  0.23373790996E+01 -0.33416148799E+02  0.28655366749E+02  0.44082109582E+02  0.00000000000E+00 0. -1.
</event>
<event>
 7    1  0.1698110E-015  0.9000786E+02  0.7816164E-02  0.1186339E+00
        -11   -1    0    0    0    0  0.00000000000E+00  0.00000000000E+00  0.45593999997E+02  0.45594000000E+02  0.51100000000E-03 0. -1.
         11   -1    0    0    0    0 -0.00000000000E+00 -0.00000000000E+00 -0.45593999997E+02  0.45594000000E+02  0.51100000000E-03 0.  1.
    9900012    2    1    2    0    0  0.84149473362E+00  0.54071222739E+00 -0.62630277744E+00  0.90007856675E+02  0.90000119583E+02 0.  0.
         12    1    1    2    0    0 -0.84149473362E+00 -0.54071222739E+00  0.62630277744E+00  0.11801433254E+01  0.00000000000E+00 0. -1.
         11    1    3    3    0    0  0.24876872870E+01 -0.55957590082E+01  0.95778933561E+01  0.11368251771E+02  0.51100000000E-03 0. -1.
        -11    1    3    3    0    0 -0.15076859958E+02 -0.30818289580E+02  0.81251188372E+01  0.35257569899E+02  0.51100000000E-03 0.  1.
         12    1    3    3    0    0  0.13430667404E+02  0.36954760816E+02 -0.18329314971E+02  0.43382035005E+02  0.00000000000E+00 0. -1.
</event>
<event>
 7    1  0.1698110E-015  0.9000778E+02  0.7816164E-02  0.1186339E+00
        -11   -1    0    0    0    0  0.00000000000E+00  0.00000000000E+00  0.45593999997E+02  0.45594000000E+02  0.51100000000E-03 0. -1.
         11   -1    0    0    0    0 -0.00000000000E+00 -0.00000000000E+00 -0.45593999997E+02  0.45594000000E+02  0.51100000000E-03 0.  1.
    9900012    2    1    2    0    0 -0.11576419389E+01  0.48266381840E-01 -0.22460467776E+00  0.90007783171E+02  0.90000045109E+02 0.  0.
         12    1    1    2    0    0  0.11576419389E+01 -0.48266381840E-01  0.22460467776E+00  0.11802168291E+01  0.00000000000E+00 0. -1.
         11    1    3    3    0    0  0.39228271863E+01 -0.50667186893E+01 -0.10330460924E+02  0.12156423593E+02  0.51100000000E-03 0. -1.
        -11    1    3    3    0    0  0.12100270031E+02 -0.21742779786E+02  0.30985501974E+02  0.39739984153E+02  0.51100000000E-03 0.  1.
         12    1    3    3    0    0 -0.17180739156E+02  0.26857764857E+02 -0.20879645727E+02  0.38111375425E+02  0.00000000000E+00 0. -1.
</event>
<event>
 7    1  0.1698110E-015  0.9000782E+02  0.7816164E-02  0.1186339E+00
        -11   -1    0    0    0    0  0.00000000000E+00  0.00000000000E+00  0.45593999997E+02  0.45594000000E+02  0.51100000000E-03 0. -1.
         11   -1    0    0    0    0 -0.00000000000E+00 -0.00000000000E+00 -0.45593999997E+02  0.45594000000E+02  0.51100000000E-03 0.  1.
    9900012    2    1    2    0    0 -0.46649539158E+00 -0.94474972356E+00 -0.53165238739E+00  0.90007820246E+02  0.90000082673E+02 0.  0.
         12    1    1    2    0    0  0.46649539158E+00  0.94474972356E+00  0.53165238739E+00  0.11801797539E+01  0.00000000000E+00 0. -1.
         11    1    3    3    0    0 -0.46916388586E+01 -0.57113688901E+01  0.56428803962E+01  0.92991026021E+01  0.51100000000E-03 0. -1.
        -11    1    3    3    0    0  0.27229339520E+02 -0.28682976032E+02 -0.66780771795E+01  0.40109185480E+02  0.51100000000E-03 0.  1.
         12    1    3    3    0    0 -0.23004196053E+02  0.33449595199E+02  0.50354439597E+00  0.40599532164E+02  0.00000000000E+00 0. -1.
</event>
<event>
 7    1  0.1698110E-015  0.9000765E+02  0.7816164E-02  0.1186339E+00
        -11   -1    0    0    0    0  0.00000000000E+00  0.00000000000E+00  0.45593999997E+02  0.45594000000E+02  0.51100000000E-03 0. -1.
         11   -1    0    0    0    0 -0.00000000000E+00 -0.00000000000E+00 -0.45593999997E+02  0.45594000000E+02  0.51100000000E-03 0.  1.
    9900012    2    1    2    0    0  0.49723432297E+00 -0.94302195305E+00 -0.50665130759E+00  0.90007649237E+02  0.89999909407E+02 0.  0.
         12    1    1    2    0    0 -0.49723432297E+00  0.94302195305E+00  0.50665130759E+00  0.11803507628E+01  0.00000000000E+00 0. -1.
         11    1    3    3    0    0 -0.32021806580E+00  0.47682307767E+01 -0.79087578433E+01  0.92405094684E+01  0.51100000000E-03 0. -1.
        -11    1    3    3    0    0 -0.79171856558E+01 -0.39307537388E+02  0.18725357346E+02  0.44253851044E+02  0.51100000000E-03 0.  1.
         12    1    3    3    0    0  0.87346380445E+01  0.33596284658E+02 -0.11323250810E+02  0.36513288725E+02  0.00000000000E+00 0. -1.
</event>
<event>
 7    1  0.1698110E-015  0.9000768E+02  0.7816164E-02  0.1186339E+00
        -11   -1    0    0    0    0  0.00000000000E+00  0.00000000000E+00  0.45593999997E+02  0.45594000000E+02  0.51100000000E-03 0.  1.
         11   -1    0    0    0    0 -0.00000000000E+00 -0.00000000000E+00 -0.45593999997E+02  0.45594000000E+02  0.51100000000E-03 0. -1.
    9900012    2    1    2    0    0 -0.38568472435E+00  0.59857292924E+00  0.94134174629E+00  0.90007675239E+02  0.89999935752E+02 0.  0.
         12    1    1    2    0    0  0.38568472435E+00 -0.59857292924E+00 -0.94134174629E+00  0.11803247610E+01  0.00000000000E+00 0. -1.
         11    1    3    3    0    0 -0.39145427675E+02 -0.17321634108E+01 -0.80330898116E+01  0.39998692856E+02  0.51100000000E-03 0. -1.
        -11    1    3    3    0    0 -0.22826676645E+00 -0.49110762611E+00  0.10860040299E+02  0.10873535210E+02  0.51100000000E-03 0.  1.
        -12    1    3    3    0    0  0.38988009718E+02  0.28218439662E+01 -0.18856087409E+01  0.39135447173E+02  0.00000000000E+00 0.  1.
</event>
<event>
 7    1  0.1698110E-015  0.9000774E+02  0.7816164E-02  0.1186339E+00
        -11   -1    0    0    0    0  0.00000000000E+00  0.00000000000E+00  0.45593999997E+02  0.45594000000E+02  0.51100000000E-03 0.  1.
         11   -1    0    0    0    0 -0.00000000000E+00 -0.00000000000E+00 -0.45593999997E+02  0.45594000000E+02  0.51100000000E-03 0. -1.
    9900012    2    1    2    0    0 -0.11710951057E+01 -0.26894931659E-01  0.14433533500E+00  0.90007737414E+02  0.89999998747E+02 0.  0.
         12    1    1    2    0    0  0.11710951057E+01  0.26894931659E-01 -0.14433533500E+00  0.11802625864E+01  0.00000000000E+00 0. -1.
         11    1    3    3    0    0 -0.98794433946E+01  0.34643225199E+02 -0.12107451813E+02  0.38004563459E+02  0.51100000000E-03 0. -1.
        -11    1    3    3    0    0 -0.69872885032E+01  0.45069414316E+01  0.14718824412E+01  0.84440014138E+01  0.51100000000E-03 0.  1.
        -12    1    3    3    0    0  0.15695636792E+02 -0.39177061563E+02  0.10779904707E+02  0.43559172541E+02  0.00000000000E+00 0.  1.
</event>
<event>
 7    1  0.1698110E-015  0.9000783E+02  0.7816164E-02  0.1186339E+00
        -11   -1    0    0    0    0  0.00000000000E+00  0.00000000000E+00  0.45593999997E+02  0.45594000000E+02  0.51100000000E-03 0.  1.
         11   -1    0    0    0    0 -0.00000000000E+00 -0.00000000000E+00 -0.45593999997E+02  0.45594000000E+02  0.51100000000E-03 0. -1.
    9900012    2    1    2    0    0  0.20983320651E+00  0.10028641449E+01 -0.58568765446E+00  0.90007832005E+02  0.90000094587E+02 0.  0.
         12    1    1    2    0    0 -0.20983320651E+00 -0.10028641449E+01  0.58568765446E+00  0.11801679949E+01  0.00000000000E+00 0. -1.
         11    1    3    3    0    0  0.53048919002E+01  0.70358272324E+01 -0.33573998352E+01  0.94295745838E+01  0.51100000000E-03 0. -1.
        -11    1    3    3    0    0  0.54175199780E+01  0.34571988842E+02  0.13127267972E+02  0.37375086620E+02  0.51100000000E-03 0.  1.
         12    1    3    3    0    0 -0.10512578672E+02 -0.40604951930E+02 -0.10355555791E+02  0.43203170801E+02  0.00000000000E+00 0. -1.
</event>
<event>
 7    1  0.1698110E-015  0.9000759E+02  0.7816164E-02  0.1186339E+00
        -11   -1    0    0    0    0  0.00000000000E+00  0.00000000000E+00  0.45593999997E+02  0.45594000000E+02  0.51100000000E-03 0.  1.
         11   -1    0    0    0    0 -0.00000000000E+00 -0.00000000000E+00 -0.45593999997E+02  0.45594000000E+02  0.51100000000E-03 0. -1.
    9900012    2    1    2    0    0  0.39693366368E+00  0.10882104820E+01  0.22718988687E+00  0.90007587516E+02  0.89999846872E+02 0.  0.
         12    1    1    2    0    0 -0.39693366368E+00 -0.10882104820E+01 -0.22718988687E+00  0.11804124835E+01  0.00000000000E+00 0. -1.
         11    1    3    3    0    0 -0.49526667149E+01  0.75610094249E+01 -0.23054412305E+01  0.93280668223E+01  0.51100000000E-03 0. -1.
        -11    1    3    3    0    0  0.42572068483E+01  0.62980830219E+01  0.40188920072E+02  0.40901576458E+02  0.51100000000E-03 0.  1.
         12    1    3    3    0    0  0.10923935303E+01 -0.12770881965E+02 -0.37656288955E+02  0.39777944236E+02  0.00000000000E+00 0. -1.
</event>
<event>
 7    1  0.1698110E-015  0.9000819E+02  0.7816164E-02  0.1186338E+00
        -11   -1    0    0    0    0  0.00000000000E+00  0.00000000000E+00  0.45593999997E+02  0.45594000000E+02  0.51100000000E-03 0. -1.
         11   -1    0    0    0    0 -0.00000000000E+00 -0.00000000000E+00 -0.45593999997E+02  0.45594000000E+02  0.51100000000E-03 0.  1.
    9900012    2    1    2    0    0  0.81627981213E-01 -0.19090020108E+00 -0.11613932325E+01  0.90008194823E+02  0.90000462194E+02 0.  0.
         12    1    1    2    0    0 -0.81627981213E-01  0.19090020108E+00  0.11613932325E+01  0.11798051765E+01  0.00000000000E+00 0. -1.
         11    1    3    3    0    0  0.30173611765E+02  0.16551041238E+02 -0.11639167046E+02  0.36329795249E+02  0.51100000000E-03 0. -1.
        -11    1    3    3    0    0  0.51417936537E+01  0.78146375706E+01 -0.44189359410E+00  0.93649277918E+01  0.51100000000E-03 0.  1.
        -12    1    3    3    0    0 -0.35233777438E+02 -0.24556579009E+02  0.10919667407E+02  0.44313471783E+02  0.00000000000E+00 0.  1.
</event>
<event>
 7    1  0.1698110E-015  0.9000794E+02  0.7816164E-02  0.1186339E+00
        -11   -1    0    0    0    0  0.00000000000E+00  0.00000000000E+00  0.45593999997E+02  0.45594000000E+02  0.51100000000E-03 0. -1.
         11   -1    0    0    0    0 -0.00000000000E+00 -0.00000000000E+00 -0.45593999997E+02  0.45594000000E+02  0.51100000000E-03 0.  1.
    9900012    2    1    2    0    0 -0.10666771875E+01  0.21929706565E+00 -0.45458274502E+00  0.90007941994E+02  0.90000206028E+02 0.  0.
         12    1    1    2    0    0  0.10666771875E+01 -0.21929706565E+00  0.45458274502E+00  0.11800580059E+01  0.00000000000E+00 0. -1.
         11    1    3    3    0    0  0.99854813106E+01 -0.86515932193E+01 -0.84178614329E+00  0.13238901254E+02  0.51100000000E-03 0. -1.
        -11    1    3    3    0    0 -0.28962149816E+02 -0.71513646013E+01 -0.27068470230E+02  0.40282132745E+02  0.51100000000E-03 0.  1.
         12    1    3    3    0    0  0.17909991318E+02  0.16022254886E+02  0.27455673629E+02  0.36486907995E+02  0.00000000000E+00 0. -1.
</event>
<event>
 7    1  0.1698110E-015  0.9000767E+02  0.7816164E-02  0.1186339E+00
        -11   -1    0    0    0    0  0.00000000000E+00  0.00000000000E+00  0.45593999997E+02  0.45594000000E+02  0.51100000000E-03 0.  1.
         11   -1    0    0    0    0 -0.00000000000E+00 -0.00000000000E+00 -0.45593999997E+02  0.45594000000E+02  0.51100000000E-03 0. -1.
    9900012    2    1    2    0    0 -0.41791565607E+00  0.47350097944E+00  0.99715207216E+00  0.90007674228E+02  0.89999934728E+02 0.  0.
         12    1    1    2    0    0  0.41791565607E+00 -0.47350097944E+00 -0.99715207216E+00  0.11803257720E+01  0.00000000000E+00 0. -1.
         11    1    3    3    0    0  0.97744406947E+01 -0.43403184905E-01  0.47255317636E+01  0.10856897597E+02  0.51100000000E-03 0. -1.
        -11    1    3    3    0    0  0.82874023865E+01  0.76891384304E+01  0.34382227652E+02  0.36193113526E+02  0.51100000000E-03 0.  1.
         12    1    3    3    0    0 -0.18479758737E+02 -0.71722342661E+01 -0.38110607343E+02  0.42957663105E+02  0.00000000000E+00 0. -1.
</event>
<event>
 7    1  0.1698110E-015  0.9000774E+02  0.7816164E-02  0.1186339E+00
        -11   -1    0    0    0    0  0.00000000000E+00  0.00000000000E+00  0.45593999997E+02  0.45594000000E+02  0.51100000000E-03 0.  1.
         11   -1    0    0    0    0 -0.00000000000E+00 -0.00000000000E+00 -0.45593999997E+02  0.45594000000E+02  0.51100000000E-03 0. -1.
    9900012    2    1    2    0    0  0.24536610945E+00  0.11426104597E+01  0.16505942487E+00  0.90007742484E+02  0.90000003885E+02 0.  0.
         12    1    1    2    0    0 -0.24536610945E+00 -0.11426104597E+01 -0.16505942487E+00  0.11802575160E+01  0.00000000000E+00 0. -1.
         11    1    3    3    0    0  0.22505535871E+01 -0.42883765199E+01 -0.70010555065E+01  0.85129279975E+01  0.51100000000E-03 0. -1.
        -11    1    3    3    0    0 -0.35918256139E+02 -0.17578851377E+02  0.64515104509E+01  0.40506285033E+02  0.51100000000E-03 0.  1.
         12    1    3    3    0    0  0.33913068661E+02  0.23009838357E+02  0.71460448043E+00  0.40988529454E+02  0.00000000000E+00 0. -1.
</event>
<event>
 7    1  0.1698110E-015  0.9000783E+02  0.7816164E-02  0.1186339E+00
        -11   -1    0    0    0    0  0.00000000000E+00  0.00000000000E+00  0.45593999997E+02  0.45594000000E+02  0.51100000000E-03 0.  1.
         11   -1    0    0    0    0 -0.00000000000E+00 -0.00000000000E+00 -0.45593999997E+02  0.45594000000E+02  0.51100000000E-03 0. -1.
    9900012    2    1    2    0    0 -0.18444477391E+00  0.10621790870E+01  0.48016426938E+00  0.90007829668E+02  0.90000092219E+02 0.  0.
         12    1    1    2    0    0  0.18444477391E+00 -0.10621790870E+01 -0.48016426938E+00  0.11801703322E+01  0.00000000000E+00 0. -1.
         11    1    3    3    0    0  0.27962069433E+02 -0.63023229028E+01  0.26583024094E+02  0.39092886452E+02  0.51100000000E-03 0. -1.
        -11    1    3    3    0    0  0.60649180168E+00 -0.82187728940E+01  0.11794073205E+01  0.83250863105E+01  0.51100000000E-03 0.  1.
        -12    1    3    3    0    0 -0.28753006008E+02  0.15583274884E+02 -0.27282267145E+02  0.42589856905E+02  0.00000000000E+00 0.  1.
</event>
<event>
 7    1  0.1698110E-015  0.9000774E+02  0.7816164E-02  0.1186339E+00
        -11   -1    0    0    0    0  0.00000000000E+00  0.00000000000E+00  0.45593999997E+02  0.45594000000E+02  0.51100000000E-03 0.  1.
         11   -1    0    0    0    0 -0.00000000000E+00 -0.00000000000E+00 -0.45593999997E+02  0.45594000000E+02  0.51100000000E-03 0. -1.
    9900012    2    1    2    0    0 -0.17429992816E+00  0.91960099418E+00 -0.71900539175E+00  0.90007739348E+02  0.90000000707E+02 0.  0.
         12    1    1    2    0    0  0.17429992816E+00 -0.91960099418E+00  0.71900539175E+00  0.11802606521E+01  0.00000000000E+00 0. -1.
         11    1    3    3    0    0  0.13443788334E+02 -0.33229804467E+02 -0.16781016716E+01  0.35885531557E+02  0.51100000000E-03 0. -1.
        -11    1    3    3    0    0  0.55060259722E+01 -0.43290609925E+01  0.79424082179E+01  0.10589567491E+02  0.51100000000E-03 0.  1.
        -12    1    3    3    0    0 -0.19124114234E+02  0.38478466453E+02 -0.69833119380E+01  0.43532640300E+02  0.00000000000E+00 0.  1.
</event>
<event>
 7    1  0.1698110E-015  0.9000780E+02  0.7816164E-02  0.1186339E+00
        -11   -1    0    0    0    0  0.00000000000E+00  0.00000000000E+00  0.45593999997E+02  0.45594000000E+02  0.51100000000E-03 0. -1.
         11   -1    0    0    0    0 -0.00000000000E+00 -0.00000000000E+00 -0.45593999997E+02  0.45594000000E+02  0.51100000000E-03 0.  1.
    9900012    2    1    2    0    0  0.64758594801E+00 -0.98003412190E+00 -0.11414929819E+00  0.90007803193E+02  0.90000065395E+02 0.  0.
         12    1    1    2    0    0 -0.64758594801E+00  0.98003412190E+00  0.11414929819E+00  0.11801968067E+01  0.00000000000E+00 0. -1.
         11    1    3    3    0    0  0.24209236911E+01 -0.36289770695E+01 -0.99896654722E+01  0.10900631294E+02  0.51100000000E-03 0. -1.
        -11    1    3    3    0    0  0.30935412519E+02 -0.20183861693E+02  0.12844113666E+02  0.39107023368E+02  0.51100000000E-03 0.  1.
         12    1    3    3    0    0 -0.32708750262E+02  0.22832804641E+02 -0.29685974924E+01  0.40000148532E+02  0.00000000000E+00 0. -1.
</event>
<event>
 7    1  0.1698110E-015  0.9000786E+02  0.7816164E-02  0.1186339E+00
        -11   -1    0    0    0    0  0.00000000000E+00  0.00000000000E+00  0.45593999997E+02  0.45594000000E+02  0.51100000000E-03 0. -1.
         11   -1    0    0    0    0 -0.00000000000E+00 -0.00000000000E+00 -0.45593999997E+02  0.45594000000E+02  0.51100000000E-03 0.  1.
    9900012    2    1    2    0    0  0.97547381960E+00 -0.65797665328E+00  0.90874360644E-01  0.90007855687E+02  0.90000118582E+02 0.  0.
         12    1    1    2    0    0 -0.97547381960E+00  0.65797665328E+00 -0.90874360644E-01  0.11801443125E+01  0.00000000000E+00 0. -1.
         11    1    3    3    0    0  0.98018610919E+01  0.59970481957E-01 -0.11962450212E+01  0.98747698573E+01  0.51100000000E-03 0. -1.
        -11    1    3    3    0    0  0.24338442420E+02  0.24881974168E+02 -0.10947702591E+02  0.36487321225E+02  0.51100000000E-03 0.  1.
         12    1    3    3    0    0 -0.33164829692E+02 -0.25599921303E+02  0.12234821972E+02  0.43645764605E+02  0.00000000000E+00 0. -1.
</event>
<event>
 7    1  0.1698110E-015  0.9000771E+02  0.7816164E-02  0.1186339E+00
        -11   -1    0    0    0    0  0.00000000000E+00  0.00000000000E+00  0.45593999997E+02  0.45594000000E+02  0.51100000000E-03 0.  1.
         11   -1    0    0    0    0 -0.00000000000E+00 -0.00000000000E+00 -0.45593999997E+02  0.45594000000E+02  0.51100000000E-03 0. -1.
    9900012    2    1    2    0    0 -0.18950933942E+00 -0.89857817483E+00  0.74143994824E+00  0.90007707781E+02  0.89999968723E+02 0.  0.
         12    1    1    2    0    0  0.18950933942E+00  0.89857817483E+00 -0.74143994824E+00  0.11802922193E+01  0.00000000000E+00 0. -1.
         11    1    3    3    0    0 -0.74371872647E+01  0.37078047502E+01  0.53533729495E+01  0.98852502585E+01  0.51100000000E-03 0. -1.
        -11    1    3    3    0    0 -0.30595716209E+02 -0.21314703323E+02  0.50850109784E+01  0.37633386308E+02  0.51100000000E-03 0.  1.
         12    1    3    3    0    0  0.37843394134E+02  0.16708320398E+02 -0.96969439797E+01  0.42489071214E+02  0.00000000000E+00 0. -1.
</event>
<event>
 7    1  0.1698110E-015  0.9000775E+02  0.7816164E-02  0.1186339E+00
        -11   -1    0    0    0    0  0.00000000000E+00  0.00000000000E+00  0.45593999997E+02  0.45594000000E+02  0.51100000000E-03 0.  1.
         11   -1    0    0    0    0 -0.00000000000E+00 -0.00000000000E+00 -0.45593999997E+02  0.45594000000E+02  0.51100000000E-03 0. -1.
    9900012    2    1    2    0    0  0.46616488394E+00  0.87275979108E+00  0.64340256131E+00  0.90007751633E+02  0.90000013155E+02 0.  0.
         12    1    1    2    0    0 -0.46616488394E+00 -0.87275979108E+00 -0.64340256131E+00  0.11802483670E+01  0.00000000000E+00 0. -1.
         11    1    3    3    0    0 -0.21853623690E+01 -0.22043019529E+02 -0.32121756474E+02  0.39018941014E+02  0.51100000000E-03 0. -1.
        -11    1    3    3    0    0 -0.10132090966E+02  0.33906524429E+01 -0.94582342975E-01  0.10684790004E+02  0.51100000000E-03 0.  1.
        -12    1    3    3    0    0  0.12783618219E+02  0.19525126877E+02  0.32859741378E+02  0.40304020615E+02  0.00000000000E+00 0.  1.
</event>
<event>
 7    1  0.1698110E-015  0.9000768E+02  0.7816164E-02  0.1186339E+00
        -11   -1    0    0    0    0  0.00000000000E+00  0.00000000000E+00  0.45593999997E+02  0.45594000000E+02  0.51100000000E-03 0. -1.
         11   -1    0    0    0    0 -0.00000000000E+00 -0.00000000000E+00 -0.45593999997E+02  0.45594000000E+02  0.51100000000E-03 0.  1.
    9900012    2    1    2    0    0 -0.47917649561E+00 -0.52569985152E+00 -0.94190970352E+00  0.90007676173E+02  0.89999936698E+02 0.  0.
         12    1    1    2    0    0  0.47917649561E+00  0.52569985152E+00  0.94190970352E+00  0.11803238274E+01  0.00000000000E+00 0. -1.
         11    1    3    3    0    0 -0.50270721624E+01  0.10138852933E+02  0.39430500117E+00  0.11323571434E+02  0.51100000000E-03 0. -1.
        -11    1    3    3    0    0 -0.12093417584E+02  0.28398228455E+02  0.13524273943E+02  0.33698903753E+02  0.51100000000E-03 0.  1.
         12    1    3    3    0    0  0.16641313251E+02 -0.39062781239E+02 -0.14860488647E+02  0.44985200985E+02  0.00000000000E+00 0. -1.
</event>
<event>
 7    1  0.2119490E-015  0.9000769E+02  0.7816164E-02  0.1186339E+00
        -11   -1    0    0    0    0  0.00000000000E+00  0.00000000000E+00  0.45593999997E+02  0.45594000000E+02  0.51100000000E-03 0. -1.
         11   -1    0    0    0    0 -0.00000000000E+00 -0.00000000000E+00 -0.45593999997E+02  0.45594000000E+02  0.51100000000E-03 0.  1.
    9900012    2    1    2    0    0 -0.54975539837E+00  0.10428944466E+01  0.57235397386E-01  0.90007688297E+02  0.89999948983E+02 0.  0.
         12    1    1    2    0    0  0.54975539837E+00 -0.10428944466E+01 -0.57235397386E-01  0.11803117027E+01  0.00000000000E+00 0. -1.
         11    1    3    3    0    0 -0.63202740057E+01  0.67018369010E+01  0.30834779643E+01  0.97143356938E+01  0.51100000000E-03 0. -1.
        -11    1    3    3    0    0 -0.68553281356E+01  0.29274302874E+02  0.20440668613E+02  0.36356584909E+02  0.51100000000E-03 0.  1.
         12    1    3    3    0    0  0.12625846743E+02 -0.34933245329E+02 -0.23466911180E+02  0.43936767695E+02  0.00000000000E+00 0. -1.
</event>
<event>
 7    1  0.1698110E-015  0.9000773E+02  0.7816164E-02  0.1186339E+00
        -11   -1    0    0    0    0  0.00000000000E+00  0.00000000000E+00  0.45593999997E+02  0.45594000000E+02  0.51100000000E-03 0.  1.
         11   -1    0    0    0    0 -0.00000000000E+00 -0.00000000000E+00 -0.45593999997E+02  0.45594000000E+02  0.51100000000E-03 0. -1.
    9900012    2    1    2    0    0  0.79281612524E+00 -0.77163769399E+00  0.41115091468E+00  0.90007734261E+02  0.89999995554E+02 0.  0.
         12    1    1    2    0    0 -0.79281612524E+00  0.77163769399E+00 -0.41115091468E+00  0.11802657387E+01  0.00000000000E+00 0. -1.
         11    1    3    3    0    0  0.50030390389E+01 -0.82177983769E+01  0.15932553446E+01  0.97519778836E+01  0.51100000000E-03 0. -1.
        -11    1    3    3    0    0 -0.51424852067E+01 -0.32048546147E+02 -0.18231290939E+02  0.37228140348E+02  0.51100000000E-03 0.  1.
         12    1    3    3    0    0  0.93226229304E+00  0.39494706830E+02  0.17049186509E+02  0.43027616029E+02  0.00000000000E+00 0. -1.
</event>
<event>
 7    1  0.1698110E-015  0.9000776E+02  0.7816164E-02  0.1186339E+00
        -11   -1    0    0    0    0  0.00000000000E+00  0.00000000000E+00  0.45593999997E+02  0.45594000000E+02  0.51100000000E-03 0. -1.
         11   -1    0    0    0    0 -0.00000000000E+00 -0.00000000000E+00 -0.45593999997E+02  0.45594000000E+02  0.51100000000E-03 0.  1.
    9900012    2    1    2    0    0 -0.44561241910E+00 -0.71862368465E+00 -0.82338880824E+00  0.90007762923E+02  0.90000024594E+02 0.  0.
         12    1    1    2    0    0  0.44561241910E+00  0.71862368465E+00  0.82338880824E+00  0.11802370769E+01  0.00000000000E+00 0. -1.
         11    1    3    3    0    0  0.29943089651E+02  0.20980982385E+02  0.74509575753E+01  0.37313630334E+02  0.51100000000E-03 0. -1.
        -11    1    3    3    0    0  0.83839235051E+01 -0.35451971133E+01 -0.71156195722E-01  0.91029478400E+01  0.51100000000E-03 0.  1.
        -12    1    3    3    0    0 -0.38772625575E+02 -0.18154408957E+02 -0.82031901878E+01  0.43591184749E+02  0.00000000000E+00 0.  1.
</event>
<event>
 7    1  0.1698110E-015  0.9000771E+02  0.7816164E-02  0.1186339E+00
        -11   -1    0    0    0    0  0.00000000000E+00  0.00000000000E+00  0.45593999997E+02  0.45594000000E+02  0.51100000000E-03 0.  1.
         11   -1    0    0    0    0 -0.00000000000E+00 -0.00000000000E+00 -0.45593999997E+02  0.45594000000E+02  0.51100000000E-03 0. -1.
    9900012    2    1    2    0    0 -0.10772245945E+01 -0.29459487294E+00  0.38196068632E+00  0.90007706421E+02  0.89999967346E+02 0.  0.
         12    1    1    2    0    0  0.10772245945E+01  0.29459487294E+00 -0.38196068632E+00  0.11802935787E+01  0.00000000000E+00 0. -1.
         11    1    3    3    0    0  0.55415751775E+01  0.50013357959E+01 -0.25209672591E+01  0.78789397366E+01  0.51100000000E-03 0. -1.
        -11    1    3    3    0    0  0.29160339830E+02  0.16231968009E+02  0.17763704391E+02  0.37806763924E+02  0.51100000000E-03 0.  1.
         12    1    3    3    0    0 -0.35779139602E+02 -0.21527898678E+02 -0.14860776446E+02  0.44322002761E+02  0.00000000000E+00 0. -1.
</event>
<event>
 7    1  0.1698110E-015  0.9000775E+02  0.7816164E-02  0.1186339E+00
        -11   -1    0    0    0    0  0.00000000000E+00  0.00000000000E+00  0.45593999997E+02  0.45594000000E+02  0.51100000000E-03 0.  1.
         11   -1    0    0    0    0 -0.00000000000E+00 -0.00000000000E+00 -0.45593999997E+02  0.45594000000E+02  0.51100000000E-03 0. -1.
    9900012    2    1    2    0    0 -0.52112961481E+00  0.98398250496E+00  0.39138315699E+00  0.90007754932E+02  0.90000016497E+02 0.  0.
         12    1    1    2    0    0  0.52112961481E+00 -0.98398250496E+00 -0.39138315699E+00  0.11802450682E+01  0.00000000000E+00 0. -1.
         11    1    3    3    0    0  0.26191947128E+02  0.17859030706E+02 -0.19441982669E+02  0.37188086298E+02  0.51100000000E-03 0. -1.
        -11    1    3    3    0    0  0.16035079783E+01  0.65868045774E+00 -0.87563198809E+01  0.89262666272E+01  0.51100000000E-03 0.  1.
        -12    1    3    3    0    0 -0.28316584721E+02 -0.17533728658E+02  0.28589685707E+02  0.43893402007E+02  0.00000000000E+00 0.  1.
</event>
<event>
 7    1  0.2189438E-015  0.9000776E+02  0.7816164E-02  0.1186339E+00
        -11   -1    0    0    0    0  0.00000000000E+00  0.00000000000E+00  0.45593999997E+02  0.45594000000E+02  0.51100000000E-03 0.  1.
         11   -1    0    0    0    0 -0.00000000000E+00 -0.00000000000E+00 -0.45593999997E+02  0.45594000000E+02  0.51100000000E-03 0. -1.
    9900012    2    1    2    0    0  0.23282369538E+00 -0.47601361390E+00  0.10545971886E+01  0.90007758049E+02  0.90000019655E+02 0.  0.
         12    1    1    2    0    0 -0.23282369538E+00  0.47601361390E+00 -0.10545971886E+01  0.11802419514E+01  0.00000000000E+00 0. -1.
         11    1    3    3    0    0 -0.87694189793E+01  0.30096500055E+01  0.23532266660E+01  0.95654784717E+01  0.51100000000E-03 0. -1.
        -11    1    3    3    0    0  0.22470096333E+01  0.24921175364E+02  0.29041276669E+02  0.38334185587E+02  0.51100000000E-03 0.  1.
         12    1    3    3    0    0  0.67552330414E+01 -0.28406838983E+02 -0.30339906147E+02  0.42108093990E+02  0.00000000000E+00 0. -1.
</event>
<event>
 7    1  0.1698110E-015  0.9000775E+02  0.7816164E-02  0.1186339E+00
        -11   -1    0    0    0    0  0.00000000000E+00  0.00000000000E+00  0.45593999997E+02  0.45594000000E+02  0.51100000000E-03 0. -1.
         11   -1    0    0    0    0 -0.00000000000E+00 -0.00000000000E+00 -0.45593999997E+02  0.45594000000E+02  0.51100000000E-03 0.  1.
    9900012    2    1    2    0    0  0.57925913374E-01 -0.36114727032E-01 -0.11782769162E+01  0.90007747410E+02  0.90000008876E+02 0.  0.
         12    1    1    2    0    0 -0.57925913374E-01  0.36114727032E-01  0.11782769162E+01  0.11802525900E+01  0.00000000000E+00 0. -1.
         11    1    3    3    0    0 -0.23258054284E+00  0.51975607897E+01 -0.60287350280E+01  0.79633145216E+01  0.51100000000E-03 0. -1.
        -11    1    3    3    0    0 -0.25824899246E+02  0.28134855221E+02  0.96775622985E+01  0.39397343967E+02  0.51100000000E-03 0.  1.
         12    1    3    3    0    0  0.26115405702E+02 -0.33368530738E+02 -0.48271041867E+01  0.42647088921E+02  0.00000000000E+00 0. -1.
</event>
<event>
 7    1  0.1698110E-015  0.9000772E+02  0.7816164E-02  0.1186339E+00
        -11   -1    0    0    0    0  0.00000000000E+00  0.00000000000E+00  0.45593999997E+02  0.45594000000E+02  0.51100000000E-03 0. -1.
         11   -1    0    0    0    0 -0.00000000000E+00 -0.00000000000E+00 -0.45593999997E+02  0.45594000000E+02  0.51100000000E-03 0.  1.
    9900012    2    1    2    0    0 -0.72670239535E+00  0.58486073178E+00 -0.72311445864E+00  0.90007723351E+02  0.89999984500E+02 0.  0.
         12    1    1    2    0    0  0.72670239535E+00 -0.58486073178E+00  0.72311445864E+00  0.11802766486E+01  0.00000000000E+00 0. -1.
         11    1    3    3    0    0 -0.46492374651E+01  0.10269386051E+02  0.37989326980E+01  0.11895696229E+02  0.51100000000E-03 0. -1.
        -11    1    3    3    0    0 -0.29897796271E+02 -0.16891165403E+02  0.16018619741E+02  0.37891765190E+02  0.51100000000E-03 0.  1.
         12    1    3    3    0    0  0.33820331341E+02  0.72066400836E+01 -0.20540666898E+02  0.40220261932E+02  0.00000000000E+00 0. -1.
</event>
<event>
 7    1  0.1698110E-015  0.9000775E+02  0.7816164E-02  0.1186339E+00
        -11   -1    0    0    0    0  0.00000000000E+00  0.00000000000E+00  0.45593999997E+02  0.45594000000E+02  0.51100000000E-03 0. -1.
         11   -1    0    0    0    0 -0.00000000000E+00 -0.00000000000E+00 -0.45593999997E+02  0.45594000000E+02  0.51100000000E-03 0.  1.
    9900012    2    1    2    0    0 -0.30357787026E+00 -0.86318910526E+00  0.74547725557E+00  0.90007749479E+02  0.90000010972E+02 0.  0.
         12    1    1    2    0    0  0.30357787026E+00  0.86318910526E+00 -0.74547725557E+00  0.11802505214E+01  0.00000000000E+00 0. -1.
         11    1    3    3    0    0  0.58237405118E+00  0.13656208585E+02  0.35013121906E+02  0.37586565396E+02  0.51100000000E-03 0. -1.
        -11    1    3    3    0    0 -0.26251845618E+01 -0.76207440444E+01  0.69202025484E+01  0.10623395754E+02  0.51100000000E-03 0.  1.
        -12    1    3    3    0    0  0.17392326403E+01 -0.68986536454E+01 -0.41187847199E+02  0.41797788328E+02  0.00000000000E+00 0.  1.
</event>
<event>
 7    1  0.1698110E-015  0.9000767E+02  0.7816164E-02  0.1186339E+00
        -11   -1    0    0    0    0  0.00000000000E+00  0.00000000000E+00  0.45593999997E+02  0.45594000000E+02  0.51100000000E-03 0.  1.
         11   -1    0    0    0    0 -0.00000000000E+00 -0.00000000000E+00 -0.45593999997E+02  0.45594000000E+02  0.51100000000E-03 0. -1.
    9900012    2    1    2    0    0  0.65694687352E+00  0.98037003877E+00  0.21637818822E-01  0.90007672587E+02  0.89999933065E+02 0.  0.
         12    1    1    2    0    0 -0.65694687352E+00 -0.98037003877E+00 -0.21637818822E-01  0.11803274134E+01  0.00000000000E+00 0. -1.
         11    1    3    3    0    0 -0.27634386738E+02  0.30813287050E+02 -0.10054438391E+01  0.41402039887E+02  0.51100000000E-03 0. -1.
        -11    1    3    3    0    0  0.11376652082E+01 -0.17054397833E+00  0.77486806130E+01  0.78336082924E+01  0.51100000000E-03 0.  1.
        -12    1    3    3    0    0  0.27153668404E+02 -0.29662373033E+02 -0.67215989551E+01  0.40772024407E+02  0.00000000000E+00 0.  1.
</event>
<event>
 7    1  0.1698110E-015  0.9000769E+02  0.7816164E-02  0.1186339E+00
        -11   -1    0    0    0    0  0.00000000000E+00  0.00000000000E+00  0.45593999997E+02  0.45594000000E+02  0.51100000000E-03 0. -1.
         11   -1    0    0    0    0 -0.00000000000E+00 -0.00000000000E+00 -0.45593999997E+02  0.45594000000E+02  0.51100000000E-03 0.  1.
    9900012    2    1    2    0    0 -0.22791137785E+00  0.43765890941E+00 -0.10722148065E+01  0.90007689232E+02  0.89999949930E+02 0.  0.
         12    1    1    2    0    0  0.22791137785E+00 -0.43765890941E+00  0.10722148065E+01  0.11803107677E+01  0.00000000000E+00 0. -1.
         11    1    3    3    0    0 -0.25712514682E+02 -0.21780663237E+02  0.31921372583E+01  0.33848492475E+02  0.51100000000E-03 0. -1.
        -11    1    3    3    0    0 -0.75788429264E+01 -0.10542264825E+01  0.10606481123E+02  0.13078520393E+02  0.51100000000E-03 0.  1.
        -12    1    3    3    0    0  0.33063446231E+02  0.23272548629E+02 -0.14870833188E+02  0.43080676365E+02  0.00000000000E+00 0.  1.
</event>
<event>
 7    1  0.1698110E-015  0.9000799E+02  0.7816164E-02  0.1186339E+00
        -11   -1    0    0    0    0  0.00000000000E+00  0.00000000000E+00  0.45593999997E+02  0.45594000000E+02  0.51100000000E-03 0.  1.
         11   -1    0    0    0    0 -0.00000000000E+00 -0.00000000000E+00 -0.45593999997E+02  0.45594000000E+02  0.51100000000E-03 0. -1.
    9900012    2    1    2    0    0 -0.65447535820E+00 -0.85859112754E+00  0.47635288411E+00  0.90007987801E+02  0.90000252440E+02 0.  0.
         12    1    1    2    0    0  0.65447535820E+00  0.85859112754E+00 -0.47635288411E+00  0.11800121987E+01  0.00000000000E+00 0. -1.
         11    1    3    3    0    0 -0.19773120249E+02 -0.25137552216E+02 -0.14177617060E+02  0.34983962634E+02  0.51100000000E-03 0. -1.
        -11    1    3    3    0    0 -0.53752299884E+00 -0.10939169765E+02  0.92414169420E+01  0.14330322867E+02  0.51100000000E-03 0.  1.
        -12    1    3    3    0    0  0.19656167890E+02  0.35218130853E+02  0.54125530017E+01  0.40693702301E+02  0.00000000000E+00 0.  1.
</event>
<event>
 7    1  0.1698110E-015  0.9000809E+02  0.7816164E-02  0.1186338E+00
        -11   -1    0    0    0    0  0.00000000000E+00  0.00000000000E+00  0.45593999997E+02  0.45594000000E+02  0.51100000000E-03 0.  1.
         11   -1    0    0    0    0 -0.00000000000E+00 -0.00000000000E+00 -0.45593999997E+02  0.45594000000E+02  0.51100000000E-03 0. -1.
    9900012    2    1    2    0    0  0.63485307410E+00  0.68675191366E+00  0.71938404735E+00  0.90008093214E+02  0.90000359243E+02 0.  0.
         12    1    1    2    0    0 -0.63485307410E+00 -0.68675191366E+00 -0.71938404735E+00  0.11799067862E+01  0.00000000000E+00 0. -1.
         11    1    3    3    0    0  0.29919099118E+01 -0.14278350417E+01 -0.12570472615E+02  0.13000269992E+02  0.51100000000E-03 0. -1.
        -11    1    3    3    0    0 -0.27938613763E+02 -0.25754162669E+02  0.56753267446E+01  0.38419426957E+02  0.51100000000E-03 0.  1.
         12    1    3    3    0    0  0.25581556926E+02  0.27868749625E+02  0.76145299182E+01  0.38588396264E+02  0.00000000000E+00 0. -1.
</event>
<event>
 7    1  0.1698110E-015  0.9000796E+02  0.7816164E-02  0.1186339E+00
        -11   -1    0    0    0    0  0.00000000000E+00  0.00000000000E+00  0.45593999997E+02  0.45594000000E+02  0.51100000000E-03 0.  1.
         11   -1    0    0    0    0 -0.00000000000E+00 -0.00000000000E+00 -0.45593999997E+02  0.45594000000E+02  0.51100000000E-03 0. -1.
    9900012    2    1    2    0    0 -0.19153522645E+00  0.36463563733E+00  0.11058288478E+01  0.90007956640E+02  0.90000220867E+02 0.  0.
         12    1    1    2    0    0  0.19153522645E+00 -0.36463563733E+00 -0.11058288478E+01  0.11800433600E+01  0.00000000000E+00 0. -1.
         11    1    3    3    0    0 -0.13454013132E+02  0.10069868602E+02 -0.13260628494E+01  0.16857377196E+02  0.51100000000E-03 0. -1.
        -11    1    3    3    0    0 -0.28028280773E+02 -0.14390575379E+02 -0.25942482336E+00  0.31507784504E+02  0.51100000000E-03 0.  1.
        -12    1    3    3    0    0  0.41290758678E+02  0.46853424144E+01  0.26913165205E+01  0.41642794940E+02  0.00000000000E+00 0.  1.
</event>
<event>
 7    1  0.1698110E-015  0.9000765E+02  0.7816164E-02  0.1186339E+00
        -11   -1    0    0    0    0  0.00000000000E+00  0.00000000000E+00  0.45593999997E+02  0.45594000000E+02  0.51100000000E-03 0.  1.
         11   -1    0    0    0    0 -0.00000000000E+00 -0.00000000000E+00 -0.45593999997E+02  0.45594000000E+02  0.51100000000E-03 0. -1.
    9900012    2    1    2    0    0  0.11130468700E+01 -0.32046489936E+00 -0.22727998195E+00  0.90007649511E+02  0.89999909685E+02 0.  0.
         12    1    1    2    0    0 -0.11130468700E+01  0.32046489936E+00  0.22727998195E+00  0.11803504889E+01  0.00000000000E+00 0. -1.
         11    1    3    3    0    0 -0.36072411616E+02 -0.96517165650E+01  0.16996147313E+02  0.41027351074E+02  0.51100000000E-03 0. -1.
        -11    1    3    3    0    0  0.41418650411E+01 -0.71465424345E+01 -0.65573921871E+01  0.10546445247E+02  0.51100000000E-03 0.  1.
        -12    1    3    3    0    0  0.33043593445E+02  0.16477794100E+02 -0.10666035108E+02  0.38433853190E+02  0.00000000000E+00 0.  1.
</event>
<event>
 7    1  0.1698110E-015  0.9000758E+02  0.7816164E-02  0.1186339E+00
        -11   -1    0    0    0    0  0.00000000000E+00  0.00000000000E+00  0.45593999997E+02  0.45594000000E+02  0.51100000000E-03 0.  1.
         11   -1    0    0    0    0 -0.00000000000E+00 -0.00000000000E+00 -0.45593999997E+02  0.45594000000E+02  0.51100000000E-03 0. -1.
    9900012    2    1    2    0    0  0.57324562677E+00 -0.35815394603E+00  0.96773595749E+00  0.90007577329E+02  0.89999836550E+02 0.  0.
         12    1    1    2    0    0 -0.57324562677E+00  0.35815394603E+00 -0.96773595749E+00  0.11804226705E+01  0.00000000000E+00 0. -1.
         11    1    3    3    0    0  0.30737115720E+02  0.66118985632E+01  0.13761750772E+02  0.34320158361E+02  0.51100000000E-03 0. -1.
        -11    1    3    3    0    0  0.96525539698E+01  0.26295556786E+01  0.48179376374E+01  0.11104003086E+02  0.51100000000E-03 0.  1.
        -12    1    3    3    0    0 -0.39816424063E+02 -0.95996081878E+01 -0.17611952452E+02  0.44583415882E+02  0.00000000000E+00 0.  1.
</event>
<event>
 7    1  0.1698110E-015  0.9000774E+02  0.7816164E-02  0.1186339E+00
        -11   -1    0    0    0    0  0.00000000000E+00  0.00000000000E+00  0.45593999997E+02  0.45594000000E+02  0.51100000000E-03 0. -1.
         11   -1    0    0    0    0 -0.00000000000E+00 -0.00000000000E+00 -0.45593999997E+02  0.45594000000E+02  0.51100000000E-03 0.  1.
    9900012    2    1    2    0    0 -0.94808732368E+00  0.10900889724E-01  0.70286958316E+00  0.90007739836E+02  0.90000001202E+02 0.  0.
         12    1    1    2    0    0  0.94808732368E+00 -0.10900889724E-01 -0.70286958316E+00  0.11802601635E+01  0.00000000000E+00 0. -1.
         11    1    3    3    0    0  0.85011317697E+01 -0.33649512351E+02  0.18812252780E+01  0.34757703198E+02  0.51100000000E-03 0. -1.
        -11    1    3    3    0    0 -0.20570241423E+01 -0.10364193436E+02 -0.94489920487E+00  0.10608519626E+02  0.51100000000E-03 0.  1.
        -12    1    3    3    0    0 -0.73921949511E+01  0.44024606676E+02 -0.23345648993E+00  0.44641517012E+02  0.00000000000E+00 0.  1.
</event>
<event>
 7    1  0.1698110E-015  0.9000774E+02  0.7816164E-02  0.1186339E+00
        -11   -1    0    0    0    0  0.00000000000E+00  0.00000000000E+00  0.45593999997E+02  0.45594000000E+02  0.51100000000E-03 0. -1.
         11   -1    0    0    0    0 -0.00000000000E+00 -0.00000000000E+00 -0.45593999997E+02  0.45594000000E+02  0.51100000000E-03 0.  1.
    9900012    2    1    2    0    0 -0.67853497248E+00 -0.77872689676E+00  0.57113321309E+00  0.90007737980E+02  0.89999999321E+02 0.  0.
         12    1    1    2    0    0  0.67853497248E+00  0.77872689676E+00 -0.57113321309E+00  0.11802620199E+01  0.00000000000E+00 0. -1.
         11    1    3    3    0    0  0.14594157140E+02  0.28003134916E+02  0.22359289870E+02  0.38692413100E+02  0.51100000000E-03 0. -1.
        -11    1    3    3    0    0 -0.24999424121E+01  0.70023064025E+01 -0.79328350640E+01  0.10872528659E+02  0.51100000000E-03 0.  1.
        -12    1    3    3    0    0 -0.12772749700E+02 -0.35784168215E+02 -0.13855321593E+02  0.40442796221E+02  0.00000000000E+00 0.  1.
</event>
<event>
 7    1  0.1698110E-015  0.9000773E+02  0.7816164E-02  0.1186339E+00
        -11   -1    0    0    0    0  0.00000000000E+00  0.00000000000E+00  0.45593999997E+02  0.45594000000E+02  0.51100000000E-03 0.  1.
         11   -1    0    0    0    0 -0.00000000000E+00 -0.00000000000E+00 -0.45593999997E+02  0.45594000000E+02  0.51100000000E-03 0. -1.
    9900012    2    1    2    0    0 -0.39205480122E+00  0.49770077880E+00  0.99579996319E+00  0.90007732827E+02  0.89999994101E+02 0.  0.
         12    1    1    2    0    0  0.39205480122E+00 -0.49770077880E+00 -0.99579996319E+00  0.11802671728E+01  0.00000000000E+00 0. -1.
         11    1    3    3    0    0  0.53423874986E+01  0.21948879654E+02  0.33238920402E+02  0.40188558720E+02  0.51100000000E-03 0. -1.
        -11    1    3    3    0    0 -0.19203036936E+01  0.79334227127E+01 -0.90749034532E+01  0.12205762375E+02  0.51100000000E-03 0.  1.
        -12    1    3    3    0    0 -0.38141386062E+01 -0.29384601588E+02 -0.23168216986E+02  0.37613411732E+02  0.00000000000E+00 0.  1.
</event>
<event>
 7    1  0.1698110E-015  0.9000774E+02  0.7816164E-02  0.1186339E+00
        -11   -1    0    0    0    0  0.00000000000E+00  0.00000000000E+00  0.45593999997E+02  0.45594000000E+02  0.51100000000E-03 0. -1.
         11   -1    0    0    0    0 -0.00000000000E+00 -0.00000000000E+00 -0.45593999997E+02  0.45594000000E+02  0.51100000000E-03 0.  1.
    9900012    2    1    2    0    0 -0.90928214613E+00  0.67471538224E+00 -0.33313048282E+00  0.90007741220E+02  0.90000002604E+02 0.  0.
         12    1    1    2    0    0  0.90928214613E+00 -0.67471538224E+00  0.33313048282E+00  0.11802587796E+01  0.00000000000E+00 0. -1.
         11    1    3    3    0    0 -0.45611435874E+01  0.92381887950E+01  0.11206807872E+01  0.10363594392E+02  0.51100000000E-03 0. -1.
        -11    1    3    3    0    0  0.79180047351E+01  0.29179260098E+02 -0.21111487018E+02  0.36875722409E+02  0.51100000000E-03 0.  1.
         12    1    3    3    0    0 -0.42661432939E+01 -0.37742733511E+02  0.19657675748E+02  0.42768424419E+02  0.00000000000E+00 0. -1.
</event>
<event>
 7    1  0.1698110E-015  0.9000778E+02  0.7816164E-02  0.1186339E+00
        -11   -1    0    0    0    0  0.00000000000E+00  0.00000000000E+00  0.45593999997E+02  0.45594000000E+02  0.51100000000E-03 0.  1.
         11   -1    0    0    0    0 -0.00000000000E+00 -0.00000000000E+00 -0.45593999997E+02  0.45594000000E+02  0.51100000000E-03 0. -1.
    9900012    2    1    2    0    0 -0.51761275433E+00 -0.84329806418E+00 -0.64331272573E+00  0.90007777203E+02  0.90000039062E+02 0.  0.
         12    1    1    2    0    0  0.51761275433E+00  0.84329806418E+00  0.64331272573E+00  0.11802227974E+01  0.00000000000E+00 0. -1.
         11    1    3    3    0    0  0.73798786025E+01 -0.40701788046E+01 -0.19892586175E+01  0.86594522805E+01  0.51100000000E-03 0. -1.
        -11    1    3    3    0    0 -0.36025320386E+01  0.37693683379E+01  0.41064675408E+02  0.41394370891E+02  0.51100000000E-03 0.  1.
         12    1    3    3    0    0 -0.42949593183E+01 -0.54248759753E+00 -0.39718729517E+02  0.39953954032E+02  0.00000000000E+00 0. -1.
</event>
<event>
 7    1  0.1698110E-015  0.9000772E+02  0.7816164E-02  0.1186339E+00
        -11   -1    0    0    0    0  0.00000000000E+00  0.00000000000E+00  0.45593999997E+02  0.45594000000E+02  0.51100000000E-03 0.  1.
         11   -1    0    0    0    0 -0.00000000000E+00 -0.00000000000E+00 -0.45593999997E+02  0.45594000000E+02  0.51100000000E-03 0. -1.
    9900012    2    1    2    0    0 -0.14159626737E+00 -0.10310021030E+01 -0.55682745065E+00  0.90007715437E+02  0.89999976481E+02 0.  0.
         12    1    1    2    0    0  0.14159626737E+00  0.10310021030E+01  0.55682745065E+00  0.11802845628E+01  0.00000000000E+00 0. -1.
         11    1    3    3    0    0  0.12731005232E+02  0.33925713954E+02 -0.21984200322E+02  0.42383223398E+02  0.51100000000E-03 0. -1.
        -11    1    3    3    0    0 -0.82934554252E+01 -0.15849053059E+01  0.17811475489E+01  0.86293577149E+01  0.51100000000E-03 0.  1.
        -12    1    3    3    0    0 -0.45791460744E+01 -0.33371810751E+02  0.19646225323E+02  0.38995134325E+02  0.00000000000E+00 0.  1.
</event>
<event>
 7    1  0.1698110E-015  0.9000764E+02  0.7816164E-02  0.1186339E+00
        -11   -1    0    0    0    0  0.00000000000E+00  0.00000000000E+00  0.45593999997E+02  0.45594000000E+02  0.51100000000E-03 0.  1.
         11   -1    0    0    0    0 -0.00000000000E+00 -0.00000000000E+00 -0.45593999997E+02  0.45594000000E+02  0.51100000000E-03 0. -1.
    9900012    2    1    2    0    0 -0.13589548688E+00 -0.11065569065E+01 -0.38769664144E+00  0.90007642234E+02  0.89999902311E+02 0.  0.
         12    1    1    2    0    0  0.13589548688E+00  0.11065569065E+01  0.38769664144E+00  0.11803577663E+01  0.00000000000E+00 0. -1.
         11    1    3    3    0    0  0.57692408463E+01  0.32060793369E+02  0.15215276060E+01  0.32611250480E+02  0.51100000000E-03 0. -1.
        -11    1    3    3    0    0  0.62749119473E+01  0.10361002926E+02  0.58653535973E+00  0.12127197763E+02  0.51100000000E-03 0.  1.
        -12    1    3    3    0    0 -0.12180048280E+02 -0.43528353202E+02 -0.24957596072E+01  0.45269193991E+02  0.00000000000E+00 0.  1.
</event>
<event>
 7    1  0.1698110E-015  0.9000776E+02  0.7816164E-02  0.1186339E+00
        -11   -1    0    0    0    0  0.00000000000E+00  0.00000000000E+00  0.45593999997E+02  0.45594000000E+02  0.51100000000E-03 0.  1.
         11   -1    0    0    0    0 -0.00000000000E+00 -0.00000000000E+00 -0.45593999997E+02  0.45594000000E+02  0.51100000000E-03 0. -1.
    9900012    2    1    2    0    0  0.53018291904E+00  0.31205931148E+00  0.10072248658E+01  0.90007755588E+02  0.90000017162E+02 0.  0.
         12    1    1    2    0    0 -0.53018291904E+00 -0.31205931148E+00 -0.10072248658E+01  0.11802444119E+01  0.00000000000E+00 0. -1.
         11    1    3    3    0    0  0.11943601220E+01 -0.47081832080E+01 -0.71488591628E+01  0.86428972464E+01  0.51100000000E-03 0. -1.
        -11    1    3    3    0    0  0.37545661921E+02 -0.10207853272E+02 -0.21261313409E+01  0.38966619461E+02  0.51100000000E-03 0.  1.
         12    1    3    3    0    0 -0.38209839124E+02  0.15228095791E+02  0.10282215370E+02  0.42398238881E+02  0.00000000000E+00 0. -1.
</event>
<event>
 7    1  0.1698110E-015  0.9000849E+02  0.7816164E-02  0.1186338E+00
        -11   -1    0    0    0    0  0.00000000000E+00  0.00000000000E+00  0.45593999997E+02  0.45594000000E+02  0.51100000000E-03 0. -1.
         11   -1    0    0    0    0 -0.00000000000E+00 -0.00000000000E+00 -0.45593999997E+02  0.45594000000E+02  0.51100000000E-03 0.  1.
    9900012    2    1    2    0    0  0.26852415992E+00  0.71599553095E+00 -0.89805030688E+00  0.90008487737E+02  0.90000758972E+02 0.  0.
         12    1    1    2    0    0 -0.26852415992E+00 -0.71599553095E+00  0.89805030688E+00  0.11795122630E+01  0.00000000000E+00 0. -1.
         11    1    3    3    0    0  0.92383759446E+01  0.12760770267E+02  0.89720490565E+01  0.18129603207E+02  0.51100000000E-03 0. -1.
        -11    1    3    3    0    0  0.20834904835E+02  0.12717503462E+02  0.12196541695E+02  0.27287062564E+02  0.51100000000E-03 0.  1.
         12    1    3    3    0    0 -0.29804756619E+02 -0.24762278198E+02 -0.22066641058E+02  0.44591821967E+02  0.00000000000E+00 0. -1.
</event>
<event>
 7    1  0.1698110E-015  0.9000844E+02  0.7816164E-02  0.1186338E+00
        -11   -1    0    0    0    0  0.00000000000E+00  0.00000000000E+00  0.45593999997E+02  0.45594000000E+02  0.51100000000E-03 0.  1.
         11   -1    0    0    0    0 -0.00000000000E+00 -0.00000000000E+00 -0.45593999997E+02  0.45594000000E+02  0.51100000000E-03 0. -1.
    9900012    2    1    2    0    0 -0.69426803333E+00  0.13100818045E-01  0.95351250340E+00  0.90008438290E+02  0.90000708873E+02 0.  0.
         12    1    1    2    0    0  0.69426803333E+00 -0.13100818045E-01 -0.95351250340E+00  0.11795617100E+01  0.00000000000E+00 0. -1.
         11    1    3    3    0    0 -0.29194277979E+02 -0.20670067362E+02 -0.33661403839E+01  0.35928936149E+02  0.51100000000E-03 0. -1.
        -11    1    3    3    0    0 -0.10161605308E+02  0.21991473049E+01  0.42353322129E+01  0.11226420201E+02  0.51100000000E-03 0.  1.
        -12    1    3    3    0    0  0.38661615254E+02  0.18484020876E+02  0.84320674400E-01  0.42853081940E+02  0.00000000000E+00 0.  1.
</event>
<event>
 7    1  0.1698110E-015  0.9000775E+02  0.7816164E-02  0.1186339E+00
        -11   -1    0    0    0    0  0.00000000000E+00  0.00000000000E+00  0.45593999997E+02  0.45594000000E+02  0.51100000000E-03 0.  1.
         11   -1    0    0    0    0 -0.00000000000E+00 -0.00000000000E+00 -0.45593999997E+02  0.45594000000E+02  0.51100000000E-03 0. -1.
    9900012    2    1    2    0    0 -0.11182918879E+01 -0.35686130115E+00  0.12270878572E+00  0.90007752492E+02  0.90000014025E+02 0.  0.
         12    1    1    2    0    0  0.11182918879E+01  0.35686130115E+00 -0.12270878572E+00  0.11802475084E+01  0.00000000000E+00 0. -1.
         11    1    3    3    0    0 -0.56092828887E+01 -0.10280540347E+01 -0.10444676783E+02  0.11900093402E+02  0.51100000000E-03 0. -1.
        -11    1    3    3    0    0 -0.71112237598E+01 -0.23040721538E+02  0.34757117194E+02  0.42302500496E+02  0.51100000000E-03 0.  1.
         12    1    3    3    0    0  0.11602214761E+02  0.23711914271E+02 -0.24189731626E+02  0.35805158593E+02  0.00000000000E+00 0. -1.
</event>
<event>
 7    1  0.1698110E-015  0.9000795E+02  0.7816164E-02  0.1186339E+00
        -11   -1    0    0    0    0  0.00000000000E+00  0.00000000000E+00  0.45593999997E+02  0.45594000000E+02  0.51100000000E-03 0. -1.
         11   -1    0    0    0    0 -0.00000000000E+00 -0.00000000000E+00 -0.45593999997E+02  0.45594000000E+02  0.51100000000E-03 0.  1.
    9900012    2    1    2    0    0 -0.96827064690E+00  0.24296673189E+00  0.62923635769E+00  0.90007949462E+02  0.90000213595E+02 0.  0.
         12    1    1    2    0    0  0.96827064690E+00 -0.24296673189E+00 -0.62923635769E+00  0.11800505380E+01  0.00000000000E+00 0. -1.
         11    1    3    3    0    0 -0.15461584323E+02 -0.22815353372E+01  0.39292378389E+02  0.42286605362E+02  0.51100000000E-03 0. -1.
        -11    1    3    3    0    0  0.52437316050E+01 -0.65860037469E+01 -0.17593570672E+01  0.86004362710E+01  0.51100000000E-03 0.  1.
        -12    1    3    3    0    0  0.92495820713E+01  0.91105058160E+01 -0.36903784964E+02  0.39120907829E+02  0.00000000000E+00 0.  1.
</event>
<event>
 7    1  0.1755737E-015  0.9000785E+02  0.7816164E-02  0.1186339E+00
        -11   -1    0    0    0    0  0.00000000000E+00  0.00000000000E+00  0.45593999997E+02  0.45594000000E+02  0.51100000000E-03 0. -1.
         11   -1    0    0    0    0 -0.00000000000E+00 -0.00000000000E+00 -0.45593999997E+02  0.45594000000E+02  0.51100000000E-03 0.  1.
    9900012    2    1    2    0    0  0.11225510777E+01 -0.33256408991E-01 -0.36266375764E+00  0.90007850894E+02  0.90000113726E+02 0.  0.
         12    1    1    2    0    0 -0.11225510777E+01  0.33256408991E-01  0.36266375764E+00  0.11801491058E+01  0.00000000000E+00 0. -1.
         11    1    3    3    0    0  0.80313811986E+00  0.41922512838E+01  0.78933241512E+01  0.89735482438E+01  0.51100000000E-03 0. -1.
        -11    1    3    3    0    0  0.35277985383E+02  0.16358278631E+02 -0.10884917327E+02  0.40380824136E+02  0.51100000000E-03 0.  1.
         12    1    3    3    0    0 -0.34958572425E+02 -0.20583786324E+02  0.26289294184E+01  0.40653478514E+02  0.00000000000E+00 0. -1.
</event>
<event>
 7    1  0.1698110E-015  0.9000772E+02  0.7816164E-02  0.1186339E+00
        -11   -1    0    0    0    0  0.00000000000E+00  0.00000000000E+00  0.45593999997E+02  0.45594000000E+02  0.51100000000E-03 0. -1.
         11   -1    0    0    0    0 -0.00000000000E+00 -0.00000000000E+00 -0.45593999997E+02  0.45594000000E+02  0.51100000000E-03 0.  1.
    9900012    2    1    2    0    0 -0.18999196389E+00  0.24677727766E+00 -0.11384528507E+01  0.90007715770E+02  0.89999976818E+02 0.  0.
         12    1    1    2    0    0  0.18999196389E+00 -0.24677727766E+00  0.11384528507E+01  0.11802842303E+01  0.00000000000E+00 0. -1.
         11    1    3    3    0    0  0.44195487099E+01 -0.28887609269E+02  0.18547384510E+02  0.34612596732E+02  0.51100000000E-03 0. -1.
        -11    1    3    3    0    0  0.45567555135E+01 -0.29426332368E+01  0.95849811688E+01  0.11013399813E+02  0.51100000000E-03 0.  1.
        -12    1    3    3    0    0 -0.91662961873E+01  0.32077019784E+02 -0.29270818529E+02  0.44381719225E+02  0.00000000000E+00 0.  1.
</event>
<event>
 7    1  0.1698110E-015  0.9000771E+02  0.7816164E-02  0.1186339E+00
        -11   -1    0    0    0    0  0.00000000000E+00  0.00000000000E+00  0.45593999997E+02  0.45594000000E+02  0.51100000000E-03 0. -1.
         11   -1    0    0    0    0 -0.00000000000E+00 -0.00000000000E+00 -0.45593999997E+02  0.45594000000E+02  0.51100000000E-03 0.  1.
    9900012    2    1    2    0    0 -0.11187210876E+01 -0.23373141101E+00 -0.29479863123E+00  0.90007714663E+02  0.89999975696E+02 0.  0.
         12    1    1    2    0    0  0.11187210876E+01  0.23373141101E+00  0.29479863123E+00  0.11802853373E+01  0.00000000000E+00 0. -1.
         11    1    3    3    0    0  0.23945414309E+02 -0.15857683005E+01  0.27389729276E+02  0.36415584543E+02  0.51100000000E-03 0. -1.
        -11    1    3    3    0    0  0.59033986299E+01  0.61650240663E+01  0.36424543960E+01  0.92803615991E+01  0.51100000000E-03 0.  1.
        -12    1    3    3    0    0 -0.30967534026E+02 -0.48129871768E+01 -0.31326982303E+02  0.44311768521E+02  0.00000000000E+00 0.  1.
</event>
<event>
 7    1  0.1698110E-015  0.9000765E+02  0.7816164E-02  0.1186339E+00
        -11   -1    0    0    0    0  0.00000000000E+00  0.00000000000E+00  0.45593999997E+02  0.45594000000E+02  0.51100000000E-03 0.  1.
         11   -1    0    0    0    0 -0.00000000000E+00 -0.00000000000E+00 -0.45593999997E+02  0.45594000000E+02  0.51100000000E-03 0. -1.
    9900012    2    1    2    0    0 -0.66661212408E+00  0.36932501066E+00  0.90136635963E+00  0.90007646662E+02  0.89999906798E+02 0.  0.
         12    1    1    2    0    0  0.66661212408E+00 -0.36932501066E+00 -0.90136635963E+00  0.11803533377E+01  0.00000000000E+00 0. -1.
         11    1    3    3    0    0  0.45929064008E+01  0.22018902250E+01 -0.93093504945E+01  0.10611650044E+02  0.51100000000E-03 0. -1.
        -11    1    3    3    0    0  0.68003994555E+01  0.34702873776E+02 -0.88579252141E+01  0.36455421002E+02  0.51100000000E-03 0.  1.
         12    1    3    3    0    0 -0.12059917980E+02 -0.36535438990E+02  0.19068642068E+02  0.42940575616E+02  0.00000000000E+00 0. -1.
</event>
<event>
 7    1  0.1698110E-015  0.9000769E+02  0.7816164E-02  0.1186339E+00
        -11   -1    0    0    0    0  0.00000000000E+00  0.00000000000E+00  0.45593999997E+02  0.45594000000E+02  0.51100000000E-03 0.  1.
         11   -1    0    0    0    0 -0.00000000000E+00 -0.00000000000E+00 -0.45593999997E+02  0.45594000000E+02  0.51100000000E-03 0. -1.
    9900012    2    1    2    0    0 -0.33688573710E+00 -0.28752688638E+00 -0.10940635209E+01  0.90007687034E+02  0.89999947703E+02 0.  0.
         12    1    1    2    0    0  0.33688573710E+00  0.28752688638E+00  0.10940635209E+01  0.11803129661E+01  0.00000000000E+00 0. -1.
         11    1    3    3    0    0  0.33679018468E+01  0.88737711294E+01 -0.56676184572E+01  0.11054794261E+02  0.51100000000E-03 0. -1.
        -11    1    3    3    0    0  0.13008142987E+02 -0.25423036534E+02  0.32041988653E+02  0.42921225608E+02  0.51100000000E-03 0.  1.
         12    1    3    3    0    0 -0.16712930571E+02  0.16261738518E+02 -0.27468433717E+02  0.36031667166E+02  0.00000000000E+00 0. -1.
</event>
<event>
 7    1  0.1698110E-015  0.9000763E+02  0.7816164E-02  0.1186339E+00
        -11   -1    0    0    0    0  0.00000000000E+00  0.00000000000E+00  0.45593999997E+02  0.45594000000E+02  0.51100000000E-03 0. -1.
         11   -1    0    0    0    0 -0.00000000000E+00 -0.00000000000E+00 -0.45593999997E+02  0.45594000000E+02  0.51100000000E-03 0.  1.
    9900012    2    1    2    0    0  0.89757669319E+00  0.66553822724E+00 -0.38036665932E+00  0.90007634020E+02  0.89999893989E+02 0.  0.
         12    1    1    2    0    0 -0.89757669319E+00 -0.66553822724E+00  0.38036665932E+00  0.11803659804E+01  0.00000000000E+00 0. -1.
         11    1    3    3    0    0  0.19348770764E+01  0.85182903945E+01  0.34285902719E+02  0.35381183503E+02  0.51100000000E-03 0. -1.
        -11    1    3    3    0    0 -0.51628643212E+01 -0.10055139107E+02  0.66047170284E+01  0.13091343619E+02  0.51100000000E-03 0.  1.
        -12    1    3    3    0    0  0.41255639379E+01  0.22023869397E+01 -0.41270986407E+02  0.41535106898E+02  0.00000000000E+00 0.  1.
</event>
<event>
 7    1  0.1698110E-015  0.9000768E+02  0.7816164E-02  0.1186339E+00
        -11   -1    0    0    0    0  0.00000000000E+00  0.00000000000E+00  0.45593999997E+02  0.45594000000E+02  0.51100000000E-03 0. -1.
         11   -1    0    0    0    0 -0.00000000000E+00 -0.00000000000E+00 -0.45593999997E+02  0.45594000000E+02  0.51100000000E-03 0.  1.
    9900012    2    1    2    0    0 -0.11530468621E+01  0.19011712483E+00  0.16579924392E+00  0.90007681832E+02  0.89999942433E+02 0.  0.
         12    1    1    2    0    0  0.11530468621E+01 -0.19011712483E+00 -0.16579924392E+00  0.11803181676E+01  0.00000000000E+00 0. -1.
         11    1    3    3    0    0  0.19753089115E+02  0.12937675803E+00  0.34262344618E+02  0.39548824595E+02  0.51100000000E-03 0. -1.
        -11    1    3    3    0    0  0.62564001477E+01  0.57863605623E+01 -0.36895685109E+01  0.92864109010E+01  0.51100000000E-03 0.  1.
        -12    1    3    3    0    0 -0.27162536125E+02 -0.57256201955E+01 -0.30406976863E+02  0.41172446336E+02  0.00000000000E+00 0.  1.
</event>
<event>
 7    1  0.1698110E-015  0.9000799E+02  0.7816164E-02  0.1186339E+00
        -11   -1    0    0    0    0  0.00000000000E+00  0.00000000000E+00  0.45593999997E+02  0.45594000000E+02  0.51100000000E-03 0. -1.
         11   -1    0    0    0    0 -0.00000000000E+00 -0.00000000000E+00 -0.45593999997E+02  0.45594000000E+02  0.51100000000E-03 0.  1.
    9900012    2    1    2    0    0  0.21459721365E+00  0.11376736736E+01 -0.22821273142E+00  0.90007985423E+02  0.90000250030E+02 0.  0.
         12    1    1    2    0    0 -0.21459721365E+00 -0.11376736736E+01  0.22821273142E+00  0.11800145772E+01  0.00000000000E+00 0. -1.
         11    1    3    3    0    0 -0.24704177052E+00  0.62609663580E+01 -0.84076882309E+01  0.10485702219E+02  0.51100000000E-03 0. -1.
        -11    1    3    3    0    0 -0.19060446158E+02 -0.12492793259E+02 -0.29002521804E+02  0.36885183508E+02  0.51100000000E-03 0.  1.
         12    1    3    3    0    0  0.19522085142E+02  0.73695005742E+01  0.37181997304E+02  0.42637099696E+02  0.00000000000E+00 0. -1.
</event>
<event>
 7    1  0.1698110E-015  0.9000774E+02  0.7816164E-02  0.1186339E+00
        -11   -1    0    0    0    0  0.00000000000E+00  0.00000000000E+00  0.45593999997E+02  0.45594000000E+02  0.51100000000E-03 0.  1.
         11   -1    0    0    0    0 -0.00000000000E+00 -0.00000000000E+00 -0.45593999997E+02  0.45594000000E+02  0.51100000000E-03 0. -1.
    9900012    2    1    2    0    0  0.16421525992E+00 -0.58083930225E+00  0.10142344860E+01  0.90007740478E+02  0.90000001852E+02 0.  0.
         12    1    1    2    0    0 -0.16421525992E+00  0.58083930225E+00 -0.10142344860E+01  0.11802595220E+01  0.00000000000E+00 0. -1.
         11    1    3    3    0    0  0.46439606106E+01 -0.69832510192E+01  0.38799350735E+01  0.92404578559E+01  0.51100000000E-03 0. -1.
        -11    1    3    3    0    0 -0.21892314040E+02 -0.29937577806E+02 -0.12852308201E+02  0.39251927408E+02  0.51100000000E-03 0.  1.
         12    1    3    3    0    0  0.17412568689E+02  0.36339989523E+02  0.99866076138E+01  0.41515355214E+02  0.00000000000E+00 0. -1.
</event>
<event>
 7    1  0.1698110E-015  0.9000773E+02  0.7816164E-02  0.1186339E+00
        -11   -1    0    0    0    0  0.00000000000E+00  0.00000000000E+00  0.45593999997E+02  0.45594000000E+02  0.51100000000E-03 0.  1.
         11   -1    0    0    0    0 -0.00000000000E+00 -0.00000000000E+00 -0.45593999997E+02  0.45594000000E+02  0.51100000000E-03 0. -1.
    9900012    2    1    2    0    0  0.34699071581E+00  0.10927121267E+01  0.28039197918E+00  0.90007727993E+02  0.89999989202E+02 0.  0.
         12    1    1    2    0    0 -0.34699071581E+00 -0.10927121267E+01 -0.28039197918E+00  0.11802720070E+01  0.00000000000E+00 0. -1.
         11    1    3    3    0    0 -0.22667807031E+02 -0.12530452835E+02 -0.18916310501E+02  0.32072862783E+02  0.51100000000E-03 0. -1.
        -11    1    3    3    0    0  0.23380979494E+02 -0.85574013011E+00 -0.99215726226E+01  0.25413384207E+02  0.51100000000E-03 0.  1.
        -12    1    3    3    0    0 -0.36618174694E+00  0.14478905092E+02  0.29118275102E+02  0.32521481004E+02  0.00000000000E+00 0.  1.
</event>
<event>
 7    1  0.1698110E-015  0.9000776E+02  0.7816164E-02  0.1186339E+00
        -11   -1    0    0    0    0  0.00000000000E+00  0.00000000000E+00  0.45593999997E+02  0.45594000000E+02  0.51100000000E-03 0. -1.
         11   -1    0    0    0    0 -0.00000000000E+00 -0.00000000000E+00 -0.45593999997E+02  0.45594000000E+02  0.51100000000E-03 0.  1.
    9900012    2    1    2    0    0  0.56805198952E+00  0.10309113359E+01 -0.86674089095E-01  0.90007756956E+02  0.90000018548E+02 0.  0.
         12    1    1    2    0    0 -0.56805198952E+00 -0.10309113359E+01  0.86674089095E-01  0.11802430440E+01  0.00000000000E+00 0. -1.
         11    1    3    3    0    0  0.12707845048E+02 -0.91086915224E+01  0.32580352121E+02  0.36137749399E+02  0.51100000000E-03 0. -1.
        -11    1    3    3    0    0 -0.44790367308E+01  0.68786831367E+01  0.85311987995E+01  0.11838893738E+02  0.51100000000E-03 0.  1.
        -12    1    3    3    0    0 -0.76607563277E+01  0.32609197216E+01 -0.41198225009E+02  0.42031113819E+02  0.00000000000E+00 0.  1.
</event>
<event>
 7    1  0.1698110E-015  0.9000778E+02  0.7816164E-02  0.1186339E+00
        -11   -1    0    0    0    0  0.00000000000E+00  0.00000000000E+00  0.45593999997E+02  0.45594000000E+02  0.51100000000E-03 0. -1.
         11   -1    0    0    0    0 -0.00000000000E+00 -0.00000000000E+00 -0.45593999997E+02  0.45594000000E+02  0.51100000000E-03 0.  1.
    9900012    2    1    2    0    0  0.62181042537E+00 -0.90163078431E+00 -0.43969079160E+00  0.90007782110E+02  0.90000044034E+02 0.  0.
         12    1    1    2    0    0 -0.62181042537E+00  0.90163078431E+00  0.43969079160E+00  0.11802178903E+01  0.00000000000E+00 0. -1.
         11    1    3    3    0    0 -0.28986093794E+01  0.33003453591E+02 -0.21029988293E+00  0.33131165261E+02  0.51100000000E-03 0. -1.
        -11    1    3    3    0    0 -0.20946712183E+02 -0.16449814093E+02 -0.24073433161E+01  0.26742408961E+02  0.51100000000E-03 0.  1.
        -12    1    3    3    0    0  0.24467131988E+02 -0.17455270282E+02  0.21779524074E+01  0.30134207888E+02  0.00000000000E+00 0.  1.
</event>
<event>
 7    1  0.1698110E-015  0.9000775E+02  0.7816164E-02  0.1186339E+00
        -11   -1    0    0    0    0  0.00000000000E+00  0.00000000000E+00  0.45593999997E+02  0.45594000000E+02  0.51100000000E-03 0. -1.
         11   -1    0    0    0    0 -0.00000000000E+00 -0.00000000000E+00 -0.45593999997E+02  0.45594000000E+02  0.51100000000E-03 0.  1.
    9900012    2    1    2    0    0  0.52252157276E+00  0.84160557365E+00 -0.64159996193E+00  0.90007754582E+02  0.90000016142E+02 0.  0.
         12    1    1    2    0    0 -0.52252157276E+00 -0.84160557365E+00  0.64159996193E+00  0.11802454180E+01  0.00000000000E+00 0. -1.
         11    1    3    3    0    0  0.11793134623E+01 -0.79875496356E+01  0.58120889198E+01  0.99484726112E+01  0.51100000000E-03 0. -1.
        -11    1    3    3    0    0  0.21395236053E+02 -0.20074546781E+02 -0.25629551596E+02  0.38956610087E+02  0.51100000000E-03 0.  1.
         12    1    3    3    0    0 -0.22052027943E+02  0.28903701990E+02  0.19175862715E+02  0.41102671883E+02  0.00000000000E+00 0. -1.
</event>
<event>
 7    1  0.1698110E-015  0.9000773E+02  0.7816164E-02  0.1186339E+00
        -11   -1    0    0    0    0  0.00000000000E+00  0.00000000000E+00  0.45593999997E+02  0.45594000000E+02  0.51100000000E-03 0.  1.
         11   -1    0    0    0    0 -0.00000000000E+00 -0.00000000000E+00 -0.45593999997E+02  0.45594000000E+02  0.51100000000E-03 0. -1.
    9900012    2    1    2    0    0  0.77168298373E+00  0.46636745102E+00  0.76160590982E+00  0.90007730205E+02  0.89999991444E+02 0.  0.
         12    1    1    2    0    0 -0.77168298373E+00 -0.46636745102E+00 -0.76160590982E+00  0.11802697948E+01  0.00000000000E+00 0. -1.
         11    1    3    3    0    0  0.40585258733E+02 -0.91405987636E+01  0.42392867018E+01  0.41817284993E+02  0.51100000000E-03 0. -1.
        -11    1    3    3    0    0 -0.44817101943E+01  0.86377734881E+01  0.62072818381E+01  0.11542408985E+02  0.51100000000E-03 0.  1.
        -12    1    3    3    0    0 -0.35331865555E+02  0.96919272651E+00 -0.96849626300E+01  0.36648036227E+02  0.00000000000E+00 0.  1.
</event>
<event>
 7    1  0.1698110E-015  0.9000773E+02  0.7816164E-02  0.1186339E+00
        -11   -1    0    0    0    0  0.00000000000E+00  0.00000000000E+00  0.45593999997E+02  0.45594000000E+02  0.51100000000E-03 0.  1.
         11   -1    0    0    0    0 -0.00000000000E+00 -0.00000000000E+00 -0.45593999997E+02  0.45594000000E+02  0.51100000000E-03 0. -1.
    9900012    2    1    2    0    0  0.82773126113E+00 -0.40191570410E+00 -0.73915599280E+00  0.90007734413E+02  0.89999995707E+02 0.  0.
         12    1    1    2    0    0 -0.82773126113E+00  0.40191570410E+00  0.73915599280E+00  0.11802655869E+01  0.00000000000E+00 0. -1.
         11    1    3    3    0    0  0.55106286911E+01 -0.11017307049E+02 -0.21374522274E+01  0.12502671134E+02  0.51100000000E-03 0. -1.
        -11    1    3    3    0    0  0.31502508361E+01 -0.34376597679E+01  0.37600667402E+02  0.37888676070E+02  0.51100000000E-03 0.  1.
         12    1    3    3    0    0 -0.78331482661E+01  0.14053051113E+02 -0.36202371168E+02  0.39616387209E+02  0.00000000000E+00 0. -1.
</event>
<event>
 7    1  0.1698110E-015  0.9000800E+02  0.7816164E-02  0.1186339E+00
        -11   -1    0    0    0    0  0.00000000000E+00  0.00000000000E+00  0.45593999997E+02  0.45594000000E+02  0.51100000000E-03 0.  1.
         11   -1    0    0    0    0 -0.00000000000E+00 -0.00000000000E+00 -0.45593999997E+02  0.45594000000E+02  0.51100000000E-03 0. -1.
    9900012    2    1    2    0    0 -0.13106958036E+00 -0.89534362110E+00  0.75735762338E+00  0.90007995761E+02  0.90000260505E+02 0.  0.
         12    1    1    2    0    0  0.13106958036E+00  0.89534362110E+00 -0.75735762338E+00  0.11800042392E+01  0.00000000000E+00 0. -1.
         11    1    3    3    0    0  0.36561709136E+02  0.94059289848E+01  0.19988028874E+01  0.37805096062E+02  0.51100000000E-03 0. -1.
        -11    1    3    3    0    0  0.50975531007E+01 -0.85505914924E+01 -0.28188309075E+01  0.10346181442E+02  0.51100000000E-03 0.  1.
        -12    1    3    3    0    0 -0.41790331817E+02 -0.17506811135E+01  0.15773856435E+01  0.41856718257E+02  0.00000000000E+00 0.  1.
</event>
<event>
 7    1  0.1698110E-015  0.9000766E+02  0.7816164E-02  0.1186339E+00
        -11   -1    0    0    0    0  0.00000000000E+00  0.00000000000E+00  0.45593999997E+02  0.45594000000E+02  0.51100000000E-03 0. -1.
         11   -1    0    0    0    0 -0.00000000000E+00 -0.00000000000E+00 -0.45593999997E+02  0.45594000000E+02  0.51100000000E-03 0.  1.
    9900012    2    1    2    0    0  0.22912262313E+00 -0.11436949526E+01  0.18074256633E+00  0.90007659712E+02  0.89999920020E+02 0.  0.
         12    1    1    2    0    0 -0.22912262313E+00  0.11436949526E+01 -0.18074256633E+00  0.11803402884E+01  0.00000000000E+00 0. -1.
         11    1    3    3    0    0  0.60147091342E+00  0.92821010903E+01  0.18824490935E+01  0.94901413457E+01  0.51100000000E-03 0. -1.
        -11    1    3    3    0    0 -0.39473634290E+02 -0.96632690826E+01 -0.63543760963E+01  0.41133011916E+02  0.51100000000E-03 0.  1.
         12    1    3    3    0    0  0.39101286000E+02 -0.76252696032E+00  0.46526695692E+01  0.39384506450E+02  0.00000000000E+00 0. -1.
</event>
<event>
 7    1  0.1698110E-015  0.9000773E+02  0.7816164E-02  0.1186339E+00
        -11   -1    0    0    0    0  0.00000000000E+00  0.00000000000E+00  0.45593999997E+02  0.45594000000E+02  0.51100000000E-03 0.  1.
         11   -1    0    0    0    0 -0.00000000000E+00 -0.00000000000E+00 -0.45593999997E+02  0.45594000000E+02  0.51100000000E-03 0. -1.
    9900012    2    1    2    0    0 -0.35088674498E+00 -0.65211168118E-01  0.11250151585E+01  0.90007731763E+02  0.89999993022E+02 0.  0.
         12    1    1    2    0    0  0.35088674498E+00  0.65211168118E-01 -0.11250151585E+01  0.11802682369E+01  0.00000000000E+00 0. -1.
         11    1    3    3    0    0  0.40171944602E+01 -0.10938024857E+02 -0.56130703558E-01  0.11652527195E+02  0.51100000000E-03 0. -1.
        -11    1    3    3    0    0  0.31632411621E+02  0.21392026823E+02  0.10705346389E+02  0.39658955081E+02  0.51100000000E-03 0.  1.
         12    1    3    3    0    0 -0.36000492826E+02 -0.10519213133E+02 -0.95242005273E+01  0.38696249487E+02  0.00000000000E+00 0. -1.
</event>
<event>
 7    1  0.1698110E-015  0.9000776E+02  0.7816164E-02  0.1186339E+00
        -11   -1    0    0    0    0  0.00000000000E+00  0.00000000000E+00  0.45593999997E+02  0.45594000000E+02  0.51100000000E-03 0.  1.
         11   -1    0    0    0    0 -0.00000000000E+00 -0.00000000000E+00 -0.45593999997E+02  0.45594000000E+02  0.51100000000E-03 0. -1.
    9900012    2    1    2    0    0  0.98747965640E+00 -0.43314983440E+00  0.47981891888E+00  0.90007762293E+02  0.90000023955E+02 0.  0.
         12    1    1    2    0    0 -0.98747965640E+00  0.43314983440E+00 -0.47981891888E+00  0.11802377073E+01  0.00000000000E+00 0. -1.
         11    1    3    3    0    0  0.89750451934E+01 -0.21282825801E+01  0.57206737078E+01  0.10853899341E+02  0.51100000000E-03 0. -1.
        -11    1    3    3    0    0  0.23795894458E+02 -0.10101754199E+02 -0.28163729876E+02  0.38229382832E+02  0.51100000000E-03 0.  1.
         12    1    3    3    0    0 -0.31783459995E+02  0.11796886945E+02  0.22922875087E+02  0.40924480120E+02  0.00000000000E+00 0. -1.
</event>
<event>
 7    1  0.1698110E-015  0.9000774E+02  0.7816164E-02  0.1186339E+00
        -11   -1    0    0    0    0  0.00000000000E+00  0.00000000000E+00  0.45593999997E+02  0.45594000000E+02  0.51100000000E-03 0.  1.
         11   -1    0    0    0    0 -0.00000000000E+00 -0.00000000000E+00 -0.45593999997E+02  0.45594000000E+02  0.51100000000E-03 0. -1.
    9900012    2    1    2    0    0  0.50465147696E+00  0.58497017976E+00  0.89226904652E+00  0.90007742708E+02  0.90000004112E+02 0.  0.
         12    1    1    2    0    0 -0.50465147696E+00 -0.58497017976E+00 -0.89226904652E+00  0.11802572922E+01  0.00000000000E+00 0. -1.
         11    1    3    3    0    0 -0.26282017729E+01  0.90004131846E+01  0.46304203022E+01  0.10457326355E+02  0.51100000000E-03 0. -1.
        -11    1    3    3    0    0  0.20326756730E+02  0.29399929306E+02 -0.10962966414E+02  0.37386087188E+02  0.51100000000E-03 0.  1.
         12    1    3    3    0    0 -0.17193903481E+02 -0.37815372311E+02  0.72248151579E+01  0.42164329165E+02  0.00000000000E+00 0. -1.
</event>
<event>
 7    1  0.1698110E-015  0.9000784E+02  0.7816164E-02  0.1186339E+00
        -11   -1    0    0    0    0  0.00000000000E+00  0.00000000000E+00  0.45593999997E+02  0.45594000000E+02  0.51100000000E-03 0.  1.
         11   -1    0    0    0    0 -0.00000000000E+00 -0.00000000000E+00 -0.45593999997E+02  0.45594000000E+02  0.51100000000E-03 0. -1.
    9900012    2    1    2    0    0  0.55474555634E+00  0.72615497497E+00 -0.74680926431E+00  0.90007844181E+02  0.90000106924E+02 0.  0.
         12    1    1    2    0    0 -0.55474555634E+00 -0.72615497497E+00  0.74680926431E+00  0.11801558190E+01  0.00000000000E+00 0. -1.
         11    1    3    3    0    0 -0.25253810613E+02  0.15512179975E+02 -0.23271725135E+02  0.37682301801E+02  0.51100000000E-03 0. -1.
        -11    1    3    3    0    0 -0.44329297366E+00  0.10637165367E+02  0.42112142598E+01  0.11449022732E+02  0.51100000000E-03 0.  1.
        -12    1    3    3    0    0  0.26251849143E+02 -0.25423190367E+02  0.18313701610E+02  0.40876519648E+02  0.00000000000E+00 0.  1.
</event>
<event>
 7    1  0.1698110E-015  0.9000822E+02  0.7816164E-02  0.1186338E+00
        -11   -1    0    0    0    0  0.00000000000E+00  0.00000000000E+00  0.45593999997E+02  0.45594000000E+02  0.51100000000E-03 0.  1.
         11   -1    0    0    0    0 -0.00000000000E+00 -0.00000000000E+00 -0.45593999997E+02  0.45594000000E+02  0.51100000000E-03 0. -1.
    9900012    2    1    2    0    0  0.54041294161E+00  0.39765746249E+00  0.97041683328E+00  0.90008217632E+02  0.90000485304E+02 0.  0.
         12    1    1    2    0    0 -0.54041294161E+00 -0.39765746249E+00 -0.97041683328E+00  0.11797823678E+01  0.00000000000E+00 0. -1.
         11    1    3    3    0    0  0.71118676567E+01  0.11873969542E+02 -0.45181514905E+01  0.14559653409E+02  0.51100000000E-03 0. -1.
        -11    1    3    3    0    0 -0.27869964033E+02  0.19352901429E+02  0.14516822226E+02  0.36905390077E+02  0.51100000000E-03 0.  1.
         12    1    3    3    0    0  0.21298509318E+02 -0.30829213509E+02 -0.90282539021E+01  0.38543174146E+02  0.00000000000E+00 0. -1.
</event>
<event>
 7    1  0.1698110E-015  0.9000769E+02  0.7816164E-02  0.1186339E+00
        -11   -1    0    0    0    0  0.00000000000E+00  0.00000000000E+00  0.45593999997E+02  0.45594000000E+02  0.51100000000E-03 0.  1.
         11   -1    0    0    0    0 -0.00000000000E+00 -0.00000000000E+00 -0.45593999997E+02  0.45594000000E+02  0.51100000000E-03 0. -1.
    9900012    2    1    2    0    0 -0.42595208162E+00  0.57183165792E+00  0.94058446911E+00  0.90007692513E+02  0.89999953254E+02 0.  0.
         12    1    1    2    0    0  0.42595208162E+00 -0.57183165792E+00 -0.94058446911E+00  0.11803074872E+01  0.00000000000E+00 0. -1.
         11    1    3    3    0    0  0.27867272461E+02  0.18806456315E+02  0.11144636791E+02  0.35418506504E+02  0.51100000000E-03 0. -1.
        -11    1    3    3    0    0  0.74229864891E+01  0.19806943595E+01  0.67097082521E+01  0.10200199197E+02  0.51100000000E-03 0.  1.
        -12    1    3    3    0    0 -0.35716211032E+02 -0.20215319016E+02 -0.16913760574E+02  0.44388986812E+02  0.00000000000E+00 0.  1.
</event>
<event>
 7    1  0.1698110E-015  0.9000875E+02  0.7816164E-02  0.1186337E+00
        -11   -1    0    0    0    0  0.00000000000E+00  0.00000000000E+00  0.45593999997E+02  0.45594000000E+02  0.51100000000E-03 0. -1.
         11   -1    0    0    0    0 -0.00000000000E+00 -0.00000000000E+00 -0.45593999997E+02  0.45594000000E+02  0.51100000000E-03 0.  1.
    9900012    2    1    2    0    0 -0.17303382607E+00  0.87564117114E+00 -0.77068358234E+00  0.90008745426E+02  0.90001020060E+02 0.  0.
         12    1    1    2    0    0  0.17303382607E+00 -0.87564117114E+00  0.77068358234E+00  0.11792545737E+01  0.00000000000E+00 0. -1.
         11    1    3    3    0    0  0.11606554264E+02 -0.12723226350E+02  0.17874883704E+02  0.24821443518E+02  0.51100000000E-03 0. -1.
        -11    1    3    3    0    0 -0.34481081741E+01  0.13648401796E+02  0.20664614706E+02  0.25003892153E+02  0.51100000000E-03 0.  1.
        -12    1    3    3    0    0 -0.83314799159E+01 -0.49534275156E-01 -0.39310181993E+02  0.40183409755E+02  0.00000000000E+00 0.  1.
</event>
<event>
 7    1  0.1698110E-015  0.9000768E+02  0.7816164E-02  0.1186339E+00
        -11   -1    0    0    0    0  0.00000000000E+00  0.00000000000E+00  0.45593999997E+02  0.45594000000E+02  0.51100000000E-03 0.  1.
         11   -1    0    0    0    0 -0.00000000000E+00 -0.00000000000E+00 -0.45593999997E+02  0.45594000000E+02  0.51100000000E-03 0. -1.
    9900012    2    1    2    0    0 -0.11150229798E+01 -0.44623546982E-01 -0.38455284188E+00  0.90007682926E+02  0.89999943541E+02 0.  0.
         12    1    1    2    0    0  0.11150229798E+01  0.44623546982E-01  0.38455284188E+00  0.11803170738E+01  0.00000000000E+00 0. -1.
         11    1    3    3    0    0  0.80822681701E+01 -0.98916892858E+00 -0.56563117441E+01  0.99144024908E+01  0.51100000000E-03 0. -1.
        -11    1    3    3    0    0  0.23531466442E+02 -0.22102029369E+02  0.19376450609E+02  0.37652044481E+02  0.51100000000E-03 0.  1.
         12    1    3    3    0    0 -0.32728757591E+02  0.23046574751E+02 -0.14104691706E+02  0.42441235955E+02  0.00000000000E+00 0. -1.
</event>
<event>
 7    1  0.1698110E-015  0.9000768E+02  0.7816164E-02  0.1186339E+00
        -11   -1    0    0    0    0  0.00000000000E+00  0.00000000000E+00  0.45593999997E+02  0.45594000000E+02  0.51100000000E-03 0. -1.
         11   -1    0    0    0    0 -0.00000000000E+00 -0.00000000000E+00 -0.45593999997E+02  0.45594000000E+02  0.51100000000E-03 0.  1.
    9900012    2    1    2    0    0 -0.28075453534E+00  0.31487237060E+00 -0.11023519462E+01  0.90007683292E+02  0.89999943911E+02 0.  0.
         12    1    1    2    0    0  0.28075453534E+00 -0.31487237060E+00  0.11023519462E+01  0.11803167084E+01  0.00000000000E+00 0. -1.
         11    1    3    3    0    0 -0.62397028993E+01  0.14363062019E+01  0.69144327381E+01  0.94237067085E+01  0.51100000000E-03 0. -1.
        -11    1    3    3    0    0 -0.16024966938E+02 -0.32555543928E+02 -0.18623165683E+02  0.40785846885E+02  0.51100000000E-03 0.  1.
         12    1    3    3    0    0  0.21983915301E+02  0.31434110097E+02  0.10606380999E+02  0.39798129698E+02  0.00000000000E+00 0. -1.
</event>
<event>
 7    1  0.2674454E-015  0.9000774E+02  0.7816164E-02  0.1186339E+00
        -11   -1    0    0    0    0  0.00000000000E+00  0.00000000000E+00  0.45593999997E+02  0.45594000000E+02  0.51100000000E-03 0. -1.
         11   -1    0    0    0    0 -0.00000000000E+00 -0.00000000000E+00 -0.45593999997E+02  0.45594000000E+02  0.51100000000E-03 0.  1.
    9900012    2    1    2    0    0  0.35754921829E+00  0.55942853820E+00 -0.97581164251E+00  0.90007741514E+02  0.90000002902E+02 0.  0.
         12    1    1    2    0    0 -0.35754921829E+00 -0.55942853820E+00  0.97581164251E+00  0.11802584863E+01  0.00000000000E+00 0. -1.
         11    1    3    3    0    0 -0.75696959703E+01 -0.28266853806E+01 -0.44507715070E+01  0.92249560754E+01  0.51100000000E-03 0. -1.
        -11    1    3    3    0    0 -0.20528375338E+02 -0.54459115622E+01 -0.29494190129E+02  0.36345280277E+02  0.51100000000E-03 0.  1.
         12    1    3    3    0    0  0.28455620527E+02  0.88320254809E+01  0.32969149994E+02  0.44437505161E+02  0.00000000000E+00 0. -1.
</event>
<event>
 7    1  0.1698110E-015  0.9000770E+02  0.7816164E-02  0.1186339E+00
        -11   -1    0    0    0    0  0.00000000000E+00  0.00000000000E+00  0.45593999997E+02  0.45594000000E+02  0.51100000000E-03 0.  1.
         11   -1    0    0    0    0 -0.00000000000E+00 -0.00000000000E+00 -0.45593999997E+02  0.45594000000E+02  0.51100000000E-03 0. -1.
    9900012    2    1    2    0    0 -0.58253632948E+00  0.85553251410E-01  0.10229598816E+01  0.90007697135E+02  0.89999957937E+02 0.  0.
         12    1    1    2    0    0  0.58253632948E+00 -0.85553251410E-01 -0.10229598816E+01  0.11803028651E+01  0.00000000000E+00 0. -1.
         11    1    3    3    0    0  0.82518695216E+01 -0.64813555291E+01  0.63575814519E+00  0.10512160043E+02  0.51100000000E-03 0. -1.
        -11    1    3    3    0    0 -0.17478614600E+02  0.15136359541E+01  0.37315437270E+02  0.41233904994E+02  0.51100000000E-03 0.  1.
         12    1    3    3    0    0  0.86442087487E+01  0.50532728265E+01 -0.36928235534E+02  0.38261632098E+02  0.00000000000E+00 0. -1.
</event>
<event>
 7    1  0.1698110E-015  0.9000778E+02  0.7816164E-02  0.1186339E+00
        -11   -1    0    0    0    0  0.00000000000E+00  0.00000000000E+00  0.45593999997E+02  0.45594000000E+02  0.51100000000E-03 0. -1.
         11   -1    0    0    0    0 -0.00000000000E+00 -0.00000000000E+00 -0.45593999997E+02  0.45594000000E+02  0.51100000000E-03 0.  1.
    9900012    2    1    2    0    0  0.83369765843E+00 -0.80193725612E+00  0.23400067242E+00  0.90007783298E+02  0.90000045238E+02 0.  0.
         12    1    1    2    0    0 -0.83369765843E+00  0.80193725612E+00 -0.23400067242E+00  0.11802167018E+01  0.00000000000E+00 0. -1.
         11    1    3    3    0    0  0.88469178300E+01 -0.76881150030E+01 -0.47151344001E+01  0.12633588566E+02  0.51100000000E-03 0. -1.
        -11    1    3    3    0    0 -0.36492798024E+02  0.19406905019E+02 -0.10491271078E+02  0.42642924842E+02  0.51100000000E-03 0.  1.
         12    1    3    3    0    0  0.28479577852E+02 -0.12520727272E+02  0.15440406151E+02  0.34731269890E+02  0.00000000000E+00 0. -1.
</event>
<event>
 7    1  0.1881885E-015  0.9000778E+02  0.7816164E-02  0.1186339E+00
        -11   -1    0    0    0    0  0.00000000000E+00  0.00000000000E+00  0.45593999997E+02  0.45594000000E+02  0.51100000000E-03 0. -1.
         11   -1    0    0    0    0 -0.00000000000E+00 -0.00000000000E+00 -0.45593999997E+02  0.45594000000E+02  0.51100000000E-03 0.  1.
    9900012    2    1    2    0    0  0.94736804632E+00 -0.15004740751E+00 -0.68767479760E+00  0.90007780924E+02  0.90000042832E+02 0.  0.
         12    1    1    2    0    0 -0.94736804632E+00  0.15004740751E+00  0.68767479760E+00  0.11802190758E+01  0.00000000000E+00 0. -1.
         11    1    3    3    0    0  0.39363129702E+01  0.71465658452E+01  0.53881839856E+01  0.97775503120E+01  0.51100000000E-03 0. -1.
        -11    1    3    3    0    0  0.28239814441E+02 -0.45622885609E+00 -0.29314973866E+02  0.40707038181E+02  0.51100000000E-03 0.  1.
         12    1    3    3    0    0 -0.31228759364E+02 -0.68403843966E+01  0.23239115083E+02  0.39523192431E+02  0.00000000000E+00 0. -1.
</event>
<event>
 7    1  0.1698110E-015  0.9000766E+02  0.7816164E-02  0.1186339E+00
        -11   -1    0    0    0    0  0.00000000000E+00  0.00000000000E+00  0.45593999997E+02  0.45594000000E+02  0.51100000000E-03 0.  1.
         11   -1    0    0    0    0 -0.00000000000E+00 -0.00000000000E+00 -0.45593999997E+02  0.45594000000E+02  0.51100000000E-03 0. -1.
    9900012    2    1    2    0    0 -0.12061770231E+00 -0.19719336244E-01  0.11739936733E+01  0.90007661647E+02  0.89999921981E+02 0.  0.
         12    1    1    2    0    0  0.12061770231E+00  0.19719336244E-01 -0.11739936733E+01  0.11803383528E+01  0.00000000000E+00 0. -1.
         11    1    3    3    0    0 -0.38355910377E+02 -0.15505374469E+02 -0.61448510541E+01  0.41825251858E+02  0.51100000000E-03 0. -1.
        -11    1    3    3    0    0  0.24782573937E+01  0.65742800844E+01 -0.57541744485E+01  0.90814889848E+01  0.51100000000E-03 0.  1.
        -12    1    3    3    0    0  0.35757035281E+02  0.89113750483E+01  0.13073019176E+02  0.39100920804E+02  0.00000000000E+00 0.  1.
</event>
<event>
 7    1  0.1698110E-015  0.9000750E+02  0.7816164E-02  0.1186340E+00
        -11   -1    0    0    0    0  0.00000000000E+00  0.00000000000E+00  0.45593999997E+02  0.45594000000E+02  0.51100000000E-03 0. -1.
         11   -1    0    0    0    0 -0.00000000000E+00 -0.00000000000E+00 -0.45593999997E+02  0.45594000000E+02  0.51100000000E-03 0.  1.
    9900012    2    1    2    0    0 -0.39280117974E+00 -0.61033714865E+00  0.93100198294E+00  0.90007504810E+02  0.89999763073E+02 0.  0.
         12    1    1    2    0    0  0.39280117974E+00  0.61033714865E+00 -0.93100198294E+00  0.11804951902E+01  0.00000000000E+00 0. -1.
         11    1    3    3    0    0 -0.22501674504E+02  0.27392475079E+02 -0.12608923743E+02  0.37625230958E+02  0.51100000000E-03 0. -1.
        -11    1    3    3    0    0  0.46577168320E+01  0.85159189701E+01  0.53659925140E+01  0.11090945763E+02  0.51100000000E-03 0.  1.
        -12    1    3    3    0    0  0.17451156493E+02 -0.36518731197E+02  0.81739332117E+01  0.41291328089E+02  0.00000000000E+00 0.  1.
</event>
<event>
 7    1  0.1698110E-015  0.9000766E+02  0.7816164E-02  0.1186339E+00
        -11   -1    0    0    0    0  0.00000000000E+00  0.00000000000E+00  0.45593999997E+02  0.45594000000E+02  0.51100000000E-03 0.  1.
         11   -1    0    0    0    0 -0.00000000000E+00 -0.00000000000E+00 -0.45593999997E+02  0.45594000000E+02  0.51100000000E-03 0. -1.
    9900012    2    1    2    0    0 -0.91024014689E+00  0.45889428251E+00  0.59504123199E+00  0.90007663118E+02  0.89999923471E+02 0.  0.
         12    1    1    2    0    0  0.91024014689E+00 -0.45889428251E+00 -0.59504123199E+00  0.11803368821E+01  0.00000000000E+00 0. -1.
         11    1    3    3    0    0  0.22845111488E+01  0.91178295709E+01 -0.36742862094E+02  0.37926135084E+02  0.51100000000E-03 0. -1.
        -11    1    3    3    0    0 -0.37285990781E+01  0.75807316630E+00 -0.63414749142E+01  0.73953654649E+01  0.51100000000E-03 0.  1.
        -12    1    3    3    0    0  0.53384778236E+00 -0.94170084547E+01  0.43679378240E+02  0.44686162569E+02  0.00000000000E+00 0.  1.
</event>
<event>
 7    1  0.1698110E-015  0.9000751E+02  0.7816164E-02  0.1186339E+00
        -11   -1    0    0    0    0  0.00000000000E+00  0.00000000000E+00  0.45593999997E+02  0.45594000000E+02  0.51100000000E-03 0.  1.
         11   -1    0    0    0    0 -0.00000000000E+00 -0.00000000000E+00 -0.45593999997E+02  0.45594000000E+02  0.51100000000E-03 0. -1.
    9900012    2    1    2    0    0 -0.89038116081E+00 -0.25175587537E+00  0.73306956699E+00  0.90007512549E+02  0.89999770914E+02 0.  0.
         12    1    1    2    0    0  0.89038116081E+00  0.25175587537E+00 -0.73306956699E+00  0.11804874512E+01  0.00000000000E+00 0. -1.
         11    1    3    3    0    0  0.39356075482E+01  0.43853079806E+01  0.85304522742E+01  0.10367668452E+02  0.51100000000E-03 0. -1.
        -11    1    3    3    0    0  0.21712222237E+02  0.25266769853E+02  0.11502379063E+02  0.35243935332E+02  0.51100000000E-03 0.  1.
         12    1    3    3    0    0 -0.26538210946E+02 -0.29903833709E+02 -0.19299761770E+02  0.44395908766E+02  0.00000000000E+00 0. -1.
</event>
<event>
 7    1  0.1698110E-015  0.9000777E+02  0.7816164E-02  0.1186339E+00
        -11   -1    0    0    0    0  0.00000000000E+00  0.00000000000E+00  0.45593999997E+02  0.45594000000E+02  0.51100000000E-03 0.  1.
         11   -1    0    0    0    0 -0.00000000000E+00 -0.00000000000E+00 -0.45593999997E+02  0.45594000000E+02  0.51100000000E-03 0. -1.
    9900012    2    1    2    0    0 -0.72804077249E+00  0.78503613955E+00 -0.49660385114E+00  0.90007771000E+02  0.90000032777E+02 0.  0.
         12    1    1    2    0    0  0.72804077249E+00 -0.78503613955E+00  0.49660385114E+00  0.11802289997E+01  0.00000000000E+00 0. -1.
         11    1    3    3    0    0  0.86425878199E+01 -0.30953784826E+01  0.35722931685E+01  0.98507345370E+01  0.51100000000E-03 0. -1.
        -11    1    3    3    0    0  0.25038190466E+02  0.22136772290E+02  0.15182046716E+02  0.36707522553E+02  0.51100000000E-03 0.  1.
         12    1    3    3    0    0 -0.34408819058E+02 -0.18256357668E+02 -0.19250943736E+02  0.43449513910E+02  0.00000000000E+00 0. -1.
</event>
<event>
 7    1  0.1698110E-015  0.9000776E+02  0.7816164E-02  0.1186339E+00
        -11   -1    0    0    0    0  0.00000000000E+00  0.00000000000E+00  0.45593999997E+02  0.45594000000E+02  0.51100000000E-03 0. -1.
         11   -1    0    0    0    0 -0.00000000000E+00 -0.00000000000E+00 -0.45593999997E+02  0.45594000000E+02  0.51100000000E-03 0.  1.
    9900012    2    1    2    0    0  0.34851083354E+00  0.11140189732E+01 -0.17454579359E+00  0.90007760911E+02  0.90000022555E+02 0.  0.
         12    1    1    2    0    0 -0.34851083354E+00 -0.11140189732E+01  0.17454579359E+00  0.11802390893E+01  0.00000000000E+00 0. -1.
         11    1    3    3    0    0  0.57624374182E+01 -0.60026552985E+01 -0.31446571421E+01  0.88953035043E+01  0.51100000000E-03 0. -1.
        -11    1    3    3    0    0 -0.90362451964E+01 -0.29802831318E+02 -0.20435793264E+02  0.37248948018E+02  0.51100000000E-03 0.  1.
         12    1    3    3    0    0  0.36223186117E+01  0.36919505590E+02  0.23405904613E+02  0.43863509389E+02  0.00000000000E+00 0. -1.
</event>
<event>
 7    1  0.1698110E-015  0.9000772E+02  0.7816164E-02  0.1186339E+00
        -11   -1    0    0    0    0  0.00000000000E+00  0.00000000000E+00  0.45593999997E+02  0.45594000000E+02  0.51100000000E-03 0. -1.
         11   -1    0    0    0    0 -0.00000000000E+00 -0.00000000000E+00 -0.45593999997E+02  0.45594000000E+02  0.51100000000E-03 0.  1.
    9900012    2    1    2    0    0 -0.75814424863E+00 -0.60304072854E+00 -0.67424938405E+00  0.90007723315E+02  0.89999984462E+02 0.  0.
         12    1    1    2    0    0  0.75814424863E+00  0.60304072854E+00  0.67424938405E+00  0.11802766853E+01  0.00000000000E+00 0. -1.
         11    1    3    3    0    0 -0.24073403416E+02  0.16572604564E+01  0.30415924129E+02  0.38825297232E+02  0.51100000000E-03 0. -1.
        -11    1    3    3    0    0 -0.68202228153E+01 -0.62077156567E+01 -0.12573753291E+02  0.15593282047E+02  0.51100000000E-03 0.  1.
        -12    1    3    3    0    0  0.30135481982E+02  0.39474144717E+01 -0.18516420222E+02  0.35589144036E+02  0.00000000000E+00 0.  1.
</event>
<event>
 7    1  0.1698110E-015  0.9000777E+02  0.7816164E-02  0.1186339E+00
        -11   -1    0    0    0    0  0.00000000000E+00  0.00000000000E+00  0.45593999997E+02  0.45594000000E+02  0.51100000000E-03 0. -1.
         11   -1    0    0    0    0 -0.00000000000E+00 -0.00000000000E+00 -0.45593999997E+02  0.45594000000E+02  0.51100000000E-03 0.  1.
    9900012    2    1    2    0    0  0.44972688907E+00  0.93670487095E+00  0.55970409453E+00  0.90007771648E+02  0.90000033433E+02 0.  0.
         12    1    1    2    0    0 -0.44972688907E+00 -0.93670487095E+00 -0.55970409453E+00  0.11802283522E+01  0.00000000000E+00 0. -1.
         11    1    3    3    0    0  0.33695894627E+02 -0.10010882534E+02 -0.11192282742E+02  0.36890354797E+02  0.51100000000E-03 0. -1.
        -11    1    3    3    0    0  0.61352918140E+01 -0.31199626436E+01 -0.45310753862E+01  0.82405471273E+01  0.51100000000E-03 0.  1.
        -12    1    3    3    0    0 -0.39381459552E+02  0.14067550048E+02  0.16283062223E+02  0.44876869723E+02  0.00000000000E+00 0.  1.
</event>
<event>
 7    1  0.1698110E-015  0.9000781E+02  0.7816164E-02  0.1186339E+00
        -11   -1    0    0    0    0  0.00000000000E+00  0.00000000000E+00  0.45593999997E+02  0.45594000000E+02  0.51100000000E-03 0. -1.
         11   -1    0    0    0    0 -0.00000000000E+00 -0.00000000000E+00 -0.45593999997E+02  0.45594000000E+02  0.51100000000E-03 0.  1.
    9900012    2    1    2    0    0  0.75869551653E+00  0.88072060585E+00 -0.20384862233E+00  0.90007812755E+02  0.90000075083E+02 0.  0.
         12    1    1    2    0    0 -0.75869551653E+00 -0.88072060585E+00  0.20384862233E+00  0.11801872450E+01  0.00000000000E+00 0. -1.
         11    1    3    3    0    0  0.10045621169E+02  0.22865144630E+02  0.28640901421E+02  0.38000402342E+02  0.51100000000E-03 0. -1.
        -11    1    3    3    0    0 -0.15812021510E+00 -0.42282796565E+01  0.85932133086E+01  0.95784479998E+01  0.51100000000E-03 0.  1.
        -12    1    3    3    0    0 -0.91288054371E+01 -0.17756144368E+02 -0.37437963352E+02  0.42428962414E+02  0.00000000000E+00 0.  1.
</event>
<event>
 7    1  0.1698110E-015  0.9000797E+02  0.7816164E-02  0.1186339E+00
        -11   -1    0    0    0    0  0.00000000000E+00  0.00000000000E+00  0.45593999997E+02  0.45594000000E+02  0.51100000000E-03 0. -1.
         11   -1    0    0    0    0 -0.00000000000E+00 -0.00000000000E+00 -0.45593999997E+02  0.45594000000E+02  0.51100000000E-03 0.  1.
    9900012    2    1    2    0    0 -0.34480468602E+00  0.11218581312E+01 -0.12254110855E+00  0.90007969381E+02  0.90000233777E+02 0.  0.
         12    1    1    2    0    0  0.34480468602E+00 -0.11218581312E+01  0.12254110855E+00  0.11800306188E+01  0.00000000000E+00 0. -1.
         11    1    3    3    0    0  0.11496476661E+02 -0.29361861236E+02  0.16841397816E+02  0.35748014651E+02  0.51100000000E-03 0. -1.
        -11    1    3    3    0    0  0.55435223408E+01 -0.44270214570E+01  0.57463497057E+01  0.91296053652E+01  0.51100000000E-03 0.  1.
        -12    1    3    3    0    0 -0.17384803688E+02  0.34910740824E+02 -0.22710288630E+02  0.45130349365E+02  0.00000000000E+00 0.  1.
</event>
<event>
 7    1  0.1698110E-015  0.9000800E+02  0.7816164E-02  0.1186339E+00
        -11   -1    0    0    0    0  0.00000000000E+00  0.00000000000E+00  0.45593999997E+02  0.45594000000E+02  0.51100000000E-03 0.  1.
         11   -1    0    0    0    0 -0.00000000000E+00 -0.00000000000E+00 -0.45593999997E+02  0.45594000000E+02  0.51100000000E-03 0. -1.
    9900012    2    1    2    0    0 -0.81329294796E+00 -0.84914407692E+00  0.99537724852E-01  0.90008000491E+02  0.90000265297E+02 0.  0.
         12    1    1    2    0    0  0.81329294796E+00  0.84914407692E+00 -0.99537724852E-01  0.11799995090E+01  0.00000000000E+00 0. -1.
         11    1    3    3    0    0  0.56859874553E+01  0.30537626169E+01  0.80072209897E+01  0.10284527588E+02  0.51100000000E-03 0. -1.
        -11    1    3    3    0    0 -0.41981090101E+01 -0.39995217110E+02 -0.14903034836E+02  0.42887550157E+02  0.51100000000E-03 0.  1.
         12    1    3    3    0    0 -0.23011713931E+01  0.36092310416E+02  0.69953515712E+01  0.36835922746E+02  0.00000000000E+00 0. -1.
</event>
<event>
 7    1  0.1698110E-015  0.9000780E+02  0.7816164E-02  0.1186339E+00
        -11   -1    0    0    0    0  0.00000000000E+00  0.00000000000E+00  0.45593999997E+02  0.45594000000E+02  0.51100000000E-03 0. -1.
         11   -1    0    0    0    0 -0.00000000000E+00 -0.00000000000E+00 -0.45593999997E+02  0.45594000000E+02  0.51100000000E-03 0.  1.
    9900012    2    1    2    0    0 -0.73982758320E+00  0.29769860976E-02 -0.91952114698E+00  0.90007799655E+02  0.90000061810E+02 0.  0.
         12    1    1    2    0    0  0.73982758320E+00 -0.29769860976E-02  0.91952114698E+00  0.11802003453E+01  0.00000000000E+00 0. -1.
         11    1    3    3    0    0 -0.30662194645E+02  0.63685203706E+01 -0.13888067725E+02  0.34257942985E+02  0.51100000000E-03 0. -1.
        -11    1    3    3    0    0 -0.88446557270E+01  0.88639734000E+01  0.39869377028E+01  0.13141294908E+02  0.51100000000E-03 0.  1.
        -12    1    3    3    0    0  0.38767022789E+02 -0.15229516784E+02  0.89816088751E+01  0.42608561761E+02  0.00000000000E+00 0.  1.
</event>
<event>
 7    1  0.1698110E-015  0.9000770E+02  0.7816164E-02  0.1186339E+00
        -11   -1    0    0    0    0  0.00000000000E+00  0.00000000000E+00  0.45593999997E+02  0.45594000000E+02  0.51100000000E-03 0.  1.
         11   -1    0    0    0    0 -0.00000000000E+00 -0.00000000000E+00 -0.45593999997E+02  0.45594000000E+02  0.51100000000E-03 0. -1.
    9900012    2    1    2    0    0  0.75175438332E+00  0.88512716843E+00  0.21098493114E+00  0.90007703682E+02  0.89999964571E+02 0.  0.
         12    1    1    2    0    0 -0.75175438332E+00 -0.88512716843E+00 -0.21098493114E+00  0.11802963180E+01  0.00000000000E+00 0. -1.
         11    1    3    3    0    0  0.25229119951E+02  0.21190987404E+02 -0.20494085279E+02  0.38801726409E+02  0.51100000000E-03 0. -1.
        -11    1    3    3    0    0  0.53661653909E+01 -0.84347088187E+01 -0.39161378861E+01  0.10736674535E+02  0.51100000000E-03 0.  1.
        -12    1    3    3    0    0 -0.29843530959E+02 -0.11871151416E+02  0.24621208096E+02  0.40469302738E+02  0.00000000000E+00 0.  1.
</event>
<event>
 7    1  0.1698110E-015  0.9000701E+02  0.7816164E-02  0.1186341E+00
        -11   -1    0    0    0    0  0.00000000000E+00  0.00000000000E+00  0.45593999997E+02  0.45594000000E+02  0.51100000000E-03 0. -1.
         11   -1    0    0    0    0 -0.00000000000E+00 -0.00000000000E+00 -0.45593999997E+02  0.45594000000E+02  0.51100000000E-03 0.  1.
    9900012    2    1    2    0    0  0.99962712552E+00  0.61752344207E+00 -0.11896573741E+00  0.90007007859E+02  0.89999259559E+02 0.  0.
         12    1    1    2    0    0 -0.99962712552E+00 -0.61752344207E+00  0.11896573741E+00  0.11809921415E+01  0.00000000000E+00 0. -1.
         11    1    3    3    0    0 -0.11337952796E+02  0.38244738603E+02 -0.20458794261E+02  0.44830474761E+02  0.51100000000E-03 0. -1.
        -11    1    3    3    0    0  0.49672214353E+01 -0.59193556228E+01  0.48755876678E+01  0.91369259132E+01  0.51100000000E-03 0.  1.
        -12    1    3    3    0    0  0.73703584867E+01 -0.31707859538E+02  0.15464240856E+02  0.36039607184E+02  0.00000000000E+00 0.  1.
</event>
<event>
 7    1  0.1698110E-015  0.9000775E+02  0.7816164E-02  0.1186339E+00
        -11   -1    0    0    0    0  0.00000000000E+00  0.00000000000E+00  0.45593999997E+02  0.45594000000E+02  0.51100000000E-03 0.  1.
         11   -1    0    0    0    0 -0.00000000000E+00 -0.00000000000E+00 -0.45593999997E+02  0.45594000000E+02  0.51100000000E-03 0. -1.
    9900012    2    1    2    0    0 -0.29968199265E+00  0.70283475468E+00  0.89955125425E+00  0.90007754920E+02  0.90000016485E+02 0.  0.
         12    1    1    2    0    0  0.29968199265E+00 -0.70283475468E+00 -0.89955125425E+00  0.11802450797E+01  0.00000000000E+00 0. -1.
         11    1    3    3    0    0  0.25534236441E+02  0.60845202639E+01 -0.21909091665E+02  0.34191035599E+02  0.51100000000E-03 0. -1.
        -11    1    3    3    0    0  0.12157861359E+02 -0.41805743414E+01  0.44522045615E+01  0.13605620911E+02  0.51100000000E-03 0.  1.
        -12    1    3    3    0    0 -0.37991779793E+02 -0.12011111678E+01  0.18356438358E+02  0.42211098411E+02  0.00000000000E+00 0.  1.
</event>
<event>
 7    1  0.1698110E-015  0.9000771E+02  0.7816164E-02  0.1186339E+00
        -11   -1    0    0    0    0  0.00000000000E+00  0.00000000000E+00  0.45593999997E+02  0.45594000000E+02  0.51100000000E-03 0.  1.
         11   -1    0    0    0    0 -0.00000000000E+00 -0.00000000000E+00 -0.45593999997E+02  0.45594000000E+02  0.51100000000E-03 0. -1.
    9900012    2    1    2    0    0  0.31805867856E+00  0.11324890209E+01  0.96966612289E-01  0.90007705448E+02  0.89999966360E+02 0.  0.
         12    1    1    2    0    0 -0.31805867856E+00 -0.11324890209E+01 -0.96966612289E-01  0.11802945520E+01  0.00000000000E+00 0. -1.
         11    1    3    3    0    0 -0.12521091615E+02  0.32748647667E+02 -0.20697070407E+02  0.40713884400E+02  0.51100000000E-03 0. -1.
        -11    1    3    3    0    0 -0.87270095409E+01 -0.91932041092E+01  0.16961020167E+01  0.12788763022E+02  0.51100000000E-03 0.  1.
        -12    1    3    3    0    0  0.21566159834E+02 -0.22422954537E+02  0.19097935002E+02  0.36505058026E+02  0.00000000000E+00 0.  1.
</event>
<event>
 7    1  0.1698110E-015  0.9000782E+02  0.7816164E-02  0.1186339E+00
        -11   -1    0    0    0    0  0.00000000000E+00  0.00000000000E+00  0.45593999997E+02  0.45594000000E+02  0.51100000000E-03 0.  1.
         11   -1    0    0    0    0 -0.00000000000E+00 -0.00000000000E+00 -0.45593999997E+02  0.45594000000E+02  0.51100000000E-03 0. -1.
    9900012    2    1    2    0    0 -0.64411620565E+00 -0.93082065213E+00 -0.33392967719E+00  0.90007821284E+02  0.90000083725E+02 0.  0.
         12    1    1    2    0    0  0.64411620565E+00  0.93082065213E+00  0.33392967719E+00  0.11801787162E+01  0.00000000000E+00 0. -1.
         11    1    3    3    0    0 -0.29882211484E+01  0.17455863500E+02 -0.33461869984E+02  0.37859389579E+02  0.51100000000E-03 0. -1.
        -11    1    3    3    0    0 -0.83577445213E+01 -0.34542317806E+01 -0.46289423346E+01  0.10159267595E+02  0.51100000000E-03 0.  1.
        -12    1    3    3    0    0  0.10701849464E+02 -0.14932452372E+02  0.37756882642E+02  0.41989164109E+02  0.00000000000E+00 0.  1.
</event>
<event>
 7    1  0.1698110E-015  0.9000789E+02  0.7816164E-02  0.1186339E+00
        -11   -1    0    0    0    0  0.00000000000E+00  0.00000000000E+00  0.45593999997E+02  0.45594000000E+02  0.51100000000E-03 0. -1.
         11   -1    0    0    0    0 -0.00000000000E+00 -0.00000000000E+00 -0.45593999997E+02  0.45594000000E+02  0.51100000000E-03 0.  1.
    9900012    2    1    2    0    0 -0.11579830175E+00  0.10749581786E+01 -0.47298503664E+00  0.90007890184E+02  0.90000153534E+02 0.  0.
         12    1    1    2    0    0  0.11579830175E+00 -0.10749581786E+01  0.47298503664E+00  0.11801098158E+01  0.00000000000E+00 0. -1.
         11    1    3    3    0    0 -0.21359643195E+01  0.36573880916E+01  0.92233208947E+01  0.10149309327E+02  0.51100000000E-03 0. -1.
        -11    1    3    3    0    0 -0.31837469093E+02  0.18660631394E+02  0.50665050622E+01  0.37249336586E+02  0.51100000000E-03 0.  1.
         12    1    3    3    0    0  0.33857635111E+02 -0.21243061307E+02 -0.14762810994E+02  0.42609244272E+02  0.00000000000E+00 0. -1.
</event>
<event>
 7    1  0.1698110E-015  0.9000728E+02  0.7816164E-02  0.1186340E+00
        -11   -1    0    0    0    0  0.00000000000E+00  0.00000000000E+00  0.45593999997E+02  0.45594000000E+02  0.51100000000E-03 0.  1.
         11   -1    0    0    0    0 -0.00000000000E+00 -0.00000000000E+00 -0.45593999997E+02  0.45594000000E+02  0.51100000000E-03 0. -1.
    9900012    2    1    2    0    0 -0.10363397397E+01 -0.55605108115E+00  0.10439755782E+00  0.90007283391E+02  0.89999538730E+02 0.  0.
         12    1    1    2    0    0  0.10363397397E+01  0.55605108115E+00 -0.10439755782E+00  0.11807166091E+01  0.00000000000E+00 0. -1.
         11    1    3    3    0    0 -0.48269439890E+01  0.56690077055E+01 -0.21872702989E+01  0.77602311988E+01  0.51100000000E-03 0. -1.
        -11    1    3    3    0    0 -0.13920254762E+02  0.34820275495E+02  0.17468392284E+01  0.37540331988E+02  0.51100000000E-03 0.  1.
         12    1    3    3    0    0  0.17710859011E+02 -0.41045334282E+02  0.54482862835E+00  0.44706720204E+02  0.00000000000E+00 0. -1.
</event>
<event>
 7    1  0.1698110E-015  0.9000737E+02  0.7816164E-02  0.1186340E+00
        -11   -1    0    0    0    0  0.00000000000E+00  0.00000000000E+00  0.45593999997E+02  0.45594000000E+02  0.51100000000E-03 0.  1.
         11   -1    0    0    0    0 -0.00000000000E+00 -0.00000000000E+00 -0.45593999997E+02  0.45594000000E+02  0.51100000000E-03 0. -1.
    9900012    2    1    2    0    0 -0.32676245573E+00 -0.15738017287E+00  0.11235414797E+01  0.90007369796E+02  0.89999626277E+02 0.  0.
         12    1    1    2    0    0  0.32676245573E+00  0.15738017287E+00 -0.11235414797E+01  0.11806302037E+01  0.00000000000E+00 0. -1.
         11    1    3    3    0    0  0.15622901796E-01 -0.32684134231E+02  0.20287739957E+02  0.38468757029E+02  0.51100000000E-03 0. -1.
        -11    1    3    3    0    0  0.11767000591E+02 -0.13212513162E+01 -0.37093502235E+01  0.12408355544E+02  0.51100000000E-03 0.  1.
        -12    1    3    3    0    0 -0.12109385949E+02  0.33848005374E+02 -0.15454848254E+02  0.39130257224E+02  0.00000000000E+00 0.  1.
</event>
<event>
 7    1  0.1698110E-015  0.9000775E+02  0.7816164E-02  0.1186339E+00
        -11   -1    0    0    0    0  0.00000000000E+00  0.00000000000E+00  0.45593999997E+02  0.45594000000E+02  0.51100000000E-03 0. -1.
         11   -1    0    0    0    0 -0.00000000000E+00 -0.00000000000E+00 -0.45593999997E+02  0.45594000000E+02  0.51100000000E-03 0.  1.
    9900012    2    1    2    0    0 -0.23917310073E+00  0.11511100487E+01  0.10362870226E+00  0.90007747051E+02  0.90000008512E+02 0.  0.
         12    1    1    2    0    0  0.23917310073E+00 -0.11511100487E+01 -0.10362870226E+00  0.11802529493E+01  0.00000000000E+00 0. -1.
         11    1    3    3    0    0 -0.66250638068E+01 -0.34697869646E+01  0.27485745475E+01  0.79677822716E+01  0.51100000000E-03 0. -1.
        -11    1    3    3    0    0 -0.28234366013E+02 -0.10687859024E+02 -0.24009752786E+02  0.38573021450E+02  0.51100000000E-03 0.  1.
         12    1    3    3    0    0  0.34620256719E+02  0.15308756037E+02  0.21364806941E+02  0.43466943329E+02  0.00000000000E+00 0. -1.
</event>
<event>
 7    1  0.1698110E-015  0.9000772E+02  0.7816164E-02  0.1186339E+00
        -11   -1    0    0    0    0  0.00000000000E+00  0.00000000000E+00  0.45593999997E+02  0.45594000000E+02  0.51100000000E-03 0.  1.
         11   -1    0    0    0    0 -0.00000000000E+00 -0.00000000000E+00 -0.45593999997E+02  0.45594000000E+02  0.51100000000E-03 0. -1.
    9900012    2    1    2    0    0  0.11341843257E+01  0.91110132451E-01  0.31368311333E+00  0.90007715188E+02  0.89999976229E+02 0.  0.
         12    1    1    2    0    0 -0.11341843257E+01 -0.91110132451E-01 -0.31368311333E+00  0.11802848116E+01  0.00000000000E+00 0. -1.
         11    1    3    3    0    0 -0.10695920618E+00 -0.20569637414E+02 -0.33326183013E+02  0.39163195709E+02  0.51100000000E-03 0. -1.
        -11    1    3    3    0    0 -0.17729918824E+01 -0.82344071212E+01  0.39429782961E+01  0.93003246694E+01  0.51100000000E-03 0.  1.
        -12    1    3    3    0    0  0.30141354143E+01  0.28895154668E+02  0.29696887831E+02  0.41544194810E+02  0.00000000000E+00 0.  1.
</event>
<event>
 7    1  0.1698663E-015  0.9000777E+02  0.7816164E-02  0.1186339E+00
        -11   -1    0    0    0    0  0.00000000000E+00  0.00000000000E+00  0.45593999997E+02  0.45594000000E+02  0.51100000000E-03 0.  1.
         11   -1    0    0    0    0 -0.00000000000E+00 -0.00000000000E+00 -0.45593999997E+02  0.45594000000E+02  0.51100000000E-03 0. -1.
    9900012    2    1    2    0    0  0.57425782787E+00 -0.95448611912E+00  0.39004366058E+00  0.90007767031E+02  0.90000028756E+02 0.  0.
         12    1    1    2    0    0 -0.57425782787E+00  0.95448611912E+00 -0.39004366058E+00  0.11802329692E+01  0.00000000000E+00 0. -1.
         11    1    3    3    0    0 -0.85036779115E+01 -0.86821480451E+00 -0.30760160762E+01  0.90845038462E+01  0.51100000000E-03 0. -1.
        -11    1    3    3    0    0 -0.90635477988E+01 -0.27757339628E+02  0.27434918083E+02  0.40066102037E+02  0.51100000000E-03 0.  1.
         12    1    3    3    0    0  0.18141483538E+02  0.27671068314E+02 -0.23968858347E+02  0.40857161147E+02  0.00000000000E+00 0. -1.
</event>
<event>
 7    1  0.1698110E-015  0.9000760E+02  0.7816164E-02  0.1186339E+00
        -11   -1    0    0    0    0  0.00000000000E+00  0.00000000000E+00  0.45593999997E+02  0.45594000000E+02  0.51100000000E-03 0. -1.
         11   -1    0    0    0    0 -0.00000000000E+00 -0.00000000000E+00 -0.45593999997E+02  0.45594000000E+02  0.51100000000E-03 0.  1.
    9900012    2    1    2    0    0  0.52337506716E+00  0.10501496570E+01 -0.12885558879E+00  0.90007601963E+02  0.89999861509E+02 0.  0.
         12    1    1    2    0    0 -0.52337506716E+00 -0.10501496570E+01  0.12885558879E+00  0.11803980370E+01  0.00000000000E+00 0. -1.
         11    1    3    3    0    0 -0.23040843168E+02  0.12924096342E+00  0.15883090547E+02  0.27985169692E+02  0.51100000000E-03 0. -1.
        -11    1    3    3    0    0 -0.14262329100E+02 -0.74951359956E+01  0.63080098599E+01  0.17302661171E+02  0.51100000000E-03 0.  1.
        -12    1    3    3    0    0  0.37826547335E+02  0.84160446892E+01 -0.22319955996E+02  0.44719771099E+02  0.00000000000E+00 0.  1.
</event>
<event>
 7    1  0.1698110E-015  0.9000773E+02  0.7816164E-02  0.1186339E+00
        -11   -1    0    0    0    0  0.00000000000E+00  0.00000000000E+00  0.45593999997E+02  0.45594000000E+02  0.51100000000E-03 0.  1.
         11   -1    0    0    0    0 -0.00000000000E+00 -0.00000000000E+00 -0.45593999997E+02  0.45594000000E+02  0.51100000000E-03 0. -1.
    9900012    2    1    2    0    0 -0.28657109252E+00  0.44582886338E+00  0.10545893163E+01  0.90007726730E+02  0.89999987923E+02 0.  0.
         12    1    1    2    0    0  0.28657109252E+00 -0.44582886338E+00 -0.10545893163E+01  0.11802732703E+01  0.00000000000E+00 0. -1.
         11    1    3    3    0    0 -0.91398411297E+01 -0.14099981032E+02 -0.32161132479E+02  0.36286148921E+02  0.51100000000E-03 0. -1.
        -11    1    3    3    0    0  0.30781749233E+01 -0.11607678224E+01 -0.83171004426E+01  0.89440875907E+01  0.51100000000E-03 0.  1.
        -12    1    3    3    0    0  0.57750951138E+01  0.15706577718E+02  0.41532822238E+02  0.44777490218E+02  0.00000000000E+00 0.  1.
</event>
<event>
 7    1  0.1698110E-015  0.9000763E+02  0.7816164E-02  0.1186339E+00
        -11   -1    0    0    0    0  0.00000000000E+00  0.00000000000E+00  0.45593999997E+02  0.45594000000E+02  0.51100000000E-03 0. -1.
         11   -1    0    0    0    0 -0.00000000000E+00 -0.00000000000E+00 -0.45593999997E+02  0.45594000000E+02  0.51100000000E-03 0.  1.
    9900012    2    1    2    0    0 -0.27891310227E+00 -0.46522254136E+00 -0.10483577619E+01  0.90007627801E+02  0.89999887688E+02 0.  0.
         12    1    1    2    0    0  0.27891310227E+00  0.46522254136E+00  0.10483577619E+01  0.11803721991E+01  0.00000000000E+00 0. -1.
         11    1    3    3    0    0  0.30116710432E+02  0.28135311155E+00 -0.13342517103E+02  0.32941131883E+02  0.51100000000E-03 0. -1.
        -11    1    3    3    0    0  0.84141404598E+01  0.50480327972E+00 -0.93686657231E+01  0.12602558618E+02  0.51100000000E-03 0.  1.
        -12    1    3    3    0    0 -0.38809763994E+02 -0.12513789326E+01  0.21662825064E+02  0.44463937300E+02  0.00000000000E+00 0.  1.
</event>
<event>
 7    1  0.1698110E-015  0.9000781E+02  0.7816164E-02  0.1186339E+00
        -11   -1    0    0    0    0  0.00000000000E+00  0.00000000000E+00  0.45593999997E+02  0.45594000000E+02  0.51100000000E-03 0.  1.
         11   -1    0    0    0    0 -0.00000000000E+00 -0.00000000000E+00 -0.45593999997E+02  0.45594000000E+02  0.51100000000E-03 0. -1.
    9900012    2    1    2    0    0  0.65326085262E+00  0.40776910513E+00  0.89432173699E+00  0.90007814949E+02  0.90000077307E+02 0.  0.
         12    1    1    2    0    0 -0.65326085262E+00 -0.40776910513E+00 -0.89432173699E+00  0.11801850507E+01  0.00000000000E+00 0. -1.
         11    1    3    3    0    0  0.23022164800E+01  0.14342387941E+02 -0.37618289636E+00  0.14530857043E+02  0.51100000000E-03 0. -1.
        -11    1    3    3    0    0  0.54563269966E+00  0.30338938297E+02  0.58858545476E+01  0.30909418889E+02  0.51100000000E-03 0.  1.
         12    1    3    3    0    0 -0.21945883270E+01 -0.44273557134E+02 -0.46153499143E+01  0.44567539017E+02  0.00000000000E+00 0. -1.
</event>
<event>
 7    1  0.1698110E-015  0.9000779E+02  0.7816164E-02  0.1186339E+00
        -11   -1    0    0    0    0  0.00000000000E+00  0.00000000000E+00  0.45593999997E+02  0.45594000000E+02  0.51100000000E-03 0.  1.
         11   -1    0    0    0    0 -0.00000000000E+00 -0.00000000000E+00 -0.45593999997E+02  0.45594000000E+02  0.51100000000E-03 0. -1.
    9900012    2    1    2    0    0 -0.14118059254E+00 -0.69452928497E+00  0.94371709924E+00  0.90007786100E+02  0.90000048076E+02 0.  0.
         12    1    1    2    0    0  0.14118059254E+00  0.69452928497E+00 -0.94371709924E+00  0.11802139004E+01  0.00000000000E+00 0. -1.
         11    1    3    3    0    0 -0.18152735723E+02  0.30863000304E+01 -0.76168106299E+01  0.19926436374E+02  0.51100000000E-03 0. -1.
        -11    1    3    3    0    0 -0.15783758656E+02  0.21883122624E+02  0.54956127025E+01  0.27535429038E+02  0.51100000000E-03 0.  1.
         12    1    3    3    0    0  0.33795313787E+02 -0.25663951939E+02  0.30649150266E+01  0.42545920688E+02  0.00000000000E+00 0. -1.
</event>
<event>
 7    1  0.1698110E-015  0.9000772E+02  0.7816164E-02  0.1186339E+00
        -11   -1    0    0    0    0  0.00000000000E+00  0.00000000000E+00  0.45593999997E+02  0.45594000000E+02  0.51100000000E-03 0.  1.
         11   -1    0    0    0    0 -0.00000000000E+00 -0.00000000000E+00 -0.45593999997E+02  0.45594000000E+02  0.51100000000E-03 0. -1.
    9900012    2    1    2    0    0 -0.93789796941E+00 -0.53907524876E-01  0.71450203115E+00  0.90007715384E+02  0.89999976427E+02 0.  0.
         12    1    1    2    0    0  0.93789796941E+00  0.53907524876E-01 -0.71450203115E+00  0.11802846160E+01  0.00000000000E+00 0. -1.
         11    1    3    3    0    0 -0.83251694955E+01 -0.13944586469E+01  0.66176588874E+01  0.10725967157E+02  0.51100000000E-03 0. -1.
        -11    1    3    3    0    0 -0.26692648130E+02  0.11348729293E+02 -0.25582791240E+02  0.38675190092E+02  0.51100000000E-03 0.  1.
         12    1    3    3    0    0  0.34079919656E+02 -0.10008178171E+02  0.19679634384E+02  0.40606558135E+02  0.00000000000E+00 0. -1.
</event>
<event>
 7    1  0.1698110E-015  0.9000775E+02  0.7816164E-02  0.1186339E+00
        -11   -1    0    0    0    0  0.00000000000E+00  0.00000000000E+00  0.45593999997E+02  0.45594000000E+02  0.51100000000E-03 0.  1.
         11   -1    0    0    0    0 -0.00000000000E+00 -0.00000000000E+00 -0.45593999997E+02  0.45594000000E+02  0.51100000000E-03 0. -1.
    9900012    2    1    2    0    0 -0.83138172043E+00  0.72049124877E+00 -0.42741008659E+00  0.90007753167E+02  0.90000014709E+02 0.  0.
         12    1    1    2    0    0  0.83138172043E+00 -0.72049124877E+00  0.42741008659E+00  0.11802468330E+01  0.00000000000E+00 0. -1.
         11    1    3    3    0    0  0.25706996279E+02 -0.14330733567E+02 -0.16146786128E+02  0.33569901471E+02  0.51100000000E-03 0. -1.
        -11    1    3    3    0    0  0.32594391952E+00 -0.12001004541E+02 -0.50480458635E+01  0.13023560064E+02  0.51100000000E-03 0.  1.
        -12    1    3    3    0    0 -0.26864321919E+02  0.27052229357E+02  0.20767421905E+02  0.43414291632E+02  0.00000000000E+00 0.  1.
</event>
<event>
 7    1  0.1698110E-015  0.9000779E+02  0.7816164E-02  0.1186339E+00
        -11   -1    0    0    0    0  0.00000000000E+00  0.00000000000E+00  0.45593999997E+02  0.45594000000E+02  0.51100000000E-03 0.  1.
         11   -1    0    0    0    0 -0.00000000000E+00 -0.00000000000E+00 -0.45593999997E+02  0.45594000000E+02  0.51100000000E-03 0. -1.
    9900012    2    1    2    0    0 -0.92387228009E+00 -0.11267192324E+00  0.72571698638E+00  0.90007788114E+02  0.90000050117E+02 0.  0.
         12    1    1    2    0    0  0.92387228009E+00  0.11267192324E+00 -0.72571698638E+00  0.11802118863E+01  0.00000000000E+00 0. -1.
         11    1    3    3    0    0  0.35768804584E+02 -0.30055432068E+01  0.11898282670E+02  0.37815470407E+02  0.51100000000E-03 0. -1.
        -11    1    3    3    0    0  0.60458762853E+01 -0.29508403427E+01 -0.54901780509E+01  0.86834402213E+01  0.51100000000E-03 0.  1.
        -12    1    3    3    0    0 -0.42738553149E+02  0.58437116262E+01 -0.56823876325E+01  0.43508877486E+02  0.00000000000E+00 0.  1.
</event>
<event>
 7    1  0.1698110E-015  0.9000778E+02  0.7816164E-02  0.1186339E+00
        -11   -1    0    0    0    0  0.00000000000E+00  0.00000000000E+00  0.45593999997E+02  0.45594000000E+02  0.51100000000E-03 0.  1.
         11   -1    0    0    0    0 -0.00000000000E+00 -0.00000000000E+00 -0.45593999997E+02  0.45594000000E+02  0.51100000000E-03 0. -1.
    9900012    2    1    2    0    0 -0.19899310729E+00  0.97723425357E+00  0.63113867548E+00  0.90007779228E+02  0.90000041114E+02 0.  0.
         12    1    1    2    0    0  0.19899310729E+00 -0.97723425357E+00 -0.63113867548E+00  0.11802207721E+01  0.00000000000E+00 0. -1.
         11    1    3    3    0    0 -0.88500271425E+01  0.11242211198E+02  0.39270565964E+01  0.14836848278E+02  0.51100000000E-03 0. -1.
        -11    1    3    3    0    0 -0.15002110206E+02  0.26709329668E+02  0.31971917756E+01  0.30800546058E+02  0.51100000000E-03 0.  1.
         12    1    3    3    0    0  0.23653144242E+02 -0.36974306612E+02 -0.64931096965E+01  0.44370384892E+02  0.00000000000E+00 0. -1.
</event>
<event>
 7    1  0.1698110E-015  0.9000727E+02  0.7816164E-02  0.1186340E+00
        -11   -1    0    0    0    0  0.00000000000E+00  0.00000000000E+00  0.45593999997E+02  0.45594000000E+02  0.51100000000E-03 0. -1.
         11   -1    0    0    0    0 -0.00000000000E+00 -0.00000000000E+00 -0.45593999997E+02  0.45594000000E+02  0.51100000000E-03 0.  1.
    9900012    2    1    2    0    0 -0.64692680206E-01  0.37354178889E+00 -0.11182153817E+01  0.90007269611E+02  0.89999524769E+02 0.  0.
         12    1    1    2    0    0  0.64692680206E-01 -0.37354178889E+00  0.11182153817E+01  0.11807303887E+01  0.00000000000E+00 0. -1.
         11    1    3    3    0    0  0.15745855495E+02  0.30374985806E+02  0.76183073210E+01  0.35051538264E+02  0.51100000000E-03 0. -1.
        -11    1    3    3    0    0 -0.19585705248E+01  0.10678042437E+02  0.97159731361E+00  0.10899568358E+02  0.51100000000E-03 0.  1.
        -12    1    3    3    0    0 -0.13851977650E+02 -0.40679486455E+02 -0.97081200164E+01  0.44056162989E+02  0.00000000000E+00 0.  1.
</event>
<event>
 7    1  0.1698110E-015  0.9000794E+02  0.7816164E-02  0.1186339E+00
        -11   -1    0    0    0    0  0.00000000000E+00  0.00000000000E+00  0.45593999997E+02  0.45594000000E+02  0.51100000000E-03 0.  1.
         11   -1    0    0    0    0 -0.00000000000E+00 -0.00000000000E+00 -0.45593999997E+02  0.45594000000E+02  0.51100000000E-03 0. -1.
    9900012    2    1    2    0    0 -0.24523187030E+00 -0.10977719376E+01  0.35678504364E+00  0.90007941754E+02  0.90000205785E+02 0.  0.
         12    1    1    2    0    0  0.24523187030E+00  0.10977719376E+01 -0.35678504364E+00  0.11800582463E+01  0.00000000000E+00 0. -1.
         11    1    3    3    0    0 -0.65516093215E+01  0.16033936193E+01  0.78784588193E+01  0.10371334024E+02  0.51100000000E-03 0. -1.
        -11    1    3    3    0    0 -0.26026766097E+01 -0.22112635818E+02  0.29461789344E+02  0.36928845365E+02  0.51100000000E-03 0.  1.
         12    1    3    3    0    0  0.89090540609E+01  0.19411470261E+02 -0.36983463120E+02  0.42707762366E+02  0.00000000000E+00 0. -1.
</event>
<event>
 7    1  0.1698110E-015  0.9000771E+02  0.7816164E-02  0.1186339E+00
        -11   -1    0    0    0    0  0.00000000000E+00  0.00000000000E+00  0.45593999997E+02  0.45594000000E+02  0.51100000000E-03 0. -1.
         11   -1    0    0    0    0 -0.00000000000E+00 -0.00000000000E+00 -0.45593999997E+02  0.45594000000E+02  0.51100000000E-03 0.  1.
    9900012    2    1    2    0    0  0.31849777242E+00 -0.11046412235E+01 -0.26724058000E+00  0.90007707413E+02  0.89999968351E+02 0.  0.
         12    1    1    2    0    0 -0.31849777242E+00  0.11046412235E+01  0.26724058000E+00  0.11802925872E+01  0.00000000000E+00 0. -1.
         11    1    3    3    0    0 -0.37242804548E+01  0.16813903349E+01  0.95145049580E+01  0.10354860850E+02  0.51100000000E-03 0. -1.
        -11    1    3    3    0    0 -0.26266390208E+02  0.22738040207E+02 -0.18086523336E+02  0.39167129760E+02  0.51100000000E-03 0.  1.
         12    1    3    3    0    0  0.30309168435E+02 -0.25524071765E+02  0.83047777983E+01  0.40485716802E+02  0.00000000000E+00 0. -1.
</event>
<event>
 7    1  0.1698110E-015  0.9000769E+02  0.7816164E-02  0.1186339E+00
        -11   -1    0    0    0    0  0.00000000000E+00  0.00000000000E+00  0.45593999997E+02  0.45594000000E+02  0.51100000000E-03 0. -1.
         11   -1    0    0    0    0 -0.00000000000E+00 -0.00000000000E+00 -0.45593999997E+02  0.45594000000E+02  0.51100000000E-03 0.  1.
    9900012    2    1    2    0    0  0.10609176136E+01 -0.44548926669E+00  0.26291664161E+00  0.90007689859E+02  0.89999950565E+02 0.  0.
         12    1    1    2    0    0 -0.10609176136E+01  0.44548926669E+00 -0.26291664161E+00  0.11803101415E+01  0.00000000000E+00 0. -1.
         11    1    3    3    0    0 -0.43874564473E+01  0.12665292972E+02  0.21043944167E+02  0.24950090311E+02  0.51100000000E-03 0. -1.
        -11    1    3    3    0    0 -0.47919643036E+01  0.16938524765E+01  0.19917516210E+02  0.20555765866E+02  0.51100000000E-03 0.  1.
        -12    1    3    3    0    0  0.10240338365E+02 -0.14804634715E+02 -0.40698543736E+02  0.44501833682E+02  0.00000000000E+00 0.  1.
</event>
<event>
 7    1  0.1792665E-015  0.9000774E+02  0.7816164E-02  0.1186339E+00
        -11   -1    0    0    0    0  0.00000000000E+00  0.00000000000E+00  0.45593999997E+02  0.45594000000E+02  0.51100000000E-03 0.  1.
         11   -1    0    0    0    0 -0.00000000000E+00 -0.00000000000E+00 -0.45593999997E+02  0.45594000000E+02  0.51100000000E-03 0. -1.
    9900012    2    1    2    0    0 -0.87304933622E+00  0.71916714762E+00  0.33703207690E+00  0.90007742761E+02  0.90000004165E+02 0.  0.
         12    1    1    2    0    0  0.87304933622E+00 -0.71916714762E+00 -0.33703207690E+00  0.11802572391E+01  0.00000000000E+00 0. -1.
         11    1    3    3    0    0 -0.63479373622E+01  0.61735993178E+01 -0.35100686621E+01  0.95252411814E+01  0.51100000000E-03 0. -1.
        -11    1    3    3    0    0 -0.36667478319E+02 -0.53312410883E+01  0.87022428960E+01  0.38061202418E+02  0.51100000000E-03 0.  1.
         12    1    3    3    0    0  0.42142366345E+02 -0.12319108184E+00 -0.48551421570E+01  0.42421299162E+02  0.00000000000E+00 0. -1.
</event>
<event>
 7    1  0.1698110E-015  0.9000783E+02  0.7816164E-02  0.1186339E+00
        -11   -1    0    0    0    0  0.00000000000E+00  0.00000000000E+00  0.45593999997E+02  0.45594000000E+02  0.51100000000E-03 0.  1.
         11   -1    0    0    0    0 -0.00000000000E+00 -0.00000000000E+00 -0.45593999997E+02  0.45594000000E+02  0.51100000000E-03 0. -1.
    9900012    2    1    2    0    0 -0.64037003725E-01 -0.21780441042E-01  0.11782285439E+01  0.90007831526E+02  0.90000094102E+02 0.  0.
         12    1    1    2    0    0  0.64037003725E-01  0.21780441042E-01 -0.11782285439E+01  0.11801684740E+01  0.00000000000E+00 0. -1.
         11    1    3    3    0    0 -0.53512519399E+01 -0.22400853004E+01 -0.37134336433E+02  0.37584741879E+02  0.51100000000E-03 0. -1.
        -11    1    3    3    0    0  0.80772334669E+01  0.16256256716E+01 -0.45861966875E+01  0.94296107884E+01  0.51100000000E-03 0.  1.
        -12    1    3    3    0    0 -0.27900185307E+01  0.59267918772E+00  0.42898761665E+02  0.42993478859E+02  0.00000000000E+00 0.  1.
</event>
<event>
 7    1  0.1698110E-015  0.9000772E+02  0.7816164E-02  0.1186339E+00
        -11   -1    0    0    0    0  0.00000000000E+00  0.00000000000E+00  0.45593999997E+02  0.45594000000E+02  0.51100000000E-03 0. -1.
         11   -1    0    0    0    0 -0.00000000000E+00 -0.00000000000E+00 -0.45593999997E+02  0.45594000000E+02  0.51100000000E-03 0.  1.
    9900012    2    1    2    0    0  0.10451357557E+01  0.19952139630E+00 -0.51083071999E+00  0.90007718017E+02  0.89999979095E+02 0.  0.
         12    1    1    2    0    0 -0.10451357557E+01 -0.19952139630E+00  0.51083071999E+00  0.11802819832E+01  0.00000000000E+00 0. -1.
         11    1    3    3    0    0  0.16522174282E+02  0.28387088618E+02  0.11535295660E+02  0.34811953255E+02  0.51100000000E-03 0. -1.
        -11    1    3    3    0    0  0.73523851738E+01  0.75028349828E+01  0.17273510414E+01  0.10645836858E+02  0.51100000000E-03 0.  1.
        -12    1    3    3    0    0 -0.22829423700E+02 -0.35690402204E+02 -0.13773477422E+02  0.44549927904E+02  0.00000000000E+00 0.  1.
</event>
<event>
 7    1  0.1698110E-015  0.9000774E+02  0.7816164E-02  0.1186339E+00
        -11   -1    0    0    0    0  0.00000000000E+00  0.00000000000E+00  0.45593999997E+02  0.45594000000E+02  0.51100000000E-03 0.  1.
         11   -1    0    0    0    0 -0.00000000000E+00 -0.00000000000E+00 -0.45593999997E+02  0.45594000000E+02  0.51100000000E-03 0. -1.
    9900012    2    1    2    0    0 -0.86738840093E+00  0.58156984272E+00  0.54993850113E+00  0.90007737963E+02  0.89999999305E+02 0.  0.
         12    1    1    2    0    0  0.86738840093E+00 -0.58156984272E+00 -0.54993850113E+00  0.11802620366E+01  0.00000000000E+00 0. -1.
         11    1    3    3    0    0  0.29596089275E+02 -0.14512216406E+02 -0.10039427720E+02  0.34457554101E+02  0.51100000000E-03 0. -1.
        -11    1    3    3    0    0  0.10854619431E+02  0.12538584033E+01  0.28684728603E+01  0.11297037696E+02  0.51100000000E-03 0.  1.
        -12    1    3    3    0    0 -0.41318097107E+02  0.13839927846E+02  0.77208933609E+01  0.44253146167E+02  0.00000000000E+00 0.  1.
</event>
<event>
 7    1  0.1698110E-015  0.9000789E+02  0.7816164E-02  0.1186339E+00
        -11   -1    0    0    0    0  0.00000000000E+00  0.00000000000E+00  0.45593999997E+02  0.45594000000E+02  0.51100000000E-03 0. -1.
         11   -1    0    0    0    0 -0.00000000000E+00 -0.00000000000E+00 -0.45593999997E+02  0.45594000000E+02  0.51100000000E-03 0.  1.
    9900012    2    1    2    0    0  0.61741868040E+00  0.20985086658E+00 -0.98357589320E+00  0.90007887823E+02  0.90000151142E+02 0.  0.
         12    1    1    2    0    0 -0.61741868040E+00 -0.20985086658E+00  0.98357589320E+00  0.11801121772E+01  0.00000000000E+00 0. -1.
         11    1    3    3    0    0  0.80401883211E+01  0.19331919561E+01  0.70504148859E+00  0.82993338974E+01  0.51100000000E-03 0. -1.
        -11    1    3    3    0    0 -0.31910409892E+02  0.44060190933E+01  0.28040718164E+02  0.42707951708E+02  0.51100000000E-03 0.  1.
         12    1    3    3    0    0  0.24487640251E+02 -0.61293601828E+01 -0.29729335545E+02  0.39000602217E+02  0.00000000000E+00 0. -1.
</event>
<event>
 7    1  0.1698110E-015  0.9000739E+02  0.7816164E-02  0.1186340E+00
        -11   -1    0    0    0    0  0.00000000000E+00  0.00000000000E+00  0.45593999997E+02  0.45594000000E+02  0.51100000000E-03 0.  1.
         11   -1    0    0    0    0 -0.00000000000E+00 -0.00000000000E+00 -0.45593999997E+02  0.45594000000E+02  0.51100000000E-03 0. -1.
    9900012    2    1    2    0    0 -0.45803789584E+00  0.15125226056E+00  0.10775713103E+01  0.90007391729E+02  0.89999648499E+02 0.  0.
         12    1    1    2    0    0  0.45803789584E+00 -0.15125226056E+00 -0.10775713103E+01  0.11806082709E+01  0.00000000000E+00 0. -1.
         11    1    3    3    0    0 -0.64848534033E+01  0.17247712682E+02  0.33005830952E+02  0.37801081909E+02  0.51100000000E-03 0. -1.
        -11    1    3    3    0    0  0.26839310962E+01  0.36568065516E+01  0.67806573211E+01  0.81580043058E+01  0.51100000000E-03 0.  1.
        -12    1    3    3    0    0  0.33428844112E+01 -0.20753266973E+02 -0.38708916963E+02  0.44048305514E+02  0.00000000000E+00 0.  1.
</event>
<event>
 7    1  0.1698110E-015  0.9000752E+02  0.7816164E-02  0.1186339E+00
        -11   -1    0    0    0    0  0.00000000000E+00  0.00000000000E+00  0.45593999997E+02  0.45594000000E+02  0.51100000000E-03 0.  1.
         11   -1    0    0    0    0 -0.00000000000E+00 -0.00000000000E+00 -0.45593999997E+02  0.45594000000E+02  0.51100000000E-03 0. -1.
    9900012    2    1    2    0    0 -0.17800058075E+00  0.10336294960E+00  0.11623931385E+01  0.90007523014E+02  0.89999781517E+02 0.  0.
         12    1    1    2    0    0  0.17800058075E+00 -0.10336294960E+00 -0.11623931385E+01  0.11804769861E+01  0.00000000000E+00 0. -1.
         11    1    3    3    0    0 -0.32072157538E+01 -0.70499807494E+01 -0.51158342549E+01  0.92822530586E+01  0.51100000000E-03 0. -1.
        -11    1    3    3    0    0 -0.29591441816E+02  0.91222963574E+01 -0.21612161317E+02  0.37761822475E+02  0.51100000000E-03 0.  1.
         12    1    3    3    0    0  0.32620656989E+02 -0.19689526584E+01  0.27890388711E+02  0.42963447480E+02  0.00000000000E+00 0. -1.
</event>
<event>
 7    1  0.1698110E-015  0.9000783E+02  0.7816164E-02  0.1186339E+00
        -11   -1    0    0    0    0  0.00000000000E+00  0.00000000000E+00  0.45593999997E+02  0.45594000000E+02  0.51100000000E-03 0.  1.
         11   -1    0    0    0    0 -0.00000000000E+00 -0.00000000000E+00 -0.45593999997E+02  0.45594000000E+02  0.51100000000E-03 0. -1.
    9900012    2    1    2    0    0 -0.11626029420E+01  0.14401012360E+00  0.14284995626E+00  0.90007834492E+02  0.90000097107E+02 0.  0.
         12    1    1    2    0    0  0.11626029420E+01 -0.14401012360E+00 -0.14284995626E+00  0.11801655081E+01  0.00000000000E+00 0. -1.
         11    1    3    3    0    0 -0.92610917918E+01 -0.12050257967E+02 -0.32419195107E+02  0.35804758761E+02  0.51100000000E-03 0. -1.
        -11    1    3    3    0    0 -0.79096158812E+01 -0.39424100891E+01 -0.51072684257E+01  0.10207292086E+02  0.51100000000E-03 0.  1.
        -12    1    3    3    0    0  0.16008104731E+02  0.16136678180E+02  0.37669313489E+02  0.43995783645E+02  0.00000000000E+00 0.  1.
</event>
<event>
 7    1  0.1698110E-015  0.9000774E+02  0.7816164E-02  0.1186339E+00
        -11   -1    0    0    0    0  0.00000000000E+00  0.00000000000E+00  0.45593999997E+02  0.45594000000E+02  0.51100000000E-03 0. -1.
         11   -1    0    0    0    0 -0.00000000000E+00 -0.00000000000E+00 -0.45593999997E+02  0.45594000000E+02  0.51100000000E-03 0.  1.
    9900012    2    1    2    0    0 -0.68963035221E+00  0.17262151928E+00 -0.94214345307E+00  0.90007736259E+02  0.89999997578E+02 0.  0.
         12    1    1    2    0    0  0.68963035221E+00 -0.17262151928E+00  0.94214345307E+00  0.11802637408E+01  0.00000000000E+00 0. -1.
         11    1    3    3    0    0 -0.26558887096E+02 -0.26850159203E+02 -0.11067735993E+02  0.39354800384E+02  0.51100000000E-03 0. -1.
        -11    1    3    3    0    0 -0.17135858070E+00 -0.48469668016E+01  0.81078934972E+01  0.94477715977E+01  0.51100000000E-03 0.  1.
        -12    1    3    3    0    0  0.26040615324E+02  0.31869747524E+02  0.20176990428E+01  0.41205164277E+02  0.00000000000E+00 0.  1.
</event>
<event>
 7    1  0.1698110E-015  0.9000780E+02  0.7816164E-02  0.1186339E+00
        -11   -1    0    0    0    0  0.00000000000E+00  0.00000000000E+00  0.45593999997E+02  0.45594000000E+02  0.51100000000E-03 0.  1.
         11   -1    0    0    0    0 -0.00000000000E+00 -0.00000000000E+00 -0.45593999997E+02  0.45594000000E+02  0.51100000000E-03 0. -1.
    9900012    2    1    2    0    0 -0.26525893710E+00 -0.10595464175E+01  0.44706631900E+00  0.90007801200E+02  0.90000063376E+02 0.  0.
         12    1    1    2    0    0  0.26525893710E+00  0.10595464175E+01 -0.44706631900E+00  0.11801988003E+01  0.00000000000E+00 0. -1.
         11    1    3    3    0    0 -0.25294302929E+02 -0.17975488876E+02 -0.12929117631E+01  0.31057874719E+02  0.51100000000E-03 0. -1.
        -11    1    3    3    0    0 -0.13698021451E+02  0.10004479474E+02  0.85988495499E+01  0.19017508119E+02  0.51100000000E-03 0.  1.
        -12    1    3    3    0    0  0.38727065443E+02  0.69114629851E+01 -0.68588714677E+01  0.39932418362E+02  0.00000000000E+00 0.  1.
</event>
<event>
 7    1  0.1698110E-015  0.9000774E+02  0.7816164E-02  0.1186339E+00
        -11   -1    0    0    0    0  0.00000000000E+00  0.00000000000E+00  0.45593999997E+02  0.45594000000E+02  0.51100000000E-03 0. -1.
         11   -1    0    0    0    0 -0.00000000000E+00 -0.00000000000E+00 -0.45593999997E+02  0.45594000000E+02  0.51100000000E-03 0.  1.
    9900012    2    1    2    0    0  0.79378823346E+00  0.73245104697E+00 -0.47583890710E+00  0.90007742841E+02  0.90000004247E+02 0.  0.
         12    1    1    2    0    0 -0.79378823346E+00 -0.73245104697E+00  0.47583890710E+00  0.11802571590E+01  0.00000000000E+00 0. -1.
         11    1    3    3    0    0 -0.84139064538E+00 -0.84747584208E+01 -0.80712556024E+01  0.11733483531E+02  0.51100000000E-03 0. -1.
        -11    1    3    3    0    0  0.97840810238E+01 -0.17088699934E+02  0.34536269181E+02  0.39755575661E+02  0.51100000000E-03 0.  1.
         12    1    3    3    0    0 -0.81489021450E+01  0.26295909402E+02 -0.26940852486E+02  0.38518683650E+02  0.00000000000E+00 0. -1.
</event>
<event>
 7    1  0.1698110E-015  0.9000800E+02  0.7816164E-02  0.1186339E+00
        -11   -1    0    0    0    0  0.00000000000E+00  0.00000000000E+00  0.45593999997E+02  0.45594000000E+02  0.51100000000E-03 0. -1.
         11   -1    0    0    0    0 -0.00000000000E+00 -0.00000000000E+00 -0.45593999997E+02  0.45594000000E+02  0.51100000000E-03 0.  1.
    9900012    2    1    2    0    0  0.40683268258E+00  0.83283976404E+00 -0.73025240677E+00  0.90007998525E+02  0.90000263305E+02 0.  0.
         12    1    1    2    0    0 -0.40683268258E+00 -0.83283976404E+00  0.73025240677E+00  0.11800014753E+01  0.00000000000E+00 0. -1.
         11    1    3    3    0    0  0.89442778230E+01  0.12365132051E+02  0.32268590608E+02  0.35695357352E+02  0.51100000000E-03 0. -1.
        -11    1    3    3    0    0 -0.11374877672E+01  0.21592837790E-01  0.95442336794E+01  0.96118021962E+01  0.51100000000E-03 0.  1.
        -12    1    3    3    0    0 -0.73999573732E+01 -0.11553885125E+02 -0.42543076694E+02  0.44700838976E+02  0.00000000000E+00 0.  1.
</event>
<event>
 7    1  0.1698110E-015  0.9000788E+02  0.7816164E-02  0.1186339E+00
        -11   -1    0    0    0    0  0.00000000000E+00  0.00000000000E+00  0.45593999997E+02  0.45594000000E+02  0.51100000000E-03 0. -1.
         11   -1    0    0    0    0 -0.00000000000E+00 -0.00000000000E+00 -0.45593999997E+02  0.45594000000E+02  0.51100000000E-03 0.  1.
    9900012    2    1    2    0    0 -0.10012994489E+00 -0.11687510379E+01  0.12911351698E+00  0.90007883355E+02  0.90000146616E+02 0.  0.
         12    1    1    2    0    0  0.10012994489E+00  0.11687510379E+01 -0.12911351698E+00  0.11801166446E+01  0.00000000000E+00 0. -1.
         11    1    3    3    0    0 -0.13240842297E+02  0.12084659438E+02  0.27142056005E+02  0.32527682102E+02  0.51100000000E-03 0. -1.
        -11    1    3    3    0    0  0.95958686919E+01  0.13897527783E+02  0.26683860907E+01  0.17098019155E+02  0.51100000000E-03 0.  1.
        -12    1    3    3    0    0  0.35448436603E+01 -0.27150938258E+02 -0.29681328579E+02  0.40382182099E+02  0.00000000000E+00 0.  1.
</event>
<event>
 7    1  0.1698110E-015  0.9000770E+02  0.7816164E-02  0.1186339E+00
        -11   -1    0    0    0    0  0.00000000000E+00  0.00000000000E+00  0.45593999997E+02  0.45594000000E+02  0.51100000000E-03 0. -1.
         11   -1    0    0    0    0 -0.00000000000E+00 -0.00000000000E+00 -0.45593999997E+02  0.45594000000E+02  0.51100000000E-03 0.  1.
    9900012    2    1    2    0    0 -0.55935115793E+00 -0.10393329804E+01  0.57382279001E-02  0.90007695086E+02  0.89999955861E+02 0.  0.
         12    1    1    2    0    0  0.55935115793E+00  0.10393329804E+01 -0.57382279001E-02  0.11803049137E+01  0.00000000000E+00 0. -1.
         11    1    3    3    0    0  0.52968539011E+01 -0.37949180289E+01  0.38863710022E+01  0.75869588060E+01  0.51100000000E-03 0. -1.
        -11    1    3    3    0    0  0.23342574816E+02 -0.20594083006E+02 -0.24600847312E+02  0.39676110478E+02  0.51100000000E-03 0.  1.
         12    1    3    3    0    0 -0.29198779875E+02  0.23349668055E+02  0.20720214538E+02  0.42744625802E+02  0.00000000000E+00 0. -1.
</event>
<event>
 7    1  0.1698110E-015  0.9000776E+02  0.7816164E-02  0.1186339E+00
        -11   -1    0    0    0    0  0.00000000000E+00  0.00000000000E+00  0.45593999997E+02  0.45594000000E+02  0.51100000000E-03 0.  1.
         11   -1    0    0    0    0 -0.00000000000E+00 -0.00000000000E+00 -0.45593999997E+02  0.45594000000E+02  0.51100000000E-03 0. -1.
    9900012    2    1    2    0    0  0.65217903892E+00  0.57161857334E+00  0.80054835010E+00  0.90007761485E+02  0.90000023136E+02 0.  0.
         12    1    1    2    0    0 -0.65217903892E+00 -0.57161857334E+00 -0.80054835010E+00  0.11802385153E+01  0.00000000000E+00 0. -1.
         11    1    3    3    0    0  0.12750786005E+02  0.19649510125E+02  0.15789772940E+02  0.28248941957E+02  0.51100000000E-03 0. -1.
        -11    1    3    3    0    0  0.13816533218E+02 -0.12568531221E+02  0.13235789956E+02  0.22892153748E+02  0.51100000000E-03 0.  1.
         12    1    3    3    0    0 -0.25915140184E+02 -0.65093603311E+01 -0.28225014546E+02  0.38866665780E+02  0.00000000000E+00 0. -1.
</event>
<event>
 7    1  0.1698110E-015  0.9000768E+02  0.7816164E-02  0.1186339E+00
        -11   -1    0    0    0    0  0.00000000000E+00  0.00000000000E+00  0.45593999997E+02  0.45594000000E+02  0.51100000000E-03 0.  1.
         11   -1    0    0    0    0 -0.00000000000E+00 -0.00000000000E+00 -0.45593999997E+02  0.45594000000E+02  0.51100000000E-03 0. -1.
    9900012    2    1    2    0    0  0.10169632326E+01  0.44958729807E+00  0.39600676924E+00  0.90007676182E+02  0.89999936707E+02 0.  0.
         12    1    1    2    0    0 -0.10169632326E+01 -0.44958729807E+00 -0.39600676924E+00  0.11803238184E+01  0.00000000000E+00 0. -1.
         11    1    3    3    0    0  0.24617649782E+02  0.10394202514E+02 -0.25656421311E+02  0.37044838796E+02  0.51100000000E-03 0. -1.
        -11    1    3    3    0    0  0.77664989208E+01 -0.65845316578E+00 -0.38044295187E+01  0.86732779433E+01  0.51100000000E-03 0.  1.
        -12    1    3    3    0    0 -0.31367185470E+02 -0.92861620500E+01  0.29856857599E+02  0.44289559442E+02  0.00000000000E+00 0.  1.
</event>
<event>
 7    1  0.1698110E-015  0.9000778E+02  0.7816164E-02  0.1186339E+00
        -11   -1    0    0    0    0  0.00000000000E+00  0.00000000000E+00  0.45593999997E+02  0.45594000000E+02  0.51100000000E-03 0.  1.
         11   -1    0    0    0    0 -0.00000000000E+00 -0.00000000000E+00 -0.45593999997E+02  0.45594000000E+02  0.51100000000E-03 0. -1.
    9900012    2    1    2    0    0 -0.57715971327E+00 -0.74976373012E+00  0.70545789059E+00  0.90007775521E+02  0.90000037358E+02 0.  0.
         12    1    1    2    0    0  0.57715971327E+00  0.74976373012E+00 -0.70545789059E+00  0.11802244791E+01  0.00000000000E+00 0. -1.
         11    1    3    3    0    0  0.92827587276E+01  0.21881936511E+00 -0.66996475852E+00  0.93094760619E+01  0.51100000000E-03 0. -1.
        -11    1    3    3    0    0  0.33451728852E+02  0.85925686836E+01  0.90053934299E+01  0.35692401304E+02  0.51100000000E-03 0.  1.
         12    1    3    3    0    0 -0.43311647293E+02 -0.95611517788E+01 -0.76299707808E+01  0.45005898155E+02  0.00000000000E+00 0. -1.
</event>
<event>
 7    1  0.1698110E-015  0.9000764E+02  0.7816164E-02  0.1186339E+00
        -11   -1    0    0    0    0  0.00000000000E+00  0.00000000000E+00  0.45593999997E+02  0.45594000000E+02  0.51100000000E-03 0. -1.
         11   -1    0    0    0    0 -0.00000000000E+00 -0.00000000000E+00 -0.45593999997E+02  0.45594000000E+02  0.51100000000E-03 0.  1.
    9900012    2    1    2    0    0 -0.50351252930E+00 -0.10469232037E+01 -0.20900677981E+00  0.90007636964E+02  0.89999896972E+02 0.  0.
         12    1    1    2    0    0  0.50351252930E+00  0.10469232037E+01  0.20900677981E+00  0.11803630355E+01  0.00000000000E+00 0. -1.
         11    1    3    3    0    0 -0.31405572807E+02 -0.91800538682E+01  0.23862570813E+02  0.40496983572E+02  0.51100000000E-03 0. -1.
        -11    1    3    3    0    0 -0.49808115180E+01  0.40456559658E+01 -0.72145061252E+01  0.96553049907E+01  0.51100000000E-03 0.  1.
        -12    1    3    3    0    0  0.35882871796E+02  0.40874746987E+01 -0.16857071468E+02  0.39855348402E+02  0.00000000000E+00 0.  1.
</event>
<event>
 7    1  0.1698110E-015  0.9000763E+02  0.7816164E-02  0.1186339E+00
        -11   -1    0    0    0    0  0.00000000000E+00  0.00000000000E+00  0.45593999997E+02  0.45594000000E+02  0.51100000000E-03 0.  1.
         11   -1    0    0    0    0 -0.00000000000E+00 -0.00000000000E+00 -0.45593999997E+02  0.45594000000E+02  0.51100000000E-03 0. -1.
    9900012    2    1    2    0    0  0.10032052413E+00 -0.44571130123E+00  0.10883757849E+01  0.90007625220E+02  0.89999885073E+02 0.  0.
         12    1    1    2    0    0 -0.10032052413E+00  0.44571130123E+00 -0.10883757849E+01  0.11803747798E+01  0.00000000000E+00 0. -1.
         11    1    3    3    0    0 -0.17385580990E+02 -0.33967786540E+02 -0.12655113428E+02  0.40202249252E+02  0.51100000000E-03 0. -1.
        -11    1    3    3    0    0  0.91825335546E+01 -0.34817803960E+01  0.43165446686E+01  0.10727267842E+02  0.51100000000E-03 0.  1.
        -12    1    3    3    0    0  0.83033679593E+01  0.37003855635E+02  0.94269445443E+01  0.39078108127E+02  0.00000000000E+00 0.  1.
</event>
<event>
 7    1  0.1698110E-015  0.9000778E+02  0.7816164E-02  0.1186339E+00
        -11   -1    0    0    0    0  0.00000000000E+00  0.00000000000E+00  0.45593999997E+02  0.45594000000E+02  0.51100000000E-03 0.  1.
         11   -1    0    0    0    0 -0.00000000000E+00 -0.00000000000E+00 -0.45593999997E+02  0.45594000000E+02  0.51100000000E-03 0. -1.
    9900012    2    1    2    0    0 -0.84356721511E+00 -0.82436594833E+00 -0.41697244710E-01  0.90007778189E+02  0.90000040061E+02 0.  0.
         12    1    1    2    0    0  0.84356721511E+00  0.82436594833E+00  0.41697244710E-01  0.11802218111E+01  0.00000000000E+00 0. -1.
         11    1    3    3    0    0  0.80192500145E+01  0.69080165794E+01  0.29163336053E+01  0.10978800746E+02  0.51100000000E-03 0. -1.
        -11    1    3    3    0    0  0.16168250934E+02 -0.34852719206E+02  0.10361134851E+02  0.39792932664E+02  0.51100000000E-03 0.  1.
         12    1    3    3    0    0 -0.25031068163E+02  0.27120336679E+02 -0.13319165701E+02  0.39236044779E+02  0.00000000000E+00 0. -1.
</event>
<event>
 7    1  0.1698110E-015  0.9000778E+02  0.7816164E-02  0.1186339E+00
        -11   -1    0    0    0    0  0.00000000000E+00  0.00000000000E+00  0.45593999997E+02  0.45594000000E+02  0.51100000000E-03 0.  1.
         11   -1    0    0    0    0 -0.00000000000E+00 -0.00000000000E+00 -0.45593999997E+02  0.45594000000E+02  0.51100000000E-03 0. -1.
    9900012    2    1    2    0    0 -0.99554687828E+00 -0.61614166534E+00  0.14890334136E+00  0.90007781231E+02  0.90000043143E+02 0.  0.
         12    1    1    2    0    0  0.99554687828E+00  0.61614166534E+00 -0.14890334136E+00  0.11802187694E+01  0.00000000000E+00 0. -1.
         11    1    3    3    0    0  0.80723978860E+00 -0.11065084895E+02  0.16423509263E+01  0.11215393735E+02  0.51100000000E-03 0. -1.
        -11    1    3    3    0    0  0.24612326029E+02 -0.20482974285E+02  0.14415506591E+02  0.35115888977E+02  0.51100000000E-03 0.  1.
         12    1    3    3    0    0 -0.26415112696E+02  0.30931917514E+02 -0.15908954176E+02  0.43676498518E+02  0.00000000000E+00 0. -1.
</event>
<event>
 7    1  0.1698110E-015  0.9000777E+02  0.7816164E-02  0.1186339E+00
        -11   -1    0    0    0    0  0.00000000000E+00  0.00000000000E+00  0.45593999997E+02  0.45594000000E+02  0.51100000000E-03 0.  1.
         11   -1    0    0    0    0 -0.00000000000E+00 -0.00000000000E+00 -0.45593999997E+02  0.45594000000E+02  0.51100000000E-03 0. -1.
    9900012    2    1    2    0    0  0.13072541520E+00  0.56746435416E+00  0.10265635443E+01  0.90007772209E+02  0.90000034003E+02 0.  0.
         12    1    1    2    0    0 -0.13072541520E+00 -0.56746435416E+00 -0.10265635443E+01  0.11802277907E+01  0.00000000000E+00 0. -1.
         11    1    3    3    0    0  0.22557473384E+02 -0.16889450765E+02 -0.22173037320E+02  0.35857171345E+02  0.51100000000E-03 0. -1.
        -11    1    3    3    0    0  0.25878324351E+01 -0.29711956655E+01 -0.82056113999E+01  0.91025787062E+01  0.51100000000E-03 0.  1.
        -12    1    3    3    0    0 -0.25014580404E+02  0.20428110784E+02  0.31405212264E+02  0.45048022158E+02  0.00000000000E+00 0.  1.
</event>
<event>
 7    1  0.2047861E-015  0.9000775E+02  0.7816164E-02  0.1186339E+00
        -11   -1    0    0    0    0  0.00000000000E+00  0.00000000000E+00  0.45593999997E+02  0.45594000000E+02  0.51100000000E-03 0. -1.
         11   -1    0    0    0    0 -0.00000000000E+00 -0.00000000000E+00 -0.45593999997E+02  0.45594000000E+02  0.51100000000E-03 0.  1.
    9900012    2    1    2    0    0  0.35024141960E+00 -0.22852296665E+00 -0.11036737332E+01  0.90007751082E+02  0.90000012597E+02 0.  0.
         12    1    1    2    0    0 -0.35024141960E+00  0.22852296665E+00  0.11036737332E+01  0.11802489177E+01  0.00000000000E+00 0. -1.
         11    1    3    3    0    0  0.55980441727E+00  0.99711251292E+01  0.95616273945E+00  0.10032495441E+02  0.51100000000E-03 0. -1.
        -11    1    3    3    0    0 -0.51406770351E+00  0.32470425242E+02 -0.14446194693E+02  0.35542725309E+02  0.51100000000E-03 0.  1.
         12    1    3    3    0    0  0.30450470585E+00 -0.42670073338E+02  0.12386358220E+02  0.44432530332E+02  0.00000000000E+00 0. -1.
</event>
<event>
 7    1  0.1698110E-015  0.9000772E+02  0.7816164E-02  0.1186339E+00
        -11   -1    0    0    0    0  0.00000000000E+00  0.00000000000E+00  0.45593999997E+02  0.45594000000E+02  0.51100000000E-03 0. -1.
         11   -1    0    0    0    0 -0.00000000000E+00 -0.00000000000E+00 -0.45593999997E+02  0.45594000000E+02  0.51100000000E-03 0.  1.
    9900012    2    1    2    0    0  0.11193537236E+01 -0.37179080595E+00 -0.43230396729E-01  0.90007724596E+02  0.89999985761E+02 0.  0.
         12    1    1    2    0    0 -0.11193537236E+01  0.37179080595E+00  0.43230396729E-01  0.11802754040E+01  0.00000000000E+00 0. -1.
         11    1    3    3    0    0  0.54650913950E+01  0.91112757555E+01  0.23944067920E+01  0.10891085988E+02  0.51100000000E-03 0. -1.
        -11    1    3    3    0    0  0.51472825844E+01  0.32495734214E+02 -0.12013235114E+02  0.35025491835E+02  0.51100000000E-03 0.  1.
         12    1    3    3    0    0 -0.94930202557E+01 -0.41978800776E+02  0.95755979253E+01  0.44091146773E+02  0.00000000000E+00 0. -1.
</event>
<event>
 7    1  0.1698110E-015  0.9000773E+02  0.7816164E-02  0.1186339E+00
        -11   -1    0    0    0    0  0.00000000000E+00  0.00000000000E+00  0.45593999997E+02  0.45594000000E+02  0.51100000000E-03 0. -1.
         11   -1    0    0    0    0 -0.00000000000E+00 -0.00000000000E+00 -0.45593999997E+02  0.45594000000E+02  0.51100000000E-03 0.  1.
    9900012    2    1    2    0    0 -0.65125301083E+00 -0.84117396685E+00 -0.51119641256E+00  0.90007734818E+02  0.89999996118E+02 0.  0.
         12    1    1    2    0    0  0.65125301083E+00  0.84117396685E+00  0.51119641256E+00  0.11802651816E+01  0.00000000000E+00 0. -1.
         11    1    3    3    0    0  0.10749975809E+02  0.24011150190E+01 -0.25229631551E+01  0.11300118432E+02  0.51100000000E-03 0. -1.
        -11    1    3    3    0    0 -0.18292934772E+02  0.14162911208E+02 -0.32235468404E+02  0.39678015826E+02  0.51100000000E-03 0.  1.
         12    1    3    3    0    0  0.68917059520E+01 -0.17405200194E+02  0.34247235146E+02  0.39029600560E+02  0.00000000000E+00 0. -1.
</event>
<event>
 7    1  0.1698110E-015  0.9000772E+02  0.7816164E-02  0.1186339E+00
        -11   -1    0    0    0    0  0.00000000000E+00  0.00000000000E+00  0.45593999997E+02  0.45594000000E+02  0.51100000000E-03 0.  1.
         11   -1    0    0    0    0 -0.00000000000E+00 -0.00000000000E+00 -0.45593999997E+02  0.45594000000E+02  0.51100000000E-03 0. -1.
    9900012    2    1    2    0    0  0.89419574594E+00  0.27897135196E+00  0.71808221160E+00  0.90007723291E+02  0.89999984438E+02 0.  0.
         12    1    1    2    0    0 -0.89419574594E+00 -0.27897135196E+00 -0.71808221160E+00  0.11802767090E+01  0.00000000000E+00 0. -1.
         11    1    3    3    0    0 -0.35494391797E+02  0.72431023803E+01 -0.35920919955E+01  0.36403537003E+02  0.51100000000E-03 0. -1.
        -11    1    3    3    0    0 -0.73014569369E+01  0.67909150254E+00  0.56080856185E+01  0.92316338335E+01  0.51100000000E-03 0.  1.
        -12    1    3    3    0    0  0.43690044480E+02 -0.76432225309E+01 -0.12979114114E+01  0.44372552455E+02  0.00000000000E+00 0.  1.
</event>
<event>
 7    1  0.1698110E-015  0.9000769E+02  0.7816164E-02  0.1186339E+00
        -11   -1    0    0    0    0  0.00000000000E+00  0.00000000000E+00  0.45593999997E+02  0.45594000000E+02  0.51100000000E-03 0.  1.
         11   -1    0    0    0    0 -0.00000000000E+00 -0.00000000000E+00 -0.45593999997E+02  0.45594000000E+02  0.51100000000E-03 0. -1.
    9900012    2    1    2    0    0 -0.10750021408E+00  0.25030766382E-01  0.11751390734E+01  0.90007688737E+02  0.89999949429E+02 0.  0.
         12    1    1    2    0    0  0.10750021408E+00 -0.25030766382E-01 -0.11751390734E+01  0.11803112628E+01  0.00000000000E+00 0. -1.
         11    1    3    3    0    0  0.12519307418E+02  0.27518178795E+02 -0.26365426964E+02  0.40113825069E+02  0.51100000000E-03 0. -1.
        -11    1    3    3    0    0 -0.18256245573E+00  0.58403461617E+01  0.55935476478E+01  0.80889274868E+01  0.51100000000E-03 0.  1.
        -12    1    3    3    0    0 -0.12444245176E+02 -0.33333494190E+02  0.21947018390E+02  0.41804936181E+02  0.00000000000E+00 0.  1.
</event>
<event>
 7    1  0.1698110E-015  0.9000773E+02  0.7816164E-02  0.1186339E+00
        -11   -1    0    0    0    0  0.00000000000E+00  0.00000000000E+00  0.45593999997E+02  0.45594000000E+02  0.51100000000E-03 0.  1.
         11   -1    0    0    0    0 -0.00000000000E+00 -0.00000000000E+00 -0.45593999997E+02  0.45594000000E+02  0.51100000000E-03 0. -1.
    9900012    2    1    2    0    0  0.42661851322E+00  0.51065864137E+00 -0.97481555045E+00  0.90007728438E+02  0.89999989653E+02 0.  0.
         12    1    1    2    0    0 -0.42661851322E+00 -0.51065864137E+00  0.97481555045E+00  0.11802715625E+01  0.00000000000E+00 0. -1.
         11    1    3    3    0    0 -0.25797463392E+01  0.78685048227E+01 -0.51434932586E+01  0.97480245425E+01  0.51100000000E-03 0. -1.
        -11    1    3    3    0    0 -0.34496529609E+02 -0.17513390477E+02  0.12237896437E+02  0.40577031810E+02  0.51100000000E-03 0.  1.
         12    1    3    3    0    0  0.37502894461E+02  0.10155544295E+02 -0.80692187293E+01  0.39682672085E+02  0.00000000000E+00 0. -1.
</event>
<event>
 7    1  0.1698110E-015  0.9000771E+02  0.7816164E-02  0.1186339E+00
        -11   -1    0    0    0    0  0.00000000000E+00  0.00000000000E+00  0.45593999997E+02  0.45594000000E+02  0.51100000000E-03 0. -1.
         11   -1    0    0    0    0 -0.00000000000E+00 -0.00000000000E+00 -0.45593999997E+02  0.45594000000E+02  0.51100000000E-03 0.  1.
    9900012    2    1    2    0    0 -0.76299188889E+00  0.73228591255E+00 -0.52410310716E+00  0.90007710482E+02  0.89999971460E+02 0.  0.
         12    1    1    2    0    0  0.76299188889E+00 -0.73228591255E+00  0.52410310716E+00  0.11802895184E+01  0.00000000000E+00 0. -1.
         11    1    3    3    0    0 -0.36131421619E+02 -0.19845339985E+02 -0.14482711238E+01  0.41248207680E+02  0.51100000000E-03 0. -1.
        -11    1    3    3    0    0  0.14354067669E+01 -0.55279846579E+01  0.16345744105E+01  0.59406094577E+01  0.51100000000E-03 0.  1.
        -12    1    3    3    0    0  0.33933022963E+02  0.26105610556E+02 -0.71040639391E+00  0.42818893343E+02  0.00000000000E+00 0.  1.
</event>
<event>
 7    1  0.1698110E-015  0.9000769E+02  0.7816164E-02  0.1186339E+00
        -11   -1    0    0    0    0  0.00000000000E+00  0.00000000000E+00  0.45593999997E+02  0.45594000000E+02  0.51100000000E-03 0.  1.
         11   -1    0    0    0    0 -0.00000000000E+00 -0.00000000000E+00 -0.45593999997E+02  0.45594000000E+02  0.51100000000E-03 0. -1.
    9900012    2    1    2    0    0 -0.56021256934E+00  0.93851364089E+00  0.44551934498E+00  0.90007689251E+02  0.89999949949E+02 0.  0.
         12    1    1    2    0    0  0.56021256934E+00 -0.93851364089E+00 -0.44551934498E+00  0.11803107488E+01  0.00000000000E+00 0. -1.
         11    1    3    3    0    0 -0.38277935878E+01 -0.28449623585E+02 -0.23097361496E+02  0.36844554471E+02  0.51100000000E-03 0. -1.
        -11    1    3    3    0    0  0.66994844427E+01 -0.78214500251E+01  0.51243227670E+01  0.11502906432E+02  0.51100000000E-03 0.  1.
        -12    1    3    3    0    0 -0.34319034243E+01  0.37209587251E+02  0.18418558074E+02  0.41660228348E+02  0.00000000000E+00 0.  1.
</event>
<event>
 7    1  0.1698110E-015  0.9000773E+02  0.7816164E-02  0.1186339E+00
        -11   -1    0    0    0    0  0.00000000000E+00  0.00000000000E+00  0.45593999997E+02  0.45594000000E+02  0.51100000000E-03 0.  1.
         11   -1    0    0    0    0 -0.00000000000E+00 -0.00000000000E+00 -0.45593999997E+02  0.45594000000E+02  0.51100000000E-03 0. -1.
    9900012    2    1    2    0    0  0.31910093704E+00  0.36914575188E+00  0.10746814574E+01  0.90007731289E+02  0.89999992542E+02 0.  0.
         12    1    1    2    0    0 -0.31910093704E+00 -0.36914575188E+00 -0.10746814574E+01  0.11802687105E+01  0.00000000000E+00 0. -1.
         11    1    3    3    0    0  0.89286779445E+00 -0.88769166953E+01 -0.37387758661E+01  0.96734331110E+01  0.51100000000E-03 0. -1.
        -11    1    3    3    0    0 -0.73570100424E+00 -0.29894115154E+02  0.22461138849E+02  0.37399226401E+02  0.51100000000E-03 0.  1.
         12    1    3    3    0    0  0.16193414683E+00  0.39140177601E+02 -0.17647681525E+02  0.42935071777E+02  0.00000000000E+00 0. -1.
</event>
<event>
 7    1  0.1698110E-015  0.9000770E+02  0.7816164E-02  0.1186339E+00
        -11   -1    0    0    0    0  0.00000000000E+00  0.00000000000E+00  0.45593999997E+02  0.45594000000E+02  0.51100000000E-03 0.  1.
         11   -1    0    0    0    0 -0.00000000000E+00 -0.00000000000E+00 -0.45593999997E+02  0.45594000000E+02  0.51100000000E-03 0. -1.
    9900012    2    1    2    0    0 -0.97943568070E+00 -0.59858460215E+00 -0.27479028164E+00  0.90007700259E+02  0.89999961103E+02 0.  0.
         12    1    1    2    0    0  0.97943568070E+00  0.59858460215E+00  0.27479028164E+00  0.11802997405E+01  0.00000000000E+00 0. -1.
         11    1    3    3    0    0 -0.30715847740E+02 -0.20388993320E+02 -0.82024818360E+01  0.37768439994E+02  0.51100000000E-03 0. -1.
        -11    1    3    3    0    0 -0.39472051156E+01 -0.73325063064E+01  0.35495849257E+00  0.83349908668E+01  0.51100000000E-03 0.  1.
        -12    1    3    3    0    0  0.33683617175E+02  0.27122915025E+02  0.75727330618E+01  0.43904269399E+02  0.00000000000E+00 0.  1.
</event>
<event>
 7    1  0.1698110E-015  0.9000768E+02  0.7816164E-02  0.1186339E+00
        -11   -1    0    0    0    0  0.00000000000E+00  0.00000000000E+00  0.45593999997E+02  0.45594000000E+02  0.51100000000E-03 0. -1.
         11   -1    0    0    0    0 -0.00000000000E+00 -0.00000000000E+00 -0.45593999997E+02  0.45594000000E+02  0.51100000000E-03 0.  1.
    9900012    2    1    2    0    0  0.10579590719E+01  0.11396620730E+00 -0.51076534119E+00  0.90007683548E+02  0.89999944170E+02 0.  0.
         12    1    1    2    0    0 -0.10579590719E+01 -0.11396620730E+00  0.51076534119E+00  0.11803164525E+01  0.00000000000E+00 0. -1.
         11    1    3    3    0    0 -0.16276162981E+01  0.78386800877E+01  0.19087988224E+01  0.82302827131E+01  0.51100000000E-03 0. -1.
        -11    1    3    3    0    0  0.37720852566E+02 -0.21150764380E+02  0.49902955606E+01  0.43532982923E+02  0.51100000000E-03 0.  1.
         12    1    3    3    0    0 -0.35035277196E+02  0.13426050499E+02 -0.74098597242E+01  0.38244417911E+02  0.00000000000E+00 0. -1.
</event>
<event>
 7    1  0.1698110E-015  0.9000764E+02  0.7816164E-02  0.1186339E+00
        -11   -1    0    0    0    0  0.00000000000E+00  0.00000000000E+00  0.45593999997E+02  0.45594000000E+02  0.51100000000E-03 0. -1.
         11   -1    0    0    0    0 -0.00000000000E+00 -0.00000000000E+00 -0.45593999997E+02  0.45594000000E+02  0.51100000000E-03 0.  1.
    9900012    2    1    2    0    0 -0.34684591707E+00 -0.19040837923E-01 -0.11280841666E+01  0.90007644744E+02  0.89999904854E+02 0.  0.
         12    1    1    2    0    0  0.34684591707E+00  0.19040837923E-01  0.11280841666E+01  0.11803552561E+01  0.00000000000E+00 0. -1.
         11    1    3    3    0    0  0.13556775618E+01  0.31114350303E+01  0.21221137349E+02  0.21490825024E+02  0.51100000000E-03 0. -1.
        -11    1    3    3    0    0  0.63083592693E+01  0.28054767733E+02 -0.22185145898E+02  0.36318674095E+02  0.51100000000E-03 0.  1.
         12    1    3    3    0    0 -0.80108827482E+01 -0.31185243601E+02 -0.16407561704E+00  0.32198145625E+02  0.00000000000E+00 0. -1.
</event>
<event>
 7    1  0.1698110E-015  0.9000770E+02  0.7816164E-02  0.1186339E+00
        -11   -1    0    0    0    0  0.00000000000E+00  0.00000000000E+00  0.45593999997E+02  0.45594000000E+02  0.51100000000E-03 0. -1.
         11   -1    0    0    0    0 -0.00000000000E+00 -0.00000000000E+00 -0.45593999997E+02  0.45594000000E+02  0.51100000000E-03 0.  1.
    9900012    2    1    2    0    0 -0.49419469354E+00  0.41482978073E+00 -0.98832600986E+00  0.90007703239E+02  0.89999964122E+02 0.  0.
         12    1    1    2    0    0  0.49419469354E+00 -0.41482978073E+00  0.98832600986E+00  0.11802967609E+01  0.00000000000E+00 0. -1.
         11    1    3    3    0    0  0.29634395994E+02  0.26414767225E+02  0.62148527174E+01  0.40181609575E+02  0.51100000000E-03 0. -1.
        -11    1    3    3    0    0 -0.50917793130E+01  0.62604773780E+01 -0.35849120999E+01  0.88301409160E+01  0.51100000000E-03 0.  1.
        -12    1    3    3    0    0 -0.25036811374E+02 -0.32260414823E+02 -0.36182666273E+01  0.40995952748E+02  0.00000000000E+00 0.  1.
</event>
<event>
 7    1  0.1698110E-015  0.9000771E+02  0.7816164E-02  0.1186339E+00
        -11   -1    0    0    0    0  0.00000000000E+00  0.00000000000E+00  0.45593999997E+02  0.45594000000E+02  0.51100000000E-03 0.  1.
         11   -1    0    0    0    0 -0.00000000000E+00 -0.00000000000E+00 -0.45593999997E+02  0.45594000000E+02  0.51100000000E-03 0. -1.
    9900012    2    1    2    0    0  0.80678142213E+00  0.29823837283E+00  0.80823010103E+00  0.90007712626E+02  0.89999973632E+02 0.  0.
         12    1    1    2    0    0 -0.80678142213E+00 -0.29823837283E+00 -0.80823010103E+00  0.11802873745E+01  0.00000000000E+00 0. -1.
         11    1    3    3    0    0 -0.11524765835E+02  0.10883788758E+02 -0.39242959741E+02  0.42323598321E+02  0.51100000000E-03 0. -1.
        -11    1    3    3    0    0 -0.11693117054E+01  0.50513456025E+01  0.70820581314E+01  0.87771823439E+01  0.51100000000E-03 0.  1.
        -12    1    3    3    0    0  0.13500858962E+02 -0.15636895988E+02  0.32969131711E+02  0.38906931961E+02  0.00000000000E+00 0.  1.
</event>
<event>
 7    1  0.1698110E-015  0.9000783E+02  0.7816164E-02  0.1186339E+00
        -11   -1    0    0    0    0  0.00000000000E+00  0.00000000000E+00  0.45593999997E+02  0.45594000000E+02  0.51100000000E-03 0. -1.
         11   -1    0    0    0    0 -0.00000000000E+00 -0.00000000000E+00 -0.45593999997E+02  0.45594000000E+02  0.51100000000E-03 0.  1.
    9900012    2    1    2    0    0 -0.32565496581E+00  0.95680402944E+00 -0.60932358274E+00  0.90007830378E+02  0.90000092939E+02 0.  0.
         12    1    1    2    0    0  0.32565496581E+00 -0.95680402944E+00  0.60932358274E+00  0.11801696217E+01  0.00000000000E+00 0. -1.
         11    1    3    3    0    0  0.73133152349E+01 -0.11487003964E+02  0.37434303472E+02  0.39834192806E+02  0.51100000000E-03 0. -1.
        -11    1    3    3    0    0  0.30908064543E+00  0.96128504657E+01  0.15051659422E+01  0.97348831372E+01  0.51100000000E-03 0.  1.
        -12    1    3    3    0    0 -0.79480508461E+01  0.28309575275E+01 -0.39548792997E+02  0.40438754435E+02  0.00000000000E+00 0.  1.
</event>
<event>
 7    1  0.2415688E-015  0.9000776E+02  0.7816164E-02  0.1186339E+00
        -11   -1    0    0    0    0  0.00000000000E+00  0.00000000000E+00  0.45593999997E+02  0.45594000000E+02  0.51100000000E-03 0.  1.
         11   -1    0    0    0    0 -0.00000000000E+00 -0.00000000000E+00 -0.45593999997E+02  0.45594000000E+02  0.51100000000E-03 0. -1.
    9900012    2    1    2    0    0 -0.13626453585E+00 -0.43317469323E+00  0.10893818646E+01  0.90007762233E+02  0.90000023895E+02 0.  0.
         12    1    1    2    0    0  0.13626453585E+00  0.43317469323E+00 -0.10893818646E+01  0.11802377666E+01  0.00000000000E+00 0. -1.
         11    1    3    3    0    0  0.47952947275E+01 -0.63420703802E+00  0.85296808556E+01  0.98057394342E+01  0.51100000000E-03 0. -1.
        -11    1    3    3    0    0 -0.74614157580E+01 -0.34927551005E+02  0.14676905813E+02  0.38613703641E+02  0.51100000000E-03 0.  1.
         12    1    3    3    0    0  0.25298564946E+01  0.35128583350E+02 -0.22117204804E+02  0.41588319158E+02  0.00000000000E+00 0. -1.
</event>
<event>
 7    1  0.1698110E-015  0.9000780E+02  0.7816164E-02  0.1186339E+00
        -11   -1    0    0    0    0  0.00000000000E+00  0.00000000000E+00  0.45593999997E+02  0.45594000000E+02  0.51100000000E-03 0. -1.
         11   -1    0    0    0    0 -0.00000000000E+00 -0.00000000000E+00 -0.45593999997E+02  0.45594000000E+02  0.51100000000E-03 0.  1.
    9900012    2    1    2    0    0 -0.82335511259E-02 -0.47858406050E+00 -0.10787800579E+01  0.90007797938E+02  0.90000060071E+02 0.  0.
         12    1    1    2    0    0  0.82335511259E-02  0.47858406050E+00  0.10787800579E+01  0.11802020622E+01  0.00000000000E+00 0. -1.
         11    1    3    3    0    0  0.57606735155E+01  0.62935097511E+01 -0.20283430365E+01  0.87697092354E+01  0.51100000000E-03 0. -1.
        -11    1    3    3    0    0 -0.29295991555E+02  0.14923712605E+02 -0.23960508004E+02  0.40682653099E+02  0.51100000000E-03 0.  1.
         12    1    3    3    0    0  0.23527084488E+02 -0.21695806416E+02  0.24910070983E+02  0.40555435603E+02  0.00000000000E+00 0. -1.
</event>
<event>
 7    1  0.1698110E-015  0.9000775E+02  0.7816164E-02  0.1186339E+00
        -11   -1    0    0    0    0  0.00000000000E+00  0.00000000000E+00  0.45593999997E+02  0.45594000000E+02  0.51100000000E-03 0.  1.
         11   -1    0    0    0    0 -0.00000000000E+00 -0.00000000000E+00 -0.45593999997E+02  0.45594000000E+02  0.51100000000E-03 0. -1.
    9900012    2    1    2    0    0 -0.10600478482E+01 -0.39989542155E+00  0.33069757862E+00  0.90007754823E+02  0.90000016387E+02 0.  0.
         12    1    1    2    0    0  0.10600478482E+01  0.39989542155E+00 -0.33069757862E+00  0.11802451767E+01  0.00000000000E+00 0. -1.
         11    1    3    3    0    0  0.27024965139E+02 -0.13523048711E+02 -0.21680607455E+02  0.37192342318E+02  0.51100000000E-03 0. -1.
        -11    1    3    3    0    0 -0.79743167392E-01  0.36467147272E+01 -0.91561934825E+01  0.98560015536E+01  0.51100000000E-03 0.  1.
        -12    1    3    3    0    0 -0.28005269820E+02  0.94764385624E+01  0.31167498516E+02  0.42959410951E+02  0.00000000000E+00 0.  1.
</event>
<event>
 7    1  0.1698110E-015  0.9000642E+02  0.7816164E-02  0.1186342E+00
        -11   -1    0    0    0    0  0.00000000000E+00  0.00000000000E+00  0.45593999997E+02  0.45594000000E+02  0.51100000000E-03 0.  1.
         11   -1    0    0    0    0 -0.00000000000E+00 -0.00000000000E+00 -0.45593999997E+02  0.45594000000E+02  0.51100000000E-03 0. -1.
    9900012    2    1    2    0    0  0.10122685007E+01  0.58221269011E+00  0.18017504080E+00  0.90006423858E+02  0.89998667843E+02 0.  0.
         12    1    1    2    0    0 -0.10122685007E+01 -0.58221269011E+00 -0.18017504080E+00  0.11815761420E+01  0.00000000000E+00 0. -1.
         11    1    3    3    0    0  0.39271413428E+01  0.80979715146E+01  0.75450870779E+01  0.11744271840E+02  0.51100000000E-03 0. -1.
        -11    1    3    3    0    0  0.25175054178E+02 -0.15673351121E+02  0.21915569639E+02  0.36874509910E+02  0.51100000000E-03 0.  1.
         12    1    3    3    0    0 -0.28089927020E+02  0.81575922960E+01 -0.29280481676E+02  0.41387642108E+02  0.00000000000E+00 0. -1.
</event>
<event>
 7    1  0.1698110E-015  0.9000775E+02  0.7816164E-02  0.1186339E+00
        -11   -1    0    0    0    0  0.00000000000E+00  0.00000000000E+00  0.45593999997E+02  0.45594000000E+02  0.51100000000E-03 0.  1.
         11   -1    0    0    0    0 -0.00000000000E+00 -0.00000000000E+00 -0.45593999997E+02  0.45594000000E+02  0.51100000000E-03 0. -1.
    9900012    2    1    2    0    0 -0.83391449582E-01  0.11295843801E+01 -0.33176954387E+00  0.90007751706E+02  0.90000013228E+02 0.  0.
         12    1    1    2    0    0  0.83391449582E-01 -0.11295843801E+01  0.33176954387E+00  0.11802482942E+01  0.00000000000E+00 0. -1.
         11    1    3    3    0    0  0.10576725761E+02 -0.27639607067E+01  0.67467428387E+00  0.10952707075E+02  0.51100000000E-03 0. -1.
        -11    1    3    3    0    0 -0.13806475027E+02  0.13880850747E+02  0.35791544535E+02  0.40796218337E+02  0.51100000000E-03 0.  1.
         12    1    3    3    0    0  0.31463578163E+01 -0.99873056602E+01 -0.36797988363E+02  0.38258826294E+02  0.00000000000E+00 0. -1.
</event>
<event>
 7    1  0.1698110E-015  0.9000775E+02  0.7816164E-02  0.1186339E+00
        -11   -1    0    0    0    0  0.00000000000E+00  0.00000000000E+00  0.45593999997E+02  0.45594000000E+02  0.51100000000E-03 0. -1.
         11   -1    0    0    0    0 -0.00000000000E+00 -0.00000000000E+00 -0.45593999997E+02  0.45594000000E+02  0.51100000000E-03 0.  1.
    9900012    2    1    2    0    0  0.84187050005E+00  0.73406710402E+00 -0.38130841224E+00  0.90007747249E+02  0.90000008712E+02 0.  0.
         12    1    1    2    0    0 -0.84187050005E+00 -0.73406710402E+00  0.38130841224E+00  0.11802527514E+01  0.00000000000E+00 0. -1.
         11    1    3    3    0    0 -0.68114250174E+01 -0.85469084044E+01 -0.40829526069E+01  0.11666861459E+02  0.51100000000E-03 0. -1.
        -11    1    3    3    0    0  0.26455734827E+02 -0.13670459446E+02 -0.23618859618E+02  0.38008392450E+02  0.51100000000E-03 0.  1.
         12    1    3    3    0    0 -0.18802439310E+02  0.22951434954E+02  0.27320503813E+02  0.40332493340E+02  0.00000000000E+00 0. -1.
</event>
<event>
 7    1  0.1698110E-015  0.9000774E+02  0.7816164E-02  0.1186339E+00
        -11   -1    0    0    0    0  0.00000000000E+00  0.00000000000E+00  0.45593999997E+02  0.45594000000E+02  0.51100000000E-03 0. -1.
         11   -1    0    0    0    0 -0.00000000000E+00 -0.00000000000E+00 -0.45593999997E+02  0.45594000000E+02  0.51100000000E-03 0.  1.
    9900012    2    1    2    0    0 -0.32779816910E+00  0.97272960320E+00 -0.58255366411E+00  0.90007735923E+02  0.89999997237E+02 0.  0.
         12    1    1    2    0    0  0.32779816910E+00 -0.97272960320E+00  0.58255366411E+00  0.11802640773E+01  0.00000000000E+00 0. -1.
         11    1    3    3    0    0 -0.98593711464E+01  0.13226770300E+01  0.11149280350E-01  0.99477031769E+01  0.51100000000E-03 0. -1.
        -11    1    3    3    0    0 -0.87970508284E+01  0.37119728815E+02 -0.30919315014E+01  0.38272998462E+02  0.51100000000E-03 0.  1.
         12    1    3    3    0    0  0.18328623806E+02 -0.37469676242E+02  0.24982285569E+01  0.41787034284E+02  0.00000000000E+00 0. -1.
</event>
<event>
 7    1  0.1698110E-015  0.9000755E+02  0.7816164E-02  0.1186339E+00
        -11   -1    0    0    0    0  0.00000000000E+00  0.00000000000E+00  0.45593999997E+02  0.45594000000E+02  0.51100000000E-03 0.  1.
         11   -1    0    0    0    0 -0.00000000000E+00 -0.00000000000E+00 -0.45593999997E+02  0.45594000000E+02  0.51100000000E-03 0. -1.
    9900012    2    1    2    0    0 -0.76715057464E+00  0.83599218183E+00  0.32565495597E+00  0.90007553439E+02  0.89999812345E+02 0.  0.
         12    1    1    2    0    0  0.76715057464E+00 -0.83599218183E+00 -0.32565495597E+00  0.11804465607E+01  0.00000000000E+00 0. -1.
         11    1    3    3    0    0  0.24404967003E+01  0.24346044861E+01  0.79773436656E+01  0.86903012242E+01  0.51100000000E-03 0. -1.
        -11    1    3    3    0    0 -0.37455935560E+02 -0.18479661221E+02 -0.10380568936E+02  0.43037207149E+02  0.51100000000E-03 0.  1.
         12    1    3    3    0    0  0.34248288285E+02  0.16881048916E+02  0.27288802268E+01  0.38280045066E+02  0.00000000000E+00 0. -1.
</event>
<event>
 7    1  0.1698110E-015  0.9000776E+02  0.7816164E-02  0.1186339E+00
        -11   -1    0    0    0    0  0.00000000000E+00  0.00000000000E+00  0.45593999997E+02  0.45594000000E+02  0.51100000000E-03 0.  1.
         11   -1    0    0    0    0 -0.00000000000E+00 -0.00000000000E+00 -0.45593999997E+02  0.45594000000E+02  0.51100000000E-03 0. -1.
    9900012    2    1    2    0    0  0.39636298222E+00  0.85565737435E+00  0.70973430881E+00  0.90007755981E+02  0.90000017560E+02 0.  0.
         12    1    1    2    0    0 -0.39636298222E+00 -0.85565737435E+00 -0.70973430881E+00  0.11802440193E+01  0.00000000000E+00 0. -1.
         11    1    3    3    0    0  0.56287722162E+01  0.61667760800E+00 -0.57909407418E+01  0.80992816268E+01  0.51100000000E-03 0. -1.
        -11    1    3    3    0    0  0.32620824639E+02  0.47152420499E+01  0.23187394743E+02  0.40298969998E+02  0.51100000000E-03 0.  1.
         12    1    3    3    0    0 -0.37853233873E+02 -0.44762622835E+01 -0.16686719692E+02  0.41609504356E+02  0.00000000000E+00 0. -1.
</event>
<event>
 7    1  0.1698110E-015  0.9000771E+02  0.7816164E-02  0.1186339E+00
        -11   -1    0    0    0    0  0.00000000000E+00  0.00000000000E+00  0.45593999997E+02  0.45594000000E+02  0.51100000000E-03 0.  1.
         11   -1    0    0    0    0 -0.00000000000E+00 -0.00000000000E+00 -0.45593999997E+02  0.45594000000E+02  0.51100000000E-03 0. -1.
    9900012    2    1    2    0    0  0.82876065553E+00 -0.90709044197E-01  0.83547747453E+00  0.90007705560E+02  0.89999966473E+02 0.  0.
         12    1    1    2    0    0 -0.82876065553E+00  0.90709044197E-01 -0.83547747453E+00  0.11802944401E+01  0.00000000000E+00 0. -1.
         11    1    3    3    0    0  0.34580639425E+02  0.73507696580E+01  0.10276701479E+02  0.36816640682E+02  0.51100000000E-03 0. -1.
        -11    1    3    3    0    0  0.66400436998E+01 -0.28751513137E+01  0.63062059181E+01  0.95981721570E+01  0.51100000000E-03 0.  1.
        -12    1    3    3    0    0 -0.40391922469E+02 -0.45663273886E+01 -0.15747429923E+02  0.43592892720E+02  0.00000000000E+00 0.  1.
</event>
<event>
 7    1  0.1698110E-015  0.9000775E+02  0.7816164E-02  0.1186339E+00
        -11   -1    0    0    0    0  0.00000000000E+00  0.00000000000E+00  0.45593999997E+02  0.45594000000E+02  0.51100000000E-03 0.  1.
         11   -1    0    0    0    0 -0.00000000000E+00 -0.00000000000E+00 -0.45593999997E+02  0.45594000000E+02  0.51100000000E-03 0. -1.
    9900012    2    1    2    0    0 -0.28839550529E+00  0.62349667641E+00  0.95972732097E+00  0.90007747229E+02  0.90000008692E+02 0.  0.
         12    1    1    2    0    0  0.28839550529E+00 -0.62349667641E+00 -0.95972732097E+00  0.11802527711E+01  0.00000000000E+00 0. -1.
         11    1    3    3    0    0  0.72014673206E+01 -0.66494534426E+01 -0.39688573644E+02  0.40881037668E+02  0.51100000000E-03 0. -1.
        -11    1    3    3    0    0 -0.78200967299E+01  0.77979547885E+01  0.29601852419E+01  0.11433490660E+02  0.51100000000E-03 0.  1.
        -12    1    3    3    0    0  0.33023390401E+00 -0.52500466943E+00  0.37688115723E+02  0.37693218901E+02  0.00000000000E+00 0.  1.
</event>
<event>
 7    1  0.1698110E-015  0.9000780E+02  0.7816164E-02  0.1186339E+00
        -11   -1    0    0    0    0  0.00000000000E+00  0.00000000000E+00  0.45593999997E+02  0.45594000000E+02  0.51100000000E-03 0. -1.
         11   -1    0    0    0    0 -0.00000000000E+00 -0.00000000000E+00 -0.45593999997E+02  0.45594000000E+02  0.51100000000E-03 0.  1.
    9900012    2    1    2    0    0 -0.45418508434E+00 -0.52380531793E-01 -0.10880468934E+01  0.90007799232E+02  0.90000061382E+02 0.  0.
         12    1    1    2    0    0  0.45418508434E+00  0.52380531793E-01  0.10880468934E+01  0.11802007681E+01  0.00000000000E+00 0. -1.
         11    1    3    3    0    0 -0.84835174163E+01  0.19482903724E+01 -0.49604279492E+00  0.87184839188E+01  0.51100000000E-03 0. -1.
        -11    1    3    3    0    0 -0.11703597972E+02 -0.32114947359E+02 -0.20790047726E+02  0.40007126041E+02  0.51100000000E-03 0.  1.
         12    1    3    3    0    0  0.19732930303E+02  0.30114276454E+02  0.20198043628E+02  0.41282189272E+02  0.00000000000E+00 0. -1.
</event>
<event>
 7    1  0.1698110E-015  0.9000764E+02  0.7816164E-02  0.1186339E+00
        -11   -1    0    0    0    0  0.00000000000E+00  0.00000000000E+00  0.45593999997E+02  0.45594000000E+02  0.51100000000E-03 0.  1.
         11   -1    0    0    0    0 -0.00000000000E+00 -0.00000000000E+00 -0.45593999997E+02  0.45594000000E+02  0.51100000000E-03 0. -1.
    9900012    2    1    2    0    0 -0.50400343969E+00  0.10647867225E+01 -0.73885948745E-01  0.90007640154E+02  0.89999900204E+02 0.  0.
         12    1    1    2    0    0  0.50400343969E+00 -0.10647867225E+01  0.73885948745E-01  0.11803598456E+01  0.00000000000E+00 0. -1.
         11    1    3    3    0    0 -0.43764241310E+01 -0.12128561078E+01  0.13861374731E+02  0.14586357249E+02  0.51100000000E-03 0. -1.
        -11    1    3    3    0    0 -0.34746509970E+02  0.43683755040E+01 -0.25879717391E+01  0.35115527301E+02  0.51100000000E-03 0.  1.
         12    1    3    3    0    0  0.38618930661E+02 -0.20907326737E+01 -0.11347288940E+02  0.40305755604E+02  0.00000000000E+00 0. -1.
</event>
<event>
 7    1  0.1698110E-015  0.9000773E+02  0.7816164E-02  0.1186339E+00
        -11   -1    0    0    0    0  0.00000000000E+00  0.00000000000E+00  0.45593999997E+02  0.45594000000E+02  0.51100000000E-03 0.  1.
         11   -1    0    0    0    0 -0.00000000000E+00 -0.00000000000E+00 -0.45593999997E+02  0.45594000000E+02  0.51100000000E-03 0. -1.
    9900012    2    1    2    0    0  0.29395272938E+00 -0.10594171851E+01  0.42926211965E+00  0.90007729291E+02  0.89999990518E+02 0.  0.
         12    1    1    2    0    0 -0.29395272938E+00  0.10594171851E+01 -0.42926211965E+00  0.11802707090E+01  0.00000000000E+00 0. -1.
         11    1    3    3    0    0  0.25070415885E+02 -0.31318311976E+02  0.10878952337E+02  0.41565779457E+02  0.51100000000E-03 0. -1.
        -11    1    3    3    0    0 -0.50448689910E+01  0.24426248459E+01  0.79219878549E+01  0.97043810265E+01  0.51100000000E-03 0.  1.
        -12    1    3    3    0    0 -0.19731594164E+02  0.27816269945E+02 -0.18371678072E+02  0.38737568807E+02  0.00000000000E+00 0.  1.
</event>
<event>
 7    1  0.1698110E-015  0.9000757E+02  0.7816164E-02  0.1186339E+00
        -11   -1    0    0    0    0  0.00000000000E+00  0.00000000000E+00  0.45593999997E+02  0.45594000000E+02  0.51100000000E-03 0. -1.
         11   -1    0    0    0    0 -0.00000000000E+00 -0.00000000000E+00 -0.45593999997E+02  0.45594000000E+02  0.51100000000E-03 0.  1.
    9900012    2    1    2    0    0 -0.10924610362E+00 -0.10258725924E+00 -0.11708773289E+01  0.90007571020E+02  0.89999830158E+02 0.  0.
         12    1    1    2    0    0  0.10924610362E+00  0.10258725924E+00  0.11708773289E+01  0.11804289797E+01  0.00000000000E+00 0. -1.
         11    1    3    3    0    0  0.24594121142E+02 -0.30513810024E+02 -0.61104282504E+01  0.39664855106E+02  0.51100000000E-03 0. -1.
        -11    1    3    3    0    0 -0.55911228532E+01 -0.37547284204E+01 -0.67007916309E+01  0.95004867777E+01  0.51100000000E-03 0.  1.
        -12    1    3    3    0    0 -0.19112244392E+02  0.34165951185E+02  0.11640342552E+02  0.40842229136E+02  0.00000000000E+00 0.  1.
</event>
<event>
 7    1  0.1698110E-015  0.9000765E+02  0.7816164E-02  0.1186339E+00
        -11   -1    0    0    0    0  0.00000000000E+00  0.00000000000E+00  0.45593999997E+02  0.45594000000E+02  0.51100000000E-03 0. -1.
         11   -1    0    0    0    0 -0.00000000000E+00 -0.00000000000E+00 -0.45593999997E+02  0.45594000000E+02  0.51100000000E-03 0.  1.
    9900012    2    1    2    0    0 -0.23131431955E+00 -0.67017102955E+00 -0.94370582604E+00  0.90007654199E+02  0.89999914435E+02 0.  0.
         12    1    1    2    0    0  0.23131431955E+00  0.67017102955E+00  0.94370582604E+00  0.11803458008E+01  0.00000000000E+00 0. -1.
         11    1    3    3    0    0  0.53496771450E+01  0.35615680386E+01 -0.86373358431E+01  0.10766029128E+02  0.51100000000E-03 0. -1.
        -11    1    3    3    0    0  0.26325592168E+02 -0.22622067894E+02 -0.12921345761E+02  0.37037223645E+02  0.51100000000E-03 0.  1.
         12    1    3    3    0    0 -0.31906583632E+02  0.18390328826E+02  0.20614975778E+02  0.42204401426E+02  0.00000000000E+00 0. -1.
</event>
<event>
 7    1  0.1698110E-015  0.9000763E+02  0.7816164E-02  0.1186339E+00
        -11   -1    0    0    0    0  0.00000000000E+00  0.00000000000E+00  0.45593999997E+02  0.45594000000E+02  0.51100000000E-03 0. -1.
         11   -1    0    0    0    0 -0.00000000000E+00 -0.00000000000E+00 -0.45593999997E+02  0.45594000000E+02  0.51100000000E-03 0.  1.
    9900012    2    1    2    0    0  0.27515179027E+00  0.11471241509E+01 -0.40845216869E-01  0.90007631135E+02  0.89999891066E+02 0.  0.
         12    1    1    2    0    0 -0.27515179027E+00 -0.11471241509E+01  0.40845216869E-01  0.11803688648E+01  0.00000000000E+00 0. -1.
         11    1    3    3    0    0 -0.14541434637E+02  0.30610341351E+02  0.52712206140E+01  0.34296240114E+02  0.51100000000E-03 0. -1.
        -11    1    3    3    0    0 -0.31405988340E+01  0.90340515533E+01  0.65675311860E+01  0.11602151294E+02  0.51100000000E-03 0.  1.
        -12    1    3    3    0    0  0.17957185262E+02 -0.38497268754E+02 -0.11879597017E+02  0.44109239727E+02  0.00000000000E+00 0.  1.
</event>
<event>
 7    1  0.1698110E-015  0.9000765E+02  0.7816164E-02  0.1186339E+00
        -11   -1    0    0    0    0  0.00000000000E+00  0.00000000000E+00  0.45593999997E+02  0.45594000000E+02  0.51100000000E-03 0.  1.
         11   -1    0    0    0    0 -0.00000000000E+00 -0.00000000000E+00 -0.45593999997E+02  0.45594000000E+02  0.51100000000E-03 0. -1.
    9900012    2    1    2    0    0 -0.67412347132E+00 -0.96586936839E+00  0.76647231762E-01  0.90007652217E+02  0.89999912426E+02 0.  0.
         12    1    1    2    0    0  0.67412347132E+00  0.96586936839E+00 -0.76647231762E-01  0.11803477833E+01  0.00000000000E+00 0. -1.
         11    1    3    3    0    0  0.35027894044E+02 -0.11414606235E+02 -0.21890466590E+02  0.42853694409E+02  0.51100000000E-03 0. -1.
        -11    1    3    3    0    0 -0.44290829342E+01 -0.35385185973E+01  0.87674491946E+01  0.10440596494E+02  0.51100000000E-03 0.  1.
        -12    1    3    3    0    0 -0.31272934581E+02  0.13987255464E+02  0.13199664627E+02  0.36713361315E+02  0.00000000000E+00 0.  1.
</event>
<event>
 7    1  0.1698110E-015  0.9000863E+02  0.7816164E-02  0.1186337E+00
        -11   -1    0    0    0    0  0.00000000000E+00  0.00000000000E+00  0.45593999997E+02  0.45594000000E+02  0.51100000000E-03 0.  1.
         11   -1    0    0    0    0 -0.00000000000E+00 -0.00000000000E+00 -0.45593999997E+02  0.45594000000E+02  0.51100000000E-03 0. -1.
    9900012    2    1    2    0    0  0.70111968398E-01  0.91948057972E+00  0.73522864577E+00  0.90008626698E+02  0.90000899766E+02 0.  0.
         12    1    1    2    0    0 -0.70111968398E-01 -0.91948057972E+00 -0.73522864577E+00  0.11793733023E+01  0.00000000000E+00 0. -1.
         11    1    3    3    0    0 -0.24389669784E+02 -0.88932242987E+01 -0.26892847381E+02  0.37378746249E+02  0.51100000000E-03 0. -1.
        -11    1    3    3    0    0 -0.23755691912E+00  0.15478376992E+02  0.47097296422E+00  0.15487362700E+02  0.51100000000E-03 0.  1.
        -12    1    3    3    0    0  0.24697338672E+02 -0.56656721137E+01  0.27157103063E+02  0.37142517749E+02  0.00000000000E+00 0.  1.
</event>
<event>
 7    1  0.1698110E-015  0.9000769E+02  0.7816164E-02  0.1186339E+00
        -11   -1    0    0    0    0  0.00000000000E+00  0.00000000000E+00  0.45593999997E+02  0.45594000000E+02  0.51100000000E-03 0. -1.
         11   -1    0    0    0    0 -0.00000000000E+00 -0.00000000000E+00 -0.45593999997E+02  0.45594000000E+02  0.51100000000E-03 0.  1.
    9900012    2    1    2    0    0 -0.11035153011E+01  0.10739616184E+00 -0.40478919343E+00  0.90007688920E+02  0.89999949613E+02 0.  0.
         12    1    1    2    0    0  0.11035153011E+01 -0.10739616184E+00  0.40478919343E+00  0.11803110804E+01  0.00000000000E+00 0. -1.
         11    1    3    3    0    0  0.99155470976E+01 -0.14677940302E+01  0.46820998877E+00  0.10034526118E+02  0.51100000000E-03 0. -1.
        -11    1    3    3    0    0 -0.28535514572E+01 -0.21499257901E+02 -0.33058644095E+02  0.39537764174E+02  0.51100000000E-03 0.  1.
         12    1    3    3    0    0 -0.81655109415E+01  0.23074448093E+02  0.32185644913E+02  0.40435398628E+02  0.00000000000E+00 0. -1.
</event>
<event>
 7    1  0.1698110E-015  0.9000773E+02  0.7816164E-02  0.1186339E+00
        -11   -1    0    0    0    0  0.00000000000E+00  0.00000000000E+00  0.45593999997E+02  0.45594000000E+02  0.51100000000E-03 0. -1.
         11   -1    0    0    0    0 -0.00000000000E+00 -0.00000000000E+00 -0.45593999997E+02  0.45594000000E+02  0.51100000000E-03 0.  1.
    9900012    2    1    2    0    0 -0.70212091252E+00 -0.76322143207E+00 -0.56353037445E+00  0.90007725789E+02  0.89999986969E+02 0.  0.
         12    1    1    2    0    0  0.70212091252E+00  0.76322143207E+00  0.56353037445E+00  0.11802742110E+01  0.00000000000E+00 0. -1.
         11    1    3    3    0    0  0.19584753431E+02 -0.35283556346E+02 -0.20189704124E+01  0.40405051134E+02  0.51100000000E-03 0. -1.
        -11    1    3    3    0    0 -0.83149478556E+01 -0.26593009680E+01 -0.49282362751E+01  0.10024856733E+02  0.51100000000E-03 0.  1.
        -12    1    3    3    0    0 -0.11971926487E+02  0.37179635882E+02  0.63836763131E+01  0.39577817921E+02  0.00000000000E+00 0.  1.
</event>
<event>
 7    1  0.1698110E-015  0.9000760E+02  0.7816164E-02  0.1186339E+00
        -11   -1    0    0    0    0  0.00000000000E+00  0.00000000000E+00  0.45593999997E+02  0.45594000000E+02  0.51100000000E-03 0.  1.
         11   -1    0    0    0    0 -0.00000000000E+00 -0.00000000000E+00 -0.45593999997E+02  0.45594000000E+02  0.51100000000E-03 0. -1.
    9900012    2    1    2    0    0 -0.66356518853E+00 -0.97374114496E+00  0.69684401797E-01  0.90007599012E+02  0.89999858519E+02 0.  0.
         12    1    1    2    0    0  0.66356518853E+00  0.97374114496E+00 -0.69684401797E-01  0.11804009881E+01  0.00000000000E+00 0. -1.
         11    1    3    3    0    0 -0.80909971768E+01 -0.31152809338E+02 -0.14434269281E+01  0.32218709572E+02  0.51100000000E-03 0. -1.
        -11    1    3    3    0    0  0.12668553449E+02  0.51508916896E+01  0.21398912560E+02  0.25395617549E+02  0.51100000000E-03 0.  1.
         12    1    3    3    0    0 -0.52411214604E+01  0.25028176503E+02 -0.19885801230E+02  0.32393271891E+02  0.00000000000E+00 0. -1.
</event>
<event>
 7    1  0.1698110E-015  0.9000772E+02  0.7816164E-02  0.1186339E+00
        -11   -1    0    0    0    0  0.00000000000E+00  0.00000000000E+00  0.45593999997E+02  0.45594000000E+02  0.51100000000E-03 0.  1.
         11   -1    0    0    0    0 -0.00000000000E+00 -0.00000000000E+00 -0.45593999997E+02  0.45594000000E+02  0.51100000000E-03 0. -1.
    9900012    2    1    2    0    0 -0.81021673080E+00  0.50055544413E+00  0.69717005430E+00  0.90007723343E+02  0.89999984491E+02 0.  0.
         12    1    1    2    0    0  0.81021673080E+00 -0.50055544413E+00 -0.69717005430E+00  0.11802766575E+01  0.00000000000E+00 0. -1.
         11    1    3    3    0    0  0.10004805955E+02  0.58260185065E+01 -0.44939711729E+01  0.12419114743E+02  0.51100000000E-03 0. -1.
        -11    1    3    3    0    0  0.17813195344E+02 -0.71555878474E+01  0.32651923883E+02  0.37876912484E+02  0.51100000000E-03 0.  1.
         12    1    3    3    0    0 -0.28628218029E+02  0.18301247851E+01 -0.27460782656E+02  0.39711696115E+02  0.00000000000E+00 0. -1.
</event>
<event>
 7    1  0.1698110E-015  0.9000769E+02  0.7816164E-02  0.1186339E+00
        -11   -1    0    0    0    0  0.00000000000E+00  0.00000000000E+00  0.45593999997E+02  0.45594000000E+02  0.51100000000E-03 0. -1.
         11   -1    0    0    0    0 -0.00000000000E+00 -0.00000000000E+00 -0.45593999997E+02  0.45594000000E+02  0.51100000000E-03 0.  1.
    9900012    2    1    2    0    0 -0.12418052653E+00 -0.46192682364E+00 -0.10790457617E+01  0.90007687775E+02  0.89999948453E+02 0.  0.
         12    1    1    2    0    0  0.12418052653E+00  0.46192682364E+00  0.10790457617E+01  0.11803122254E+01  0.00000000000E+00 0. -1.
         11    1    3    3    0    0 -0.35498317816E+02  0.10969232113E+01  0.19504334730E+02  0.40518549849E+02  0.51100000000E-03 0. -1.
        -11    1    3    3    0    0 -0.17786985116E+01 -0.65945824793E+01 -0.65293651888E+01  0.94490685521E+01  0.51100000000E-03 0.  1.
        -12    1    3    3    0    0  0.37152835801E+02  0.50357324444E+01 -0.14054015303E+02  0.40040069374E+02  0.00000000000E+00 0.  1.
</event>
<event>
 7    1  0.1698110E-015  0.9000773E+02  0.7816164E-02  0.1186339E+00
        -11   -1    0    0    0    0  0.00000000000E+00  0.00000000000E+00  0.45593999997E+02  0.45594000000E+02  0.51100000000E-03 0.  1.
         11   -1    0    0    0    0 -0.00000000000E+00 -0.00000000000E+00 -0.45593999997E+02  0.45594000000E+02  0.51100000000E-03 0. -1.
    9900012    2    1    2    0    0  0.17369536678E+00  0.97047451319E+00 -0.64888748030E+00  0.90007726378E+02  0.89999987566E+02 0.  0.
         12    1    1    2    0    0 -0.17369536678E+00 -0.97047451319E+00  0.64888748030E+00  0.11802736222E+01  0.00000000000E+00 0. -1.
         11    1    3    3    0    0  0.76128069277E+01 -0.45209946327E+01  0.97584086680E+00  0.89076645337E+01  0.51100000000E-03 0. -1.
        -11    1    3    3    0    0 -0.15064042659E+02 -0.23688416213E+02  0.27410635403E+02  0.39235307791E+02  0.51100000000E-03 0.  1.
         12    1    3    3    0    0  0.76249310981E+01  0.29179885359E+02 -0.29035363751E+02  0.41864754054E+02  0.00000000000E+00 0. -1.
</event>
<event>
 7    1  0.1698110E-015  0.9000772E+02  0.7816164E-02  0.1186339E+00
        -11   -1    0    0    0    0  0.00000000000E+00  0.00000000000E+00  0.45593999997E+02  0.45594000000E+02  0.51100000000E-03 0.  1.
         11   -1    0    0    0    0 -0.00000000000E+00 -0.00000000000E+00 -0.45593999997E+02  0.45594000000E+02  0.51100000000E-03 0. -1.
    9900012    2    1    2    0    0  0.29330953218E+00  0.61329023502E+00  0.96483784266E+00  0.90007717213E+02  0.89999978280E+02 0.  0.
         12    1    1    2    0    0 -0.29330953218E+00 -0.61329023502E+00 -0.96483784266E+00  0.11802827867E+01  0.00000000000E+00 0. -1.
         11    1    3    3    0    0  0.53778066758E+01 -0.46154801372E+01 -0.63239294205E+01  0.94981864120E+01  0.51100000000E-03 0. -1.
        -11    1    3    3    0    0 -0.42966879910E+01 -0.35498020920E+02  0.15472588275E+02  0.38961160213E+02  0.51100000000E-03 0.  1.
         12    1    3    3    0    0 -0.78780915263E+00  0.40726791292E+02 -0.81838210116E+01  0.41548370589E+02  0.00000000000E+00 0. -1.
</event>
<event>
 7    1  0.1698110E-015  0.9000770E+02  0.7816164E-02  0.1186339E+00
        -11   -1    0    0    0    0  0.00000000000E+00  0.00000000000E+00  0.45593999997E+02  0.45594000000E+02  0.51100000000E-03 0.  1.
         11   -1    0    0    0    0 -0.00000000000E+00 -0.00000000000E+00 -0.45593999997E+02  0.45594000000E+02  0.51100000000E-03 0. -1.
    9900012    2    1    2    0    0 -0.22671347185E+00 -0.19306011829E+00  0.11421158132E+01  0.90007703538E+02  0.89999964425E+02 0.  0.
         12    1    1    2    0    0  0.22671347185E+00  0.19306011829E+00 -0.11421158132E+01  0.11802964620E+01  0.00000000000E+00 0. -1.
         11    1    3    3    0    0 -0.13333421631E+02  0.35983386070E+01 -0.57316453055E+01  0.14952589451E+02  0.51100000000E-03 0. -1.
        -11    1    3    3    0    0 -0.99980592700E+01 -0.20041372582E+02  0.30768744901E+02  0.38056976590E+02  0.51100000000E-03 0.  1.
         12    1    3    3    0    0  0.23104767429E+02  0.16249973857E+02 -0.23894983782E+02  0.36998137497E+02  0.00000000000E+00 0. -1.
</event>
<event>
 7    1  0.1698110E-015  0.9000771E+02  0.7816164E-02  0.1186339E+00
        -11   -1    0    0    0    0  0.00000000000E+00  0.00000000000E+00  0.45593999997E+02  0.45594000000E+02  0.51100000000E-03 0. -1.
         11   -1    0    0    0    0 -0.00000000000E+00 -0.00000000000E+00 -0.45593999997E+02  0.45594000000E+02  0.51100000000E-03 0.  1.
    9900012    2    1    2    0    0  0.54454293831E+00  0.99888435351E+00 -0.31428940086E+00  0.90007714106E+02  0.89999975133E+02 0.  0.
         12    1    1    2    0    0 -0.54454293831E+00 -0.99888435351E+00  0.31428940086E+00  0.11802858937E+01  0.00000000000E+00 0. -1.
         11    1    3    3    0    0 -0.39421987539E+01 -0.83349440350E+01 -0.46740060339E+01  0.10337241206E+02  0.51100000000E-03 0. -1.
        -11    1    3    3    0    0  0.13210454192E+02 -0.24703520217E+02 -0.22102267099E+02  0.35683192433E+02  0.51100000000E-03 0.  1.
         12    1    3    3    0    0 -0.87237125000E+01  0.34037348606E+02  0.26461983732E+02  0.43987280467E+02  0.00000000000E+00 0. -1.
</event>
<event>
 7    1  0.1698110E-015  0.9000769E+02  0.7816164E-02  0.1186339E+00
        -11   -1    0    0    0    0  0.00000000000E+00  0.00000000000E+00  0.45593999997E+02  0.45594000000E+02  0.51100000000E-03 0. -1.
         11   -1    0    0    0    0 -0.00000000000E+00 -0.00000000000E+00 -0.45593999997E+02  0.45594000000E+02  0.51100000000E-03 0.  1.
    9900012    2    1    2    0    0 -0.10214790127E+01 -0.59135869447E+00  0.38524065705E-02  0.90007686770E+02  0.89999947436E+02 0.  0.
         12    1    1    2    0    0  0.10214790127E+01  0.59135869447E+00 -0.38524065705E-02  0.11803132296E+01  0.00000000000E+00 0. -1.
         11    1    3    3    0    0 -0.17599023964E+02  0.54372595653E+00 -0.10707759493E+02  0.20607702347E+02  0.51100000000E-03 0. -1.
        -11    1    3    3    0    0 -0.12072650237E+02  0.97519686452E+01 -0.20463088941E+02  0.25682441190E+02  0.51100000000E-03 0.  1.
         12    1    3    3    0    0  0.28650195188E+02 -0.10887053296E+02  0.31174700841E+02  0.43717543233E+02  0.00000000000E+00 0. -1.
</event>
<event>
 7    1  0.1698110E-015  0.9000771E+02  0.7816164E-02  0.1186339E+00
        -11   -1    0    0    0    0  0.00000000000E+00  0.00000000000E+00  0.45593999997E+02  0.45594000000E+02  0.51100000000E-03 0. -1.
         11   -1    0    0    0    0 -0.00000000000E+00 -0.00000000000E+00 -0.45593999997E+02  0.45594000000E+02  0.51100000000E-03 0.  1.
    9900012    2    1    2    0    0  0.98175041553E+00  0.65336416941E+00  0.48761267274E-01  0.90007705004E+02  0.89999965910E+02 0.  0.
         12    1    1    2    0    0 -0.98175041553E+00 -0.65336416941E+00 -0.48761267274E-01  0.11802949959E+01  0.00000000000E+00 0. -1.
         11    1    3    3    0    0  0.16568265451E+02 -0.84024988125E+01  0.56463639444E+01  0.19416251760E+02  0.51100000000E-03 0. -1.
        -11    1    3    3    0    0 -0.78885706869E+01 -0.26055029566E+02 -0.17921577161E+02  0.32592591817E+02  0.51100000000E-03 0.  1.
         12    1    3    3    0    0 -0.76979443484E+01  0.35110892548E+02  0.12323974484E+02  0.37998861427E+02  0.00000000000E+00 0. -1.
</event>
<event>
 7    1  0.1698110E-015  0.9000778E+02  0.7816164E-02  0.1186339E+00
        -11   -1    0    0    0    0  0.00000000000E+00  0.00000000000E+00  0.45593999997E+02  0.45594000000E+02  0.51100000000E-03 0.  1.
         11   -1    0    0    0    0 -0.00000000000E+00 -0.00000000000E+00 -0.45593999997E+02  0.45594000000E+02  0.51100000000E-03 0. -1.
    9900012    2    1    2    0    0  0.35409128629E+00  0.11226369233E+01 -0.84966515322E-01  0.90007782389E+02  0.90000044317E+02 0.  0.
         12    1    1    2    0    0 -0.35409128629E+00 -0.11226369233E+01  0.84966515322E-01  0.11802176110E+01  0.00000000000E+00 0. -1.
         11    1    3    3    0    0  0.25644640858E+02 -0.97035308060E+01 -0.24563500772E+02  0.36812656590E+02  0.51100000000E-03 0. -1.
        -11    1    3    3    0    0  0.24507600231E+01  0.45037874116E+01 -0.83212835149E+01  0.97741539448E+01  0.51100000000E-03 0.  1.
        -12    1    3    3    0    0 -0.27741309594E+02  0.63223803177E+01  0.32799817771E+02  0.43420971854E+02  0.00000000000E+00 0.  1.
</event>
<event>
 7    1  0.1698110E-015  0.9000780E+02  0.7816164E-02  0.1186339E+00
        -11   -1    0    0    0    0  0.00000000000E+00  0.00000000000E+00  0.45593999997E+02  0.45594000000E+02  0.51100000000E-03 0.  1.
         11   -1    0    0    0    0 -0.00000000000E+00 -0.00000000000E+00 -0.45593999997E+02  0.45594000000E+02  0.51100000000E-03 0. -1.
    9900012    2    1    2    0    0 -0.83868830535E-02  0.87282765313E+00 -0.79433922337E+00  0.90007799486E+02  0.90000061639E+02 0.  0.
         12    1    1    2    0    0  0.83868830535E-02 -0.87282765313E+00  0.79433922337E+00  0.11802005142E+01  0.00000000000E+00 0. -1.
         11    1    3    3    0    0  0.23129576914E+02  0.13170996575E+02 -0.28172326607E+02  0.38757353698E+02  0.51100000000E-03 0. -1.
        -11    1    3    3    0    0 -0.77137661428E+01  0.75867498027E+01 -0.35412215405E+01  0.11384252761E+02  0.51100000000E-03 0.  1.
        -12    1    3    3    0    0 -0.15424197654E+02 -0.19884918724E+02  0.30919208924E+02  0.39866193026E+02  0.00000000000E+00 0.  1.
</event>
<event>
 7    1  0.1698110E-015  0.9000766E+02  0.7816164E-02  0.1186339E+00
        -11   -1    0    0    0    0  0.00000000000E+00  0.00000000000E+00  0.45593999997E+02  0.45594000000E+02  0.51100000000E-03 0. -1.
         11   -1    0    0    0    0 -0.00000000000E+00 -0.00000000000E+00 -0.45593999997E+02  0.45594000000E+02  0.51100000000E-03 0.  1.
    9900012    2    1    2    0    0 -0.91076787900E+00 -0.28667711354E+00 -0.69391819983E+00  0.90007659217E+02  0.89999919518E+02 0.  0.
         12    1    1    2    0    0  0.91076787900E+00  0.28667711354E+00  0.69391819983E+00  0.11803407834E+01  0.00000000000E+00 0. -1.
         11    1    3    3    0    0  0.61727738001E+01 -0.18500410162E+01 -0.32937050380E+01  0.72370077579E+01  0.51100000000E-03 0. -1.
        -11    1    3    3    0    0  0.31586819094E+02  0.22386588065E+02 -0.74950220792E+00  0.38722709351E+02  0.51100000000E-03 0.  1.
         12    1    3    3    0    0 -0.38670360773E+02 -0.20823224163E+02  0.33492890461E+01  0.44047942108E+02  0.00000000000E+00 0. -1.
</event>
<event>
 7    1  0.1698110E-015  0.9000772E+02  0.7816164E-02  0.1186339E+00
        -11   -1    0    0    0    0  0.00000000000E+00  0.00000000000E+00  0.45593999997E+02  0.45594000000E+02  0.51100000000E-03 0.  1.
         11   -1    0    0    0    0 -0.00000000000E+00 -0.00000000000E+00 -0.45593999997E+02  0.45594000000E+02  0.51100000000E-03 0. -1.
    9900012    2    1    2    0    0  0.88036066918E+00 -0.78583250609E+00  0.22309890390E-01  0.90007718099E+02  0.89999979178E+02 0.  0.
         12    1    1    2    0    0 -0.88036066918E+00  0.78583250609E+00 -0.22309890390E-01  0.11802819014E+01  0.00000000000E+00 0. -1.
         11    1    3    3    0    0 -0.15735874611E+01 -0.70859849023E+01 -0.42322674383E+01  0.84023477352E+01  0.51100000000E-03 0. -1.
        -11    1    3    3    0    0 -0.12856747672E+02 -0.34442183401E+02  0.89247141090E+01  0.37831342565E+02  0.51100000000E-03 0.  1.
         12    1    3    3    0    0  0.15310695802E+02  0.40742335797E+02 -0.46701367803E+01  0.43774027798E+02  0.00000000000E+00 0. -1.
</event>
<event>
 7    1  0.1993785E-015  0.9000787E+02  0.7816164E-02  0.1186339E+00
        -11   -1    0    0    0    0  0.00000000000E+00  0.00000000000E+00  0.45593999997E+02  0.45594000000E+02  0.51100000000E-03 0. -1.
         11   -1    0    0    0    0 -0.00000000000E+00 -0.00000000000E+00 -0.45593999997E+02  0.45594000000E+02  0.51100000000E-03 0.  1.
    9900012    2    1    2    0    0 -0.33244006643E+00 -0.14365204544E+00 -0.11231923569E+01  0.90007867220E+02  0.90000130267E+02 0.  0.
         12    1    1    2    0    0  0.33244006643E+00  0.14365204544E+00  0.11231923569E+01  0.11801327800E+01  0.00000000000E+00 0. -1.
         11    1    3    3    0    0 -0.62709967743E+01  0.81283235611E+01 -0.23770657360E+00  0.10268960470E+02  0.51100000000E-03 0. -1.
        -11    1    3    3    0    0 -0.16452205070E+02  0.26406865314E+02 -0.16966409721E+02  0.35438067759E+02  0.51100000000E-03 0.  1.
         12    1    3    3    0    0  0.22390761778E+02 -0.34678840921E+02  0.16080923937E+02  0.44300838991E+02  0.00000000000E+00 0. -1.
</event>
<event>
 7    1  0.1698110E-015  0.9000778E+02  0.7816164E-02  0.1186339E+00
        -11   -1    0    0    0    0  0.00000000000E+00  0.00000000000E+00  0.45593999997E+02  0.45594000000E+02  0.51100000000E-03 0.  1.
         11   -1    0    0    0    0 -0.00000000000E+00 -0.00000000000E+00 -0.45593999997E+02  0.45594000000E+02  0.51100000000E-03 0. -1.
    9900012    2    1    2    0    0 -0.56250823649E+00  0.66171172079E+00  0.79914736486E+00  0.90007782042E+02  0.90000043965E+02 0.  0.
         12    1    1    2    0    0  0.56250823649E+00 -0.66171172079E+00 -0.79914736486E+00  0.11802179580E+01  0.00000000000E+00 0. -1.
         11    1    3    3    0    0  0.49134026970E+01 -0.30034523988E+02  0.17874445882E+02  0.35294616772E+02  0.51100000000E-03 0. -1.
        -11    1    3    3    0    0  0.27109167901E+01 -0.93841887963E+01  0.13251438664E+01  0.98573868614E+01  0.51100000000E-03 0.  1.
        -12    1    3    3    0    0 -0.81868277236E+01  0.40080424505E+02 -0.18400442383E+02  0.44855778408E+02  0.00000000000E+00 0.  1.
</event>
<event>
 7    1  0.1698110E-015  0.9000774E+02  0.7816164E-02  0.1186339E+00
        -11   -1    0    0    0    0  0.00000000000E+00  0.00000000000E+00  0.45593999997E+02  0.45594000000E+02  0.51100000000E-03 0.  1.
         11   -1    0    0    0    0 -0.00000000000E+00 -0.00000000000E+00 -0.45593999997E+02  0.45594000000E+02  0.51100000000E-03 0. -1.
    9900012    2    1    2    0    0  0.71689408649E+00  0.83497487266E+00  0.42649917729E+00  0.90007736590E+02  0.89999997913E+02 0.  0.
         12    1    1    2    0    0 -0.71689408649E+00 -0.83497487266E+00 -0.42649917729E+00  0.11802634102E+01  0.00000000000E+00 0. -1.
         11    1    3    3    0    0  0.26740645739E+02  0.27716654540E+02  0.11768713809E+02  0.40271301176E+02  0.51100000000E-03 0. -1.
        -11    1    3    3    0    0  0.66454674209E+00 -0.74929315292E+01  0.84131166572E+01  0.11285662472E+02  0.51100000000E-03 0.  1.
        -12    1    3    3    0    0 -0.26688298395E+02 -0.19388748138E+02 -0.19755331289E+02  0.38450772943E+02  0.00000000000E+00 0.  1.
</event>
<event>
 7    1  0.1716004E-015  0.9000764E+02  0.7816164E-02  0.1186339E+00
        -11   -1    0    0    0    0  0.00000000000E+00  0.00000000000E+00  0.45593999997E+02  0.45594000000E+02  0.51100000000E-03 0. -1.
         11   -1    0    0    0    0 -0.00000000000E+00 -0.00000000000E+00 -0.45593999997E+02  0.45594000000E+02  0.51100000000E-03 0.  1.
    9900012    2    1    2    0    0 -0.10073344029E+01 -0.61481820911E+00  0.23052470654E-01  0.90007637579E+02  0.89999897595E+02 0.  0.
         12    1    1    2    0    0  0.10073344029E+01  0.61481820911E+00 -0.23052470654E-01  0.11803624215E+01  0.00000000000E+00 0. -1.
         11    1    3    3    0    0 -0.45126762824E+01 -0.84441640368E+01 -0.33692092810E+01  0.10149863297E+02  0.51100000000E-03 0. -1.
        -11    1    3    3    0    0 -0.10902604253E+02 -0.23993812818E+02  0.26973044720E+02  0.37710939723E+02  0.51100000000E-03 0.  1.
         12    1    3    3    0    0  0.14407946132E+02  0.31823158645E+02 -0.23580782969E+02  0.42146834559E+02  0.00000000000E+00 0. -1.
</event>
<event>
 7    1  0.1698110E-015  0.9000779E+02  0.7816164E-02  0.1186339E+00
        -11   -1    0    0    0    0  0.00000000000E+00  0.00000000000E+00  0.45593999997E+02  0.45594000000E+02  0.51100000000E-03 0.  1.
         11   -1    0    0    0    0 -0.00000000000E+00 -0.00000000000E+00 -0.45593999997E+02  0.45594000000E+02  0.51100000000E-03 0. -1.
    9900012    2    1    2    0    0 -0.14182725745E+00  0.11267348050E+01  0.32134119905E+00  0.90007785419E+02  0.90000047386E+02 0.  0.
         12    1    1    2    0    0  0.14182725745E+00 -0.11267348050E+01 -0.32134119905E+00  0.11802145813E+01  0.00000000000E+00 0. -1.
         11    1    3    3    0    0 -0.14472858557E+01 -0.32590658264E+01  0.81459047979E+01  0.88922388433E+01  0.51100000000E-03 0. -1.
        -11    1    3    3    0    0 -0.15233453825E+02 -0.26901050642E+02  0.19372206419E+02  0.36482968943E+02  0.51100000000E-03 0.  1.
         12    1    3    3    0    0  0.16538912423E+02  0.31286851273E+02 -0.27196770018E+02  0.44632577633E+02  0.00000000000E+00 0. -1.
</event>
<event>
 7    1  0.1698110E-015  0.9000770E+02  0.7816164E-02  0.1186339E+00
        -11   -1    0    0    0    0  0.00000000000E+00  0.00000000000E+00  0.45593999997E+02  0.45594000000E+02  0.51100000000E-03 0. -1.
         11   -1    0    0    0    0 -0.00000000000E+00 -0.00000000000E+00 -0.45593999997E+02  0.45594000000E+02  0.51100000000E-03 0.  1.
    9900012    2    1    2    0    0  0.47450442799E+00  0.41713753936E-03 -0.10807198209E+01  0.90007699209E+02  0.89999960038E+02 0.  0.
         12    1    1    2    0    0 -0.47450442799E+00 -0.41713753936E-03  0.10807198209E+01  0.11803007911E+01  0.00000000000E+00 0. -1.
         11    1    3    3    0    0  0.12184807302E+02  0.86175195098E+00  0.32661351575E+01  0.12644357815E+02  0.51100000000E-03 0. -1.
        -11    1    3    3    0    0  0.30745665320E+02  0.11157263134E+02  0.20793172965E+01  0.32773526166E+02  0.51100000000E-03 0.  1.
         12    1    3    3    0    0 -0.42455968195E+02 -0.12018597948E+02 -0.64261722749E+01  0.44589815228E+02  0.00000000000E+00 0. -1.
</event>
<event>
 7    1  0.1698110E-015  0.9000772E+02  0.7816164E-02  0.1186339E+00
        -11   -1    0    0    0    0  0.00000000000E+00  0.00000000000E+00  0.45593999997E+02  0.45594000000E+02  0.51100000000E-03 0.  1.
         11   -1    0    0    0    0 -0.00000000000E+00 -0.00000000000E+00 -0.45593999997E+02  0.45594000000E+02  0.51100000000E-03 0. -1.
    9900012    2    1    2    0    0 -0.48423467399E+00  0.91014398544E+00  0.57463441116E+00  0.90007724608E+02  0.89999985773E+02 0.  0.
         12    1    1    2    0    0  0.48423467399E+00 -0.91014398544E+00 -0.57463441116E+00  0.11802753917E+01  0.00000000000E+00 0. -1.
         11    1    3    3    0    0  0.63840707428E+01 -0.28507021046E+01 -0.98235336004E+01  0.12057556734E+02  0.51100000000E-03 0. -1.
        -11    1    3    3    0    0 -0.38671763957E+02  0.15413937847E+02  0.13920931143E+02  0.43896322530E+02  0.51100000000E-03 0.  1.
         12    1    3    3    0    0  0.31803458540E+02 -0.11653091757E+02 -0.35227631319E+01  0.34053845344E+02  0.00000000000E+00 0. -1.
</event>
<event>
 7    1  0.1698110E-015  0.9000694E+02  0.7816164E-02  0.1186341E+00
        -11   -1    0    0    0    0  0.00000000000E+00  0.00000000000E+00  0.45593999997E+02  0.45594000000E+02  0.51100000000E-03 0. -1.
         11   -1    0    0    0    0 -0.00000000000E+00 -0.00000000000E+00 -0.45593999997E+02  0.45594000000E+02  0.51100000000E-03 0.  1.
    9900012    2    1    2    0    0 -0.25759576928E+00 -0.11482094492E+01 -0.10078209650E+00  0.90006942190E+02  0.89999193023E+02 0.  0.
         12    1    1    2    0    0  0.25759576928E+00  0.11482094492E+01  0.10078209650E+00  0.11810578100E+01  0.00000000000E+00 0. -1.
         11    1    3    3    0    0  0.27577662630E+02  0.12569719981E+02 -0.18105688772E+02  0.35303559349E+02  0.51100000000E-03 0. -1.
        -11    1    3    3    0    0  0.51935383970E+01  0.62899650149E+01 -0.51789508179E+01  0.96621960654E+01  0.51100000000E-03 0.  1.
        -12    1    3    3    0    0 -0.33028796796E+02 -0.20007894446E+02  0.23183857493E+02  0.45041186776E+02  0.00000000000E+00 0.  1.
</event>
<event>
 7    1  0.1698110E-015  0.9000777E+02  0.7816164E-02  0.1186339E+00
        -11   -1    0    0    0    0  0.00000000000E+00  0.00000000000E+00  0.45593999997E+02  0.45594000000E+02  0.51100000000E-03 0. -1.
         11   -1    0    0    0    0 -0.00000000000E+00 -0.00000000000E+00 -0.45593999997E+02  0.45594000000E+02  0.51100000000E-03 0.  1.
    9900012    2    1    2    0    0  0.19794205542E+00 -0.77131255475E+00 -0.87111883378E+00  0.90007766067E+02  0.90000027779E+02 0.  0.
         12    1    1    2    0    0 -0.19794205542E+00  0.77131255475E+00  0.87111883378E+00  0.11802339332E+01  0.00000000000E+00 0. -1.
         11    1    3    3    0    0 -0.38933358351E+02  0.13784948948E+01 -0.70658421583E+01  0.39593342449E+02  0.51100000000E-03 0. -1.
        -11    1    3    3    0    0 -0.19092604018E+01 -0.66190997420E+01  0.59927080164E+01  0.91307341604E+01  0.51100000000E-03 0.  1.
        -12    1    3    3    0    0  0.41040560808E+02  0.44692922925E+01  0.20201530814E+00  0.41283689457E+02  0.00000000000E+00 0.  1.
</event>
<event>
 7    1  0.1698110E-015  0.9000770E+02  0.7816164E-02  0.1186339E+00
        -11   -1    0    0    0    0  0.00000000000E+00  0.00000000000E+00  0.45593999997E+02  0.45594000000E+02  0.51100000000E-03 0. -1.
         11   -1    0    0    0    0 -0.00000000000E+00 -0.00000000000E+00 -0.45593999997E+02  0.45594000000E+02  0.51100000000E-03 0.  1.
    9900012    2    1    2    0    0  0.73941378304E+00 -0.61869136889E+00 -0.68087563990E+00  0.90007701991E+02  0.89999962858E+02 0.  0.
         12    1    1    2    0    0 -0.73941378304E+00  0.61869136889E+00  0.68087563990E+00  0.11802980088E+01  0.00000000000E+00 0. -1.
         11    1    3    3    0    0  0.26751213781E+02  0.18925026320E+02  0.12073746414E+02  0.34922190835E+02  0.51100000000E-03 0. -1.
        -11    1    3    3    0    0  0.91982751545E+01  0.60608219360E+00  0.53529838892E+01  0.10659739125E+02  0.51100000000E-03 0.  1.
        -12    1    3    3    0    0 -0.35210075152E+02 -0.20149799883E+02 -0.18107605944E+02  0.44425772031E+02  0.00000000000E+00 0.  1.
</event>
<event>
 7    1  0.2076011E-015  0.9000776E+02  0.7816164E-02  0.1186339E+00
        -11   -1    0    0    0    0  0.00000000000E+00  0.00000000000E+00  0.45593999997E+02  0.45594000000E+02  0.51100000000E-03 0. -1.
         11   -1    0    0    0    0 -0.00000000000E+00 -0.00000000000E+00 -0.45593999997E+02  0.45594000000E+02  0.51100000000E-03 0.  1.
    9900012    2    1    2    0    0  0.82797660124E+00  0.60416452025E+00 -0.58515338699E+00  0.90007760827E+02  0.90000022470E+02 0.  0.
         12    1    1    2    0    0 -0.82797660124E+00 -0.60416452025E+00  0.58515338699E+00  0.11802391732E+01  0.00000000000E+00 0. -1.
         11    1    3    3    0    0  0.19002162775E+01  0.93376506722E+01  0.21460008285E+01  0.97676948045E+01  0.51100000000E-03 0. -1.
        -11    1    3    3    0    0  0.41976520170E+01  0.35410735225E+02 -0.29657108203E+01  0.35781781573E+02  0.51100000000E-03 0.  1.
         12    1    3    3    0    0 -0.52698916932E+01 -0.44144221376E+02  0.23455660479E+00  0.44458284449E+02  0.00000000000E+00 0. -1.
</event>
<event>
 7    1  0.1698110E-015  0.9000769E+02  0.7816164E-02  0.1186339E+00
        -11   -1    0    0    0    0  0.00000000000E+00  0.00000000000E+00  0.45593999997E+02  0.45594000000E+02  0.51100000000E-03 0.  1.
         11   -1    0    0    0    0 -0.00000000000E+00 -0.00000000000E+00 -0.45593999997E+02  0.45594000000E+02  0.51100000000E-03 0. -1.
    9900012    2    1    2    0    0 -0.77253249243E+00 -0.80305765494E+00 -0.38911797411E+00  0.90007694596E+02  0.89999955365E+02 0.  0.
         12    1    1    2    0    0  0.77253249243E+00  0.80305765494E+00  0.38911797411E+00  0.11803054040E+01  0.00000000000E+00 0. -1.
         11    1    3    3    0    0 -0.75607255534E+01 -0.72722459315E+01 -0.39273445576E+02  0.40650383263E+02  0.51100000000E-03 0. -1.
        -11    1    3    3    0    0 -0.84915726828E+01 -0.57244379053E+01  0.89253529104E+01  0.13584473519E+02  0.51100000000E-03 0.  1.
        -12    1    3    3    0    0  0.15279765744E+02  0.12193626182E+02  0.29958974692E+02  0.35772837813E+02  0.00000000000E+00 0.  1.
</event>
<event>
 7    1  0.1698110E-015  0.9000770E+02  0.7816164E-02  0.1186339E+00
        -11   -1    0    0    0    0  0.00000000000E+00  0.00000000000E+00  0.45593999997E+02  0.45594000000E+02  0.51100000000E-03 0.  1.
         11   -1    0    0    0    0 -0.00000000000E+00 -0.00000000000E+00 -0.45593999997E+02  0.45594000000E+02  0.51100000000E-03 0. -1.
    9900012    2    1    2    0    0 -0.86958289194E+00  0.56837222039E+00  0.56026363358E+00  0.90007696342E+02  0.89999957133E+02 0.  0.
         12    1    1    2    0    0  0.86958289194E+00 -0.56837222039E+00 -0.56026363358E+00  0.11803036584E+01  0.00000000000E+00 0. -1.
         11    1    3    3    0    0  0.39997947269E+01  0.96251654212E+01  0.11206150117E+01  0.10483222096E+02  0.51100000000E-03 0. -1.
        -11    1    3    3    0    0 -0.19624310424E+02  0.31077303968E+02 -0.79685276593E+00  0.36763396961E+02  0.51100000000E-03 0.  1.
         12    1    3    3    0    0  0.14754932805E+02 -0.40134097169E+02  0.23650138785E+00  0.42761077285E+02  0.00000000000E+00 0. -1.
</event>
<event>
 7    1  0.1698110E-015  0.9000773E+02  0.7816164E-02  0.1186339E+00
        -11   -1    0    0    0    0  0.00000000000E+00  0.00000000000E+00  0.45593999997E+02  0.45594000000E+02  0.51100000000E-03 0.  1.
         11   -1    0    0    0    0 -0.00000000000E+00 -0.00000000000E+00 -0.45593999997E+02  0.45594000000E+02  0.51100000000E-03 0. -1.
    9900012    2    1    2    0    0 -0.50738667301E+00  0.10547836644E+01 -0.15171255827E+00  0.90007734557E+02  0.89999995854E+02 0.  0.
         12    1    1    2    0    0  0.50738667301E+00 -0.10547836644E+01  0.15171255827E+00  0.11802654426E+01  0.00000000000E+00 0. -1.
         11    1    3    3    0    0 -0.36519679542E+01  0.81092288181E+00  0.88874011266E+01  0.96426326750E+01  0.51100000000E-03 0. -1.
        -11    1    3    3    0    0  0.20345739717E+02 -0.26409348664E+02  0.18701241393E+02  0.38224851228E+02  0.51100000000E-03 0.  1.
         12    1    3    3    0    0 -0.17201158436E+02  0.26653209447E+02 -0.27740355078E+02  0.42140250654E+02  0.00000000000E+00 0. -1.
</event>
<event>
 7    1  0.1698110E-015  0.9000765E+02  0.7816164E-02  0.1186339E+00
        -11   -1    0    0    0    0  0.00000000000E+00  0.00000000000E+00  0.45593999997E+02  0.45594000000E+02  0.51100000000E-03 0.  1.
         11   -1    0    0    0    0 -0.00000000000E+00 -0.00000000000E+00 -0.45593999997E+02  0.45594000000E+02  0.51100000000E-03 0. -1.
    9900012    2    1    2    0    0 -0.10932267389E+01 -0.31764514990E+00 -0.31174784664E+00  0.90007648415E+02  0.89999908574E+02 0.  0.
         12    1    1    2    0    0  0.10932267389E+01  0.31764514990E+00  0.31174784664E+00  0.11803515848E+01  0.00000000000E+00 0. -1.
         11    1    3    3    0    0  0.12505551183E+01  0.15385962716E+02 -0.28577655135E+02  0.32480364993E+02  0.51100000000E-03 0. -1.
        -11    1    3    3    0    0  0.61942754535E+01  0.91878022165E+00 -0.11777172937E+02  0.13338478479E+02  0.51100000000E-03 0.  1.
        -12    1    3    3    0    0 -0.85380573108E+01 -0.16622388088E+02  0.40043080225E+02  0.44188804943E+02  0.00000000000E+00 0.  1.
</event>
<event>
 7    1  0.1698110E-015  0.9000771E+02  0.7816164E-02  0.1186339E+00
        -11   -1    0    0    0    0  0.00000000000E+00  0.00000000000E+00  0.45593999997E+02  0.45594000000E+02  0.51100000000E-03 0. -1.
         11   -1    0    0    0    0 -0.00000000000E+00 -0.00000000000E+00 -0.45593999997E+02  0.45594000000E+02  0.51100000000E-03 0.  1.
    9900012    2    1    2    0    0 -0.16366007721E+00 -0.10306644059E+01 -0.55138865574E+00  0.90007710549E+02  0.89999971528E+02 0.  0.
         12    1    1    2    0    0  0.16366007721E+00  0.10306644059E+01  0.55138865574E+00  0.11802894510E+01  0.00000000000E+00 0. -1.
         11    1    3    3    0    0  0.73537159750E+00  0.37741865142E+01 -0.78844039500E+01  0.87720625362E+01  0.51100000000E-03 0. -1.
        -11    1    3    3    0    0  0.33633590908E+02  0.18808332879E+02  0.81760579409E+01  0.39393143398E+02  0.51100000000E-03 0.  1.
         12    1    3    3    0    0 -0.34532622582E+02 -0.23613183799E+02 -0.84304264655E+00  0.41842504615E+02  0.00000000000E+00 0. -1.
</event>
<event>
 7    1  0.1698110E-015  0.9000889E+02  0.7816164E-02  0.1186337E+00
        -11   -1    0    0    0    0  0.00000000000E+00  0.00000000000E+00  0.45593999997E+02  0.45594000000E+02  0.51100000000E-03 0.  1.
         11   -1    0    0    0    0 -0.00000000000E+00 -0.00000000000E+00 -0.45593999997E+02  0.45594000000E+02  0.51100000000E-03 0. -1.
    9900012    2    1    2    0    0  0.39904655873E+00  0.99838793511E+00  0.48402224439E+00  0.90008892644E+02  0.90001169219E+02 0.  0.
         12    1    1    2    0    0 -0.39904655873E+00 -0.99838793511E+00 -0.48402224439E+00  0.11791073565E+01  0.00000000000E+00 0. -1.
         11    1    3    3    0    0 -0.52740150842E+01 -0.92457062194E+00 -0.13464205058E+02  0.14489820015E+02  0.51100000000E-03 0. -1.
        -11    1    3    3    0    0  0.30675897381E+02  0.23893579597E+02 -0.13068992334E+01  0.38905292853E+02  0.51100000000E-03 0.  1.
         12    1    3    3    0    0 -0.25002835739E+02 -0.21970621040E+02  0.15255126536E+02  0.36613779776E+02  0.00000000000E+00 0. -1.
</event>
<event>
 7    1  0.2170631E-015  0.9000776E+02  0.7816164E-02  0.1186339E+00
        -11   -1    0    0    0    0  0.00000000000E+00  0.00000000000E+00  0.45593999997E+02  0.45594000000E+02  0.51100000000E-03 0. -1.
         11   -1    0    0    0    0 -0.00000000000E+00 -0.00000000000E+00 -0.45593999997E+02  0.45594000000E+02  0.51100000000E-03 0.  1.
    9900012    2    1    2    0    0 -0.84117701006E+00  0.24681557057E+00 -0.79023743930E+00  0.90007757695E+02  0.90000019297E+02 0.  0.
         12    1    1    2    0    0  0.84117701006E+00 -0.24681557057E+00  0.79023743930E+00  0.11802423050E+01  0.00000000000E+00 0. -1.
         11    1    3    3    0    0 -0.11124842106E+01 -0.48375646815E+01 -0.79993624613E+01  0.94143217076E+01  0.51100000000E-03 0. -1.
        -11    1    3    3    0    0  0.47623263192E+01 -0.22908774473E+02 -0.27284646926E+02  0.35943617764E+02  0.51100000000E-03 0.  1.
         12    1    3    3    0    0 -0.44910191186E+01  0.27993154725E+02  0.34493771948E+02  0.44649818223E+02  0.00000000000E+00 0. -1.
</event>
<event>
 7    1  0.1698110E-015  0.9000762E+02  0.7816164E-02  0.1186339E+00
        -11   -1    0    0    0    0  0.00000000000E+00  0.00000000000E+00  0.45593999997E+02  0.45594000000E+02  0.51100000000E-03 0.  1.
         11   -1    0    0    0    0 -0.00000000000E+00 -0.00000000000E+00 -0.45593999997E+02  0.45594000000E+02  0.51100000000E-03 0. -1.
    9900012    2    1    2    0    0 -0.10136411305E+01  0.51104406560E+00  0.32350317618E+00  0.90007623499E+02  0.89999883329E+02 0.  0.
         12    1    1    2    0    0  0.10136411305E+01 -0.51104406560E+00 -0.32350317618E+00  0.11803765007E+01  0.00000000000E+00 0. -1.
         11    1    3    3    0    0 -0.13214234072E+01  0.36340379702E+02 -0.16219370446E+02  0.39817550585E+02  0.51100000000E-03 0. -1.
        -11    1    3    3    0    0  0.28021888515E+01  0.11860255664E+00 -0.67317834736E+01  0.72926838628E+01  0.51100000000E-03 0.  1.
        -12    1    3    3    0    0 -0.24944065748E+01 -0.35947938193E+02  0.23274657095E+02  0.42897389051E+02  0.00000000000E+00 0.  1.
</event>
<event>
 7    1  0.1698110E-015  0.9000772E+02  0.7816164E-02  0.1186339E+00
        -11   -1    0    0    0    0  0.00000000000E+00  0.00000000000E+00  0.45593999997E+02  0.45594000000E+02  0.51100000000E-03 0. -1.
         11   -1    0    0    0    0 -0.00000000000E+00 -0.00000000000E+00 -0.45593999997E+02  0.45594000000E+02  0.51100000000E-03 0.  1.
    9900012    2    1    2    0    0  0.44039265097E+00  0.36944961084E-01 -0.10944227340E+01  0.90007715400E+02  0.89999976443E+02 0.  0.
         12    1    1    2    0    0 -0.44039265097E+00 -0.36944961084E-01  0.10944227340E+01  0.11802846003E+01  0.00000000000E+00 0. -1.
         11    1    3    3    0    0 -0.10385530517E+02 -0.43857348835E+00 -0.66678978689E+01  0.12349593235E+02  0.51100000000E-03 0. -1.
        -11    1    3    3    0    0 -0.12027798681E+02  0.26312652226E+02 -0.19608338939E+02  0.34950115372E+02  0.51100000000E-03 0.  1.
         12    1    3    3    0    0  0.22853721849E+02 -0.25837133777E+02  0.25181814074E+02  0.42708006793E+02  0.00000000000E+00 0. -1.
</event>
<event>
 7    1  0.1698110E-015  0.9000715E+02  0.7816164E-02  0.1186340E+00
        -11   -1    0    0    0    0  0.00000000000E+00  0.00000000000E+00  0.45593999997E+02  0.45594000000E+02  0.51100000000E-03 0.  1.
         11   -1    0    0    0    0 -0.00000000000E+00 -0.00000000000E+00 -0.45593999997E+02  0.45594000000E+02  0.51100000000E-03 0. -1.
    9900012    2    1    2    0    0  0.33141957613E+00 -0.81790418670E+00  0.78460388699E+00  0.90007148844E+02  0.89999402406E+02 0.  0.
         12    1    1    2    0    0 -0.33141957613E+00  0.81790418670E+00 -0.78460388699E+00  0.11808511564E+01  0.00000000000E+00 0. -1.
         11    1    3    3    0    0  0.15028223559E+02 -0.17448872884E+02 -0.29674134639E+02  0.37561482067E+02  0.51100000000E-03 0. -1.
        -11    1    3    3    0    0 -0.43452309935E+01 -0.30396771865E+00 -0.80329701219E+01  0.91379449550E+01  0.51100000000E-03 0.  1.
        -12    1    3    3    0    0 -0.10351572989E+02  0.16934936416E+02  0.38491708648E+02  0.43307721822E+02  0.00000000000E+00 0.  1.
</event>
<event>
 7    1  0.2100177E-015  0.9000758E+02  0.7816164E-02  0.1186339E+00
        -11   -1    0    0    0    0  0.00000000000E+00  0.00000000000E+00  0.45593999997E+02  0.45594000000E+02  0.51100000000E-03 0.  1.
         11   -1    0    0    0    0 -0.00000000000E+00 -0.00000000000E+00 -0.45593999997E+02  0.45594000000E+02  0.51100000000E-03 0. -1.
    9900012    2    1    2    0    0 -0.77154628151E+00 -0.86985837857E+00  0.20362958128E+00  0.90007575386E+02  0.89999834581E+02 0.  0.
         12    1    1    2    0    0  0.77154628151E+00  0.86985837857E+00 -0.20362958128E+00  0.11804246141E+01  0.00000000000E+00 0. -1.
         11    1    3    3    0    0  0.46681777093E+01  0.52085845724E+01  0.62334094567E+01  0.93689182988E+01  0.51100000000E-03 0. -1.
        -11    1    3    3    0    0  0.29622852798E+02  0.12529903462E+02  0.15254412474E+02  0.35597878994E+02  0.51100000000E-03 0.  1.
         12    1    3    3    0    0 -0.35062576789E+02 -0.18608346413E+02 -0.21284192350E+02  0.45040778093E+02  0.00000000000E+00 0. -1.
</event>
<event>
 7    1  0.1698110E-015  0.9000769E+02  0.7816164E-02  0.1186339E+00
        -11   -1    0    0    0    0  0.00000000000E+00  0.00000000000E+00  0.45593999997E+02  0.45594000000E+02  0.51100000000E-03 0.  1.
         11   -1    0    0    0    0 -0.00000000000E+00 -0.00000000000E+00 -0.45593999997E+02  0.45594000000E+02  0.51100000000E-03 0. -1.
    9900012    2    1    2    0    0  0.29528805315E+00  0.11332329928E+01  0.14739567599E+00  0.90007687526E+02  0.89999948202E+02 0.  0.
         12    1    1    2    0    0 -0.29528805315E+00 -0.11332329928E+01 -0.14739567599E+00  0.11803124737E+01  0.00000000000E+00 0. -1.
         11    1    3    3    0    0  0.90846907066E+01  0.35039629319E+02 -0.24416043032E+01  0.36280417030E+02  0.51100000000E-03 0. -1.
        -11    1    3    3    0    0  0.79036819389E+00  0.90997639395E+01 -0.22358063977E+01  0.94036809891E+01  0.51100000000E-03 0.  1.
        -12    1    3    3    0    0 -0.95797708473E+01 -0.43006160265E+02  0.48248063769E+01  0.44323589507E+02  0.00000000000E+00 0.  1.
</event>
<event>
 7    1  0.1698110E-015  0.9000778E+02  0.7816164E-02  0.1186339E+00
        -11   -1    0    0    0    0  0.00000000000E+00  0.00000000000E+00  0.45593999997E+02  0.45594000000E+02  0.51100000000E-03 0.  1.
         11   -1    0    0    0    0 -0.00000000000E+00 -0.00000000000E+00 -0.45593999997E+02  0.45594000000E+02  0.51100000000E-03 0. -1.
    9900012    2    1    2    0    0 -0.32453313249E+00  0.10209190753E+01 -0.49529339426E+00  0.90007782622E+02  0.90000044553E+02 0.  0.
         12    1    1    2    0    0  0.32453313249E+00 -0.10209190753E+01  0.49529339426E+00  0.11802173777E+01  0.00000000000E+00 0. -1.
         11    1    3    3    0    0 -0.20677117030E+01 -0.59883079491E+01 -0.64517324458E+01  0.90421300362E+01  0.51100000000E-03 0. -1.
        -11    1    3    3    0    0  0.20406821890E+02 -0.31737039449E+02  0.22306942659E+01  0.37797540261E+02  0.51100000000E-03 0.  1.
         12    1    3    3    0    0 -0.18663643319E+02  0.38746266473E+02  0.37257447856E+01  0.43168112325E+02  0.00000000000E+00 0. -1.
</event>
<event>
 7    1  0.1698110E-015  0.9000762E+02  0.7816164E-02  0.1186339E+00
        -11   -1    0    0    0    0  0.00000000000E+00  0.00000000000E+00  0.45593999997E+02  0.45594000000E+02  0.51100000000E-03 0.  1.
         11   -1    0    0    0    0 -0.00000000000E+00 -0.00000000000E+00 -0.45593999997E+02  0.45594000000E+02  0.51100000000E-03 0. -1.
    9900012    2    1    2    0    0 -0.44215032892E+00  0.71360284005E-01  0.10921063931E+01  0.90007624815E+02  0.89999884662E+02 0.  0.
         12    1    1    2    0    0  0.44215032892E+00 -0.71360284005E-01 -0.10921063931E+01  0.11803751850E+01  0.00000000000E+00 0. -1.
         11    1    3    3    0    0 -0.53436955561E+01 -0.38443302040E+00 -0.37980736189E+02  0.38356735949E+02  0.51100000000E-03 0. -1.
        -11    1    3    3    0    0  0.98558212084E+01 -0.51753833592E+01 -0.72199545094E+00  0.11155405967E+02  0.51100000000E-03 0.  1.
        -12    1    3    3    0    0 -0.49542759812E+01  0.56311766636E+01  0.39794838033E+02  0.40495482899E+02  0.00000000000E+00 0.  1.
</event>
<event>
 7    1  0.1698110E-015  0.9000777E+02  0.7816164E-02  0.1186339E+00
        -11   -1    0    0    0    0  0.00000000000E+00  0.00000000000E+00  0.45593999997E+02  0.45594000000E+02  0.51100000000E-03 0. -1.
         11   -1    0    0    0    0 -0.00000000000E+00 -0.00000000000E+00 -0.45593999997E+02  0.45594000000E+02  0.51100000000E-03 0.  1.
    9900012    2    1    2    0    0 -0.10752569735E+01  0.48656385985E+00 -0.43748789444E-02  0.90007770748E+02  0.90000032521E+02 0.  0.
         12    1    1    2    0    0  0.10752569735E+01 -0.48656385985E+00  0.43748789444E-02  0.11802292524E+01  0.00000000000E+00 0. -1.
         11    1    3    3    0    0  0.42292574241E+01  0.91271260926E+01 -0.46952201419E+01  0.11101177483E+02  0.51100000000E-03 0. -1.
        -11    1    3    3    0    0  0.16954150002E+02  0.18557720300E+02 -0.23071151573E+02  0.34119059486E+02  0.51100000000E-03 0.  1.
         12    1    3    3    0    0 -0.22258664400E+02 -0.27198282533E+02  0.27761996836E+02  0.44787533778E+02  0.00000000000E+00 0. -1.
</event>
<event>
 7    1  0.1698110E-015  0.9000774E+02  0.7816164E-02  0.1186339E+00
        -11   -1    0    0    0    0  0.00000000000E+00  0.00000000000E+00  0.45593999997E+02  0.45594000000E+02  0.51100000000E-03 0.  1.
         11   -1    0    0    0    0 -0.00000000000E+00 -0.00000000000E+00 -0.45593999997E+02  0.45594000000E+02  0.51100000000E-03 0. -1.
    9900012    2    1    2    0    0 -0.69656898415E-01 -0.11776249822E+01  0.36847894522E-01  0.90007741363E+02  0.90000002749E+02 0.  0.
         12    1    1    2    0    0  0.69656898415E-01  0.11776249822E+01 -0.36847894522E-01  0.11802586367E+01  0.00000000000E+00 0. -1.
         11    1    3    3    0    0  0.27529097946E+02 -0.12937297576E+02 -0.21106734643E+02  0.37023224466E+02  0.51100000000E-03 0. -1.
        -11    1    3    3    0    0  0.39297997179E+01 -0.95654908966E+01  0.26985311886E+01  0.10687563462E+02  0.51100000000E-03 0.  1.
        -12    1    3    3    0    0 -0.31528554562E+02  0.21325163491E+02  0.18445051349E+02  0.42296953436E+02  0.00000000000E+00 0.  1.
</event>
<event>
 7    1  0.1698110E-015  0.9000845E+02  0.7816164E-02  0.1186338E+00
        -11   -1    0    0    0    0  0.00000000000E+00  0.00000000000E+00  0.45593999997E+02  0.45594000000E+02  0.51100000000E-03 0. -1.
         11   -1    0    0    0    0 -0.00000000000E+00 -0.00000000000E+00 -0.45593999997E+02  0.45594000000E+02  0.51100000000E-03 0.  1.
    9900012    2    1    2    0    0  0.20837977438E+00  0.63771692470E+00 -0.97016964496E+00  0.90008451719E+02  0.90000722479E+02 0.  0.
         12    1    1    2    0    0 -0.20837977438E+00 -0.63771692470E+00  0.97016964496E+00  0.11795482807E+01  0.00000000000E+00 0. -1.
         11    1    3    3    0    0  0.65189152678E+01 -0.49400802405E+01 -0.30632631591E+01  0.87340844108E+01  0.51100000000E-03 0. -1.
        -11    1    3    3    0    0  0.29962706621E+02  0.61569194793E+01  0.24013182676E+02  0.38888358001E+02  0.51100000000E-03 0.  1.
         12    1    3    3    0    0 -0.36273242114E+02 -0.57912231413E+00 -0.21920089162E+02  0.42386009307E+02  0.00000000000E+00 0. -1.
</event>
<event>
 7    1  0.1698110E-015  0.9000778E+02  0.7816164E-02  0.1186339E+00
        -11   -1    0    0    0    0  0.00000000000E+00  0.00000000000E+00  0.45593999997E+02  0.45594000000E+02  0.51100000000E-03 0.  1.
         11   -1    0    0    0    0 -0.00000000000E+00 -0.00000000000E+00 -0.45593999997E+02  0.45594000000E+02  0.51100000000E-03 0. -1.
    9900012    2    1    2    0    0  0.93631693678E+00  0.48885316451E+00 -0.52655884251E+00  0.90007775006E+02  0.90000036836E+02 0.  0.
         12    1    1    2    0    0 -0.93631693678E+00 -0.48885316451E+00  0.52655884251E+00  0.11802249943E+01  0.00000000000E+00 0. -1.
         11    1    3    3    0    0 -0.34149204069E+01  0.85929079738E+01 -0.31373979354E+01  0.97643747828E+01  0.51100000000E-03 0. -1.
        -11    1    3    3    0    0  0.21571345861E+02 -0.39053222651E+02  0.40399847373E+01  0.44797306154E+02  0.51100000000E-03 0.  1.
         12    1    3    3    0    0 -0.17220108517E+02  0.30949167842E+02 -0.14291456444E+01  0.35446094069E+02  0.00000000000E+00 0. -1.
</event>
<event>
 7    1  0.1698110E-015  0.9000764E+02  0.7816164E-02  0.1186339E+00
        -11   -1    0    0    0    0  0.00000000000E+00  0.00000000000E+00  0.45593999997E+02  0.45594000000E+02  0.51100000000E-03 0.  1.
         11   -1    0    0    0    0 -0.00000000000E+00 -0.00000000000E+00 -0.45593999997E+02  0.45594000000E+02  0.51100000000E-03 0. -1.
    9900012    2    1    2    0    0  0.76749892586E+00 -0.18991438049E+00  0.87643398166E+00  0.90007636244E+02  0.89999896242E+02 0.  0.
         12    1    1    2    0    0 -0.76749892586E+00  0.18991438049E+00 -0.87643398166E+00  0.11803637564E+01  0.00000000000E+00 0. -1.
         11    1    3    3    0    0  0.21298865905E+01  0.40154920010E+02  0.10669185597E+02  0.41602710723E+02  0.51100000000E-03 0. -1.
        -11    1    3    3    0    0  0.90623283305E+01 -0.47001693674E+01 -0.11375261025E+01  0.10271871920E+02  0.51100000000E-03 0.  1.
        -12    1    3    3    0    0 -0.10424715995E+02 -0.35644665023E+02 -0.86552255128E+01  0.38133053600E+02  0.00000000000E+00 0.  1.
</event>
<event>
 7    1  0.1698110E-015  0.9000773E+02  0.7816164E-02  0.1186339E+00
        -11   -1    0    0    0    0  0.00000000000E+00  0.00000000000E+00  0.45593999997E+02  0.45594000000E+02  0.51100000000E-03 0. -1.
         11   -1    0    0    0    0 -0.00000000000E+00 -0.00000000000E+00 -0.45593999997E+02  0.45594000000E+02  0.51100000000E-03 0.  1.
    9900012    2    1    2    0    0 -0.42114483320E+00  0.63407066768E+00 -0.90201537429E+00  0.90007728710E+02  0.89999989929E+02 0.  0.
         12    1    1    2    0    0  0.42114483320E+00 -0.63407066768E+00  0.90201537429E+00  0.11802712898E+01  0.00000000000E+00 0. -1.
         11    1    3    3    0    0 -0.13019691760E+02  0.24582376594E+02  0.30367544181E+02  0.41182439855E+02  0.51100000000E-03 0. -1.
        -11    1    3    3    0    0 -0.49014036574E+01  0.25466812141E+01 -0.66595012110E+01  0.86520690970E+01  0.51100000000E-03 0.  1.
        -12    1    3    3    0    0  0.17499950584E+02 -0.26494987140E+02 -0.24610058345E+02  0.40173219758E+02  0.00000000000E+00 0.  1.
</event>
<event>
 7    1  0.1698110E-015  0.9000776E+02  0.7816164E-02  0.1186339E+00
        -11   -1    0    0    0    0  0.00000000000E+00  0.00000000000E+00  0.45593999997E+02  0.45594000000E+02  0.51100000000E-03 0. -1.
         11   -1    0    0    0    0 -0.00000000000E+00 -0.00000000000E+00 -0.45593999997E+02  0.45594000000E+02  0.51100000000E-03 0.  1.
    9900012    2    1    2    0    0 -0.90195953013E+00 -0.21026928062E+00 -0.73158099667E+00  0.90007764888E+02  0.90000026585E+02 0.  0.
         12    1    1    2    0    0  0.90195953013E+00  0.21026928062E+00  0.73158099667E+00  0.11802351118E+01  0.00000000000E+00 0. -1.
         11    1    3    3    0    0  0.72727984460E+01  0.22787117558E+01  0.78154887604E+00  0.76613930462E+01  0.51100000000E-03 0. -1.
        -11    1    3    3    0    0 -0.48630450367E+01  0.28228285685E+02 -0.29168575646E+02  0.40881427632E+02  0.51100000000E-03 0.  1.
         12    1    3    3    0    0 -0.33117129394E+01 -0.30717266721E+02  0.27655445773E+02  0.41464944210E+02  0.00000000000E+00 0. -1.
</event>
<event>
 7    1  0.1698110E-015  0.9000775E+02  0.7816164E-02  0.1186339E+00
        -11   -1    0    0    0    0  0.00000000000E+00  0.00000000000E+00  0.45593999997E+02  0.45594000000E+02  0.51100000000E-03 0. -1.
         11   -1    0    0    0    0 -0.00000000000E+00 -0.00000000000E+00 -0.45593999997E+02  0.45594000000E+02  0.51100000000E-03 0.  1.
    9900012    2    1    2    0    0  0.54305178685E+00 -0.35420383501E+00 -0.98622097325E+00  0.90007746888E+02  0.90000008347E+02 0.  0.
         12    1    1    2    0    0 -0.54305178685E+00  0.35420383501E+00  0.98622097325E+00  0.11802531118E+01  0.00000000000E+00 0. -1.
         11    1    3    3    0    0  0.88354119921E+01 -0.33188259189E+02  0.95875617071E+01  0.35657346968E+02  0.51100000000E-03 0. -1.
        -11    1    3    3    0    0 -0.79105209036E+01 -0.67975871761E+01  0.52476729999E+01  0.11675684329E+02  0.51100000000E-03 0.  1.
        -12    1    3    3    0    0 -0.38183930164E+00  0.39631642530E+02 -0.15821455680E+02  0.42674715591E+02  0.00000000000E+00 0.  1.
</event>
<event>
 7    1  0.1698110E-015  0.9000771E+02  0.7816164E-02  0.1186339E+00
        -11   -1    0    0    0    0  0.00000000000E+00  0.00000000000E+00  0.45593999997E+02  0.45594000000E+02  0.51100000000E-03 0. -1.
         11   -1    0    0    0    0 -0.00000000000E+00 -0.00000000000E+00 -0.45593999997E+02  0.45594000000E+02  0.51100000000E-03 0.  1.
    9900012    2    1    2    0    0 -0.10373670193E+01 -0.40077713229E+00  0.39540176461E+00  0.90007705461E+02  0.89999966373E+02 0.  0.
         12    1    1    2    0    0  0.10373670193E+01  0.40077713229E+00 -0.39540176461E+00  0.11802945387E+01  0.00000000000E+00 0. -1.
         11    1    3    3    0    0 -0.15450542728E+02 -0.30731719104E+02  0.16496649165E+02  0.38148358596E+02  0.51100000000E-03 0. -1.
        -11    1    3    3    0    0  0.90308555366E-01  0.45956881243E+00  0.97980103959E+01  0.98091980869E+01  0.51100000000E-03 0.  1.
        -12    1    3    3    0    0  0.14322867153E+02  0.29871373159E+02 -0.25899257796E+02  0.42050148778E+02  0.00000000000E+00 0.  1.
</event>
<event>
 7    1  0.1698110E-015  0.9000772E+02  0.7816164E-02  0.1186339E+00
        -11   -1    0    0    0    0  0.00000000000E+00  0.00000000000E+00  0.45593999997E+02  0.45594000000E+02  0.51100000000E-03 0.  1.
         11   -1    0    0    0    0 -0.00000000000E+00 -0.00000000000E+00 -0.45593999997E+02  0.45594000000E+02  0.51100000000E-03 0. -1.
    9900012    2    1    2    0    0  0.92820383590E+00 -0.42311056968E+00  0.59368880741E+00  0.90007724051E+02  0.89999985209E+02 0.  0.
         12    1    1    2    0    0 -0.92820383590E+00  0.42311056968E+00 -0.59368880741E+00  0.11802759488E+01  0.00000000000E+00 0. -1.
         11    1    3    3    0    0  0.39744613767E+02 -0.88381376877E+01 -0.17031946605E+02  0.44134274738E+02  0.51100000000E-03 0. -1.
        -11    1    3    3    0    0 -0.64732148229E+01 -0.40572296438E+01  0.23556903222E+01  0.79945543767E+01  0.51100000000E-03 0.  1.
        -12    1    3    3    0    0 -0.32343195108E+02  0.12472256762E+02  0.15269945091E+02  0.37878894936E+02  0.00000000000E+00 0.  1.
</event>
<event>
 7    1  0.1698110E-015  0.9000776E+02  0.7816164E-02  0.1186339E+00
        -11   -1    0    0    0    0  0.00000000000E+00  0.00000000000E+00  0.45593999997E+02  0.45594000000E+02  0.51100000000E-03 0.  1.
         11   -1    0    0    0    0 -0.00000000000E+00 -0.00000000000E+00 -0.45593999997E+02  0.45594000000E+02  0.51100000000E-03 0. -1.
    9900012    2    1    2    0    0 -0.42230515427E+00 -0.88679767399E+00 -0.65438447453E+00  0.90007758161E+02  0.90000019769E+02 0.  0.
         12    1    1    2    0    0  0.42230515427E+00  0.88679767399E+00  0.65438447453E+00  0.11802418390E+01  0.00000000000E+00 0. -1.
         11    1    3    3    0    0  0.21095417777E+02 -0.11698368652E+01 -0.28096593269E+02  0.35154000100E+02  0.51100000000E-03 0. -1.
        -11    1    3    3    0    0  0.42356511176E+01  0.23207457014E+00 -0.91627518815E+01  0.10097060032E+02  0.51100000000E-03 0.  1.
        -12    1    3    3    0    0 -0.25753374049E+02  0.50964621049E-01  0.36604960676E+02  0.44756698028E+02  0.00000000000E+00 0.  1.
</event>
<event>
 7    1  0.1698110E-015  0.9000776E+02  0.7816164E-02  0.1186339E+00
        -11   -1    0    0    0    0  0.00000000000E+00  0.00000000000E+00  0.45593999997E+02  0.45594000000E+02  0.51100000000E-03 0.  1.
         11   -1    0    0    0    0 -0.00000000000E+00 -0.00000000000E+00 -0.45593999997E+02  0.45594000000E+02  0.51100000000E-03 0. -1.
    9900012    2    1    2    0    0 -0.64839832077E+00 -0.92562459244E+00  0.34025560045E+00  0.90007756321E+02  0.90000017904E+02 0.  0.
         12    1    1    2    0    0  0.64839832077E+00  0.92562459244E+00 -0.34025560045E+00  0.11802436791E+01  0.00000000000E+00 0. -1.
         11    1    3    3    0    0  0.28675331924E+02 -0.18035784101E+02 -0.16744879865E+02  0.37788294101E+02  0.51100000000E-03 0. -1.
        -11    1    3    3    0    0  0.73053055014E+01  0.73835496478E+01  0.83510891746E+01  0.13327602355E+02  0.51100000000E-03 0.  1.
        -12    1    3    3    0    0 -0.36629035747E+02  0.97266098611E+01  0.87340462909E+01  0.38891859865E+02  0.00000000000E+00 0.  1.
</event>
<event>
 7    1  0.1698110E-015  0.9000770E+02  0.7816164E-02  0.1186339E+00
        -11   -1    0    0    0    0  0.00000000000E+00  0.00000000000E+00  0.45593999997E+02  0.45594000000E+02  0.51100000000E-03 0.  1.
         11   -1    0    0    0    0 -0.00000000000E+00 -0.00000000000E+00 -0.45593999997E+02  0.45594000000E+02  0.51100000000E-03 0. -1.
    9900012    2    1    2    0    0 -0.45299978516E+00  0.21738971832E+00  0.10680111547E+01  0.90007697106E+02  0.89999957908E+02 0.  0.
         12    1    1    2    0    0  0.45299978516E+00 -0.21738971832E+00 -0.10680111547E+01  0.11803028939E+01  0.00000000000E+00 0. -1.
         11    1    3    3    0    0  0.69362986991E+01  0.63187641934E+01  0.30273460840E+00  0.93877936214E+01  0.51100000000E-03 0. -1.
        -11    1    3    3    0    0 -0.34052340296E+01  0.33259509767E+02 -0.16702403069E+02  0.37373264204E+02  0.51100000000E-03 0.  1.
         12    1    3    3    0    0 -0.39840644546E+01 -0.39360884242E+02  0.17467679615E+02  0.43246639280E+02  0.00000000000E+00 0. -1.
</event>
<event>
 7    1  0.1698110E-015  0.9000772E+02  0.7816164E-02  0.1186339E+00
        -11   -1    0    0    0    0  0.00000000000E+00  0.00000000000E+00  0.45593999997E+02  0.45594000000E+02  0.51100000000E-03 0.  1.
         11   -1    0    0    0    0 -0.00000000000E+00 -0.00000000000E+00 -0.45593999997E+02  0.45594000000E+02  0.51100000000E-03 0. -1.
    9900012    2    1    2    0    0  0.77629429766E+00 -0.77315433250E+00 -0.43892568441E+00  0.90007721976E+02  0.89999983106E+02 0.  0.
         12    1    1    2    0    0 -0.77629429766E+00  0.77315433250E+00  0.43892568441E+00  0.11802780244E+01  0.00000000000E+00 0. -1.
         11    1    3    3    0    0 -0.25809231100E+02 -0.15953731084E+02 -0.21847716172E+02  0.37389311945E+02  0.51100000000E-03 0. -1.
        -11    1    3    3    0    0 -0.94934376823E+01  0.33174651036E+01  0.37264636064E+01  0.10724619574E+02  0.51100000000E-03 0.  1.
        -12    1    3    3    0    0  0.36078963080E+02  0.11863111648E+02  0.17682326881E+02  0.41893790457E+02  0.00000000000E+00 0.  1.
</event>
<event>
 7    1  0.1698110E-015  0.9000774E+02  0.7816164E-02  0.1186339E+00
        -11   -1    0    0    0    0  0.00000000000E+00  0.00000000000E+00  0.45593999997E+02  0.45594000000E+02  0.51100000000E-03 0. -1.
         11   -1    0    0    0    0 -0.00000000000E+00 -0.00000000000E+00 -0.45593999997E+02  0.45594000000E+02  0.51100000000E-03 0.  1.
    9900012    2    1    2    0    0  0.16031102352E+00  0.10881671297E+01  0.42803702494E+00  0.90007736038E+02  0.89999997353E+02 0.  0.
         12    1    1    2    0    0 -0.16031102352E+00 -0.10881671297E+01 -0.42803702494E+00  0.11802639624E+01  0.00000000000E+00 0. -1.
         11    1    3    3    0    0  0.22436310869E+00  0.26832043738E+01 -0.96496937736E+01  0.10018308974E+02  0.51100000000E-03 0. -1.
        -11    1    3    3    0    0 -0.38497767017E+02  0.24834563909E+01 -0.41587482370E+01  0.38801299052E+02  0.51100000000E-03 0.  1.
         12    1    3    3    0    0  0.38433714932E+02 -0.40784936351E+01  0.14236479036E+02  0.41188128012E+02  0.00000000000E+00 0. -1.
</event>
<event>
 7    1  0.1698110E-015  0.9000720E+02  0.7816164E-02  0.1186340E+00
        -11   -1    0    0    0    0  0.00000000000E+00  0.00000000000E+00  0.45593999997E+02  0.45594000000E+02  0.51100000000E-03 0.  1.
         11   -1    0    0    0    0 -0.00000000000E+00 -0.00000000000E+00 -0.45593999997E+02  0.45594000000E+02  0.51100000000E-03 0. -1.
    9900012    2    1    2    0    0  0.24983487613E+00 -0.62021005815E+00  0.97324170838E+00  0.90007204758E+02  0.89999459059E+02 0.  0.
         12    1    1    2    0    0 -0.24983487613E+00  0.62021005815E+00 -0.97324170838E+00  0.11807952424E+01  0.00000000000E+00 0. -1.
         11    1    3    3    0    0 -0.55740233441E+00 -0.58765979085E+00  0.89528059767E+01  0.89893701954E+01  0.51100000000E-03 0. -1.
        -11    1    3    3    0    0  0.92674173295E+01  0.30452070491E+02  0.20983913603E+02  0.38125296740E+02  0.51100000000E-03 0.  1.
         12    1    3    3    0    0 -0.84601801189E+01 -0.30484620759E+02 -0.28963477871E+02  0.42892537822E+02  0.00000000000E+00 0. -1.
</event>
<event>
 7    1  0.1698110E-015  0.9000776E+02  0.7816164E-02  0.1186339E+00
        -11   -1    0    0    0    0  0.00000000000E+00  0.00000000000E+00  0.45593999997E+02  0.45594000000E+02  0.51100000000E-03 0. -1.
         11   -1    0    0    0    0 -0.00000000000E+00 -0.00000000000E+00 -0.45593999997E+02  0.45594000000E+02  0.51100000000E-03 0.  1.
    9900012    2    1    2    0    0  0.10846332620E+01 -0.44922242019E+00  0.12135732136E+00  0.90007763712E+02  0.90000025393E+02 0.  0.
         12    1    1    2    0    0 -0.10846332620E+01  0.44922242019E+00 -0.12135732136E+00  0.11802362879E+01  0.00000000000E+00 0. -1.
         11    1    3    3    0    0  0.33285476517E+02  0.17969487566E+02 -0.75866291848E+01  0.38579559005E+02  0.51100000000E-03 0. -1.
        -11    1    3    3    0    0  0.38444850759E+01  0.51180960839E+01  0.53017575306E+01  0.83116548410E+01  0.51100000000E-03 0.  1.
        -12    1    3    3    0    0 -0.36045328331E+02 -0.23536806070E+02  0.24062289756E+01  0.43116549866E+02  0.00000000000E+00 0.  1.
</event>
<event>
 7    1  0.1698110E-015  0.9000771E+02  0.7816164E-02  0.1186339E+00
        -11   -1    0    0    0    0  0.00000000000E+00  0.00000000000E+00  0.45593999997E+02  0.45594000000E+02  0.51100000000E-03 0.  1.
         11   -1    0    0    0    0 -0.00000000000E+00 -0.00000000000E+00 -0.45593999997E+02  0.45594000000E+02  0.51100000000E-03 0. -1.
    9900012    2    1    2    0    0  0.95946151372E+00  0.12422156529E+00  0.67607553117E+00  0.90007713799E+02  0.89999974821E+02 0.  0.
         12    1    1    2    0    0 -0.95946151372E+00 -0.12422156529E+00 -0.67607553117E+00  0.11802862015E+01  0.00000000000E+00 0. -1.
         11    1    3    3    0    0  0.32135908144E+02  0.18650692604E+02  0.34874124132E+01  0.37319257394E+02  0.51100000000E-03 0. -1.
        -11    1    3    3    0    0  0.89866135249E+01 -0.46645510574E+01 -0.62086779698E+00  0.10144098595E+02  0.51100000000E-03 0.  1.
        -12    1    3    3    0    0 -0.40163060155E+02 -0.13861919981E+02 -0.21904690850E+01  0.42544357810E+02  0.00000000000E+00 0.  1.
</event>
<event>
 7    1  0.1698110E-015  0.9000772E+02  0.7816164E-02  0.1186339E+00
        -11   -1    0    0    0    0  0.00000000000E+00  0.00000000000E+00  0.45593999997E+02  0.45594000000E+02  0.51100000000E-03 0.  1.
         11   -1    0    0    0    0 -0.00000000000E+00 -0.00000000000E+00 -0.45593999997E+02  0.45594000000E+02  0.51100000000E-03 0. -1.
    9900012    2    1    2    0    0 -0.45753733759E+00  0.87709678580E+00  0.64376063668E+00  0.90007717430E+02  0.89999978500E+02 0.  0.
         12    1    1    2    0    0  0.45753733759E+00 -0.87709678580E+00 -0.64376063668E+00  0.11802825697E+01  0.00000000000E+00 0. -1.
         11    1    3    3    0    0 -0.13439538560E+02 -0.25541461288E+02 -0.22892594478E+02  0.36838272538E+02  0.51100000000E-03 0. -1.
        -11    1    3    3    0    0  0.20348401123E+01 -0.91083649580E+01  0.31630003052E+00  0.93382510387E+01  0.51100000000E-03 0.  1.
        -12    1    3    3    0    0  0.10947161110E+02  0.35526923032E+02  0.23220055084E+02  0.43831193853E+02  0.00000000000E+00 0.  1.
</event>
<event>
 7    1  0.1698110E-015  0.9000768E+02  0.7816164E-02  0.1186339E+00
        -11   -1    0    0    0    0  0.00000000000E+00  0.00000000000E+00  0.45593999997E+02  0.45594000000E+02  0.51100000000E-03 0.  1.
         11   -1    0    0    0    0 -0.00000000000E+00 -0.00000000000E+00 -0.45593999997E+02  0.45594000000E+02  0.51100000000E-03 0. -1.
    9900012    2    1    2    0    0  0.24411800333E+00  0.61556188219E+00  0.97705828495E+00  0.90007681008E+02  0.89999941597E+02 0.  0.
         12    1    1    2    0    0 -0.24411800333E+00 -0.61556188219E+00 -0.97705828495E+00  0.11803189919E+01  0.00000000000E+00 0. -1.
         11    1    3    3    0    0  0.29464778197E+02 -0.68644947023E+01 -0.25421173643E+02  0.39516205680E+02  0.51100000000E-03 0. -1.
        -11    1    3    3    0    0  0.78736660476E+00 -0.80362817209E+01  0.81596610534E+00  0.81158838714E+01  0.51100000000E-03 0.  1.
        -12    1    3    3    0    0 -0.30008026798E+02  0.15516338305E+02  0.25582265822E+02  0.42375591457E+02  0.00000000000E+00 0.  1.
</event>
<event>
 7    1  0.1698110E-015  0.9000792E+02  0.7816164E-02  0.1186339E+00
        -11   -1    0    0    0    0  0.00000000000E+00  0.00000000000E+00  0.45593999997E+02  0.45594000000E+02  0.51100000000E-03 0. -1.
         11   -1    0    0    0    0 -0.00000000000E+00 -0.00000000000E+00 -0.45593999997E+02  0.45594000000E+02  0.51100000000E-03 0.  1.
    9900012    2    1    2    0    0 -0.11777710331E+01 -0.64763057779E-01  0.35330383996E-01  0.90007920725E+02  0.90000184478E+02 0.  0.
         12    1    1    2    0    0  0.11777710331E+01  0.64763057779E-01 -0.35330383996E-01  0.11800792754E+01  0.00000000000E+00 0. -1.
         11    1    3    3    0    0  0.27524358656E+02  0.13385660376E+02  0.10294051531E+02  0.32291387711E+02  0.51100000000E-03 0. -1.
        -11    1    3    3    0    0  0.10422741794E+02  0.48890581719E+01  0.40424154217E+01  0.12201539207E+02  0.51100000000E-03 0.  1.
        -12    1    3    3    0    0 -0.39124871483E+02 -0.18339481605E+02 -0.14301136568E+02  0.45514993807E+02  0.00000000000E+00 0.  1.
</event>
<event>
 7    1  0.1698110E-015  0.9000775E+02  0.7816164E-02  0.1186339E+00
        -11   -1    0    0    0    0  0.00000000000E+00  0.00000000000E+00  0.45593999997E+02  0.45594000000E+02  0.51100000000E-03 0.  1.
         11   -1    0    0    0    0 -0.00000000000E+00 -0.00000000000E+00 -0.45593999997E+02  0.45594000000E+02  0.51100000000E-03 0. -1.
    9900012    2    1    2    0    0 -0.69424357390E+00 -0.95194214288E+00  0.69522113537E-01  0.90007745236E+02  0.90000006673E+02 0.  0.
         12    1    1    2    0    0  0.69424357390E+00  0.95194214288E+00 -0.69522113537E-01  0.11802547638E+01  0.00000000000E+00 0. -1.
         11    1    3    3    0    0 -0.34346183022E+02 -0.10289936669E+02 -0.26121269242E+02  0.44360610816E+02  0.51100000000E-03 0. -1.
        -11    1    3    3    0    0  0.60539001653E+01  0.72410763741E+01  0.43630508638E+01  0.10398033822E+02  0.51100000000E-03 0.  1.
        -12    1    3    3    0    0  0.27598039283E+02  0.20969181519E+01  0.21827740492E+02  0.35249100598E+02  0.00000000000E+00 0.  1.
</event>
<event>
 7    1  0.1698110E-015  0.9000772E+02  0.7816164E-02  0.1186339E+00
        -11   -1    0    0    0    0  0.00000000000E+00  0.00000000000E+00  0.45593999997E+02  0.45594000000E+02  0.51100000000E-03 0. -1.
         11   -1    0    0    0    0 -0.00000000000E+00 -0.00000000000E+00 -0.45593999997E+02  0.45594000000E+02  0.51100000000E-03 0.  1.
    9900012    2    1    2    0    0 -0.74023355804E+00  0.95111479269E-01  0.91437168746E+00  0.90007717196E+02  0.89999978263E+02 0.  0.
         12    1    1    2    0    0  0.74023355804E+00 -0.95111479269E-01 -0.91437168746E+00  0.11802828037E+01  0.00000000000E+00 0. -1.
         11    1    3    3    0    0 -0.47222047492E+00 -0.27770587376E+02  0.30684243476E+02  0.41387816001E+02  0.51100000000E-03 0. -1.
        -11    1    3    3    0    0 -0.47422923404E+01  0.74933695316E+01  0.33498712855E+01  0.94795338213E+01  0.51100000000E-03 0.  1.
        -12    1    3    3    0    0  0.44742792573E+01  0.20372329324E+02 -0.33119743074E+02  0.39140367374E+02  0.00000000000E+00 0.  1.
</event>
<event>
 7    1  0.1698110E-015  0.9000796E+02  0.7816164E-02  0.1186339E+00
        -11   -1    0    0    0    0  0.00000000000E+00  0.00000000000E+00  0.45593999997E+02  0.45594000000E+02  0.51100000000E-03 0.  1.
         11   -1    0    0    0    0 -0.00000000000E+00 -0.00000000000E+00 -0.45593999997E+02  0.45594000000E+02  0.51100000000E-03 0. -1.
    9900012    2    1    2    0    0 -0.40126315700E+00 -0.96691483927E-01  0.11055050920E+01  0.90007956411E+02  0.90000220635E+02 0.  0.
         12    1    1    2    0    0  0.40126315700E+00  0.96691483927E-01 -0.11055050920E+01  0.11800435893E+01  0.00000000000E+00 0. -1.
         11    1    3    3    0    0  0.64075151719E+01  0.39164211385E+02 -0.82764169999E+01  0.40538756551E+02  0.51100000000E-03 0. -1.
        -11    1    3    3    0    0 -0.25871461163E+01 -0.13251291902E+02 -0.99638875229E+01  0.16780021362E+02  0.51100000000E-03 0.  1.
        -12    1    3    3    0    0 -0.42216322126E+01 -0.26009610967E+02  0.19345809615E+02  0.32689178497E+02  0.00000000000E+00 0.  1.
</event>
<event>
 7    1  0.1698110E-015  0.9000771E+02  0.7816164E-02  0.1186339E+00
        -11   -1    0    0    0    0  0.00000000000E+00  0.00000000000E+00  0.45593999997E+02  0.45594000000E+02  0.51100000000E-03 0.  1.
         11   -1    0    0    0    0 -0.00000000000E+00 -0.00000000000E+00 -0.45593999997E+02  0.45594000000E+02  0.51100000000E-03 0. -1.
    9900012    2    1    2    0    0  0.48961392973E+00 -0.10269157269E+01  0.31434607097E+00  0.90007707171E+02  0.89999968105E+02 0.  0.
         12    1    1    2    0    0 -0.48961392973E+00  0.10269157269E+01 -0.31434607097E+00  0.11802928292E+01  0.00000000000E+00 0. -1.
         11    1    3    3    0    0 -0.11875015010E+02  0.37858234538E+02  0.69410675246E+01  0.40279527337E+02  0.51100000000E-03 0. -1.
        -11    1    3    3    0    0 -0.85098334113E+01 -0.67662334478E+01 -0.11588233979E+00  0.10872562197E+02  0.51100000000E-03 0.  1.
        -12    1    3    3    0    0  0.20874462351E+02 -0.32118916817E+02 -0.65108391138E+01  0.38855617637E+02  0.00000000000E+00 0.  1.
</event>
<event>
 7    1  0.1698110E-015  0.9000760E+02  0.7816164E-02  0.1186339E+00
        -11   -1    0    0    0    0  0.00000000000E+00  0.00000000000E+00  0.45593999997E+02  0.45594000000E+02  0.51100000000E-03 0.  1.
         11   -1    0    0    0    0 -0.00000000000E+00 -0.00000000000E+00 -0.45593999997E+02  0.45594000000E+02  0.51100000000E-03 0. -1.
    9900012    2    1    2    0    0 -0.65984237820E+00 -0.28392351503E-03 -0.97874881916E+00  0.90007601213E+02  0.89999860749E+02 0.  0.
         12    1    1    2    0    0  0.65984237820E+00  0.28392351503E-03  0.97874881916E+00  0.11803987867E+01  0.00000000000E+00 0. -1.
         11    1    3    3    0    0  0.50963373425E+01  0.23016339502E+01  0.92839304004E+01  0.10837967387E+02  0.51100000000E-03 0. -1.
        -11    1    3    3    0    0  0.45523730620E+01 -0.32291719953E+02  0.17510755349E+02  0.37014940648E+02  0.51100000000E-03 0.  1.
         12    1    3    3    0    0 -0.10308552783E+02  0.29989802079E+02 -0.27773434569E+02  0.42154693178E+02  0.00000000000E+00 0. -1.
</event>
<event>
 7    1  0.1698110E-015  0.9000771E+02  0.7816164E-02  0.1186339E+00
        -11   -1    0    0    0    0  0.00000000000E+00  0.00000000000E+00  0.45593999997E+02  0.45594000000E+02  0.51100000000E-03 0. -1.
         11   -1    0    0    0    0 -0.00000000000E+00 -0.00000000000E+00 -0.45593999997E+02  0.45594000000E+02  0.51100000000E-03 0.  1.
    9900012    2    1    2    0    0  0.41493100238E+00 -0.79761758764E+00 -0.76467561977E+00  0.90007707512E+02  0.89999968452E+02 0.  0.
         12    1    1    2    0    0 -0.41493100238E+00  0.79761758764E+00  0.76467561977E+00  0.11802924876E+01  0.00000000000E+00 0. -1.
         11    1    3    3    0    0 -0.82698493063E+01 -0.21132870491E+01  0.21789209693E+01  0.88093181662E+01  0.51100000000E-03 0. -1.
        -11    1    3    3    0    0 -0.25619344524E+02 -0.26006716139E+02  0.42655362616E+01  0.36754522144E+02  0.51100000000E-03 0.  1.
         12    1    3    3    0    0  0.34304124832E+02  0.27322385601E+02 -0.72091328507E+01  0.44443867202E+02  0.00000000000E+00 0. -1.
</event>
<event>
 7    1  0.1698110E-015  0.9000735E+02  0.7816164E-02  0.1186340E+00
        -11   -1    0    0    0    0  0.00000000000E+00  0.00000000000E+00  0.45593999997E+02  0.45594000000E+02  0.51100000000E-03 0. -1.
         11   -1    0    0    0    0 -0.00000000000E+00 -0.00000000000E+00 -0.45593999997E+02  0.45594000000E+02  0.51100000000E-03 0.  1.
    9900012    2    1    2    0    0 -0.99823140766E-02  0.64225071671E-02 -0.11805885993E+01  0.90007351731E+02  0.89999607973E+02 0.  0.
         12    1    1    2    0    0  0.99823140766E-02 -0.64225071671E-02  0.11805885993E+01  0.11806482694E+01  0.00000000000E+00 0. -1.
         11    1    3    3    0    0 -0.67743946505E+01 -0.11041452928E+02  0.11768771763E+01  0.13007349683E+02  0.51100000000E-03 0. -1.
        -11    1    3    3    0    0 -0.31218289031E+01 -0.25726581480E+02 -0.22142689415E+02  0.34086676358E+02  0.51100000000E-03 0.  1.
         12    1    3    3    0    0  0.98862412396E+01  0.36774456915E+02  0.19785223639E+02  0.42913325689E+02  0.00000000000E+00 0. -1.
</event>
<event>
 7    1  0.1698110E-015  0.9000770E+02  0.7816164E-02  0.1186339E+00
        -11   -1    0    0    0    0  0.00000000000E+00  0.00000000000E+00  0.45593999997E+02  0.45594000000E+02  0.51100000000E-03 0.  1.
         11   -1    0    0    0    0 -0.00000000000E+00 -0.00000000000E+00 -0.45593999997E+02  0.45594000000E+02  0.51100000000E-03 0. -1.
    9900012    2    1    2    0    0 -0.73252091092E+00  0.92179188535E+00  0.82533564368E-01  0.90007703870E+02  0.89999964761E+02 0.  0.
         12    1    1    2    0    0  0.73252091092E+00 -0.92179188535E+00 -0.82533564368E-01  0.11802961298E+01  0.00000000000E+00 0. -1.
         11    1    3    3    0    0 -0.18680319924E+02  0.30187412899E+02 -0.32533803532E+01  0.35648544627E+02  0.51100000000E-03 0. -1.
        -11    1    3    3    0    0 -0.33460269587E+01  0.94738203083E+01  0.85246840893E+00  0.10083445358E+02  0.51100000000E-03 0.  1.
        -12    1    3    3    0    0  0.21293825972E+02 -0.38739441322E+02  0.24834455086E+01  0.44275713885E+02  0.00000000000E+00 0.  1.
</event>
<event>
 7    1  0.1698110E-015  0.9000775E+02  0.7816164E-02  0.1186339E+00
        -11   -1    0    0    0    0  0.00000000000E+00  0.00000000000E+00  0.45593999997E+02  0.45594000000E+02  0.51100000000E-03 0. -1.
         11   -1    0    0    0    0 -0.00000000000E+00 -0.00000000000E+00 -0.45593999997E+02  0.45594000000E+02  0.51100000000E-03 0.  1.
    9900012    2    1    2    0    0  0.46583905125E-01 -0.81937233388E+00 -0.84819658172E+00  0.90007754889E+02  0.90000016453E+02 0.  0.
         12    1    1    2    0    0 -0.46583905125E-01  0.81937233388E+00  0.84819658172E+00  0.11802451114E+01  0.00000000000E+00 0. -1.
         11    1    3    3    0    0 -0.11020906162E+01  0.59100622956E+01 -0.55547150064E+01  0.81852488739E+01  0.51100000000E-03 0. -1.
        -11    1    3    3    0    0 -0.20049538570E+01  0.22628089537E+02 -0.29113147083E+02  0.36927301681E+02  0.51100000000E-03 0.  1.
         12    1    3    3    0    0  0.31536283783E+01 -0.29357524166E+02  0.33819665508E+02  0.44895204334E+02  0.00000000000E+00 0. -1.
</event>
<event>
 7    1  0.1698110E-015  0.9000725E+02  0.7816164E-02  0.1186340E+00
        -11   -1    0    0    0    0  0.00000000000E+00  0.00000000000E+00  0.45593999997E+02  0.45594000000E+02  0.51100000000E-03 0.  1.
         11   -1    0    0    0    0 -0.00000000000E+00 -0.00000000000E+00 -0.45593999997E+02  0.45594000000E+02  0.51100000000E-03 0. -1.
    9900012    2    1    2    0    0  0.91511274224E+00 -0.57309018973E+00  0.47780265165E+00  0.90007254866E+02  0.89999509829E+02 0.  0.
         12    1    1    2    0    0 -0.91511274224E+00  0.57309018973E+00 -0.47780265165E+00  0.11807451336E+01  0.00000000000E+00 0. -1.
         11    1    3    3    0    0 -0.11958692370E+02  0.46724390586E+01 -0.64945806295E+01  0.14388244777E+02  0.51100000000E-03 0. -1.
        -11    1    3    3    0    0 -0.14890353169E+01  0.32547731488E+02 -0.60589261747E+01  0.33140347582E+02  0.51100000000E-03 0.  1.
         12    1    3    3    0    0  0.14362840429E+02 -0.37793260736E+02  0.13031309456E+02  0.42478662507E+02  0.00000000000E+00 0. -1.
</event>
<event>
 7    1  0.1698110E-015  0.9000777E+02  0.7816164E-02  0.1186339E+00
        -11   -1    0    0    0    0  0.00000000000E+00  0.00000000000E+00  0.45593999997E+02  0.45594000000E+02  0.51100000000E-03 0.  1.
         11   -1    0    0    0    0 -0.00000000000E+00 -0.00000000000E+00 -0.45593999997E+02  0.45594000000E+02  0.51100000000E-03 0. -1.
    9900012    2    1    2    0    0 -0.35137378693E+00 -0.13523293762E+00  0.11185633327E+01  0.90007773151E+02  0.90000034957E+02 0.  0.
         12    1    1    2    0    0  0.35137378693E+00  0.13523293762E+00 -0.11185633327E+01  0.11802268489E+01  0.00000000000E+00 0. -1.
         11    1    3    3    0    0 -0.64382934028E+01  0.72990090768E+01 -0.32314207232E+01  0.10255205293E+02  0.51100000000E-03 0. -1.
        -11    1    3    3    0    0 -0.17921347230E+02 -0.18031777993E+02 -0.28182338294E+02  0.37954761179E+02  0.51100000000E-03 0.  1.
         12    1    3    3    0    0  0.24008266846E+02  0.10597535979E+02  0.32532322350E+02  0.41797806680E+02  0.00000000000E+00 0. -1.
</event>
<event>
 7    1  0.1698110E-015  0.9000774E+02  0.7816164E-02  0.1186339E+00
        -11   -1    0    0    0    0  0.00000000000E+00  0.00000000000E+00  0.45593999997E+02  0.45594000000E+02  0.51100000000E-03 0.  1.
         11   -1    0    0    0    0 -0.00000000000E+00 -0.00000000000E+00 -0.45593999997E+02  0.45594000000E+02  0.51100000000E-03 0. -1.
    9900012    2    1    2    0    0 -0.26910465311E+00 -0.94264955808E+00  0.65727841765E+00  0.90007737139E+02  0.89999998469E+02 0.  0.
         12    1    1    2    0    0  0.26910465311E+00  0.94264955808E+00 -0.65727841765E+00  0.11802628614E+01  0.00000000000E+00 0. -1.
         11    1    3    3    0    0  0.10021256358E+02 -0.20712491136E+01 -0.29475565418E+00  0.10237310831E+02  0.51100000000E-03 0. -1.
        -11    1    3    3    0    0  0.34156782598E+02 -0.35674888282E+01  0.57443992253E+01  0.34819691221E+02  0.51100000000E-03 0.  1.
         12    1    3    3    0    0 -0.44447143609E+02  0.46960883837E+01 -0.47923651535E+01  0.44950735087E+02  0.00000000000E+00 0. -1.
</event>
<event>
 7    1  0.1698110E-015  0.9000772E+02  0.7816164E-02  0.1186339E+00
        -11   -1    0    0    0    0  0.00000000000E+00  0.00000000000E+00  0.45593999997E+02  0.45594000000E+02  0.51100000000E-03 0. -1.
         11   -1    0    0    0    0 -0.00000000000E+00 -0.00000000000E+00 -0.45593999997E+02  0.45594000000E+02  0.51100000000E-03 0.  1.
    9900012    2    1    2    0    0 -0.44003988394E+00 -0.67358999402E+00 -0.86354537371E+00  0.90007716478E+02  0.89999977536E+02 0.  0.
         12    1    1    2    0    0  0.44003988394E+00  0.67358999402E+00  0.86354537371E+00  0.11802835219E+01  0.00000000000E+00 0. -1.
         11    1    3    3    0    0 -0.12447745937E+02  0.28113787273E+02  0.21799040891E+02  0.37689913740E+02  0.51100000000E-03 0. -1.
        -11    1    3    3    0    0 -0.34036956863E+01  0.72107468647E+01 -0.44483403017E+01  0.91305939769E+01  0.51100000000E-03 0.  1.
        -12    1    3    3    0    0  0.15411401739E+02 -0.35998124132E+02 -0.18214245963E+02  0.43187208761E+02  0.00000000000E+00 0.  1.
</event>
<event>
 7    1  0.1698110E-015  0.9000792E+02  0.7816164E-02  0.1186339E+00
        -11   -1    0    0    0    0  0.00000000000E+00  0.00000000000E+00  0.45593999997E+02  0.45594000000E+02  0.51100000000E-03 0.  1.
         11   -1    0    0    0    0 -0.00000000000E+00 -0.00000000000E+00 -0.45593999997E+02  0.45594000000E+02  0.51100000000E-03 0. -1.
    9900012    2    1    2    0    0 -0.91624500420E+00  0.66507174486E+00  0.33281126129E+00  0.90007920058E+02  0.90000183803E+02 0.  0.
         12    1    1    2    0    0  0.91624500420E+00 -0.66507174486E+00 -0.33281126129E+00  0.11800799419E+01  0.00000000000E+00 0. -1.
         11    1    3    3    0    0  0.39784313397E+02  0.36662517915E+01 -0.25127192881E+01  0.40031821757E+02  0.51100000000E-03 0. -1.
        -11    1    3    3    0    0 -0.13020316896E+01 -0.46300000362E+01 -0.77717058798E+01  0.91395623198E+01  0.51100000000E-03 0.  1.
        -12    1    3    3    0    0 -0.39398526712E+02  0.16288199896E+01  0.10617236429E+02  0.40836535982E+02  0.00000000000E+00 0.  1.
</event>
<event>
 7    1  0.1698110E-015  0.9000787E+02  0.7816164E-02  0.1186339E+00
        -11   -1    0    0    0    0  0.00000000000E+00  0.00000000000E+00  0.45593999997E+02  0.45594000000E+02  0.51100000000E-03 0. -1.
         11   -1    0    0    0    0 -0.00000000000E+00 -0.00000000000E+00 -0.45593999997E+02  0.45594000000E+02  0.51100000000E-03 0.  1.
    9900012    2    1    2    0    0  0.39687696129E+00 -0.52497836050E+00 -0.97959011717E+00  0.90007868482E+02  0.90000131546E+02 0.  0.
         12    1    1    2    0    0 -0.39687696129E+00  0.52497836050E+00  0.97959011717E+00  0.11801315177E+01  0.00000000000E+00 0. -1.
         11    1    3    3    0    0  0.71291088956E+01  0.13343641102E+01 -0.63773793127E+01  0.96579339603E+01  0.51100000000E-03 0. -1.
        -11    1    3    3    0    0 -0.34558932431E+02  0.24063048169E+02  0.38787267430E+01  0.42289414980E+02  0.51100000000E-03 0.  1.
         12    1    3    3    0    0  0.27826700497E+02 -0.25922390640E+02  0.15190624525E+01  0.38060519542E+02  0.00000000000E+00 0. -1.
</event>
<event>
 7    1  0.1698110E-015  0.9000840E+02  0.7816164E-02  0.1186338E+00
        -11   -1    0    0    0    0  0.00000000000E+00  0.00000000000E+00  0.45593999997E+02  0.45594000000E+02  0.51100000000E-03 0.  1.
         11   -1    0    0    0    0 -0.00000000000E+00 -0.00000000000E+00 -0.45593999997E+02  0.45594000000E+02  0.51100000000E-03 0. -1.
    9900012    2    1    2    0    0 -0.10082051671E+01  0.24542038618E+00  0.56101302137E+00  0.90008404970E+02  0.90000675113E+02 0.  0.
         12    1    1    2    0    0  0.10082051671E+01 -0.24542038618E+00 -0.56101302137E+00  0.11795950301E+01  0.00000000000E+00 0. -1.
         11    1    3    3    0    0  0.46684859076E+01  0.65001375902E+01 -0.59836618325E+01  0.99925351412E+01  0.51100000000E-03 0. -1.
        -11    1    3    3    0    0  0.95195724548E+01  0.34223493369E+02  0.92092678883E+01  0.36697143941E+02  0.51100000000E-03 0.  1.
         12    1    3    3    0    0 -0.15196263530E+02 -0.40478210573E+02 -0.26645930345E+01  0.43318725888E+02  0.00000000000E+00 0. -1.
</event>
<event>
 7    1  0.1698110E-015  0.9000770E+02  0.7816164E-02  0.1186339E+00
        -11   -1    0    0    0    0  0.00000000000E+00  0.00000000000E+00  0.45593999997E+02  0.45594000000E+02  0.51100000000E-03 0.  1.
         11   -1    0    0    0    0 -0.00000000000E+00 -0.00000000000E+00 -0.45593999997E+02  0.45594000000E+02  0.51100000000E-03 0. -1.
    9900012    2    1    2    0    0 -0.42636261364E+00  0.10998611713E+01 -0.40411552059E-01  0.90007698018E+02  0.89999958832E+02 0.  0.
         12    1    1    2    0    0  0.42636261364E+00 -0.10998611713E+01  0.40411552059E-01  0.11803019817E+01  0.00000000000E+00 0. -1.
         11    1    3    3    0    0 -0.27570994643E+01  0.27012100788E+02 -0.29073151507E+02  0.39780690356E+02  0.51100000000E-03 0. -1.
        -11    1    3    3    0    0 -0.49594338115E+01 -0.10860354451E+02 -0.44967650434E+01  0.12757906515E+02  0.51100000000E-03 0.  1.
        -12    1    3    3    0    0  0.72901706621E+01 -0.15051885165E+02  0.33529504998E+02  0.37469101147E+02  0.00000000000E+00 0.  1.
</event>
<event>
 7    1  0.1698110E-015  0.9000770E+02  0.7816164E-02  0.1186339E+00
        -11   -1    0    0    0    0  0.00000000000E+00  0.00000000000E+00  0.45593999997E+02  0.45594000000E+02  0.51100000000E-03 0.  1.
         11   -1    0    0    0    0 -0.00000000000E+00 -0.00000000000E+00 -0.45593999997E+02  0.45594000000E+02  0.51100000000E-03 0. -1.
    9900012    2    1    2    0    0  0.36855074565E+00 -0.80040506862E+00  0.78525358146E+00  0.90007702956E+02  0.89999963835E+02 0.  0.
         12    1    1    2    0    0 -0.36855074565E+00  0.80040506862E+00 -0.78525358146E+00  0.11802970445E+01  0.00000000000E+00 0. -1.
         11    1    3    3    0    0 -0.18709739253E+02 -0.16581903649E+02 -0.28793731193E+02  0.38132569122E+02  0.51100000000E-03 0. -1.
        -11    1    3    3    0    0 -0.88054883738E+01 -0.67799641738E+00  0.13815564354E+01  0.89389598438E+01  0.51100000000E-03 0.  1.
        -12    1    3    3    0    0  0.27883778373E+02  0.16459494998E+02  0.28197428340E+02  0.42936173990E+02  0.00000000000E+00 0.  1.
</event>
<event>
 7    1  0.1698110E-015  0.9000779E+02  0.7816164E-02  0.1186339E+00
        -11   -1    0    0    0    0  0.00000000000E+00  0.00000000000E+00  0.45593999997E+02  0.45594000000E+02  0.51100000000E-03 0.  1.
         11   -1    0    0    0    0 -0.00000000000E+00 -0.00000000000E+00 -0.45593999997E+02  0.45594000000E+02  0.51100000000E-03 0. -1.
    9900012    2    1    2    0    0  0.78940249553E+00  0.76418506135E+00 -0.43099783253E+00  0.90007790595E+02  0.90000052631E+02 0.  0.
         12    1    1    2    0    0 -0.78940249553E+00 -0.76418506135E+00  0.43099783253E+00  0.11802094050E+01  0.00000000000E+00 0. -1.
         11    1    3    3    0    0  0.40604254149E+02  0.88400197203E+01 -0.11015900240E+02  0.42990713672E+02  0.51100000000E-03 0. -1.
        -11    1    3    3    0    0 -0.83474941006E+01  0.15981546347E+01 -0.57549645912E+01  0.10264227867E+02  0.51100000000E-03 0.  1.
        -12    1    3    3    0    0 -0.31467357553E+02 -0.96739892936E+01  0.16339866999E+02  0.36752849056E+02  0.00000000000E+00 0.  1.
</event>
<event>
 7    1  0.1698110E-015  0.9000765E+02  0.7816164E-02  0.1186339E+00
        -11   -1    0    0    0    0  0.00000000000E+00  0.00000000000E+00  0.45593999997E+02  0.45594000000E+02  0.51100000000E-03 0. -1.
         11   -1    0    0    0    0 -0.00000000000E+00 -0.00000000000E+00 -0.45593999997E+02  0.45594000000E+02  0.51100000000E-03 0.  1.
    9900012    2    1    2    0    0  0.78494750944E+00  0.61196300049E+00 -0.63449038667E+00  0.90007652866E+02  0.89999913084E+02 0.  0.
         12    1    1    2    0    0 -0.78494750944E+00 -0.61196300049E+00  0.63449038667E+00  0.11803471342E+01  0.00000000000E+00 0. -1.
         11    1    3    3    0    0 -0.38727887548E+01  0.31059906421E+01 -0.73285791848E+01  0.88517650069E+01  0.51100000000E-03 0. -1.
        -11    1    3    3    0    0 -0.18729745209E+02  0.17366946924E+02 -0.25910993547E+02  0.36383977077E+02  0.51100000000E-03 0.  1.
         12    1    3    3    0    0  0.23387481473E+02 -0.19860974565E+02  0.32605082345E+02  0.44771910782E+02  0.00000000000E+00 0. -1.
</event>
<event>
 7    1  0.1698110E-015  0.9000764E+02  0.7816164E-02  0.1186339E+00
        -11   -1    0    0    0    0  0.00000000000E+00  0.00000000000E+00  0.45593999997E+02  0.45594000000E+02  0.51100000000E-03 0.  1.
         11   -1    0    0    0    0 -0.00000000000E+00 -0.00000000000E+00 -0.45593999997E+02  0.45594000000E+02  0.51100000000E-03 0. -1.
    9900012    2    1    2    0    0  0.75468136267E+00 -0.15379271108E+00  0.89445275303E+00  0.90007643323E+02  0.89999903415E+02 0.  0.
         12    1    1    2    0    0 -0.75468136267E+00  0.15379271108E+00 -0.89445275303E+00  0.11803566768E+01  0.00000000000E+00 0. -1.
         11    1    3    3    0    0 -0.17130499649E+02 -0.17659471620E+02 -0.29201912497E+02  0.38184586548E+02  0.51100000000E-03 0. -1.
        -11    1    3    3    0    0 -0.83023419509E+01 -0.25504068183E+01  0.31792624572E+01  0.92488467844E+01  0.51100000000E-03 0.  1.
        -12    1    3    3    0    0  0.26187522963E+02  0.20056085727E+02  0.26917102793E+02  0.42574209991E+02  0.00000000000E+00 0.  1.
</event>
<event>
 7    1  0.1698110E-015  0.9000772E+02  0.7816164E-02  0.1186339E+00
        -11   -1    0    0    0    0  0.00000000000E+00  0.00000000000E+00  0.45593999997E+02  0.45594000000E+02  0.51100000000E-03 0. -1.
         11   -1    0    0    0    0 -0.00000000000E+00 -0.00000000000E+00 -0.45593999997E+02  0.45594000000E+02  0.51100000000E-03 0.  1.
    9900012    2    1    2    0    0 -0.60028180071E+00  0.94458155524E+00  0.37480493407E+00  0.90007724060E+02  0.89999985218E+02 0.  0.
         12    1    1    2    0    0  0.60028180071E+00 -0.94458155524E+00 -0.37480493407E+00  0.11802759395E+01  0.00000000000E+00 0. -1.
         11    1    3    3    0    0  0.34342125603E+02 -0.89832889708E+01 -0.60672349768E+01  0.36012392481E+02  0.51100000000E-03 0. -1.
        -11    1    3    3    0    0  0.74823298220E+01 -0.43959434852E+01  0.25700378134E+01  0.90506725338E+01  0.51100000000E-03 0.  1.
        -12    1    3    3    0    0 -0.42424737226E+02  0.14323814011E+02  0.38720020974E+01  0.44944659046E+02  0.00000000000E+00 0.  1.
</event>
<event>
 7    1  0.1698110E-015  0.9000775E+02  0.7816164E-02  0.1186339E+00
        -11   -1    0    0    0    0  0.00000000000E+00  0.00000000000E+00  0.45593999997E+02  0.45594000000E+02  0.51100000000E-03 0. -1.
         11   -1    0    0    0    0 -0.00000000000E+00 -0.00000000000E+00 -0.45593999997E+02  0.45594000000E+02  0.51100000000E-03 0.  1.
    9900012    2    1    2    0    0 -0.73962036957E+00  0.91414953360E+00 -0.10144912830E+00  0.90007745965E+02  0.90000007412E+02 0.  0.
         12    1    1    2    0    0  0.73962036957E+00 -0.91414953360E+00  0.10144912830E+00  0.11802540347E+01  0.00000000000E+00 0. -1.
         11    1    3    3    0    0  0.86776931135E+01 -0.74935613887E+01 -0.24295110993E+00  0.11467992220E+02  0.51100000000E-03 0. -1.
        -11    1    3    3    0    0  0.30366466563E+02 -0.12089390518E+02 -0.64162015946E+01  0.33308306738E+02  0.51100000000E-03 0.  1.
         12    1    3    3    0    0 -0.39783780046E+02  0.20497101440E+02  0.65577035763E+01  0.45231447007E+02  0.00000000000E+00 0. -1.
</event>
<event>
 7    1  0.1698110E-015  0.9000780E+02  0.7816164E-02  0.1186339E+00
        -11   -1    0    0    0    0  0.00000000000E+00  0.00000000000E+00  0.45593999997E+02  0.45594000000E+02  0.51100000000E-03 0. -1.
         11   -1    0    0    0    0 -0.00000000000E+00 -0.00000000000E+00 -0.45593999997E+02  0.45594000000E+02  0.51100000000E-03 0.  1.
    9900012    2    1    2    0    0  0.98401992943E+00 -0.19047254284E+00 -0.62314245773E+00  0.90007795978E+02  0.90000058085E+02 0.  0.
         12    1    1    2    0    0 -0.98401992943E+00  0.19047254284E+00  0.62314245773E+00  0.11802040221E+01  0.00000000000E+00 0. -1.
         11    1    3    3    0    0  0.47424878780E+01 -0.42397141096E+02 -0.70787373251E+01  0.43244852720E+02  0.51100000000E-03 0. -1.
        -11    1    3    3    0    0 -0.51614644123E+01  0.46717530973E+01  0.60132774201E+01  0.91992117855E+01  0.51100000000E-03 0.  1.
        -12    1    3    3    0    0  0.14029964638E+01  0.37534915456E+02  0.44231744722E+00  0.37563731472E+02  0.00000000000E+00 0.  1.
</event>
<event>
 7    1  0.1698110E-015  0.9000779E+02  0.7816164E-02  0.1186339E+00
        -11   -1    0    0    0    0  0.00000000000E+00  0.00000000000E+00  0.45593999997E+02  0.45594000000E+02  0.51100000000E-03 0. -1.
         11   -1    0    0    0    0 -0.00000000000E+00 -0.00000000000E+00 -0.45593999997E+02  0.45594000000E+02  0.51100000000E-03 0.  1.
    9900012    2    1    2    0    0  0.77114274147E+00 -0.89305216563E+00 -0.26260610162E-01  0.90007791155E+02  0.90000053198E+02 0.  0.
         12    1    1    2    0    0 -0.77114274147E+00  0.89305216563E+00  0.26260610162E-01  0.11802088450E+01  0.00000000000E+00 0. -1.
         11    1    3    3    0    0  0.54454612715E+01 -0.59701249717E+01  0.36731198139E+01  0.88762182300E+01  0.51100000000E-03 0. -1.
        -11    1    3    3    0    0  0.30509107973E+02  0.26015401952E+02 -0.12018144256E+01  0.40112980021E+02  0.51100000000E-03 0.  1.
         12    1    3    3    0    0 -0.35183426503E+02 -0.20938329146E+02 -0.24975659985E+01  0.41018592904E+02  0.00000000000E+00 0. -1.
</event>
<event>
 7    1  0.1698110E-015  0.9000764E+02  0.7816164E-02  0.1186339E+00
        -11   -1    0    0    0    0  0.00000000000E+00  0.00000000000E+00  0.45593999997E+02  0.45594000000E+02  0.51100000000E-03 0. -1.
         11   -1    0    0    0    0 -0.00000000000E+00 -0.00000000000E+00 -0.45593999997E+02  0.45594000000E+02  0.51100000000E-03 0.  1.
    9900012    2    1    2    0    0 -0.68308120152E+00  0.75639060912E+00  0.59541122428E+00  0.90007643610E+02  0.89999903706E+02 0.  0.
         12    1    1    2    0    0  0.68308120152E+00 -0.75639060912E+00 -0.59541122428E+00  0.11803563900E+01  0.00000000000E+00 0. -1.
         11    1    3    3    0    0  0.53237857690E+01 -0.33223148864E+02  0.10237565440E+02  0.35169988083E+02  0.51100000000E-03 0. -1.
        -11    1    3    3    0    0 -0.15691162723E+01 -0.97660527624E+01 -0.35628434795E+00  0.98977194965E+01  0.51100000000E-03 0.  1.
        -12    1    3    3    0    0 -0.44377506983E+01  0.43745592235E+02 -0.92858698678E+01  0.44939936031E+02  0.00000000000E+00 0.  1.
</event>
<event>
 7    1  0.1698110E-015  0.9000783E+02  0.7816164E-02  0.1186339E+00
        -11   -1    0    0    0    0  0.00000000000E+00  0.00000000000E+00  0.45593999997E+02  0.45594000000E+02  0.51100000000E-03 0.  1.
         11   -1    0    0    0    0 -0.00000000000E+00 -0.00000000000E+00 -0.45593999997E+02  0.45594000000E+02  0.51100000000E-03 0. -1.
    9900012    2    1    2    0    0 -0.73726672341E+00 -0.30314684004E+00  0.87025337743E+00  0.90007830025E+02  0.90000092582E+02 0.  0.
         12    1    1    2    0    0  0.73726672341E+00  0.30314684004E+00 -0.87025337743E+00  0.11801699746E+01  0.00000000000E+00 0. -1.
         11    1    3    3    0    0  0.26646225829E+02  0.15213521122E+02 -0.23323387967E+02  0.38541574986E+02  0.51100000000E-03 0. -1.
        -11    1    3    3    0    0 -0.44612788335E+00 -0.47564243086E+01 -0.72525764265E+01  0.86846109513E+01  0.51100000000E-03 0.  1.
        -12    1    3    3    0    0 -0.26937364669E+02 -0.10760243654E+02  0.31446217771E+02  0.42781644088E+02  0.00000000000E+00 0.  1.
</event>
<event>
 7    1  0.1698110E-015  0.9000771E+02  0.7816164E-02  0.1186339E+00
        -11   -1    0    0    0    0  0.00000000000E+00  0.00000000000E+00  0.45593999997E+02  0.45594000000E+02  0.51100000000E-03 0. -1.
         11   -1    0    0    0    0 -0.00000000000E+00 -0.00000000000E+00 -0.45593999997E+02  0.45594000000E+02  0.51100000000E-03 0.  1.
    9900012    2    1    2    0    0  0.88650246726E+00 -0.24606941996E+00 -0.73935848829E+00  0.90007708613E+02  0.89999969567E+02 0.  0.
         12    1    1    2    0    0 -0.88650246726E+00  0.24606941996E+00  0.73935848829E+00  0.11802913869E+01  0.00000000000E+00 0. -1.
         11    1    3    3    0    0 -0.31598219770E+02  0.36889029186E+01 -0.17709253264E+02  0.36409794682E+02  0.51100000000E-03 0. -1.
        -11    1    3    3    0    0 -0.45042955604E+01  0.66933656320E+01 -0.47939295020E+01  0.93846460941E+01  0.51100000000E-03 0.  1.
        -12    1    3    3    0    0  0.36989017797E+02 -0.10628337971E+02  0.21763824278E+02  0.44213267837E+02  0.00000000000E+00 0.  1.
</event>
<event>
 7    1  0.1698110E-015  0.9000777E+02  0.7816164E-02  0.1186339E+00
        -11   -1    0    0    0    0  0.00000000000E+00  0.00000000000E+00  0.45593999997E+02  0.45594000000E+02  0.51100000000E-03 0.  1.
         11   -1    0    0    0    0 -0.00000000000E+00 -0.00000000000E+00 -0.45593999997E+02  0.45594000000E+02  0.51100000000E-03 0. -1.
    9900012    2    1    2    0    0  0.10424864138E+01 -0.54960729912E+00  0.64078254006E-01  0.90007766070E+02  0.90000027782E+02 0.  0.
         12    1    1    2    0    0 -0.10424864138E+01  0.54960729912E+00 -0.64078254006E-01  0.11802339297E+01  0.00000000000E+00 0. -1.
         11    1    3    3    0    0 -0.76004936529E+01  0.63494148087E+01 -0.78018625313E+01  0.12607602127E+02  0.51100000000E-03 0. -1.
        -11    1    3    3    0    0  0.12444895607E+02  0.28483254135E+02  0.23063116743E+02  0.38705019661E+02  0.51100000000E-03 0.  1.
         12    1    3    3    0    0 -0.38019155400E+01 -0.35382276243E+02 -0.15197175958E+02  0.38695144282E+02  0.00000000000E+00 0. -1.
</event>
<event>
 7    1  0.1698110E-015  0.9000778E+02  0.7816164E-02  0.1186339E+00
        -11   -1    0    0    0    0  0.00000000000E+00  0.00000000000E+00  0.45593999997E+02  0.45594000000E+02  0.51100000000E-03 0.  1.
         11   -1    0    0    0    0 -0.00000000000E+00 -0.00000000000E+00 -0.45593999997E+02  0.45594000000E+02  0.51100000000E-03 0. -1.
    9900012    2    1    2    0    0  0.93087338329E+00 -0.72484937634E+00 -0.31407110059E-01  0.90007780410E+02  0.90000042311E+02 0.  0.
         12    1    1    2    0    0 -0.93087338329E+00  0.72484937634E+00  0.31407110059E-01  0.11802195900E+01  0.00000000000E+00 0. -1.
         11    1    3    3    0    0  0.17381423772E+02 -0.83599475844E+01 -0.35219429237E+02  0.40154835475E+02  0.51100000000E-03 0. -1.
        -11    1    3    3    0    0  0.59829012475E+01 -0.56629877227E+01  0.38791480505E+01  0.91056206347E+01  0.51100000000E-03 0.  1.
        -12    1    3    3    0    0 -0.22433451636E+02  0.13298085931E+02  0.31308874077E+02  0.40747324301E+02  0.00000000000E+00 0.  1.
</event>
<event>
 7    1  0.1698110E-015  0.9000776E+02  0.7816164E-02  0.1186339E+00
        -11   -1    0    0    0    0  0.00000000000E+00  0.00000000000E+00  0.45593999997E+02  0.45594000000E+02  0.51100000000E-03 0.  1.
         11   -1    0    0    0    0 -0.00000000000E+00 -0.00000000000E+00 -0.45593999997E+02  0.45594000000E+02  0.51100000000E-03 0. -1.
    9900012    2    1    2    0    0 -0.81731414824E+00 -0.74158346192E+00  0.41833985401E+00  0.90007764142E+02  0.90000025828E+02 0.  0.
         12    1    1    2    0    0  0.81731414824E+00  0.74158346192E+00 -0.41833985401E+00  0.11802358584E+01  0.00000000000E+00 0. -1.
         11    1    3    3    0    0  0.18771900293E+01  0.76258871257E+01  0.47410686341E+01  0.91736431647E+01  0.51100000000E-03 0. -1.
        -11    1    3    3    0    0  0.65265082820E+01  0.35263787350E+02  0.12990314696E+01  0.35886174102E+02  0.51100000000E-03 0.  1.
         12    1    3    3    0    0 -0.92210124596E+01 -0.43631257938E+02 -0.56217602497E+01  0.44947946875E+02  0.00000000000E+00 0. -1.
</event>
<event>
 7    1  0.1698110E-015  0.9000772E+02  0.7816164E-02  0.1186339E+00
        -11   -1    0    0    0    0  0.00000000000E+00  0.00000000000E+00  0.45593999997E+02  0.45594000000E+02  0.51100000000E-03 0.  1.
         11   -1    0    0    0    0 -0.00000000000E+00 -0.00000000000E+00 -0.45593999997E+02  0.45594000000E+02  0.51100000000E-03 0. -1.
    9900012    2    1    2    0    0 -0.96099377999E+00  0.37795275081E+00  0.57158232393E+00  0.90007718813E+02  0.89999979901E+02 0.  0.
         12    1    1    2    0    0  0.96099377999E+00 -0.37795275081E+00 -0.57158232393E+00  0.11802811869E+01  0.00000000000E+00 0. -1.
         11    1    3    3    0    0 -0.38012195216E+02  0.14229256581E+02 -0.63001131502E+01  0.41074203023E+02  0.51100000000E-03 0. -1.
        -11    1    3    3    0    0  0.20317198648E+00  0.57615038646E+01 -0.22799501773E+01  0.61995466536E+01  0.51100000000E-03 0.  1.
        -12    1    3    3    0    0  0.36848029450E+02 -0.19612807695E+02  0.91516456514E+01  0.42733969136E+02  0.00000000000E+00 0.  1.
</event>
<event>
 7    1  0.1698110E-015  0.9000787E+02  0.7816164E-02  0.1186339E+00
        -11   -1    0    0    0    0  0.00000000000E+00  0.00000000000E+00  0.45593999997E+02  0.45594000000E+02  0.51100000000E-03 0. -1.
         11   -1    0    0    0    0 -0.00000000000E+00 -0.00000000000E+00 -0.45593999997E+02  0.45594000000E+02  0.51100000000E-03 0.  1.
    9900012    2    1    2    0    0  0.78900293444E+00  0.86030643092E+00 -0.17338654149E+00  0.90007866246E+02  0.90000129280E+02 0.  0.
         12    1    1    2    0    0 -0.78900293444E+00 -0.86030643092E+00  0.17338654149E+00  0.11801337545E+01  0.00000000000E+00 0. -1.
         11    1    3    3    0    0  0.35433553078E+01  0.86103693975E+01  0.40686245236E+01  0.10161079361E+02  0.51100000000E-03 0. -1.
        -11    1    3    3    0    0 -0.31984194051E+02  0.16154966599E+02 -0.17433791972E+02  0.39848572342E+02  0.51100000000E-03 0.  1.
         12    1    3    3    0    0  0.29229841678E+02 -0.23905029566E+02  0.13191780907E+02  0.39998214542E+02  0.00000000000E+00 0. -1.
</event>
<event>
 7    1  0.1698110E-015  0.9000797E+02  0.7816164E-02  0.1186339E+00
        -11   -1    0    0    0    0  0.00000000000E+00  0.00000000000E+00  0.45593999997E+02  0.45594000000E+02  0.51100000000E-03 0.  1.
         11   -1    0    0    0    0 -0.00000000000E+00 -0.00000000000E+00 -0.45593999997E+02  0.45594000000E+02  0.51100000000E-03 0. -1.
    9900012    2    1    2    0    0  0.88943599716E+00 -0.66147635515E+00 -0.40474851577E+00  0.90007970881E+02  0.90000235296E+02 0.  0.
         12    1    1    2    0    0 -0.88943599716E+00  0.66147635515E+00  0.40474851577E+00  0.11800291193E+01  0.00000000000E+00 0. -1.
         11    1    3    3    0    0  0.49299266022E+01 -0.21522780550E+01  0.69520821016E+01  0.87902174568E+01  0.51100000000E-03 0. -1.
        -11    1    3    3    0    0  0.59314396715E+01 -0.22849896986E+02  0.28334823700E+02  0.36880374229E+02  0.51100000000E-03 0.  1.
         12    1    3    3    0    0 -0.99719302766E+01  0.24340698686E+02 -0.35691654318E+02  0.44337379195E+02  0.00000000000E+00 0. -1.
</event>
<event>
 7    1  0.1698110E-015  0.9000766E+02  0.7816164E-02  0.1186339E+00
        -11   -1    0    0    0    0  0.00000000000E+00  0.00000000000E+00  0.45593999997E+02  0.45594000000E+02  0.51100000000E-03 0.  1.
         11   -1    0    0    0    0 -0.00000000000E+00 -0.00000000000E+00 -0.45593999997E+02  0.45594000000E+02  0.51100000000E-03 0. -1.
    9900012    2    1    2    0    0 -0.81727987659E+00 -0.75412707150E+00 -0.39565119731E+00  0.90007663647E+02  0.89999924007E+02 0.  0.
         12    1    1    2    0    0  0.81727987659E+00  0.75412707150E+00  0.39565119731E+00  0.11803363532E+01  0.00000000000E+00 0. -1.
         11    1    3    3    0    0 -0.25328636382E+02  0.50515358299E+01 -0.22832383149E+02  0.34472823437E+02  0.51100000000E-03 0. -1.
        -11    1    3    3    0    0 -0.11283768931E+02  0.35030991305E+01  0.12579680930E+02  0.17258143508E+02  0.51100000000E-03 0.  1.
        -12    1    3    3    0    0  0.35795125436E+02 -0.93087620319E+01  0.98570510219E+01  0.38276696701E+02  0.00000000000E+00 0.  1.
</event>
<event>
 7    1  0.1698110E-015  0.9000776E+02  0.7816164E-02  0.1186339E+00
        -11   -1    0    0    0    0  0.00000000000E+00  0.00000000000E+00  0.45593999997E+02  0.45594000000E+02  0.51100000000E-03 0.  1.
         11   -1    0    0    0    0 -0.00000000000E+00 -0.00000000000E+00 -0.45593999997E+02  0.45594000000E+02  0.51100000000E-03 0. -1.
    9900012    2    1    2    0    0 -0.27849238562E+00 -0.10691370817E+01  0.41514387890E+00  0.90007764198E+02  0.90000025885E+02 0.  0.
         12    1    1    2    0    0  0.27849238562E+00  0.10691370817E+01 -0.41514387890E+00  0.11802358021E+01  0.00000000000E+00 0. -1.
         11    1    3    3    0    0  0.22508076974E+02 -0.28629209880E+02 -0.11281520028E+02  0.38125029598E+02  0.51100000000E-03 0. -1.
        -11    1    3    3    0    0  0.31595877510E+01  0.20844663775E+02 -0.30343681183E+01  0.21300009220E+02  0.51100000000E-03 0.  1.
        -12    1    3    3    0    0 -0.25946157110E+02  0.67154090234E+01  0.14731032025E+02  0.30582725380E+02  0.00000000000E+00 0.  1.
</event>
<event>
 7    1  0.1792904E-015  0.9000770E+02  0.7816164E-02  0.1186339E+00
        -11   -1    0    0    0    0  0.00000000000E+00  0.00000000000E+00  0.45593999997E+02  0.45594000000E+02  0.51100000000E-03 0. -1.
         11   -1    0    0    0    0 -0.00000000000E+00 -0.00000000000E+00 -0.45593999997E+02  0.45594000000E+02  0.51100000000E-03 0.  1.
    9900012    2    1    2    0    0 -0.64864266653E+00  0.98138138031E+00 -0.96223069547E-01  0.90007701054E+02  0.89999961908E+02 0.  0.
         12    1    1    2    0    0  0.64864266653E+00 -0.98138138031E+00  0.96223069547E-01  0.11802989458E+01  0.00000000000E+00 0. -1.
         11    1    3    3    0    0 -0.95309907391E+01 -0.68936070268E+00 -0.21136785491E+01  0.97868605752E+01  0.51100000000E-03 0. -1.
        -11    1    3    3    0    0  0.21687838507E+02  0.24128126784E+02 -0.26383176976E+02  0.41816275167E+02  0.51100000000E-03 0.  1.
         12    1    3    3    0    0 -0.12805490435E+02 -0.22457384702E+02  0.28400632456E+02  0.38404565312E+02  0.00000000000E+00 0. -1.
</event>
<event>
 7    1  0.1698110E-015  0.9000758E+02  0.7816164E-02  0.1186339E+00
        -11   -1    0    0    0    0  0.00000000000E+00  0.00000000000E+00  0.45593999997E+02  0.45594000000E+02  0.51100000000E-03 0.  1.
         11   -1    0    0    0    0 -0.00000000000E+00 -0.00000000000E+00 -0.45593999997E+02  0.45594000000E+02  0.51100000000E-03 0. -1.
    9900012    2    1    2    0    0 -0.66892164623E+00 -0.87166831380E+00  0.43141909233E+00  0.90007583018E+02  0.89999842314E+02 0.  0.
         12    1    1    2    0    0  0.66892164623E+00  0.87166831380E+00 -0.43141909233E+00  0.11804169820E+01  0.00000000000E+00 0. -1.
         11    1    3    3    0    0  0.99227623873E+01 -0.84869524437E+01 -0.30497108413E+01  0.13408590964E+02  0.51100000000E-03 0. -1.
        -11    1    3    3    0    0  0.23943210186E+02  0.12463698811E+02  0.24014718549E+02  0.36129320631E+02  0.51100000000E-03 0.  1.
         12    1    3    3    0    0 -0.34534894219E+02 -0.48484146809E+01 -0.20533588615E+02  0.40469671423E+02  0.00000000000E+00 0. -1.
</event>
<event>
 7    1  0.1698110E-015  0.9000793E+02  0.7816164E-02  0.1186339E+00
        -11   -1    0    0    0    0  0.00000000000E+00  0.00000000000E+00  0.45593999997E+02  0.45594000000E+02  0.51100000000E-03 0.  1.
         11   -1    0    0    0    0 -0.00000000000E+00 -0.00000000000E+00 -0.45593999997E+02  0.45594000000E+02  0.51100000000E-03 0. -1.
    9900012    2    1    2    0    0 -0.10313990599E+01 -0.55030141402E+00  0.16111813426E+00  0.90007925968E+02  0.90000189791E+02 0.  0.
         12    1    1    2    0    0  0.10313990599E+01  0.55030141402E+00 -0.16111813426E+00  0.11800740317E+01  0.00000000000E+00 0. -1.
         11    1    3    3    0    0 -0.32353827897E+02  0.21260681024E+02  0.15231936569E+02  0.41602868039E+02  0.51100000000E-03 0. -1.
        -11    1    3    3    0    0 -0.14416752840E+01 -0.70419650417E+01 -0.96907874184E+01  0.12065614793E+02  0.51100000000E-03 0.  1.
        -12    1    3    3    0    0  0.32764104121E+02 -0.14769017396E+02 -0.53800310161E+01  0.36339443136E+02  0.00000000000E+00 0.  1.
</event>
<event>
 7    1  0.1698110E-015  0.9000755E+02  0.7816164E-02  0.1186339E+00
        -11   -1    0    0    0    0  0.00000000000E+00  0.00000000000E+00  0.45593999997E+02  0.45594000000E+02  0.51100000000E-03 0. -1.
         11   -1    0    0    0    0 -0.00000000000E+00 -0.00000000000E+00 -0.45593999997E+02  0.45594000000E+02  0.51100000000E-03 0.  1.
    9900012    2    1    2    0    0  0.11121202607E+01  0.32808476074E+00  0.22135818798E+00  0.90007554943E+02  0.89999813868E+02 0.  0.
         12    1    1    2    0    0 -0.11121202607E+01 -0.32808476074E+00 -0.22135818798E+00  0.11804450567E+01  0.00000000000E+00 0. -1.
         11    1    3    3    0    0 -0.87161486540E+01 -0.11092299881E+01  0.44868296102E+01  0.98657629577E+01  0.51100000000E-03 0. -1.
        -11    1    3    3    0    0 -0.72779715951E+01  0.23390106645E+02  0.28217424366E+02  0.37366950605E+02  0.51100000000E-03 0.  1.
         12    1    3    3    0    0  0.17106240510E+02 -0.21952791896E+02 -0.32482895788E+02  0.42774841381E+02  0.00000000000E+00 0. -1.
</event>
<event>
 7    1  0.1698110E-015  0.9000787E+02  0.7816164E-02  0.1186339E+00
        -11   -1    0    0    0    0  0.00000000000E+00  0.00000000000E+00  0.45593999997E+02  0.45594000000E+02  0.51100000000E-03 0.  1.
         11   -1    0    0    0    0 -0.00000000000E+00 -0.00000000000E+00 -0.45593999997E+02  0.45594000000E+02  0.51100000000E-03 0. -1.
    9900012    2    1    2    0    0  0.28248398913E+00  0.11447157724E+01  0.50272056401E-01  0.90007873446E+02  0.90000136575E+02 0.  0.
         12    1    1    2    0    0 -0.28248398913E+00 -0.11447157724E+01 -0.50272056401E-01  0.11801265539E+01  0.00000000000E+00 0. -1.
         11    1    3    3    0    0 -0.88944978512E+01  0.21561661656E+01 -0.50747136271E+01  0.10464887157E+02  0.51100000000E-03 0. -1.
        -11    1    3    3    0    0 -0.22045710372E+02 -0.11172814637E+02  0.29620818460E+02  0.38577688101E+02  0.51100000000E-03 0.  1.
         12    1    3    3    0    0  0.31222692212E+02  0.10161364244E+02 -0.24495832776E+02  0.40965298188E+02  0.00000000000E+00 0. -1.
</event>
<event>
 7    1  0.1698110E-015  0.9000794E+02  0.7816164E-02  0.1186339E+00
        -11   -1    0    0    0    0  0.00000000000E+00  0.00000000000E+00  0.45593999997E+02  0.45594000000E+02  0.51100000000E-03 0. -1.
         11   -1    0    0    0    0 -0.00000000000E+00 -0.00000000000E+00 -0.45593999997E+02  0.45594000000E+02  0.51100000000E-03 0.  1.
    9900012    2    1    2    0    0  0.61677337894E-01 -0.11683850848E+01  0.15366564377E+00  0.90007940285E+02  0.90000204297E+02 0.  0.
         12    1    1    2    0    0 -0.61677337894E-01  0.11683850848E+01 -0.15366564377E+00  0.11800597148E+01  0.00000000000E+00 0. -1.
         11    1    3    3    0    0 -0.43378296332E+01  0.15824104632E+01 -0.71804171855E+01  0.85369303628E+01  0.51100000000E-03 0. -1.
        -11    1    3    3    0    0 -0.38667987577E+01 -0.28972738648E+02 -0.25399035227E+02  0.38723154677E+02  0.51100000000E-03 0.  1.
         12    1    3    3    0    0  0.82663057287E+01  0.26221943100E+02  0.32733118057E+02  0.42747855245E+02  0.00000000000E+00 0. -1.
</event>
<event>
 7    1  0.1698110E-015  0.9000772E+02  0.7816164E-02  0.1186339E+00
        -11   -1    0    0    0    0  0.00000000000E+00  0.00000000000E+00  0.45593999997E+02  0.45594000000E+02  0.51100000000E-03 0.  1.
         11   -1    0    0    0    0 -0.00000000000E+00 -0.00000000000E+00 -0.45593999997E+02  0.45594000000E+02  0.51100000000E-03 0. -1.
    9900012    2    1    2    0    0 -0.10837469959E+01 -0.42931854633E+00 -0.18505433957E+00  0.90007717375E+02  0.89999978445E+02 0.  0.
         12    1    1    2    0    0  0.10837469959E+01  0.42931854633E+00  0.18505433957E+00  0.11802826246E+01  0.00000000000E+00 0. -1.
         11    1    3    3    0    0 -0.56239194868E+01 -0.62909215263E+01  0.24923478820E+01  0.87986341139E+01  0.51100000000E-03 0. -1.
        -11    1    3    3    0    0 -0.12823437366E+02  0.32016886823E+02  0.22317275339E+02  0.41080194334E+02  0.51100000000E-03 0.  1.
         12    1    3    3    0    0  0.17363609857E+02 -0.26155283843E+02 -0.24994677561E+02  0.40128888927E+02  0.00000000000E+00 0. -1.
</event>
<event>
 7    1  0.1698110E-015  0.9000774E+02  0.7816164E-02  0.1186339E+00
        -11   -1    0    0    0    0  0.00000000000E+00  0.00000000000E+00  0.45593999997E+02  0.45594000000E+02  0.51100000000E-03 0. -1.
         11   -1    0    0    0    0 -0.00000000000E+00 -0.00000000000E+00 -0.45593999997E+02  0.45594000000E+02  0.51100000000E-03 0.  1.
    9900012    2    1    2    0    0  0.21312086803E+00  0.11178365225E+01 -0.31311199998E+00  0.90007738114E+02  0.89999999457E+02 0.  0.
         12    1    1    2    0    0 -0.21312086803E+00 -0.11178365225E+01  0.31311199998E+00  0.11802618862E+01  0.00000000000E+00 0. -1.
         11    1    3    3    0    0  0.69341653757E+01  0.26453996201E+01  0.52491748246E+01  0.90903589152E+01  0.51100000000E-03 0. -1.
        -11    1    3    3    0    0 -0.60402559752E+01 -0.28423634824E+02 -0.31980784446E+02  0.43210626967E+02  0.51100000000E-03 0.  1.
         12    1    3    3    0    0 -0.68078853248E+00  0.26896071726E+02  0.26418497621E+02  0.37706752232E+02  0.00000000000E+00 0. -1.
</event>
<event>
 7    1  0.1698110E-015  0.9000773E+02  0.7816164E-02  0.1186339E+00
        -11   -1    0    0    0    0  0.00000000000E+00  0.00000000000E+00  0.45593999997E+02  0.45594000000E+02  0.51100000000E-03 0.  1.
         11   -1    0    0    0    0 -0.00000000000E+00 -0.00000000000E+00 -0.45593999997E+02  0.45594000000E+02  0.51100000000E-03 0. -1.
    9900012    2    1    2    0    0  0.59959735081E+00  0.81804523102E+00  0.60358277322E+00  0.90007734290E+02  0.89999995582E+02 0.  0.
         12    1    1    2    0    0 -0.59959735081E+00 -0.81804523102E+00 -0.60358277322E+00  0.11802657104E+01  0.00000000000E+00 0. -1.
         11    1    3    3    0    0 -0.15820828858E+02  0.66665379537E+01 -0.38449002599E+02  0.42107803970E+02  0.51100000000E-03 0. -1.
        -11    1    3    3    0    0  0.17658912413E+01  0.42755736155E+01 -0.36966646036E+00  0.46406416766E+01  0.51100000000E-03 0.  1.
        -12    1    3    3    0    0  0.14654534967E+02 -0.10124066338E+02  0.39422251833E+02  0.43259288643E+02  0.00000000000E+00 0.  1.
</event>
<event>
 7    1  0.1698110E-015  0.9000788E+02  0.7816164E-02  0.1186339E+00
        -11   -1    0    0    0    0  0.00000000000E+00  0.00000000000E+00  0.45593999997E+02  0.45594000000E+02  0.51100000000E-03 0.  1.
         11   -1    0    0    0    0 -0.00000000000E+00 -0.00000000000E+00 -0.45593999997E+02  0.45594000000E+02  0.51100000000E-03 0. -1.
    9900012    2    1    2    0    0 -0.71286023343E+00  0.93997089269E+00 -0.31097871730E-01  0.90007880485E+02  0.90000143708E+02 0.  0.
         12    1    1    2    0    0  0.71286023343E+00 -0.93997089269E+00  0.31097871730E-01  0.11801195148E+01  0.00000000000E+00 0. -1.
         11    1    3    3    0    0  0.93492160098E+01  0.29958701585E+02 -0.22766423733E+02  0.38771660920E+02  0.51100000000E-03 0. -1.
        -11    1    3    3    0    0 -0.26952094401E+01  0.78572206540E+01  0.43911554765E+01  0.93958670175E+01  0.51100000000E-03 0.  1.
        -12    1    3    3    0    0 -0.73668668031E+01 -0.36875951346E+02  0.18344170385E+02  0.41840352547E+02  0.00000000000E+00 0.  1.
</event>
<event>
 7    1  0.1698110E-015  0.9000757E+02  0.7816164E-02  0.1186339E+00
        -11   -1    0    0    0    0  0.00000000000E+00  0.00000000000E+00  0.45593999997E+02  0.45594000000E+02  0.51100000000E-03 0.  1.
         11   -1    0    0    0    0 -0.00000000000E+00 -0.00000000000E+00 -0.45593999997E+02  0.45594000000E+02  0.51100000000E-03 0. -1.
    9900012    2    1    2    0    0  0.89098384475E+00  0.10812204712E+00  0.76672264919E+00  0.90007573717E+02  0.89999832890E+02 0.  0.
         12    1    1    2    0    0 -0.89098384475E+00 -0.10812204712E+00 -0.76672264919E+00  0.11804262829E+01  0.00000000000E+00 0. -1.
         11    1    3    3    0    0 -0.17990627055E+01  0.72782912139E+01 -0.75941912178E+01  0.10671545817E+02  0.51100000000E-03 0. -1.
        -11    1    3    3    0    0  0.10342334794E+02  0.22479971076E+02  0.32142531641E+02  0.40564212418E+02  0.51100000000E-03 0.  1.
         12    1    3    3    0    0 -0.76522882438E+01 -0.29650140243E+02 -0.23781617774E+02  0.38771815482E+02  0.00000000000E+00 0. -1.
</event>
<event>
 7    1  0.2088868E-015  0.9000772E+02  0.7816164E-02  0.1186339E+00
        -11   -1    0    0    0    0  0.00000000000E+00  0.00000000000E+00  0.45593999997E+02  0.45594000000E+02  0.51100000000E-03 0.  1.
         11   -1    0    0    0    0 -0.00000000000E+00 -0.00000000000E+00 -0.45593999997E+02  0.45594000000E+02  0.51100000000E-03 0. -1.
    9900012    2    1    2    0    0  0.16235387872E+00 -0.43974198559E+00  0.10832016326E+01  0.90007721400E+02  0.89999982523E+02 0.  0.
         12    1    1    2    0    0 -0.16235387872E+00  0.43974198559E+00 -0.10832016326E+01  0.11802785996E+01  0.00000000000E+00 0. -1.
         11    1    3    3    0    0 -0.56499121785E+01  0.46953075327E+01  0.57005442422E+01  0.92985819011E+01  0.51100000000E-03 0. -1.
        -11    1    3    3    0    0  0.65402472829E+01  0.26905138976E+02  0.24826202707E+02  0.37188730537E+02  0.51100000000E-03 0.  1.
         12    1    3    3    0    0 -0.72798122562E+00 -0.32040188494E+02 -0.29443545317E+02  0.43520408962E+02  0.00000000000E+00 0. -1.
</event>
<event>
 7    1  0.1698110E-015  0.9000753E+02  0.7816164E-02  0.1186339E+00
        -11   -1    0    0    0    0  0.00000000000E+00  0.00000000000E+00  0.45593999997E+02  0.45594000000E+02  0.51100000000E-03 0. -1.
         11   -1    0    0    0    0 -0.00000000000E+00 -0.00000000000E+00 -0.45593999997E+02  0.45594000000E+02  0.51100000000E-03 0.  1.
    9900012    2    1    2    0    0  0.69871193284E+00  0.51274112508E+00 -0.80149717436E+00  0.90007534182E+02  0.89999792833E+02 0.  0.
         12    1    1    2    0    0 -0.69871193284E+00 -0.51274112508E+00  0.80149717436E+00  0.11804658178E+01  0.00000000000E+00 0. -1.
         11    1    3    3    0    0 -0.64094102178E+01 -0.87348258080E+00  0.84169328522E+01  0.10615473143E+02  0.51100000000E-03 0. -1.
        -11    1    3    3    0    0  0.65161383072E+01  0.32960249295E+02  0.17629291739E+02  0.37942456688E+02  0.51100000000E-03 0.  1.
         12    1    3    3    0    0  0.59198384350E+00 -0.31574025589E+02 -0.26847721766E+02  0.41449604351E+02  0.00000000000E+00 0. -1.
</event>
<event>
 7    1  0.1698110E-015  0.9000776E+02  0.7816164E-02  0.1186339E+00
        -11   -1    0    0    0    0  0.00000000000E+00  0.00000000000E+00  0.45593999997E+02  0.45594000000E+02  0.51100000000E-03 0.  1.
         11   -1    0    0    0    0 -0.00000000000E+00 -0.00000000000E+00 -0.45593999997E+02  0.45594000000E+02  0.51100000000E-03 0. -1.
    9900012    2    1    2    0    0  0.83251552972E+00  0.61637634531E+00  0.56565423686E+00  0.90007759930E+02  0.90000021561E+02 0.  0.
         12    1    1    2    0    0 -0.83251552972E+00 -0.61637634531E+00 -0.56565423686E+00  0.11802400696E+01  0.00000000000E+00 0. -1.
         11    1    3    3    0    0 -0.32546370495E+01  0.19487062516E+02  0.26467468474E+02  0.33028247842E+02  0.51100000000E-03 0. -1.
        -11    1    3    3    0    0  0.16882255960E+02  0.34681567510E+01  0.38258026193E+01  0.17654332145E+02  0.51100000000E-03 0.  1.
         12    1    3    3    0    0 -0.12795103381E+02 -0.22338842922E+02 -0.29727616857E+02  0.39325179943E+02  0.00000000000E+00 0. -1.
</event>
<event>
 7    1  0.1698110E-015  0.9000779E+02  0.7816164E-02  0.1186339E+00
        -11   -1    0    0    0    0  0.00000000000E+00  0.00000000000E+00  0.45593999997E+02  0.45594000000E+02  0.51100000000E-03 0. -1.
         11   -1    0    0    0    0 -0.00000000000E+00 -0.00000000000E+00 -0.45593999997E+02  0.45594000000E+02  0.51100000000E-03 0.  1.
    9900012    2    1    2    0    0 -0.87075920070E+00  0.12250383433E+00 -0.78718907407E+00  0.90007790098E+02  0.90000052127E+02 0.  0.
         12    1    1    2    0    0  0.87075920070E+00 -0.12250383433E+00  0.78718907407E+00  0.11802099023E+01  0.00000000000E+00 0. -1.
         11    1    3    3    0    0 -0.57593573294E+01 -0.88374714411E+01  0.10428069085E+02  0.14832927001E+02  0.51100000000E-03 0. -1.
        -11    1    3    3    0    0  0.14543581289E+02 -0.24071352020E+02 -0.25453832265E+02  0.37932088290E+02  0.51100000000E-03 0.  1.
         12    1    3    3    0    0 -0.96549831605E+01  0.33031327295E+02  0.14238574107E+02  0.37242774807E+02  0.00000000000E+00 0. -1.
</event>
<event>
 7    1  0.1698110E-015  0.9000781E+02  0.7816164E-02  0.1186339E+00
        -11   -1    0    0    0    0  0.00000000000E+00  0.00000000000E+00  0.45593999997E+02  0.45594000000E+02  0.51100000000E-03 0. -1.
         11   -1    0    0    0    0 -0.00000000000E+00 -0.00000000000E+00 -0.45593999997E+02  0.45594000000E+02  0.51100000000E-03 0.  1.
    9900012    2    1    2    0    0  0.58492236358E+00 -0.96176118228E+00 -0.35459629632E+00  0.90007806255E+02  0.90000068497E+02 0.  0.
         12    1    1    2    0    0 -0.58492236358E+00  0.96176118228E+00  0.35459629632E+00  0.11801937453E+01  0.00000000000E+00 0. -1.
         11    1    3    3    0    0 -0.27040157437E+02 -0.10787721025E+02  0.19387814180E+02  0.34977598232E+02  0.51100000000E-03 0. -1.
        -11    1    3    3    0    0 -0.53476094989E+01  0.78428874976E+01  0.75917663400E+01  0.12154946650E+02  0.51100000000E-03 0.  1.
        -12    1    3    3    0    0  0.32972689299E+02  0.19830723447E+01 -0.27334176816E+02  0.42875261373E+02  0.00000000000E+00 0.  1.
</event>
<event>
 7    1  0.1698110E-015  0.9000775E+02  0.7816164E-02  0.1186339E+00
        -11   -1    0    0    0    0  0.00000000000E+00  0.00000000000E+00  0.45593999997E+02  0.45594000000E+02  0.51100000000E-03 0. -1.
         11   -1    0    0    0    0 -0.00000000000E+00 -0.00000000000E+00 -0.45593999997E+02  0.45594000000E+02  0.51100000000E-03 0.  1.
    9900012    2    1    2    0    0 -0.90463575400E+00 -0.97394567528E-01 -0.75176108710E+00  0.90007747365E+02  0.90000008831E+02 0.  0.
         12    1    1    2    0    0  0.90463575400E+00  0.97394567528E-01  0.75176108710E+00  0.11802526345E+01  0.00000000000E+00 0. -1.
         11    1    3    3    0    0  0.24111054368E+01  0.59295567200E+01  0.50029098161E+01  0.81241725248E+01  0.51100000000E-03 0. -1.
        -11    1    3    3    0    0 -0.22018197575E+02  0.19075500925E+02 -0.30353352755E+02  0.42071389134E+02  0.51100000000E-03 0.  1.
         12    1    3    3    0    0  0.18702456384E+02 -0.25102452212E+02  0.24598681852E+02  0.39812185706E+02  0.00000000000E+00 0. -1.
</event>
<event>
 7    1  0.1698110E-015  0.9000776E+02  0.7816164E-02  0.1186339E+00
        -11   -1    0    0    0    0  0.00000000000E+00  0.00000000000E+00  0.45593999997E+02  0.45594000000E+02  0.51100000000E-03 0.  1.
         11   -1    0    0    0    0 -0.00000000000E+00 -0.00000000000E+00 -0.45593999997E+02  0.45594000000E+02  0.51100000000E-03 0. -1.
    9900012    2    1    2    0    0 -0.65107602876E+00  0.97388280332E+00 -0.14360944059E+00  0.90007757914E+02  0.90000019519E+02 0.  0.
         12    1    1    2    0    0  0.65107602876E+00 -0.97388280332E+00  0.14360944059E+00  0.11802420859E+01  0.00000000000E+00 0. -1.
         11    1    3    3    0    0  0.21820057364E+01 -0.39300394905E+01 -0.80353242196E+01  0.92072142913E+01  0.51100000000E-03 0. -1.
        -11    1    3    3    0    0 -0.36212545133E+02 -0.13056162559E+02  0.16579865250E+02  0.41913049731E+02  0.51100000000E-03 0.  1.
         12    1    3    3    0    0  0.33379463368E+02  0.17960084852E+02 -0.86881504708E+01  0.38887493892E+02  0.00000000000E+00 0. -1.
</event>
<event>
 7    1  0.1698110E-015  0.9000771E+02  0.7816164E-02  0.1186339E+00
        -11   -1    0    0    0    0  0.00000000000E+00  0.00000000000E+00  0.45593999997E+02  0.45594000000E+02  0.51100000000E-03 0. -1.
         11   -1    0    0    0    0 -0.00000000000E+00 -0.00000000000E+00 -0.45593999997E+02  0.45594000000E+02  0.51100000000E-03 0.  1.
    9900012    2    1    2    0    0 -0.96691037671E+00 -0.52117511261E+00  0.43190893922E+00  0.90007709991E+02  0.89999970962E+02 0.  0.
         12    1    1    2    0    0  0.96691037671E+00  0.52117511261E+00 -0.43190893922E+00  0.11802900094E+01  0.00000000000E+00 0. -1.
         11    1    3    3    0    0  0.53722376993E+01 -0.30469405164E+01 -0.74272255513E+01  0.96596306378E+01  0.51100000000E-03 0. -1.
        -11    1    3    3    0    0 -0.26069876524E+02  0.23234294281E+02 -0.20147898704E+02  0.40316357910E+02  0.51100000000E-03 0.  1.
         12    1    3    3    0    0  0.19730728448E+02 -0.20708528877E+02  0.28007033194E+02  0.40031721443E+02  0.00000000000E+00 0. -1.
</event>
<event>
 7    1  0.1698110E-015  0.9000768E+02  0.7816164E-02  0.1186339E+00
        -11   -1    0    0    0    0  0.00000000000E+00  0.00000000000E+00  0.45593999997E+02  0.45594000000E+02  0.51100000000E-03 0.  1.
         11   -1    0    0    0    0 -0.00000000000E+00 -0.00000000000E+00 -0.45593999997E+02  0.45594000000E+02  0.51100000000E-03 0. -1.
    9900012    2    1    2    0    0 -0.74638079257E+00 -0.80447878503E+00 -0.43461837365E+00  0.90007676513E+02  0.89999937043E+02 0.  0.
         12    1    1    2    0    0  0.74638079257E+00  0.80447878503E+00  0.43461837365E+00  0.11803234869E+01  0.00000000000E+00 0. -1.
         11    1    3    3    0    0 -0.21576401374E+01  0.34602896391E+01 -0.37929366879E+01  0.55691457449E+01  0.51100000000E-03 0. -1.
        -11    1    3    3    0    0 -0.32041527573E+02  0.22835780840E+02 -0.74605013996E+01  0.40047365172E+02  0.51100000000E-03 0.  1.
         12    1    3    3    0    0  0.33452786918E+02 -0.27100549264E+02  0.10818819714E+02  0.44391165596E+02  0.00000000000E+00 0. -1.
</event>
<event>
 7    1  0.1698110E-015  0.9000779E+02  0.7816164E-02  0.1186339E+00
        -11   -1    0    0    0    0  0.00000000000E+00  0.00000000000E+00  0.45593999997E+02  0.45594000000E+02  0.51100000000E-03 0. -1.
         11   -1    0    0    0    0 -0.00000000000E+00 -0.00000000000E+00 -0.45593999997E+02  0.45594000000E+02  0.51100000000E-03 0.  1.
    9900012    2    1    2    0    0 -0.79508619382E+00 -0.48079212444E+00 -0.72771414476E+00  0.90007791968E+02  0.90000054022E+02 0.  0.
         12    1    1    2    0    0  0.79508619382E+00  0.48079212444E+00  0.72771414476E+00  0.11802080321E+01  0.00000000000E+00 0. -1.
         11    1    3    3    0    0  0.20814874391E+01  0.72928817549E+01  0.36734495557E+01  0.84269179508E+01  0.51100000000E-03 0. -1.
        -11    1    3    3    0    0 -0.17943040765E+02  0.21811568625E+02 -0.28831598333E+02  0.40360355555E+02  0.51100000000E-03 0.  1.
         12    1    3    3    0    0  0.15066467133E+02 -0.29585242505E+02  0.24430434633E+02  0.41220518462E+02  0.00000000000E+00 0. -1.
</event>
<event>
 7    1  0.1698110E-015  0.9000772E+02  0.7816164E-02  0.1186339E+00
        -11   -1    0    0    0    0  0.00000000000E+00  0.00000000000E+00  0.45593999997E+02  0.45594000000E+02  0.51100000000E-03 0.  1.
         11   -1    0    0    0    0 -0.00000000000E+00 -0.00000000000E+00 -0.45593999997E+02  0.45594000000E+02  0.51100000000E-03 0. -1.
    9900012    2    1    2    0    0 -0.14190178361E+00 -0.11487128950E+01  0.23104868548E+00  0.90007719980E+02  0.89999981083E+02 0.  0.
         12    1    1    2    0    0  0.14190178361E+00  0.11487128950E+01 -0.23104868548E+00  0.11802800203E+01  0.00000000000E+00 0. -1.
         11    1    3    3    0    0  0.42200572672E+01  0.18447408816E+02  0.66306124555E+01  0.20051952452E+02  0.51100000000E-03 0. -1.
        -11    1    3    3    0    0 -0.23900480668E+02  0.49846913054E+01  0.17881532348E+02  0.30262672105E+02  0.51100000000E-03 0.  1.
         12    1    3    3    0    0  0.19538521617E+02 -0.24580813016E+02 -0.24281096118E+02  0.39693095422E+02  0.00000000000E+00 0. -1.
</event>
<event>
 7    1  0.1698110E-015  0.9000777E+02  0.7816164E-02  0.1186339E+00
        -11   -1    0    0    0    0  0.00000000000E+00  0.00000000000E+00  0.45593999997E+02  0.45594000000E+02  0.51100000000E-03 0. -1.
         11   -1    0    0    0    0 -0.00000000000E+00 -0.00000000000E+00 -0.45593999997E+02  0.45594000000E+02  0.51100000000E-03 0.  1.
    9900012    2    1    2    0    0  0.10300628291E+01 -0.46899939433E+00 -0.33459956492E+00  0.90007768356E+02  0.90000030099E+02 0.  0.
         12    1    1    2    0    0 -0.10300628291E+01  0.46899939433E+00  0.33459956492E+00  0.11802316436E+01  0.00000000000E+00 0. -1.
         11    1    3    3    0    0 -0.90711113133E+01  0.80804290769E+00 -0.30063280081E+01  0.95904119908E+01  0.51100000000E-03 0. -1.
        -11    1    3    3    0    0 -0.34760077581E+02 -0.59116897820E+01  0.43438027110E+00  0.35261873971E+02  0.51100000000E-03 0.  1.
         12    1    3    3    0    0  0.44861251723E+02  0.46346474800E+01  0.22373481721E+01  0.45155482394E+02  0.00000000000E+00 0. -1.
</event>
<event>
 7    1  0.1698110E-015  0.9000792E+02  0.7816164E-02  0.1186339E+00
        -11   -1    0    0    0    0  0.00000000000E+00  0.00000000000E+00  0.45593999997E+02  0.45594000000E+02  0.51100000000E-03 0. -1.
         11   -1    0    0    0    0 -0.00000000000E+00 -0.00000000000E+00 -0.45593999997E+02  0.45594000000E+02  0.51100000000E-03 0.  1.
    9900012    2    1    2    0    0  0.48687003629E+00  0.94653649065E+00  0.50953488914E+00  0.90007915442E+02  0.90000179126E+02 0.  0.
         12    1    1    2    0    0 -0.48687003629E+00 -0.94653649065E+00 -0.50953488914E+00  0.11800845578E+01  0.00000000000E+00 0. -1.
         11    1    3    3    0    0 -0.17731595664E+01  0.12611380993E+02  0.35166662749E+01  0.13212038728E+02  0.51100000000E-03 0. -1.
        -11    1    3    3    0    0  0.19245231581E+02  0.27388057709E+02  0.37253521178E+01  0.33680304220E+02  0.51100000000E-03 0.  1.
         12    1    3    3    0    0 -0.16985201978E+02 -0.39052902211E+02 -0.67324835035E+01  0.43115572494E+02  0.00000000000E+00 0. -1.
</event>
<event>
 7    1  0.1698110E-015  0.9000781E+02  0.7816164E-02  0.1186339E+00
        -11   -1    0    0    0    0  0.00000000000E+00  0.00000000000E+00  0.45593999997E+02  0.45594000000E+02  0.51100000000E-03 0. -1.
         11   -1    0    0    0    0 -0.00000000000E+00 -0.00000000000E+00 -0.45593999997E+02  0.45594000000E+02  0.51100000000E-03 0.  1.
    9900012    2    1    2    0    0 -0.77518196433E+00  0.44143178305E+00 -0.77270943711E+00  0.90007809773E+02  0.90000072062E+02 0.  0.
         12    1    1    2    0    0  0.77518196433E+00 -0.44143178305E+00  0.77270943711E+00  0.11801902267E+01  0.00000000000E+00 0. -1.
         11    1    3    3    0    0 -0.35537897765E+02  0.79034912234E+01 -0.22889082804E+02  0.43003691271E+02  0.51100000000E-03 0. -1.
        -11    1    3    3    0    0  0.69284153586E+01 -0.44402738372E+01 -0.36056014899E+01  0.89843938858E+01  0.51100000000E-03 0.  1.
        -12    1    3    3    0    0  0.27834300442E+02 -0.30217856032E+01  0.25721974857E+02  0.38019724616E+02  0.00000000000E+00 0.  1.
</event>
<event>
 7    1  0.1698110E-015  0.9000773E+02  0.7816164E-02  0.1186339E+00
        -11   -1    0    0    0    0  0.00000000000E+00  0.00000000000E+00  0.45593999997E+02  0.45594000000E+02  0.51100000000E-03 0. -1.
         11   -1    0    0    0    0 -0.00000000000E+00 -0.00000000000E+00 -0.45593999997E+02  0.45594000000E+02  0.51100000000E-03 0.  1.
    9900012    2    1    2    0    0 -0.96737647146E+00  0.25434733713E+00  0.62651278439E+00  0.90007733897E+02  0.89999995184E+02 0.  0.
         12    1    1    2    0    0  0.96737647146E+00 -0.25434733713E+00 -0.62651278439E+00  0.11802661032E+01  0.00000000000E+00 0. -1.
         11    1    3    3    0    0  0.31832755494E+01 -0.26449351363E+02  0.34056512735E+02  0.43238264195E+02  0.51100000000E-03 0. -1.
        -11    1    3    3    0    0  0.46450721157E+01  0.76449066935E+01 -0.23218282443E+01  0.92418710211E+01  0.51100000000E-03 0.  1.
        -12    1    3    3    0    0 -0.87957241366E+01  0.19058792006E+02 -0.31108171706E+02  0.37527598680E+02  0.00000000000E+00 0.  1.
</event>
<event>
 7    1  0.1698110E-015  0.9000774E+02  0.7816164E-02  0.1186339E+00
        -11   -1    0    0    0    0  0.00000000000E+00  0.00000000000E+00  0.45593999997E+02  0.45594000000E+02  0.51100000000E-03 0. -1.
         11   -1    0    0    0    0 -0.00000000000E+00 -0.00000000000E+00 -0.45593999997E+02  0.45594000000E+02  0.51100000000E-03 0.  1.
    9900012    2    1    2    0    0  0.95803206470E+00  0.68780212582E+00 -0.45987005580E-01  0.90007740704E+02  0.90000002081E+02 0.  0.
         12    1    1    2    0    0 -0.95803206470E+00 -0.68780212582E+00  0.45987005580E-01  0.11802592961E+01  0.00000000000E+00 0. -1.
         11    1    3    3    0    0  0.40513635066E+01 -0.96274158424E+01  0.27752736953E+02  0.29653247557E+02  0.51100000000E-03 0. -1.
        -11    1    3    3    0    0  0.33139839969E+01 -0.19649157443E+02 -0.15147576977E+01  0.19984152954E+02  0.51100000000E-03 0.  1.
        -12    1    3    3    0    0 -0.64073154388E+01  0.29964375411E+02 -0.26283966261E+02  0.40370340193E+02  0.00000000000E+00 0.  1.
</event>
<event>
 7    1  0.1698110E-015  0.9000755E+02  0.7816164E-02  0.1186339E+00
        -11   -1    0    0    0    0  0.00000000000E+00  0.00000000000E+00  0.45593999997E+02  0.45594000000E+02  0.51100000000E-03 0.  1.
         11   -1    0    0    0    0 -0.00000000000E+00 -0.00000000000E+00 -0.45593999997E+02  0.45594000000E+02  0.51100000000E-03 0. -1.
    9900012    2    1    2    0    0 -0.72787893581E+00 -0.67673673271E+00  0.63692711189E+00  0.90007552417E+02  0.89999811309E+02 0.  0.
         12    1    1    2    0    0  0.72787893581E+00  0.67673673271E+00 -0.63692711189E+00  0.11804475831E+01  0.00000000000E+00 0. -1.
         11    1    3    3    0    0  0.85785062130E+01  0.26189612641E+01 -0.10020432129E+02  0.13448374893E+02  0.51100000000E-03 0. -1.
        -11    1    3    3    0    0  0.81525517475E+01 -0.33569316299E+02 -0.99998067595E+01  0.35963303967E+02  0.51100000000E-03 0.  1.
         12    1    3    3    0    0 -0.17458936896E+02  0.30273618302E+02  0.20657166001E+02  0.40595873556E+02  0.00000000000E+00 0. -1.
</event>
<event>
 7    1  0.1698110E-015  0.9000776E+02  0.7816164E-02  0.1186339E+00
        -11   -1    0    0    0    0  0.00000000000E+00  0.00000000000E+00  0.45593999997E+02  0.45594000000E+02  0.51100000000E-03 0.  1.
         11   -1    0    0    0    0 -0.00000000000E+00 -0.00000000000E+00 -0.45593999997E+02  0.45594000000E+02  0.51100000000E-03 0. -1.
    9900012    2    1    2    0    0 -0.32787070318E+00  0.49144164542E+00  0.10217436587E+01  0.90007756723E+02  0.90000018312E+02 0.  0.
         12    1    1    2    0    0  0.32787070318E+00 -0.49144164542E+00 -0.10217436587E+01  0.11802432771E+01  0.00000000000E+00 0. -1.
         11    1    3    3    0    0  0.84351357686E+01  0.19998632912E+02 -0.31011705113E+02  0.37852644400E+02  0.51100000000E-03 0. -1.
        -11    1    3    3    0    0 -0.64229431853E+01  0.65717875457E+00 -0.61463364698E+01  0.89142321788E+01  0.51100000000E-03 0.  1.
        -12    1    3    3    0    0 -0.23400632865E+01 -0.20164370021E+02  0.38179785242E+02  0.43240880144E+02  0.00000000000E+00 0.  1.
</event>
<event>
 7    1  0.1698110E-015  0.9000774E+02  0.7816164E-02  0.1186339E+00
        -11   -1    0    0    0    0  0.00000000000E+00  0.00000000000E+00  0.45593999997E+02  0.45594000000E+02  0.51100000000E-03 0.  1.
         11   -1    0    0    0    0 -0.00000000000E+00 -0.00000000000E+00 -0.45593999997E+02  0.45594000000E+02  0.51100000000E-03 0. -1.
    9900012    2    1    2    0    0  0.31439080333E+00 -0.89173524647E+00  0.70637965979E+00  0.90007743439E+02  0.90000004852E+02 0.  0.
         12    1    1    2    0    0 -0.31439080333E+00  0.89173524647E+00 -0.70637965979E+00  0.11802565614E+01  0.00000000000E+00 0. -1.
         11    1    3    3    0    0 -0.19525365303E+02 -0.33818451102E+02 -0.10305546612E+02  0.40387272951E+02  0.51100000000E-03 0. -1.
        -11    1    3    3    0    0  0.13346956403E+02 -0.14141569999E+01  0.35557178083E+01  0.13884675533E+02  0.51100000000E-03 0.  1.
        -12    1    3    3    0    0  0.64927997031E+01  0.34340872855E+02  0.74562084636E+01  0.35735794955E+02  0.00000000000E+00 0.  1.
</event>
<event>
 8    1  0.1698110E-015  0.9000766E+02  0.7816164E-02  0.1186339E+00
        -11   -1    0    0    0    0  0.00000000000E+00  0.00000000000E+00  0.45593999997E+02  0.45594000000E+02  0.51100000000E-03 0. -1.
         11   -1    0    0    0    0 -0.00000000000E+00 -0.00000000000E+00 -0.45593999997E+02  0.45594000000E+02  0.51100000000E-03 0.  1.
    9900012    2    1    2    0    0  0.95228511185E+00 -0.69707623655E+00 -0.21081471357E-01  0.90007658252E+02  0.89999918541E+02 0.  0.
         23    2    3    3    0    0  0.93783764146E+01 -0.62222102922E+01  0.23235936368E+02  0.64661751290E+02  0.59283754063E+02 0.  0.
         12    1    1    2    0    0 -0.95228511185E+00  0.69707623655E+00  0.21081471357E-01  0.11803417481E+01  0.00000000000E+00 0. -1.
         11    1    4    4    0    0  0.22422075240E+02  0.10782254678E+02  0.32820698379E+02  0.41185005965E+02  0.51100000000E-03 0. -1.
        -11    1    4    4    0    0 -0.13043698826E+02 -0.17004464970E+02 -0.95847620110E+01  0.23476745324E+02  0.51100000000E-03 0.  1.
        -12    1    3    3    0    0 -0.84260913027E+01  0.55251340556E+01 -0.23257017839E+02  0.25345906962E+02  0.00000000000E+00 0.  1.
</event>
<event>
 7    1  0.1698110E-015  0.9000766E+02  0.7816164E-02  0.1186339E+00
        -11   -1    0    0    0    0  0.00000000000E+00  0.00000000000E+00  0.45593999997E+02  0.45594000000E+02  0.51100000000E-03 0.  1.
         11   -1    0    0    0    0 -0.00000000000E+00 -0.00000000000E+00 -0.45593999997E+02  0.45594000000E+02  0.51100000000E-03 0. -1.
    9900012    2    1    2    0    0 -0.79607836286E+00  0.34856819424E+00  0.79872720279E+00  0.90007658655E+02  0.89999918949E+02 0.  0.
         12    1    1    2    0    0  0.79607836286E+00 -0.34856819424E+00 -0.79872720279E+00  0.11803413448E+01  0.00000000000E+00 0. -1.
         11    1    3    3    0    0  0.30480999643E+02 -0.73898982543E+01 -0.25301763452E+02  0.40297408968E+02  0.51100000000E-03 0. -1.
        -11    1    3    3    0    0 -0.72431624319E+01 -0.65753449843E+01 -0.20820642231E+01  0.10001677628E+02  0.51100000000E-03 0.  1.
        -12    1    3    3    0    0 -0.24033915574E+02  0.14313811433E+02  0.28182554878E+02  0.39708572060E+02  0.00000000000E+00 0.  1.
</event>
<event>
 7    1  0.1698110E-015  0.9000771E+02  0.7816164E-02  0.1186339E+00
        -11   -1    0    0    0    0  0.00000000000E+00  0.00000000000E+00  0.45593999997E+02  0.45594000000E+02  0.51100000000E-03 0.  1.
         11   -1    0    0    0    0 -0.00000000000E+00 -0.00000000000E+00 -0.45593999997E+02  0.45594000000E+02  0.51100000000E-03 0. -1.
    9900012    2    1    2    0    0 -0.78995403742E+00  0.87694521711E+00 -0.46473188715E-02  0.90007711098E+02  0.89999972084E+02 0.  0.
         12    1    1    2    0    0  0.78995403742E+00 -0.87694521711E+00  0.46473188715E-02  0.11802889022E+01  0.00000000000E+00 0. -1.
         11    1    3    3    0    0 -0.65662158511E+00 -0.96500273032E+01 -0.42657233480E+01  0.10571214443E+02  0.51100000000E-03 0. -1.
        -11    1    3    3    0    0  0.34655282696E+02  0.94616444757E+01 -0.15821319465E+02  0.39253349982E+02  0.51100000000E-03 0.  1.
         12    1    3    3    0    0 -0.34788615148E+02  0.10653280447E+01  0.20082395494E+02  0.40183146673E+02  0.00000000000E+00 0. -1.
</event>
<event>
 7    1  0.1698110E-015  0.9000783E+02  0.7816164E-02  0.1186339E+00
        -11   -1    0    0    0    0  0.00000000000E+00  0.00000000000E+00  0.45593999997E+02  0.45594000000E+02  0.51100000000E-03 0.  1.
         11   -1    0    0    0    0 -0.00000000000E+00 -0.00000000000E+00 -0.45593999997E+02  0.45594000000E+02  0.51100000000E-03 0. -1.
    9900012    2    1    2    0    0 -0.61657697158E+00 -0.49733651690E+00  0.87480734243E+00  0.90007831089E+02  0.90000093659E+02 0.  0.
         12    1    1    2    0    0  0.61657697158E+00  0.49733651690E+00 -0.87480734243E+00  0.11801689113E+01  0.00000000000E+00 0. -1.
         11    1    3    3    0    0 -0.24849069977E+00 -0.81628196930E+01  0.41248598542E+01  0.91491989839E+01  0.51100000000E-03 0. -1.
        -11    1    3    3    0    0 -0.22819742608E+02  0.35002540492E+02 -0.13699327681E+02  0.43972605936E+02  0.51100000000E-03 0.  1.
         12    1    3    3    0    0  0.22451656336E+02 -0.27337057316E+02  0.10449275170E+02  0.36886026169E+02  0.00000000000E+00 0. -1.
</event>
<event>
 7    1  0.1698110E-015  0.9000773E+02  0.7816164E-02  0.1186339E+00
        -11   -1    0    0    0    0  0.00000000000E+00  0.00000000000E+00  0.45593999997E+02  0.45594000000E+02  0.51100000000E-03 0. -1.
         11   -1    0    0    0    0 -0.00000000000E+00 -0.00000000000E+00 -0.45593999997E+02  0.45594000000E+02  0.51100000000E-03 0.  1.
    9900012    2    1    2    0    0  0.10661449193E+01  0.50582894141E+00 -0.22516746567E-01  0.90007731001E+02  0.89999992250E+02 0.  0.
         12    1    1    2    0    0 -0.10661449193E+01 -0.50582894141E+00  0.22516746567E-01  0.11802689993E+01  0.00000000000E+00 0. -1.
         11    1    3    3    0    0 -0.30838180393E+02  0.22254278331E+02  0.71974246655E+01  0.38704640497E+02  0.51100000000E-03 0. -1.
        -11    1    3    3    0    0 -0.20431996287E+01  0.38139993157E+01 -0.76687334531E+01  0.88051535216E+01  0.51100000000E-03 0.  1.
        -12    1    3    3    0    0  0.33947524941E+02 -0.25562448705E+02  0.44879204105E+00  0.42497936982E+02  0.00000000000E+00 0.  1.
</event>
<event>
 7    1  0.1698110E-015  0.9000770E+02  0.7816164E-02  0.1186339E+00
        -11   -1    0    0    0    0  0.00000000000E+00  0.00000000000E+00  0.45593999997E+02  0.45594000000E+02  0.51100000000E-03 0.  1.
         11   -1    0    0    0    0 -0.00000000000E+00 -0.00000000000E+00 -0.45593999997E+02  0.45594000000E+02  0.51100000000E-03 0. -1.
    9900012    2    1    2    0    0  0.89373301239E+00 -0.21108545630E+00  0.74147438481E+00  0.90007703414E+02  0.89999964299E+02 0.  0.
         12    1    1    2    0    0 -0.89373301239E+00  0.21108545630E+00 -0.74147438481E+00  0.11802965859E+01  0.00000000000E+00 0. -1.
         11    1    3    3    0    0 -0.28264416989E+01 -0.23398902980E+02 -0.30354618780E+02  0.38430460769E+02  0.51100000000E-03 0. -1.
        -11    1    3    3    0    0 -0.10706766523E+02 -0.18805328549E+01  0.30533426490E+01  0.11291330957E+02  0.51100000000E-03 0.  1.
        -12    1    3    3    0    0  0.14426941234E+02  0.25068350378E+02  0.28042750516E+02  0.40285911688E+02  0.00000000000E+00 0.  1.
</event>
<event>
 7    1  0.1698110E-015  0.9000779E+02  0.7816164E-02  0.1186339E+00
        -11   -1    0    0    0    0  0.00000000000E+00  0.00000000000E+00  0.45593999997E+02  0.45594000000E+02  0.51100000000E-03 0.  1.
         11   -1    0    0    0    0 -0.00000000000E+00 -0.00000000000E+00 -0.45593999997E+02  0.45594000000E+02  0.51100000000E-03 0. -1.
    9900012    2    1    2    0    0 -0.83771758790E+00 -0.64589808799E+00  0.52339448808E+00  0.90007789473E+02  0.90000051494E+02 0.  0.
         12    1    1    2    0    0  0.83771758790E+00  0.64589808799E+00 -0.52339448808E+00  0.11802105267E+01  0.00000000000E+00 0. -1.
         11    1    3    3    0    0 -0.11659188604E+02 -0.10975708948E+02  0.16674828214E+02  0.23118234406E+02  0.51100000000E-03 0. -1.
        -11    1    3    3    0    0 -0.49436853279E+01 -0.67022675742E+01  0.21277394520E+02  0.22849243600E+02  0.51100000000E-03 0.  1.
         12    1    3    3    0    0  0.15765156344E+02  0.17032078434E+02 -0.37428828246E+02  0.44040311468E+02  0.00000000000E+00 0. -1.
</event>
<event>
 7    1  0.1698110E-015  0.9000778E+02  0.7816164E-02  0.1186339E+00
        -11   -1    0    0    0    0  0.00000000000E+00  0.00000000000E+00  0.45593999997E+02  0.45594000000E+02  0.51100000000E-03 0.  1.
         11   -1    0    0    0    0 -0.00000000000E+00 -0.00000000000E+00 -0.45593999997E+02  0.45594000000E+02  0.51100000000E-03 0. -1.
    9900012    2    1    2    0    0  0.11516888258E+01 -0.15458583074E+00  0.20647217435E+00  0.90007781931E+02  0.90000043853E+02 0.  0.
         12    1    1    2    0    0 -0.11516888258E+01  0.15458583074E+00 -0.20647217435E+00  0.11802180686E+01  0.00000000000E+00 0. -1.
         11    1    3    3    0    0 -0.14498319066E+02  0.26247912902E+02 -0.19896748164E+02  0.35986591604E+02  0.51100000000E-03 0. -1.
        -11    1    3    3    0    0  0.60404271928E+01  0.10404169600E+02  0.36221368426E+01  0.12563971557E+02  0.51100000000E-03 0.  1.
        -12    1    3    3    0    0  0.96095806995E+01 -0.36806668333E+02  0.16481083496E+02  0.41457218770E+02  0.00000000000E+00 0.  1.
</event>
<event>
 7    1  0.1698110E-015  0.9000764E+02  0.7816164E-02  0.1186339E+00
        -11   -1    0    0    0    0  0.00000000000E+00  0.00000000000E+00  0.45593999997E+02  0.45594000000E+02  0.51100000000E-03 0.  1.
         11   -1    0    0    0    0 -0.00000000000E+00 -0.00000000000E+00 -0.45593999997E+02  0.45594000000E+02  0.51100000000E-03 0. -1.
    9900012    2    1    2    0    0  0.58934602166E+00 -0.10189239499E+01 -0.87859417012E-01  0.90007638180E+02  0.89999898204E+02 0.  0.
         12    1    1    2    0    0 -0.58934602166E+00  0.10189239499E+01  0.87859417012E-01  0.11803618200E+01  0.00000000000E+00 0. -1.
         11    1    3    3    0    0  0.17111981341E+02 -0.24478198576E+02 -0.74660756322E+01  0.30785457550E+02  0.51100000000E-03 0. -1.
        -11    1    3    3    0    0 -0.13790181530E+02 -0.14896520502E+02  0.30180769746E+01  0.20522773170E+02  0.51100000000E-03 0.  1.
        -12    1    3    3    0    0 -0.27324537893E+01  0.38355795128E+02  0.43601392406E+01  0.38699407461E+02  0.00000000000E+00 0.  1.
</event>
<event>
 7    1  0.1698110E-015  0.9000770E+02  0.7816164E-02  0.1186339E+00
        -11   -1    0    0    0    0  0.00000000000E+00  0.00000000000E+00  0.45593999997E+02  0.45594000000E+02  0.51100000000E-03 0. -1.
         11   -1    0    0    0    0 -0.00000000000E+00 -0.00000000000E+00 -0.45593999997E+02  0.45594000000E+02  0.51100000000E-03 0.  1.
    9900012    2    1    2    0    0 -0.10604845194E+01  0.51254967115E+00  0.75997538019E-01  0.90007699103E+02  0.89999959931E+02 0.  0.
         12    1    1    2    0    0  0.10604845194E+01 -0.51254967115E+00 -0.75997538019E-01  0.11803008968E+01  0.00000000000E+00 0. -1.
         11    1    3    3    0    0 -0.12179668671E+02  0.13688715683E+01  0.17504196261E+01  0.12380715143E+02  0.51100000000E-03 0. -1.
        -11    1    3    3    0    0  0.90561360044E+01  0.29384686936E+02 -0.24798358656E+02  0.39502303958E+02  0.51100000000E-03 0.  1.
         12    1    3    3    0    0  0.20630481477E+01 -0.30241008833E+02  0.23123936568E+02  0.38124680003E+02  0.00000000000E+00 0. -1.
</event>
<event>
 7    1  0.1698110E-015  0.9000758E+02  0.7816164E-02  0.1186339E+00
        -11   -1    0    0    0    0  0.00000000000E+00  0.00000000000E+00  0.45593999997E+02  0.45594000000E+02  0.51100000000E-03 0.  1.
         11   -1    0    0    0    0 -0.00000000000E+00 -0.00000000000E+00 -0.45593999997E+02  0.45594000000E+02  0.51100000000E-03 0. -1.
    9900012    2    1    2    0    0 -0.72044450578E+00  0.59175675517E+00  0.72400433266E+00  0.90007576933E+02  0.89999836148E+02 0.  0.
         12    1    1    2    0    0  0.72044450578E+00 -0.59175675517E+00 -0.72400433266E+00  0.11804230669E+01  0.00000000000E+00 0. -1.
         11    1    3    3    0    0 -0.25762922707E+02 -0.16259356503E+02 -0.20591223137E+02  0.36770821732E+02  0.51100000000E-03 0. -1.
        -11    1    3    3    0    0 -0.53555077482E+01 -0.75260996047E+01  0.74880201731E+01  0.11890924475E+02  0.51100000000E-03 0.  1.
        -12    1    3    3    0    0  0.30397985950E+02  0.24377212863E+02  0.13827207296E+02  0.41345830726E+02  0.00000000000E+00 0.  1.
</event>
<event>
 7    1  0.1698110E-015  0.9000775E+02  0.7816164E-02  0.1186339E+00
        -11   -1    0    0    0    0  0.00000000000E+00  0.00000000000E+00  0.45593999997E+02  0.45594000000E+02  0.51100000000E-03 0. -1.
         11   -1    0    0    0    0 -0.00000000000E+00 -0.00000000000E+00 -0.45593999997E+02  0.45594000000E+02  0.51100000000E-03 0.  1.
    9900012    2    1    2    0    0  0.88293518808E+00  0.47082382558E+00 -0.62589499252E+00  0.90007748263E+02  0.90000009740E+02 0.  0.
         12    1    1    2    0    0 -0.88293518808E+00 -0.47082382558E+00  0.62589499252E+00  0.11802517370E+01  0.00000000000E+00 0. -1.
         11    1    3    3    0    0 -0.35517703595E+02  0.10637761690E+02 -0.12998956919E+02  0.39289211289E+02  0.51100000000E-03 0. -1.
        -11    1    3    3    0    0 -0.16588110934E+01  0.41138291604E+01  0.88701564275E+01  0.99174048982E+01  0.51100000000E-03 0.  1.
        -12    1    3    3    0    0  0.38059449877E+02 -0.14280767025E+02  0.35029054990E+01  0.40801132076E+02  0.00000000000E+00 0.  1.
</event>
<event>
 7    1  0.1698110E-015  0.9000774E+02  0.7816164E-02  0.1186339E+00
        -11   -1    0    0    0    0  0.00000000000E+00  0.00000000000E+00  0.45593999997E+02  0.45594000000E+02  0.51100000000E-03 0.  1.
         11   -1    0    0    0    0 -0.00000000000E+00 -0.00000000000E+00 -0.45593999997E+02  0.45594000000E+02  0.51100000000E-03 0. -1.
    9900012    2    1    2    0    0  0.87459285093E+00 -0.65831576600E+00  0.44128575735E+00  0.90007735020E+02  0.89999996323E+02 0.  0.
         12    1    1    2    0    0 -0.87459285093E+00  0.65831576600E+00 -0.44128575735E+00  0.11802649797E+01  0.00000000000E+00 0. -1.
         11    1    3    3    0    0 -0.17902159405E+02 -0.25280587833E+02 -0.24873175570E+02  0.39727450154E+02  0.51100000000E-03 0. -1.
        -11    1    3    3    0    0  0.12418140319E+02 -0.47125256969E+01  0.59065881202E+01  0.14536364433E+02  0.51100000000E-03 0.  1.
        -12    1    3    3    0    0  0.63586119362E+01  0.29334797764E+02  0.19407873207E+02  0.35743920434E+02  0.00000000000E+00 0.  1.
</event>
<event>
 7    1  0.1698110E-015  0.9000761E+02  0.7816164E-02  0.1186339E+00
        -11   -1    0    0    0    0  0.00000000000E+00  0.00000000000E+00  0.45593999997E+02  0.45594000000E+02  0.51100000000E-03 0.  1.
         11   -1    0    0    0    0 -0.00000000000E+00 -0.00000000000E+00 -0.45593999997E+02  0.45594000000E+02  0.51100000000E-03 0. -1.
    9900012    2    1    2    0    0  0.55440628747E+00 -0.14475820202E+00  0.10319885379E+01  0.90007609551E+02  0.89999869197E+02 0.  0.
         12    1    1    2    0    0 -0.55440628747E+00  0.14475820202E+00 -0.10319885379E+01  0.11803904485E+01  0.00000000000E+00 0. -1.
         11    1    3    3    0    0 -0.17278214244E+02 -0.11961082137E+02 -0.30717990623E+02  0.37218263279E+02  0.51100000000E-03 0. -1.
        -11    1    3    3    0    0  0.54088614225E+01  0.41676618739E+01 -0.79580187649E+01  0.10485954907E+02  0.51100000000E-03 0.  1.
        -12    1    3    3    0    0  0.12423759109E+02  0.76486620608E+01  0.39707997926E+02  0.42303391365E+02  0.00000000000E+00 0.  1.
</event>
<event>
 7    1  0.1698110E-015  0.9000770E+02  0.7816164E-02  0.1186339E+00
        -11   -1    0    0    0    0  0.00000000000E+00  0.00000000000E+00  0.45593999997E+02  0.45594000000E+02  0.51100000000E-03 0.  1.
         11   -1    0    0    0    0 -0.00000000000E+00 -0.00000000000E+00 -0.45593999997E+02  0.45594000000E+02  0.51100000000E-03 0. -1.
    9900012    2    1    2    0    0 -0.74153488351E+00 -0.62675812880E+00  0.67112519747E+00  0.90007699714E+02  0.89999960550E+02 0.  0.
         12    1    1    2    0    0  0.74153488351E+00  0.62675812880E+00 -0.67112519747E+00  0.11803002864E+01  0.00000000000E+00 0. -1.
         11    1    3    3    0    0 -0.29484850956E+01  0.10113706781E+02 -0.40454521279E+00  0.10542499054E+02  0.51100000000E-03 0. -1.
        -11    1    3    3    0    0  0.48071963528E+01  0.82519455481E+01 -0.36259629930E+02  0.37496193207E+02  0.51100000000E-03 0.  1.
         12    1    3    3    0    0 -0.26002461407E+01 -0.18992410458E+02  0.37335300341E+02  0.41969007452E+02  0.00000000000E+00 0. -1.
</event>
<event>
 7    1  0.1698110E-015  0.9000809E+02  0.7816164E-02  0.1186338E+00
        -11   -1    0    0    0    0  0.00000000000E+00  0.00000000000E+00  0.45593999997E+02  0.45594000000E+02  0.51100000000E-03 0.  1.
         11   -1    0    0    0    0 -0.00000000000E+00 -0.00000000000E+00 -0.45593999997E+02  0.45594000000E+02  0.51100000000E-03 0. -1.
    9900012    2    1    2    0    0  0.11152773099E+01  0.33882582853E+00 -0.18315351275E+00  0.90008088296E+02  0.90000354261E+02 0.  0.
         12    1    1    2    0    0 -0.11152773099E+01 -0.33882582853E+00  0.18315351275E+00  0.11799117040E+01  0.00000000000E+00 0. -1.
         11    1    3    3    0    0  0.93131438318E+01 -0.31908486898E+01  0.17349975444E+01  0.99963183289E+01  0.51100000000E-03 0. -1.
        -11    1    3    3    0    0  0.29924602845E+02  0.35735273821E+01 -0.21628734489E+02  0.37095203318E+02  0.51100000000E-03 0.  1.
         12    1    3    3    0    0 -0.38122469367E+02 -0.43852863742E-01  0.19710583432E+02  0.42916566649E+02  0.00000000000E+00 0. -1.
</event>
<event>
 7    1  0.1698110E-015  0.9000776E+02  0.7816164E-02  0.1186339E+00
        -11   -1    0    0    0    0  0.00000000000E+00  0.00000000000E+00  0.45593999997E+02  0.45594000000E+02  0.51100000000E-03 0.  1.
         11   -1    0    0    0    0 -0.00000000000E+00 -0.00000000000E+00 -0.45593999997E+02  0.45594000000E+02  0.51100000000E-03 0. -1.
    9900012    2    1    2    0    0  0.15713404084E+00 -0.10127729688E+01  0.58528243814E+00  0.90007764547E+02  0.90000026239E+02 0.  0.
         12    1    1    2    0    0 -0.15713404084E+00  0.10127729688E+01 -0.58528243814E+00  0.11802354534E+01  0.00000000000E+00 0. -1.
         11    1    3    3    0    0  0.93415180215E+00  0.11087537675E+02  0.60540455575E+01  0.12667185921E+02  0.51100000000E-03 0. -1.
        -11    1    3    3    0    0 -0.30000001983E+02  0.12999668848E+02 -0.17367882954E+02  0.37022086215E+02  0.51100000000E-03 0.  1.
         12    1    3    3    0    0  0.29222984222E+02 -0.25099979493E+02  0.11899119834E+02  0.40318492410E+02  0.00000000000E+00 0. -1.
</event>
<event>
 7    1  0.1698110E-015  0.9000775E+02  0.7816164E-02  0.1186339E+00
        -11   -1    0    0    0    0  0.00000000000E+00  0.00000000000E+00  0.45593999997E+02  0.45594000000E+02  0.51100000000E-03 0.  1.
         11   -1    0    0    0    0 -0.00000000000E+00 -0.00000000000E+00 -0.45593999997E+02  0.45594000000E+02  0.51100000000E-03 0. -1.
    9900012    2    1    2    0    0 -0.75626269735E+00 -0.40066163954E+00 -0.81272148550E+00  0.90007754589E+02  0.90000016150E+02 0.  0.
         12    1    1    2    0    0  0.75626269735E+00  0.40066163954E+00  0.81272148550E+00  0.11802454108E+01  0.00000000000E+00 0. -1.
         11    1    3    3    0    0  0.52205520808E+01 -0.47003781148E+01 -0.74176692704E+01  0.10216140960E+02  0.51100000000E-03 0. -1.
        -11    1    3    3    0    0  0.42907640166E+01 -0.12387770823E+02  0.39436270727E+02  0.41558235898E+02  0.51100000000E-03 0.  1.
         12    1    3    3    0    0 -0.10267578795E+02  0.16687487299E+02 -0.32831322942E+02  0.38233377732E+02  0.00000000000E+00 0. -1.
</event>
<event>
 7    1  0.1698110E-015  0.9000779E+02  0.7816164E-02  0.1186339E+00
        -11   -1    0    0    0    0  0.00000000000E+00  0.00000000000E+00  0.45593999997E+02  0.45594000000E+02  0.51100000000E-03 0.  1.
         11   -1    0    0    0    0 -0.00000000000E+00 -0.00000000000E+00 -0.45593999997E+02  0.45594000000E+02  0.51100000000E-03 0. -1.
    9900012    2    1    2    0    0  0.85791544402E+00 -0.50707960176E+00  0.63226015573E+00  0.90007787504E+02  0.90000049499E+02 0.  0.
         12    1    1    2    0    0 -0.85791544402E+00  0.50707960176E+00 -0.63226015573E+00  0.11802124962E+01  0.00000000000E+00 0. -1.
         11    1    3    3    0    0  0.83558476139E+01 -0.11005724797E+01 -0.51321343484E+01  0.98676366148E+01  0.51100000000E-03 0. -1.
        -11    1    3    3    0    0 -0.15826719139E+02 -0.15039135141E+02 -0.31820673729E+02  0.38590360213E+02  0.51100000000E-03 0.  1.
         12    1    3    3    0    0  0.83287869690E+01  0.15632628019E+02  0.37585068233E+02  0.41549790677E+02  0.00000000000E+00 0. -1.
</event>
<event>
 7    1  0.1698110E-015  0.9000776E+02  0.7816164E-02  0.1186339E+00
        -11   -1    0    0    0    0  0.00000000000E+00  0.00000000000E+00  0.45593999997E+02  0.45594000000E+02  0.51100000000E-03 0. -1.
         11   -1    0    0    0    0 -0.00000000000E+00 -0.00000000000E+00 -0.45593999997E+02  0.45594000000E+02  0.51100000000E-03 0.  1.
    9900012    2    1    2    0    0  0.10639330277E+01  0.30668252498E+00 -0.40860711742E+00  0.90007759586E+02  0.90000021213E+02 0.  0.
         12    1    1    2    0    0 -0.10639330277E+01 -0.30668252498E+00  0.40860711742E+00  0.11802404140E+01  0.00000000000E+00 0. -1.
         11    1    3    3    0    0  0.20579866242E+02  0.12729681333E+02  0.27610611431E+02  0.36714051059E+02  0.51100000000E-03 0. -1.
        -11    1    3    3    0    0 -0.27356367885E+01 -0.74871761256E+01  0.91978266692E+01  0.12171340545E+02  0.51100000000E-03 0.  1.
        -12    1    3    3    0    0 -0.16780296426E+02 -0.49358226819E+01 -0.37217045217E+02  0.41122367981E+02  0.00000000000E+00 0.  1.
</event>
<event>
 7    1  0.1698110E-015  0.9000782E+02  0.7816164E-02  0.1186339E+00
        -11   -1    0    0    0    0  0.00000000000E+00  0.00000000000E+00  0.45593999997E+02  0.45594000000E+02  0.51100000000E-03 0.  1.
         11   -1    0    0    0    0 -0.00000000000E+00 -0.00000000000E+00 -0.45593999997E+02  0.45594000000E+02  0.51100000000E-03 0. -1.
    9900012    2    1    2    0    0  0.69934413942E+00 -0.11336012305E+00  0.94387453434E+00  0.90007817014E+02  0.90000079399E+02 0.  0.
         12    1    1    2    0    0 -0.69934413942E+00  0.11336012305E+00 -0.94387453434E+00  0.11801829856E+01  0.00000000000E+00 0. -1.
         11    1    3    3    0    0 -0.77138424920E+01  0.67147829963E+00  0.97912819554E+00  0.78046743291E+01  0.51100000000E-03 0. -1.
        -11    1    3    3    0    0 -0.33037502999E+02  0.85392684100E+01 -0.14840896868E+02  0.37210857682E+02  0.51100000000E-03 0.  1.
         12    1    3    3    0    0  0.41450689630E+02 -0.93241068327E+01  0.14805643206E+02  0.44992285003E+02  0.00000000000E+00 0. -1.
</event>
<event>
 7    1  0.1698110E-015  0.9000849E+02  0.7816164E-02  0.1186338E+00
        -11   -1    0    0    0    0  0.00000000000E+00  0.00000000000E+00  0.45593999997E+02  0.45594000000E+02  0.51100000000E-03 0. -1.
         11   -1    0    0    0    0 -0.00000000000E+00 -0.00000000000E+00 -0.45593999997E+02  0.45594000000E+02  0.51100000000E-03 0.  1.
    9900012    2    1    2    0    0 -0.65595186814E-01  0.10266411268E+01  0.57702277185E+00  0.90008487384E+02  0.90000758614E+02 0.  0.
         12    1    1    2    0    0  0.65595186814E-01 -0.10266411268E+01 -0.57702277185E+00  0.11795126159E+01  0.00000000000E+00 0. -1.
         11    1    3    3    0    0 -0.33863176371E+01  0.73783466453E+01  0.15441481420E+02  0.17445529372E+02  0.51100000000E-03 0. -1.
        -11    1    3    3    0    0 -0.14417325098E+02  0.10802734087E+02  0.21854514105E+02  0.28322749050E+02  0.51100000000E-03 0.  1.
        -12    1    3    3    0    0  0.17738047548E+02 -0.17154439605E+02 -0.36718972753E+02  0.44240208962E+02  0.00000000000E+00 0.  1.
</event>
<event>
 7    1  0.1698110E-015  0.9000812E+02  0.7816164E-02  0.1186338E+00
        -11   -1    0    0    0    0  0.00000000000E+00  0.00000000000E+00  0.45593999997E+02  0.45594000000E+02  0.51100000000E-03 0.  1.
         11   -1    0    0    0    0 -0.00000000000E+00 -0.00000000000E+00 -0.45593999997E+02  0.45594000000E+02  0.51100000000E-03 0. -1.
    9900012    2    1    2    0    0  0.89288138278E+00  0.17046709761E+00  0.75221059556E+00  0.90008119932E+02  0.90000386314E+02 0.  0.
         12    1    1    2    0    0 -0.89288138278E+00 -0.17046709761E+00 -0.75221059556E+00  0.11798800681E+01  0.00000000000E+00 0. -1.
         11    1    3    3    0    0  0.16289588938E+02  0.93031420140E+00  0.32702694108E+02  0.36546988857E+02  0.51100000000E-03 0. -1.
        -11    1    3    3    0    0  0.10421473566E+02  0.36733605002E+01  0.13055765199E+01  0.11126779362E+02  0.51100000000E-03 0.  1.
        -12    1    3    3    0    0 -0.25818181122E+02 -0.44332076040E+01 -0.33256060033E+02  0.42334351713E+02  0.00000000000E+00 0.  1.
</event>
<event>
 7    1  0.1698110E-015  0.9000774E+02  0.7816164E-02  0.1186339E+00
        -11   -1    0    0    0    0  0.00000000000E+00  0.00000000000E+00  0.45593999997E+02  0.45594000000E+02  0.51100000000E-03 0.  1.
         11   -1    0    0    0    0 -0.00000000000E+00 -0.00000000000E+00 -0.45593999997E+02  0.45594000000E+02  0.51100000000E-03 0. -1.
    9900012    2    1    2    0    0 -0.47158649317E-02 -0.70179778600E+00  0.94893247060E+00  0.90007739348E+02  0.90000000708E+02 0.  0.
         12    1    1    2    0    0  0.47158649317E-02  0.70179778600E+00 -0.94893247060E+00  0.11802606515E+01  0.00000000000E+00 0. -1.
         11    1    3    3    0    0 -0.40479243065E+01 -0.65098488304E+01 -0.17050481322E+01  0.78530893527E+01  0.51100000000E-03 0. -1.
        -11    1    3    3    0    0 -0.20042688487E+02 -0.78343508857E+01  0.34061376127E+02  0.40289747573E+02  0.51100000000E-03 0.  1.
         12    1    3    3    0    0  0.24085896929E+02  0.13642401930E+02 -0.31407395524E+02  0.41864902423E+02  0.00000000000E+00 0. -1.
</event>
<event>
 7    1  0.1698110E-015  0.9000783E+02  0.7816164E-02  0.1186339E+00
        -11   -1    0    0    0    0  0.00000000000E+00  0.00000000000E+00  0.45593999997E+02  0.45594000000E+02  0.51100000000E-03 0.  1.
         11   -1    0    0    0    0 -0.00000000000E+00 -0.00000000000E+00 -0.45593999997E+02  0.45594000000E+02  0.51100000000E-03 0. -1.
    9900012    2    1    2    0    0  0.48902142479E+00 -0.56570932655E+00  0.91303167119E+00  0.90007832288E+02  0.90000094874E+02 0.  0.
         12    1    1    2    0    0 -0.48902142479E+00  0.56570932655E+00 -0.91303167119E+00  0.11801677121E+01  0.00000000000E+00 0. -1.
         11    1    3    3    0    0  0.27057570094E+02  0.17666620027E+02 -0.23568871466E+02  0.39996415652E+02  0.51100000000E-03 0. -1.
        -11    1    3    3    0    0  0.22132521837E+01  0.53035364737E+01  0.66114070171E+01  0.87599479088E+01  0.51100000000E-03 0.  1.
        -12    1    3    3    0    0 -0.28781800853E+02 -0.23535865828E+02  0.17870496120E+02  0.41251468727E+02  0.00000000000E+00 0.  1.
</event>
<event>
 7    1  0.1698110E-015  0.9000772E+02  0.7816164E-02  0.1186339E+00
        -11   -1    0    0    0    0  0.00000000000E+00  0.00000000000E+00  0.45593999997E+02  0.45594000000E+02  0.51100000000E-03 0.  1.
         11   -1    0    0    0    0 -0.00000000000E+00 -0.00000000000E+00 -0.45593999997E+02  0.45594000000E+02  0.51100000000E-03 0. -1.
    9900012    2    1    2    0    0 -0.11293638385E+01  0.16531781566E+00  0.30042892882E+00  0.90007724523E+02  0.89999985687E+02 0.  0.
         12    1    1    2    0    0  0.11293638385E+01 -0.16531781566E+00 -0.30042892882E+00  0.11802754768E+01  0.00000000000E+00 0. -1.
         11    1    3    3    0    0  0.15033085594E+02 -0.33259833185E+02 -0.13266955876E+01  0.36523557979E+02  0.51100000000E-03 0. -1.
        -11    1    3    3    0    0 -0.10392108746E+01 -0.68838678999E+01  0.72670598278E+01  0.10063684977E+02  0.51100000000E-03 0.  1.
        -12    1    3    3    0    0 -0.15123238558E+02  0.40309018901E+02 -0.56399353114E+01  0.43420481568E+02  0.00000000000E+00 0.  1.
</event>
<event>
 7    1  0.1698110E-015  0.9000777E+02  0.7816164E-02  0.1186339E+00
        -11   -1    0    0    0    0  0.00000000000E+00  0.00000000000E+00  0.45593999997E+02  0.45594000000E+02  0.51100000000E-03 0. -1.
         11   -1    0    0    0    0 -0.00000000000E+00 -0.00000000000E+00 -0.45593999997E+02  0.45594000000E+02  0.51100000000E-03 0.  1.
    9900012    2    1    2    0    0 -0.97072788239E+00  0.64440458528E+00  0.18805055186E+00  0.90007774216E+02  0.90000036036E+02 0.  0.
         12    1    1    2    0    0  0.97072788239E+00 -0.64440458528E+00 -0.18805055186E+00  0.11802257840E+01  0.00000000000E+00 0. -1.
         11    1    3    3    0    0  0.41081278857E+01  0.13687898724E+01  0.32323862149E+01  0.54035748670E+01  0.51100000000E-03 0. -1.
        -11    1    3    3    0    0  0.19210782031E+02 -0.36496447915E+02 -0.31632531825E+01  0.41364852564E+02  0.51100000000E-03 0.  1.
         12    1    3    3    0    0 -0.24289637799E+02  0.35772062628E+02  0.11891751948E+00  0.43239346785E+02  0.00000000000E+00 0. -1.
</event>
<event>
 7    1  0.1698110E-015  0.9000819E+02  0.7816164E-02  0.1186338E+00
        -11   -1    0    0    0    0  0.00000000000E+00  0.00000000000E+00  0.45593999997E+02  0.45594000000E+02  0.51100000000E-03 0. -1.
         11   -1    0    0    0    0 -0.00000000000E+00 -0.00000000000E+00 -0.45593999997E+02  0.45594000000E+02  0.51100000000E-03 0.  1.
    9900012    2    1    2    0    0  0.49074990089E+00  0.98630554762E+00 -0.42226731845E+00  0.90008193327E+02  0.90000460677E+02 0.  0.
         12    1    1    2    0    0 -0.49074990089E+00 -0.98630554762E+00  0.42226731845E+00  0.11798066735E+01  0.00000000000E+00 0. -1.
         11    1    3    3    0    0 -0.38935388145E+02 -0.76473106667E+01  0.56339289009E+01  0.40077262451E+02  0.51100000000E-03 0. -1.
        -11    1    3    3    0    0 -0.81206130311E+00  0.50616153272E+01 -0.79844996652E+01  0.94884997996E+01  0.51100000000E-03 0.  1.
        -12    1    3    3    0    0  0.40238199349E+02  0.35720008871E+01  0.19283034459E+01  0.40442431076E+02  0.00000000000E+00 0.  1.
</event>
<event>
 7    1  0.1698110E-015  0.9000791E+02  0.7816164E-02  0.1186339E+00
        -11   -1    0    0    0    0  0.00000000000E+00  0.00000000000E+00  0.45593999997E+02  0.45594000000E+02  0.51100000000E-03 0. -1.
         11   -1    0    0    0    0 -0.00000000000E+00 -0.00000000000E+00 -0.45593999997E+02  0.45594000000E+02  0.51100000000E-03 0.  1.
    9900012    2    1    2    0    0 -0.76376707435E+00  0.46971027228E+00 -0.76722831565E+00  0.90007912218E+02  0.90000175860E+02 0.  0.
         12    1    1    2    0    0  0.76376707435E+00 -0.46971027228E+00  0.76722831565E+00  0.11800877815E+01  0.00000000000E+00 0. -1.
         11    1    3    3    0    0  0.13374623873E+02 -0.34117448075E+02  0.13709625116E+02  0.39125882073E+02  0.51100000000E-03 0. -1.
        -11    1    3    3    0    0 -0.96876869333E+01 -0.35967030826E+01 -0.32955693080E+01  0.10846581420E+02  0.51100000000E-03 0.  1.
        -12    1    3    3    0    0 -0.44507040141E+01  0.38183861430E+02 -0.11181284124E+02  0.40035448725E+02  0.00000000000E+00 0.  1.
</event>
<event>
 7    1  0.1698110E-015  0.9000777E+02  0.7816164E-02  0.1186339E+00
        -11   -1    0    0    0    0  0.00000000000E+00  0.00000000000E+00  0.45593999997E+02  0.45594000000E+02  0.51100000000E-03 0. -1.
         11   -1    0    0    0    0 -0.00000000000E+00 -0.00000000000E+00 -0.45593999997E+02  0.45594000000E+02  0.51100000000E-03 0.  1.
    9900012    2    1    2    0    0 -0.10406744069E+01  0.48659028699E+00 -0.27050974811E+00  0.90007767458E+02  0.90000029189E+02 0.  0.
         12    1    1    2    0    0  0.10406744069E+01 -0.48659028699E+00  0.27050974811E+00  0.11802325417E+01  0.00000000000E+00 0. -1.
         11    1    3    3    0    0  0.89708695956E+01  0.14967634429E+01 -0.70703553120E+01  0.11519840563E+02  0.51100000000E-03 0. -1.
        -11    1    3    3    0    0  0.75589043711E+01 -0.37107621377E+02  0.66637962658E+00  0.37875541733E+02  0.51100000000E-03 0.  1.
         12    1    3    3    0    0 -0.17570448374E+02  0.36097448221E+02  0.61334659373E+01  0.40612385162E+02  0.00000000000E+00 0. -1.
</event>
<event>
 7    1  0.1698110E-015  0.9000778E+02  0.7816164E-02  0.1186339E+00
        -11   -1    0    0    0    0  0.00000000000E+00  0.00000000000E+00  0.45593999997E+02  0.45594000000E+02  0.51100000000E-03 0. -1.
         11   -1    0    0    0    0 -0.00000000000E+00 -0.00000000000E+00 -0.45593999997E+02  0.45594000000E+02  0.51100000000E-03 0.  1.
    9900012    2    1    2    0    0 -0.59277009574E+00  0.80289955260E+00  0.62998975185E+00  0.90007783424E+02  0.90000045366E+02 0.  0.
         12    1    1    2    0    0  0.59277009574E+00 -0.80289955260E+00 -0.62998975185E+00  0.11802165756E+01  0.00000000000E+00 0. -1.
         11    1    3    3    0    0 -0.30698658313E+01 -0.63919672928E+01 -0.54593839005E+01  0.89490890558E+01  0.51100000000E-03 0. -1.
        -11    1    3    3    0    0 -0.21626878015E+02 -0.28124726142E+02 -0.73579178144E+01  0.36233424184E+02  0.51100000000E-03 0.  1.
         12    1    3    3    0    0  0.24103973751E+02  0.35319592987E+02  0.13447291467E+02  0.44825270185E+02  0.00000000000E+00 0. -1.
</event>
<event>
 7    1  0.1698110E-015  0.9000786E+02  0.7816164E-02  0.1186339E+00
        -11   -1    0    0    0    0  0.00000000000E+00  0.00000000000E+00  0.45593999997E+02  0.45594000000E+02  0.51100000000E-03 0. -1.
         11   -1    0    0    0    0 -0.00000000000E+00 -0.00000000000E+00 -0.45593999997E+02  0.45594000000E+02  0.51100000000E-03 0.  1.
    9900012    2    1    2    0    0  0.47495569026E+00  0.99625027528E+00  0.41789399823E+00  0.90007858944E+02  0.90000121882E+02 0.  0.
         12    1    1    2    0    0 -0.47495569026E+00 -0.99625027528E+00 -0.41789399823E+00  0.11801410562E+01  0.00000000000E+00 0. -1.
         11    1    3    3    0    0  0.20848744351E+00 -0.71839451550E+01 -0.78441815502E+01  0.10638783740E+02  0.51100000000E-03 0. -1.
        -11    1    3    3    0    0 -0.32154769327E+02 -0.16727362789E+02 -0.45367459894E+01  0.36528289322E+02  0.51100000000E-03 0.  1.
         12    1    3    3    0    0  0.32421237574E+02  0.24907558219E+02  0.12798821538E+02  0.42840785882E+02  0.00000000000E+00 0. -1.
</event>
<event>
 7    1  0.1698110E-015  0.9000772E+02  0.7816164E-02  0.1186339E+00
        -11   -1    0    0    0    0  0.00000000000E+00  0.00000000000E+00  0.45593999997E+02  0.45594000000E+02  0.51100000000E-03 0.  1.
         11   -1    0    0    0    0 -0.00000000000E+00 -0.00000000000E+00 -0.45593999997E+02  0.45594000000E+02  0.51100000000E-03 0. -1.
    9900012    2    1    2    0    0 -0.11539051537E-01 -0.27045532974E+00  0.11488176066E+01  0.90007719894E+02  0.89999980997E+02 0.  0.
         12    1    1    2    0    0  0.11539051537E-01  0.27045532974E+00 -0.11488176066E+01  0.11802801058E+01  0.00000000000E+00 0. -1.
         11    1    3    3    0    0 -0.77625997950E+01  0.27322106999E+02 -0.30605883957E+02  0.41754947246E+02  0.51100000000E-03 0. -1.
        -11    1    3    3    0    0 -0.62795942052E+01 -0.13639957828E+01  0.74645907677E+01  0.98495636182E+01  0.51100000000E-03 0.  1.
        -12    1    3    3    0    0  0.14030654949E+02 -0.26228566546E+02  0.24290110796E+02  0.38403209030E+02  0.00000000000E+00 0.  1.
</event>
<event>
 7    1  0.1698110E-015  0.9000788E+02  0.7816164E-02  0.1186339E+00
        -11   -1    0    0    0    0  0.00000000000E+00  0.00000000000E+00  0.45593999997E+02  0.45594000000E+02  0.51100000000E-03 0.  1.
         11   -1    0    0    0    0 -0.00000000000E+00 -0.00000000000E+00 -0.45593999997E+02  0.45594000000E+02  0.51100000000E-03 0. -1.
    9900012    2    1    2    0    0 -0.54730776761E+00  0.52868074956E+00  0.90202173160E+00  0.90007876137E+02  0.90000139302E+02 0.  0.
         12    1    1    2    0    0  0.54730776761E+00 -0.52868074956E+00 -0.90202173160E+00  0.11801238629E+01  0.00000000000E+00 0. -1.
         11    1    3    3    0    0  0.29684562622E+02  0.15309154464E+02  0.10668082943E+02  0.35062108642E+02  0.51100000000E-03 0. -1.
        -11    1    3    3    0    0  0.47465594279E+01  0.82950807172E+01  0.46536026383E+01  0.10629873390E+02  0.51100000000E-03 0.  1.
        -12    1    3    3    0    0 -0.34978429818E+02 -0.23075554432E+02 -0.14419663850E+02  0.44315894106E+02  0.00000000000E+00 0.  1.
</event>
<event>
 7    1  0.1698110E-015  0.9000770E+02  0.7816164E-02  0.1186339E+00
        -11   -1    0    0    0    0  0.00000000000E+00  0.00000000000E+00  0.45593999997E+02  0.45594000000E+02  0.51100000000E-03 0.  1.
         11   -1    0    0    0    0 -0.00000000000E+00 -0.00000000000E+00 -0.45593999997E+02  0.45594000000E+02  0.51100000000E-03 0. -1.
    9900012    2    1    2    0    0 -0.80848484603E+00  0.36629352842E+00  0.77800799484E+00  0.90007697015E+02  0.89999957816E+02 0.  0.
         12    1    1    2    0    0  0.80848484603E+00 -0.36629352842E+00 -0.77800799484E+00  0.11803029845E+01  0.00000000000E+00 0. -1.
         11    1    3    3    0    0  0.70002028596E+00  0.19382889030E+01  0.81143206393E+01  0.83719288083E+01  0.51100000000E-03 0. -1.
        -11    1    3    3    0    0  0.10612643601E+02 -0.94486679365E+01  0.34532541698E+02  0.37341692066E+02  0.51100000000E-03 0.  1.
         12    1    3    3    0    0 -0.12121148733E+02  0.78766725619E+01 -0.41868854342E+02  0.44294076141E+02  0.00000000000E+00 0. -1.
</event>
<event>
 7    1  0.1698110E-015  0.9000765E+02  0.7816164E-02  0.1186339E+00
        -11   -1    0    0    0    0  0.00000000000E+00  0.00000000000E+00  0.45593999997E+02  0.45594000000E+02  0.51100000000E-03 0.  1.
         11   -1    0    0    0    0 -0.00000000000E+00 -0.00000000000E+00 -0.45593999997E+02  0.45594000000E+02  0.51100000000E-03 0. -1.
    9900012    2    1    2    0    0  0.82258204169E+00  0.68194275058E+00  0.50154432931E+00  0.90007646729E+02  0.89999906866E+02 0.  0.
         12    1    1    2    0    0 -0.82258204169E+00 -0.68194275058E+00 -0.50154432931E+00  0.11803532711E+01  0.00000000000E+00 0. -1.
         11    1    3    3    0    0  0.98144429531E+01  0.28340583208E+01 -0.12346732038E+02  0.16024885938E+02  0.51100000000E-03 0. -1.
        -11    1    3    3    0    0 -0.34930353521E+02  0.17345617309E+02  0.14201217712E+02  0.41505115609E+02  0.51100000000E-03 0.  1.
         12    1    3    3    0    0  0.25938492610E+02 -0.19497732879E+02 -0.13529413440E+01  0.32477645182E+02  0.00000000000E+00 0. -1.
</event>
<event>
 7    1  0.1698110E-015  0.9000769E+02  0.7816164E-02  0.1186339E+00
        -11   -1    0    0    0    0  0.00000000000E+00  0.00000000000E+00  0.45593999997E+02  0.45594000000E+02  0.51100000000E-03 0.  1.
         11   -1    0    0    0    0 -0.00000000000E+00 -0.00000000000E+00 -0.45593999997E+02  0.45594000000E+02  0.51100000000E-03 0. -1.
    9900012    2    1    2    0    0 -0.86682642585E+00 -0.58798600370E+00 -0.54407125857E+00  0.90007691088E+02  0.89999951810E+02 0.  0.
         12    1    1    2    0    0  0.86682642585E+00  0.58798600370E+00  0.54407125857E+00  0.11803089119E+01  0.00000000000E+00 0. -1.
         11    1    3    3    0    0  0.28124650124E+02  0.83961929074E+01 -0.69584727626E+00  0.29359431255E+02  0.51100000000E-03 0. -1.
        -11    1    3    3    0    0  0.87406696999E+01  0.12280179685E+02  0.73048833290E+01  0.16750028078E+02  0.51100000000E-03 0.  1.
         12    1    3    3    0    0 -0.37732146249E+02 -0.21264358596E+02 -0.71531073113E+01  0.43898231756E+02  0.00000000000E+00 0. -1.
</event>
<event>
 7    1  0.1698110E-015  0.9000775E+02  0.7816164E-02  0.1186339E+00
        -11   -1    0    0    0    0  0.00000000000E+00  0.00000000000E+00  0.45593999997E+02  0.45594000000E+02  0.51100000000E-03 0. -1.
         11   -1    0    0    0    0 -0.00000000000E+00 -0.00000000000E+00 -0.45593999997E+02  0.45594000000E+02  0.51100000000E-03 0.  1.
    9900012    2    1    2    0    0  0.23240026101E+00 -0.11443172851E+01  0.17182114622E+00  0.90007748147E+02  0.90000009623E+02 0.  0.
         12    1    1    2    0    0 -0.23240026101E+00  0.11443172851E+01 -0.17182114622E+00  0.11802518530E+01  0.00000000000E+00 0. -1.
         11    1    3    3    0    0  0.11319167209E+02 -0.55636188847E+01 -0.19027568853E+01  0.12755308128E+02  0.51100000000E-03 0. -1.
        -11    1    3    3    0    0 -0.46761691139E+01 -0.10787576472E+02 -0.34864993846E+02  0.36794104960E+02  0.51100000000E-03 0.  1.
         12    1    3    3    0    0 -0.64105978342E+01  0.15206878071E+02  0.36939571877E+02  0.40458335059E+02  0.00000000000E+00 0. -1.
</event>
<event>
 7    1  0.1698110E-015  0.9000779E+02  0.7816164E-02  0.1186339E+00
        -11   -1    0    0    0    0  0.00000000000E+00  0.00000000000E+00  0.45593999997E+02  0.45594000000E+02  0.51100000000E-03 0.  1.
         11   -1    0    0    0    0 -0.00000000000E+00 -0.00000000000E+00 -0.45593999997E+02  0.45594000000E+02  0.51100000000E-03 0. -1.
    9900012    2    1    2    0    0  0.11296408050E+01 -0.27148204564E+00  0.20762546364E+00  0.90007788501E+02  0.90000050509E+02 0.  0.
         12    1    1    2    0    0 -0.11296408050E+01  0.27148204564E+00 -0.20762546364E+00  0.11802114991E+01  0.00000000000E+00 0. -1.
         11    1    3    3    0    0  0.40032323595E+02  0.72708091846E+00 -0.49687061487E+01  0.40346048383E+02  0.51100000000E-03 0. -1.
        -11    1    3    3    0    0  0.84082115522E+00 -0.18947204385E+01  0.94540555860E+01  0.96786421072E+01  0.51100000000E-03 0.  1.
        -12    1    3    3    0    0 -0.39743503946E+02  0.89615747443E+00 -0.42777239737E+01  0.39983098010E+02  0.00000000000E+00 0.  1.
</event>
<event>
 7    1  0.1698110E-015  0.9000672E+02  0.7816164E-02  0.1186341E+00
        -11   -1    0    0    0    0  0.00000000000E+00  0.00000000000E+00  0.45593999997E+02  0.45594000000E+02  0.51100000000E-03 0. -1.
         11   -1    0    0    0    0 -0.00000000000E+00 -0.00000000000E+00 -0.45593999997E+02  0.45594000000E+02  0.51100000000E-03 0.  1.
    9900012    2    1    2    0    0 -0.11131235833E+01  0.22066630638E+00 -0.32814759556E+00  0.90006721635E+02  0.89998969555E+02 0.  0.
         12    1    1    2    0    0  0.11131235833E+01 -0.22066630638E+00  0.32814759556E+00  0.11812783647E+01  0.00000000000E+00 0. -1.
         11    1    3    3    0    0  0.83374197457E+01  0.52643892304E+01 -0.14258585291E+01  0.99629029299E+01  0.51100000000E-03 0. -1.
        -11    1    3    3    0    0  0.26243359166E+02 -0.29763725813E+01 -0.24536522180E+02  0.36050154161E+02  0.51100000000E-03 0.  1.
         12    1    3    3    0    0 -0.35693902495E+02 -0.20673503427E+01  0.25634233114E+02  0.43993664545E+02  0.00000000000E+00 0. -1.
</event>
<event>
 7    1  0.1698110E-015  0.9000777E+02  0.7816164E-02  0.1186339E+00
        -11   -1    0    0    0    0  0.00000000000E+00  0.00000000000E+00  0.45593999997E+02  0.45594000000E+02  0.51100000000E-03 0.  1.
         11   -1    0    0    0    0 -0.00000000000E+00 -0.00000000000E+00 -0.45593999997E+02  0.45594000000E+02  0.51100000000E-03 0. -1.
    9900012    2    1    2    0    0  0.11083405384E+01 -0.40466188108E+00  0.27865381629E-01  0.90007768469E+02  0.90000030213E+02 0.  0.
         12    1    1    2    0    0 -0.11083405384E+01  0.40466188108E+00 -0.27865381629E-01  0.11802315309E+01  0.00000000000E+00 0. -1.
         11    1    3    3    0    0 -0.10628547921E+02  0.87460063208E+01  0.18765217613E+02  0.23272130323E+02  0.51100000000E-03 0. -1.
        -11    1    3    3    0    0  0.20574571042E+01 -0.59285420057E+01  0.22963259094E+02  0.23805293709E+02  0.51100000000E-03 0.  1.
        -12    1    3    3    0    0  0.96794313555E+01 -0.32221261962E+01 -0.41700611325E+02  0.42930344437E+02  0.00000000000E+00 0.  1.
</event>
<event>
 7    1  0.1698110E-015  0.9000734E+02  0.7816164E-02  0.1186340E+00
        -11   -1    0    0    0    0  0.00000000000E+00  0.00000000000E+00  0.45593999997E+02  0.45594000000E+02  0.51100000000E-03 0.  1.
         11   -1    0    0    0    0 -0.00000000000E+00 -0.00000000000E+00 -0.45593999997E+02  0.45594000000E+02  0.51100000000E-03 0. -1.
    9900012    2    1    2    0    0  0.26195487112E-01 -0.17482557987E+00  0.11673527656E+01  0.90007338039E+02  0.89999594100E+02 0.  0.
         12    1    1    2    0    0 -0.26195487112E-01  0.17482557987E+00 -0.11673527656E+01  0.11806619611E+01  0.00000000000E+00 0. -1.
         11    1    3    3    0    0  0.52333837101E+01  0.44447170684E+01  0.51824685942E+01  0.86024296490E+01  0.51100000000E-03 0. -1.
        -11    1    3    3    0    0  0.15498451238E+02  0.30670798378E+02  0.13469181039E+02  0.36909601759E+02  0.51100000000E-03 0.  1.
         12    1    3    3    0    0 -0.20705639461E+02 -0.35290341026E+02 -0.17484296868E+02  0.44495306631E+02  0.00000000000E+00 0. -1.
</event>
<event>
 7    1  0.1698110E-015  0.9000791E+02  0.7816164E-02  0.1186339E+00
        -11   -1    0    0    0    0  0.00000000000E+00  0.00000000000E+00  0.45593999997E+02  0.45594000000E+02  0.51100000000E-03 0.  1.
         11   -1    0    0    0    0 -0.00000000000E+00 -0.00000000000E+00 -0.45593999997E+02  0.45594000000E+02  0.51100000000E-03 0. -1.
    9900012    2    1    2    0    0 -0.10983327926E+01  0.39679965211E+00  0.16980622470E+00  0.90007907190E+02  0.90000170764E+02 0.  0.
         12    1    1    2    0    0  0.10983327926E+01 -0.39679965211E+00 -0.16980622470E+00  0.11800928104E+01  0.00000000000E+00 0. -1.
         11    1    3    3    0    0  0.27101383971E+02  0.13672057352E+02 -0.20707447396E+02  0.36745183947E+02  0.51100000000E-03 0. -1.
        -11    1    3    3    0    0  0.90835092171E+01  0.54988061955E-01  0.15954818994E+01  0.92227287793E+01  0.51100000000E-03 0.  1.
        -12    1    3    3    0    0 -0.37283225980E+02 -0.13330245762E+02  0.19281771722E+02  0.44039994463E+02  0.00000000000E+00 0.  1.
</event>
<event>
 7    1  0.1698110E-015  0.9000773E+02  0.7816164E-02  0.1186339E+00
        -11   -1    0    0    0    0  0.00000000000E+00  0.00000000000E+00  0.45593999997E+02  0.45594000000E+02  0.51100000000E-03 0. -1.
         11   -1    0    0    0    0 -0.00000000000E+00 -0.00000000000E+00 -0.45593999997E+02  0.45594000000E+02  0.51100000000E-03 0.  1.
    9900012    2    1    2    0    0  0.27974698915E-01  0.26080040814E+00 -0.11507549856E+01  0.90007730339E+02  0.89999991579E+02 0.  0.
         12    1    1    2    0    0 -0.27974698915E-01 -0.26080040814E+00  0.11507549856E+01  0.11802696614E+01  0.00000000000E+00 0. -1.
         11    1    3    3    0    0  0.79702513968E+01  0.70877804990E+01 -0.16914530536E+01  0.10799192258E+02  0.51100000000E-03 0. -1.
        -11    1    3    3    0    0  0.14564245889E+02  0.14514024843E+02 -0.29546747853E+02  0.35997006604E+02  0.51100000000E-03 0.  1.
         12    1    3    3    0    0 -0.22506522587E+02 -0.21341004934E+02  0.30087445921E+02  0.43211531477E+02  0.00000000000E+00 0. -1.
</event>
<event>
 7    1  0.1698110E-015  0.9000775E+02  0.7816164E-02  0.1186339E+00
        -11   -1    0    0    0    0  0.00000000000E+00  0.00000000000E+00  0.45593999997E+02  0.45594000000E+02  0.51100000000E-03 0. -1.
         11   -1    0    0    0    0 -0.00000000000E+00 -0.00000000000E+00 -0.45593999997E+02  0.45594000000E+02  0.51100000000E-03 0.  1.
    9900012    2    1    2    0    0 -0.14474251362E+00 -0.58298861538E+00 -0.10159538149E+01  0.90007750757E+02  0.90000012267E+02 0.  0.
         12    1    1    2    0    0  0.14474251362E+00  0.58298861538E+00  0.10159538149E+01  0.11802492427E+01  0.00000000000E+00 0. -1.
         11    1    3    3    0    0  0.20311321108E+02 -0.29637574234E+02  0.16024007222E+02  0.39340874156E+02  0.51100000000E-03 0. -1.
        -11    1    3    3    0    0 -0.54014542567E+01 -0.49187472071E+01  0.36168711619E+01  0.81517813659E+01  0.51100000000E-03 0.  1.
        -12    1    3    3    0    0 -0.15054609365E+02  0.33973332825E+02 -0.20656832199E+02  0.42515095236E+02  0.00000000000E+00 0.  1.
</event>
<event>
 7    1  0.1698110E-015  0.9000651E+02  0.7816164E-02  0.1186342E+00
        -11   -1    0    0    0    0  0.00000000000E+00  0.00000000000E+00  0.45593999997E+02  0.45594000000E+02  0.51100000000E-03 0.  1.
         11   -1    0    0    0    0 -0.00000000000E+00 -0.00000000000E+00 -0.45593999997E+02  0.45594000000E+02  0.51100000000E-03 0. -1.
    9900012    2    1    2    0    0 -0.39048898399E+00  0.10687391780E+01  0.31818893959E+00  0.90006505489E+02  0.89998750553E+02 0.  0.
         12    1    1    2    0    0  0.39048898399E+00 -0.10687391780E+01 -0.31818893959E+00  0.11814945106E+01  0.00000000000E+00 0. -1.
         11    1    3    3    0    0 -0.43044272965E+01  0.97698015869E+01  0.32478402578E+01  0.11159103190E+02  0.51100000000E-03 0. -1.
        -11    1    3    3    0    0 -0.13899847939E+02  0.26652808348E+02  0.16991423462E+02  0.34529500968E+02  0.51100000000E-03 0.  1.
         12    1    3    3    0    0  0.17813786252E+02 -0.35353870757E+02 -0.19921074780E+02  0.44317901332E+02  0.00000000000E+00 0. -1.
</event>
<event>
 7    1  0.1698110E-015  0.9000767E+02  0.7816164E-02  0.1186339E+00
        -11   -1    0    0    0    0  0.00000000000E+00  0.00000000000E+00  0.45593999997E+02  0.45594000000E+02  0.51100000000E-03 0. -1.
         11   -1    0    0    0    0 -0.00000000000E+00 -0.00000000000E+00 -0.45593999997E+02  0.45594000000E+02  0.51100000000E-03 0.  1.
    9900012    2    1    2    0    0 -0.87010088116E+00  0.63049393618E-01 -0.79507029416E+00  0.90007666343E+02  0.89999926739E+02 0.  0.
         12    1    1    2    0    0  0.87010088116E+00 -0.63049393618E-01  0.79507029416E+00  0.11803336571E+01  0.00000000000E+00 0. -1.
         11    1    3    3    0    0  0.88299189459E+01 -0.55976967533E+01  0.98228745967E+01  0.14345401463E+02  0.51100000000E-03 0. -1.
        -11    1    3    3    0    0  0.28602030978E+01  0.26617050267E+02 -0.33024125317E+02  0.42511656988E+02  0.51100000000E-03 0.  1.
         12    1    3    3    0    0 -0.12560222925E+02 -0.20956304120E+02  0.22406180426E+02  0.33150607892E+02  0.00000000000E+00 0. -1.
</event>
<event>
 7    1  0.1698110E-015  0.9000774E+02  0.7816164E-02  0.1186339E+00
        -11   -1    0    0    0    0  0.00000000000E+00  0.00000000000E+00  0.45593999997E+02  0.45594000000E+02  0.51100000000E-03 0.  1.
         11   -1    0    0    0    0 -0.00000000000E+00 -0.00000000000E+00 -0.45593999997E+02  0.45594000000E+02  0.51100000000E-03 0. -1.
    9900012    2    1    2    0    0  0.82435230607E+00  0.70483551642E+00  0.46547934312E+00  0.90007736958E+02  0.89999998286E+02 0.  0.
         12    1    1    2    0    0 -0.82435230607E+00 -0.70483551642E+00 -0.46547934312E+00  0.11802630421E+01  0.00000000000E+00 0. -1.
         11    1    3    3    0    0  0.11603335553E+02  0.38725907382E+02 -0.10135598584E+02  0.41678095655E+02  0.51100000000E-03 0. -1.
        -11    1    3    3    0    0  0.75290666505E+01 -0.59821123319E+01  0.54993549596E+01  0.11077699121E+02  0.51100000000E-03 0.  1.
        -12    1    3    3    0    0 -0.18308049898E+02 -0.32038959534E+02  0.51017229678E+01  0.37251942182E+02  0.00000000000E+00 0.  1.
</event>
<event>
 7    1  0.1698110E-015  0.9000783E+02  0.7816164E-02  0.1186339E+00
        -11   -1    0    0    0    0  0.00000000000E+00  0.00000000000E+00  0.45593999997E+02  0.45594000000E+02  0.51100000000E-03 0.  1.
         11   -1    0    0    0    0 -0.00000000000E+00 -0.00000000000E+00 -0.45593999997E+02  0.45594000000E+02  0.51100000000E-03 0. -1.
    9900012    2    1    2    0    0 -0.78771072489E+00  0.69324248738E+00  0.54012443638E+00  0.90007827242E+02  0.90000089761E+02 0.  0.
         12    1    1    2    0    0  0.78771072489E+00 -0.69324248738E+00 -0.54012443638E+00  0.11801727582E+01  0.00000000000E+00 0. -1.
         11    1    3    3    0    0  0.25890807418E+02  0.41735318298E+01 -0.35784149765E+01  0.26468043575E+02  0.51100000000E-03 0. -1.
        -11    1    3    3    0    0  0.11028852029E+02 -0.91960402856E+01  0.17935689029E+02  0.22975893350E+02  0.51100000000E-03 0.  1.
         12    1    3    3    0    0 -0.37707370172E+02  0.57157509432E+01 -0.13817149616E+02  0.40563890317E+02  0.00000000000E+00 0. -1.
</event>
<event>
 7    1  0.1698110E-015  0.9000774E+02  0.7816164E-02  0.1186339E+00
        -11   -1    0    0    0    0  0.00000000000E+00  0.00000000000E+00  0.45593999997E+02  0.45594000000E+02  0.51100000000E-03 0.  1.
         11   -1    0    0    0    0 -0.00000000000E+00 -0.00000000000E+00 -0.45593999997E+02  0.45594000000E+02  0.51100000000E-03 0. -1.
    9900012    2    1    2    0    0  0.92135972102E+00 -0.10400944685E+00  0.73027216284E+00  0.90007737685E+02  0.89999999022E+02 0.  0.
         12    1    1    2    0    0 -0.92135972102E+00  0.10400944685E+00 -0.73027216284E+00  0.11802623151E+01  0.00000000000E+00 0. -1.
         11    1    3    3    0    0  0.99274617342E+01  0.16821703215E+01 -0.15642664394E+01  0.10189755798E+02  0.51100000000E-03 0. -1.
        -11    1    3    3    0    0  0.44057165584E+01  0.33700819944E+02  0.18348501645E+02  0.38624126090E+02  0.51100000000E-03 0.  1.
         12    1    3    3    0    0 -0.13411818572E+02 -0.35486999713E+02 -0.16053963043E+02  0.41193855797E+02  0.00000000000E+00 0. -1.
</event>
<event>
 7    1  0.1698110E-015  0.9000810E+02  0.7816164E-02  0.1186338E+00
        -11   -1    0    0    0    0  0.00000000000E+00  0.00000000000E+00  0.45593999997E+02  0.45594000000E+02  0.51100000000E-03 0. -1.
         11   -1    0    0    0    0 -0.00000000000E+00 -0.00000000000E+00 -0.45593999997E+02  0.45594000000E+02  0.51100000000E-03 0.  1.
    9900012    2    1    2    0    0  0.18717811513E-01  0.20740714081E+00 -0.11613792123E+01  0.90008097566E+02  0.90000363653E+02 0.  0.
         12    1    1    2    0    0 -0.18717811513E-01 -0.20740714081E+00  0.11613792123E+01  0.11799024338E+01  0.00000000000E+00 0. -1.
         11    1    3    3    0    0 -0.28835357734E+02 -0.13137774419E+02 -0.19246968991E+02  0.37074584123E+02  0.51100000000E-03 0. -1.
        -11    1    3    3    0    0  0.87401793058E+01 -0.58912254768E+01 -0.91757683313E+01  0.13974691290E+02  0.51100000000E-03 0.  1.
        -12    1    3    3    0    0  0.20113896239E+02  0.19236407036E+02  0.27261358110E+02  0.38958822153E+02  0.00000000000E+00 0.  1.
</event>
<event>
 7    1  0.1698110E-015  0.9000776E+02  0.7816164E-02  0.1186339E+00
        -11   -1    0    0    0    0  0.00000000000E+00  0.00000000000E+00  0.45593999997E+02  0.45594000000E+02  0.51100000000E-03 0. -1.
         11   -1    0    0    0    0 -0.00000000000E+00 -0.00000000000E+00 -0.45593999997E+02  0.45594000000E+02  0.51100000000E-03 0.  1.
    9900012    2    1    2    0    0 -0.11394438500E+01 -0.21117191487E+00 -0.22368992994E+00  0.90007761444E+02  0.90000023095E+02 0.  0.
         12    1    1    2    0    0  0.11394438500E+01  0.21117191487E+00  0.22368992994E+00  0.11802385563E+01  0.00000000000E+00 0. -1.
         11    1    3    3    0    0  0.10441588638E+01 -0.71266506606E+01 -0.76998984396E+01  0.10543616724E+02  0.51100000000E-03 0. -1.
        -11    1    3    3    0    0 -0.17569385506E+02  0.39415095015E+02  0.39379629594E+01  0.43332904064E+02  0.51100000000E-03 0.  1.
         12    1    3    3    0    0  0.15385782792E+02 -0.32499616269E+02  0.35382455502E+01  0.36131240656E+02  0.00000000000E+00 0. -1.
</event>
<event>
 7    1  0.1698110E-015  0.9000772E+02  0.7816164E-02  0.1186339E+00
        -11   -1    0    0    0    0  0.00000000000E+00  0.00000000000E+00  0.45593999997E+02  0.45594000000E+02  0.51100000000E-03 0.  1.
         11   -1    0    0    0    0 -0.00000000000E+00 -0.00000000000E+00 -0.45593999997E+02  0.45594000000E+02  0.51100000000E-03 0. -1.
    9900012    2    1    2    0    0  0.47446200908E+00 -0.33436703160E-01  0.10801938493E+01  0.90007724200E+02  0.89999985360E+02 0.  0.
         12    1    1    2    0    0 -0.47446200908E+00  0.33436703160E-01 -0.10801938493E+01  0.11802757997E+01  0.00000000000E+00 0. -1.
         11    1    3    3    0    0  0.29743866232E+02  0.10573240172E+02 -0.25954151745E+02  0.40866966846E+02  0.51100000000E-03 0. -1.
        -11    1    3    3    0    0  0.15103755098E+01  0.44079045007E+01  0.96909472885E+01  0.10752921272E+02  0.51100000000E-03 0.  1.
        -12    1    3    3    0    0 -0.30779779733E+02 -0.15014581376E+02  0.17343398306E+02  0.38387836082E+02  0.00000000000E+00 0.  1.
</event>
<event>
 7    1  0.1698110E-015  0.9000764E+02  0.7816164E-02  0.1186339E+00
        -11   -1    0    0    0    0  0.00000000000E+00  0.00000000000E+00  0.45593999997E+02  0.45594000000E+02  0.51100000000E-03 0.  1.
         11   -1    0    0    0    0 -0.00000000000E+00 -0.00000000000E+00 -0.45593999997E+02  0.45594000000E+02  0.51100000000E-03 0. -1.
    9900012    2    1    2    0    0 -0.10878857460E+01 -0.37723185302E-01  0.45643214330E+00  0.90007640421E+02  0.89999900474E+02 0.  0.
         12    1    1    2    0    0  0.10878857460E+01  0.37723185302E-01 -0.45643214330E+00  0.11803595794E+01  0.00000000000E+00 0. -1.
         11    1    3    3    0    0  0.98312193066E+01 -0.17060073106E+02 -0.30353996076E+02  0.36180990112E+02  0.51100000000E-03 0. -1.
        -11    1    3    3    0    0 -0.40515121225E+01 -0.97960273159E+01 -0.21147939048E+01  0.10809683398E+02  0.51100000000E-03 0.  1.
        -12    1    3    3    0    0 -0.68675929301E+01  0.26818377237E+02  0.32925222124E+02  0.43016966910E+02  0.00000000000E+00 0.  1.
</event>
<event>
 7    1  0.1698110E-015  0.9000774E+02  0.7816164E-02  0.1186339E+00
        -11   -1    0    0    0    0  0.00000000000E+00  0.00000000000E+00  0.45593999997E+02  0.45594000000E+02  0.51100000000E-03 0.  1.
         11   -1    0    0    0    0 -0.00000000000E+00 -0.00000000000E+00 -0.45593999997E+02  0.45594000000E+02  0.51100000000E-03 0. -1.
    9900012    2    1    2    0    0  0.82895917965E+00  0.79623005886E+00 -0.26806564621E+00  0.90007739512E+02  0.90000000874E+02 0.  0.
         12    1    1    2    0    0 -0.82895917965E+00 -0.79623005886E+00  0.26806564621E+00  0.11802604877E+01  0.00000000000E+00 0. -1.
         11    1    3    3    0    0  0.19271643478E+01 -0.18348746156E+02 -0.34609770171E+02  0.39220232528E+02  0.51100000000E-03 0. -1.
        -11    1    3    3    0    0  0.55016605506E+01  0.77435794490E+01 -0.39540982262E+01  0.10289129436E+02  0.51100000000E-03 0.  1.
        -12    1    3    3    0    0 -0.65998657188E+01  0.11401396766E+02  0.38295802751E+02  0.40498377549E+02  0.00000000000E+00 0.  1.
</event>
<event>
 7    1  0.1698110E-015  0.9000767E+02  0.7816164E-02  0.1186339E+00
        -11   -1    0    0    0    0  0.00000000000E+00  0.00000000000E+00  0.45593999997E+02  0.45594000000E+02  0.51100000000E-03 0. -1.
         11   -1    0    0    0    0 -0.00000000000E+00 -0.00000000000E+00 -0.45593999997E+02  0.45594000000E+02  0.51100000000E-03 0.  1.
    9900012    2    1    2    0    0 -0.10417995420E+01 -0.54428872486E+00 -0.10763875701E+00  0.90007668435E+02  0.89999928858E+02 0.  0.
         12    1    1    2    0    0  0.10417995420E+01  0.54428872486E+00  0.10763875701E+00  0.11803315651E+01  0.00000000000E+00 0. -1.
         11    1    3    3    0    0  0.16857673054E+02 -0.24207015762E+02  0.23314535376E+02  0.37599578627E+02  0.51100000000E-03 0. -1.
        -11    1    3    3    0    0 -0.11133499461E+00 -0.92217974990E+01 -0.24585594531E+01  0.95445512958E+01  0.51100000000E-03 0.  1.
        -12    1    3    3    0    0 -0.17788137601E+02  0.32884524536E+02 -0.20963614680E+02  0.42863538512E+02  0.00000000000E+00 0.  1.
</event>
<event>
 7    1  0.1698110E-015  0.9000766E+02  0.7816164E-02  0.1186339E+00
        -11   -1    0    0    0    0  0.00000000000E+00  0.00000000000E+00  0.45593999997E+02  0.45594000000E+02  0.51100000000E-03 0. -1.
         11   -1    0    0    0    0 -0.00000000000E+00 -0.00000000000E+00 -0.45593999997E+02  0.45594000000E+02  0.51100000000E-03 0.  1.
    9900012    2    1    2    0    0 -0.96368491743E+00 -0.14370081120E+00 -0.66623051174E+00  0.90007660372E+02  0.89999920689E+02 0.  0.
         12    1    1    2    0    0  0.96368491743E+00  0.14370081120E+00  0.66623051174E+00  0.11803396282E+01  0.00000000000E+00 0. -1.
         11    1    3    3    0    0  0.84313724189E+00 -0.27907299760E+02  0.21973600297E+02  0.35529809605E+02  0.51100000000E-03 0. -1.
        -11    1    3    3    0    0 -0.40690683305E+01 -0.76752346737E+01  0.44998677537E+01  0.97834224296E+01  0.51100000000E-03 0.  1.
        -12    1    3    3    0    0  0.22622461712E+01  0.35438833623E+02 -0.27139698563E+02  0.44694428337E+02  0.00000000000E+00 0.  1.
</event>
<event>
 7    1  0.1698110E-015  0.9000791E+02  0.7816164E-02  0.1186339E+00
        -11   -1    0    0    0    0  0.00000000000E+00  0.00000000000E+00  0.45593999997E+02  0.45594000000E+02  0.51100000000E-03 0. -1.
         11   -1    0    0    0    0 -0.00000000000E+00 -0.00000000000E+00 -0.45593999997E+02  0.45594000000E+02  0.51100000000E-03 0.  1.
    9900012    2    1    2    0    0  0.85791956432E+00  0.34061110888E+00  0.73523750450E+00  0.90007908438E+02  0.90000172029E+02 0.  0.
         12    1    1    2    0    0 -0.85791956432E+00 -0.34061110888E+00 -0.73523750450E+00  0.11800915619E+01  0.00000000000E+00 0. -1.
         11    1    3    3    0    0  0.10767894188E+02 -0.22320773396E+02  0.27151482027E+02  0.36760950025E+02  0.51100000000E-03 0. -1.
        -11    1    3    3    0    0  0.13304913864E+02  0.44171012710E-01 -0.41975698824E+01  0.13951425633E+02  0.51100000000E-03 0.  1.
        -12    1    3    3    0    0 -0.23214888488E+02  0.22617213492E+02 -0.22218674640E+02  0.39295532780E+02  0.00000000000E+00 0.  1.
</event>
<event>
 7    1  0.1698110E-015  0.9000790E+02  0.7816164E-02  0.1186339E+00
        -11   -1    0    0    0    0  0.00000000000E+00  0.00000000000E+00  0.45593999997E+02  0.45594000000E+02  0.51100000000E-03 0. -1.
         11   -1    0    0    0    0 -0.00000000000E+00 -0.00000000000E+00 -0.45593999997E+02  0.45594000000E+02  0.51100000000E-03 0.  1.
    9900012    2    1    2    0    0 -0.36084623997E+00 -0.97011278795E+00 -0.56683605770E+00  0.90007901722E+02  0.90000165224E+02 0.  0.
         12    1    1    2    0    0  0.36084623997E+00  0.97011278795E+00  0.56683605770E+00  0.11800982783E+01  0.00000000000E+00 0. -1.
         11    1    3    3    0    0 -0.20640598181E+02  0.10318536687E+02  0.23163998952E+02  0.32696748161E+02  0.51100000000E-03 0. -1.
        -11    1    3    3    0    0 -0.11048637455E+02 -0.38375533988E+00  0.61625958754E+01  0.12656905070E+02  0.51100000000E-03 0.  1.
        -12    1    3    3    0    0  0.31328389395E+02 -0.10904894135E+02 -0.29893430885E+02  0.44654248491E+02  0.00000000000E+00 0.  1.
</event>
<event>
 7    1  0.1698110E-015  0.9000777E+02  0.7816164E-02  0.1186339E+00
        -11   -1    0    0    0    0  0.00000000000E+00  0.00000000000E+00  0.45593999997E+02  0.45594000000E+02  0.51100000000E-03 0. -1.
         11   -1    0    0    0    0 -0.00000000000E+00 -0.00000000000E+00 -0.45593999997E+02  0.45594000000E+02  0.51100000000E-03 0.  1.
    9900012    2    1    2    0    0 -0.84384216048E+00  0.66126836019E+00 -0.49356528405E+00  0.90007766072E+02  0.90000027784E+02 0.  0.
         12    1    1    2    0    0  0.84384216048E+00 -0.66126836019E+00  0.49356528405E+00  0.11802339283E+01  0.00000000000E+00 0. -1.
         11    1    3    3    0    0 -0.27420846894E+01  0.80888252777E+01 -0.46181872237E+01  0.97095713763E+01  0.51100000000E-03 0. -1.
        -11    1    3    3    0    0 -0.12862418500E+02  0.21376498221E+02 -0.26034953919E+02  0.36058498467E+02  0.51100000000E-03 0.  1.
         12    1    3    3    0    0  0.14760661028E+02 -0.28804055138E+02  0.30159575859E+02  0.44239696229E+02  0.00000000000E+00 0. -1.
</event>
<event>
 7    1  0.1698110E-015  0.9000774E+02  0.7816164E-02  0.1186339E+00
        -11   -1    0    0    0    0  0.00000000000E+00  0.00000000000E+00  0.45593999997E+02  0.45594000000E+02  0.51100000000E-03 0. -1.
         11   -1    0    0    0    0 -0.00000000000E+00 -0.00000000000E+00 -0.45593999997E+02  0.45594000000E+02  0.51100000000E-03 0.  1.
    9900012    2    1    2    0    0  0.10427072157E+01  0.55154682050E+00  0.39589562570E-01  0.90007741737E+02  0.90000003128E+02 0.  0.
         12    1    1    2    0    0 -0.10427072157E+01 -0.55154682050E+00 -0.39589562570E-01  0.11802582626E+01  0.00000000000E+00 0. -1.
         11    1    3    3    0    0  0.18699591341E+02 -0.12303371495E+02  0.31127185137E+02  0.38339918118E+02  0.51100000000E-03 0. -1.
        -11    1    3    3    0    0 -0.31877937827E+01 -0.60825052119E+01  0.49481131090E+01  0.84642024110E+01  0.51100000000E-03 0.  1.
        -12    1    3    3    0    0 -0.14469090343E+02  0.18937423527E+02 -0.36035708684E+02  0.43203621209E+02  0.00000000000E+00 0.  1.
</event>
<event>
 7    1  0.1698110E-015  0.9000780E+02  0.7816164E-02  0.1186339E+00
        -11   -1    0    0    0    0  0.00000000000E+00  0.00000000000E+00  0.45593999997E+02  0.45594000000E+02  0.51100000000E-03 0. -1.
         11   -1    0    0    0    0 -0.00000000000E+00 -0.00000000000E+00 -0.45593999997E+02  0.45594000000E+02  0.51100000000E-03 0.  1.
    9900012    2    1    2    0    0 -0.10020455296E+01  0.40938420837E+00  0.47028774733E+00  0.90007804576E+02  0.90000066796E+02 0.  0.
         12    1    1    2    0    0  0.10020455296E+01 -0.40938420837E+00 -0.47028774733E+00  0.11801954240E+01  0.00000000000E+00 0. -1.
         11    1    3    3    0    0  0.18534244184E+02 -0.22218749297E+02  0.25783975634E+02  0.38755701871E+02  0.51100000000E-03 0. -1.
        -11    1    3    3    0    0  0.64755501339E+01  0.63983909301E+01  0.29327848520E+01  0.95641718555E+01  0.51100000000E-03 0.  1.
        -12    1    3    3    0    0 -0.26011839847E+02  0.16229742575E+02 -0.28246472739E+02  0.41687930849E+02  0.00000000000E+00 0.  1.
</event>
<event>
 7    1  0.1698110E-015  0.9000738E+02  0.7816164E-02  0.1186340E+00
        -11   -1    0    0    0    0  0.00000000000E+00  0.00000000000E+00  0.45593999997E+02  0.45594000000E+02  0.51100000000E-03 0. -1.
         11   -1    0    0    0    0 -0.00000000000E+00 -0.00000000000E+00 -0.45593999997E+02  0.45594000000E+02  0.51100000000E-03 0.  1.
    9900012    2    1    2    0    0  0.11106355759E+01  0.85568017146E-01 -0.39120428200E+00  0.90007375564E+02  0.89999632121E+02 0.  0.
         12    1    1    2    0    0 -0.11106355759E+01 -0.85568017146E-01  0.39120428200E+00  0.11806244358E+01  0.00000000000E+00 0. -1.
         11    1    3    3    0    0  0.33198903756E+02  0.14105732733E+02  0.65767846032E+00  0.36077298232E+02  0.51100000000E-03 0. -1.
        -11    1    3    3    0    0  0.89266004072E+01  0.80849043583E+00  0.43875233234E+01  0.99793893996E+01  0.51100000000E-03 0.  1.
        -12    1    3    3    0    0 -0.41014868587E+02 -0.14828655152E+02 -0.54364060657E+01  0.43950687932E+02  0.00000000000E+00 0.  1.
</event>
<event>
 7    1  0.1698110E-015  0.9000770E+02  0.7816164E-02  0.1186339E+00
        -11   -1    0    0    0    0  0.00000000000E+00  0.00000000000E+00  0.45593999997E+02  0.45594000000E+02  0.51100000000E-03 0.  1.
         11   -1    0    0    0    0 -0.00000000000E+00 -0.00000000000E+00 -0.45593999997E+02  0.45594000000E+02  0.51100000000E-03 0. -1.
    9900012    2    1    2    0    0  0.18693182684E+00 -0.77333390579E+00  0.87185433593E+00  0.90007695454E+02  0.89999956234E+02 0.  0.
         12    1    1    2    0    0 -0.18693182684E+00  0.77333390579E+00 -0.87185433593E+00  0.11803045458E+01  0.00000000000E+00 0. -1.
         11    1    3    3    0    0 -0.34759822338E+01  0.31598190747E+02 -0.18869847869E+02  0.36967543465E+02  0.51100000000E-03 0. -1.
        -11    1    3    3    0    0 -0.10632447504E+02 -0.41575750136E+01 -0.54066337126E+01  0.12631945942E+02  0.51100000000E-03 0.  1.
        -12    1    3    3    0    0  0.14295361565E+02 -0.28213949639E+02  0.25148335917E+02  0.40408206047E+02  0.00000000000E+00 0.  1.
</event>
<event>
 7    1  0.1698110E-015  0.9000768E+02  0.7816164E-02  0.1186339E+00
        -11   -1    0    0    0    0  0.00000000000E+00  0.00000000000E+00  0.45593999997E+02  0.45594000000E+02  0.51100000000E-03 0.  1.
         11   -1    0    0    0    0 -0.00000000000E+00 -0.00000000000E+00 -0.45593999997E+02  0.45594000000E+02  0.51100000000E-03 0. -1.
    9900012    2    1    2    0    0 -0.39038067477E+00 -0.81919398443E+00  0.75476666147E+00  0.90007682853E+02  0.89999943466E+02 0.  0.
         12    1    1    2    0    0  0.39038067477E+00  0.81919398443E+00 -0.75476666147E+00  0.11803171475E+01  0.00000000000E+00 0. -1.
         11    1    3    3    0    0 -0.64285711001E+01  0.58473203729E+01  0.11160775536E+01  0.87614674170E+01  0.51100000000E-03 0. -1.
        -11    1    3    3    0    0 -0.31897793605E+02 -0.97799224057E+01  0.19154838180E+02  0.38471079333E+02  0.51100000000E-03 0.  1.
         12    1    3    3    0    0  0.37935984030E+02  0.31134080484E+01 -0.19516149072E+02  0.42775136102E+02  0.00000000000E+00 0. -1.
</event>
<event>
 7    1  0.1698110E-015  0.9000765E+02  0.7816164E-02  0.1186339E+00
        -11   -1    0    0    0    0  0.00000000000E+00  0.00000000000E+00  0.45593999997E+02  0.45594000000E+02  0.51100000000E-03 0.  1.
         11   -1    0    0    0    0 -0.00000000000E+00 -0.00000000000E+00 -0.45593999997E+02  0.45594000000E+02  0.51100000000E-03 0. -1.
    9900012    2    1    2    0    0  0.56250581317E+00  0.47893848736E+00  0.92056192924E+00  0.90007648726E+02  0.89999908889E+02 0.  0.
         12    1    1    2    0    0 -0.56250581317E+00 -0.47893848736E+00 -0.92056192924E+00  0.11803512740E+01  0.00000000000E+00 0. -1.
         11    1    3    3    0    0 -0.87799817426E+01  0.23405620806E+01  0.28150182344E+01  0.95126567358E+01  0.51100000000E-03 0. -1.
        -11    1    3    3    0    0 -0.33928050024E+02  0.49003787257E+01  0.88427985952E+01  0.35402279268E+02  0.51100000000E-03 0.  1.
         12    1    3    3    0    0  0.43270537580E+02 -0.67620023189E+01 -0.10737254900E+02  0.45092712722E+02  0.00000000000E+00 0. -1.
</event>
<event>
 7    1  0.1698110E-015  0.9000760E+02  0.7816164E-02  0.1186339E+00
        -11   -1    0    0    0    0  0.00000000000E+00  0.00000000000E+00  0.45593999997E+02  0.45594000000E+02  0.51100000000E-03 0.  1.
         11   -1    0    0    0    0 -0.00000000000E+00 -0.00000000000E+00 -0.45593999997E+02  0.45594000000E+02  0.51100000000E-03 0. -1.
    9900012    2    1    2    0    0 -0.91816686193E+00  0.49399801906E+00 -0.55341893773E+00  0.90007603054E+02  0.89999862614E+02 0.  0.
         12    1    1    2    0    0  0.91816686193E+00 -0.49399801906E+00  0.55341893773E+00  0.11803969459E+01  0.00000000000E+00 0. -1.
         11    1    3    3    0    0  0.10189123784E+02 -0.20837612232E+02  0.28233963067E+02  0.36540128595E+02  0.51100000000E-03 0. -1.
        -11    1    3    3    0    0  0.37919723506E+01 -0.96433500045E+01 -0.40784789850E+01  0.11135854018E+02  0.51100000000E-03 0.  1.
        -12    1    3    3    0    0 -0.14899262997E+02  0.30974960256E+02 -0.24708903020E+02  0.42331620441E+02  0.00000000000E+00 0.  1.
</event>
<event>
 7    1  0.1698110E-015  0.9000773E+02  0.7816164E-02  0.1186339E+00
        -11   -1    0    0    0    0  0.00000000000E+00  0.00000000000E+00  0.45593999997E+02  0.45594000000E+02  0.51100000000E-03 0. -1.
         11   -1    0    0    0    0 -0.00000000000E+00 -0.00000000000E+00 -0.45593999997E+02  0.45594000000E+02  0.51100000000E-03 0.  1.
    9900012    2    1    2    0    0 -0.11305802743E+01 -0.13769780663E+00  0.30963184818E+00  0.90007727013E+02  0.89999988210E+02 0.  0.
         12    1    1    2    0    0  0.11305802743E+01  0.13769780663E+00 -0.30963184818E+00  0.11802729870E+01  0.00000000000E+00 0. -1.
         11    1    3    3    0    0 -0.85992949897E+01  0.62524129543E+01  0.25429949309E+02  0.27563070659E+02  0.51100000000E-03 0. -1.
        -11    1    3    3    0    0  0.17732393583E+02  0.19607940941E+02 -0.26267715446E+01  0.26567067192E+02  0.51100000000E-03 0.  1.
         12    1    3    3    0    0 -0.10263678868E+02 -0.25998051702E+02 -0.22493545916E+02  0.35877589162E+02  0.00000000000E+00 0. -1.
</event>
<event>
 7    1  0.1698110E-015  0.9000770E+02  0.7816164E-02  0.1186339E+00
        -11   -1    0    0    0    0  0.00000000000E+00  0.00000000000E+00  0.45593999997E+02  0.45594000000E+02  0.51100000000E-03 0.  1.
         11   -1    0    0    0    0 -0.00000000000E+00 -0.00000000000E+00 -0.45593999997E+02  0.45594000000E+02  0.51100000000E-03 0. -1.
    9900012    2    1    2    0    0 -0.66527198925E+00 -0.28262909115E+00  0.93308336054E+00  0.90007698945E+02  0.89999959771E+02 0.  0.
         12    1    1    2    0    0  0.66527198925E+00  0.28262909115E+00 -0.93308336054E+00  0.11803010551E+01  0.00000000000E+00 0. -1.
         11    1    3    3    0    0  0.69586490839E+01 -0.77711341034E+01  0.42550895928E+01  0.11265838186E+02  0.51100000000E-03 0. -1.
        -11    1    3    3    0    0 -0.38763538181E+02 -0.73578944799E+00  0.15135927456E+02  0.41620302481E+02  0.51100000000E-03 0.  1.
         12    1    3    3    0    0  0.31139617107E+02  0.82242944602E+01 -0.18457933688E+02  0.37121558278E+02  0.00000000000E+00 0. -1.
</event>
<event>
 7    1  0.1698110E-015  0.9000777E+02  0.7816164E-02  0.1186339E+00
        -11   -1    0    0    0    0  0.00000000000E+00  0.00000000000E+00  0.45593999997E+02  0.45594000000E+02  0.51100000000E-03 0. -1.
         11   -1    0    0    0    0 -0.00000000000E+00 -0.00000000000E+00 -0.45593999997E+02  0.45594000000E+02  0.51100000000E-03 0.  1.
    9900012    2    1    2    0    0  0.62160470333E+00 -0.91006696631E+00 -0.42229856659E+00  0.90007766816E+02  0.90000028537E+02 0.  0.
         12    1    1    2    0    0 -0.62160470333E+00  0.91006696631E+00  0.42229856659E+00  0.11802331845E+01  0.00000000000E+00 0. -1.
         11    1    3    3    0    0 -0.30622757383E+02 -0.18229977588E+02 -0.91249091614E+01  0.36787896380E+02  0.51100000000E-03 0. -1.
        -11    1    3    3    0    0 -0.42847754016E+01  0.15011922757E+01 -0.93111581956E+01  0.10359080350E+02  0.51100000000E-03 0.  1.
        -12    1    3    3    0    0  0.35529137488E+02  0.15818718346E+02  0.18013768790E+02  0.42860790086E+02  0.00000000000E+00 0.  1.
</event>
<event>
 7    1  0.1698110E-015  0.9000769E+02  0.7816164E-02  0.1186339E+00
        -11   -1    0    0    0    0  0.00000000000E+00  0.00000000000E+00  0.45593999997E+02  0.45594000000E+02  0.51100000000E-03 0.  1.
         11   -1    0    0    0    0 -0.00000000000E+00 -0.00000000000E+00 -0.45593999997E+02  0.45594000000E+02  0.51100000000E-03 0. -1.
    9900012    2    1    2    0    0  0.87435168552E+00  0.77675918138E+00 -0.15898257619E+00  0.90007694465E+02  0.89999955232E+02 0.  0.
         12    1    1    2    0    0 -0.87435168552E+00 -0.77675918138E+00  0.15898257619E+00  0.11803055347E+01  0.00000000000E+00 0. -1.
         11    1    3    3    0    0  0.54152241136E+01 -0.14284280858E+02  0.65859396984E+01  0.16635502211E+02  0.51100000000E-03 0. -1.
        -11    1    3    3    0    0 -0.75001176450E+01 -0.27770706377E+02  0.41860877471E+01  0.29068664026E+02  0.51100000000E-03 0.  1.
         12    1    3    3    0    0  0.29592452169E+01  0.42831746417E+02 -0.10931010022E+02  0.44303528228E+02  0.00000000000E+00 0. -1.
</event>
<event>
 7    1  0.1698110E-015  0.9000775E+02  0.7816164E-02  0.1186339E+00
        -11   -1    0    0    0    0  0.00000000000E+00  0.00000000000E+00  0.45593999997E+02  0.45594000000E+02  0.51100000000E-03 0.  1.
         11   -1    0    0    0    0 -0.00000000000E+00 -0.00000000000E+00 -0.45593999997E+02  0.45594000000E+02  0.51100000000E-03 0. -1.
    9900012    2    1    2    0    0 -0.83396699442E+00 -0.11554694738E+00  0.82712678004E+00  0.90007749707E+02  0.90000011203E+02 0.  0.
         12    1    1    2    0    0  0.83396699442E+00  0.11554694738E+00 -0.82712678004E+00  0.11802502934E+01  0.00000000000E+00 0. -1.
         11    1    3    3    0    0 -0.49866909717E+01  0.34343763546E+02 -0.13753700501E+02  0.37329953913E+02  0.51100000000E-03 0. -1.
        -11    1    3    3    0    0 -0.68212629328E+01 -0.20392940306E+01 -0.87312216197E+01  0.11265992161E+02  0.51100000000E-03 0.  1.
        -12    1    3    3    0    0  0.10973986910E+02 -0.32420016463E+02  0.23312048901E+02  0.41411803633E+02  0.00000000000E+00 0.  1.
</event>
<event>
 7    1  0.1698110E-015  0.9000819E+02  0.7816164E-02  0.1186338E+00
        -11   -1    0    0    0    0  0.00000000000E+00  0.00000000000E+00  0.45593999997E+02  0.45594000000E+02  0.51100000000E-03 0. -1.
         11   -1    0    0    0    0 -0.00000000000E+00 -0.00000000000E+00 -0.45593999997E+02  0.45594000000E+02  0.51100000000E-03 0.  1.
    9900012    2    1    2    0    0 -0.10053926302E+01 -0.57752295744E+00 -0.21818884864E+00  0.90008189218E+02  0.90000456515E+02 0.  0.
         12    1    1    2    0    0  0.10053926302E+01  0.57752295744E+00  0.21818884864E+00  0.11798107818E+01  0.00000000000E+00 0. -1.
         11    1    3    3    0    0  0.82919685470E+01  0.85783110149E+01 -0.10332699120E+01  0.11975466973E+02  0.51100000000E-03 0. -1.
        -11    1    3    3    0    0  0.70478308154E+01 -0.40600310399E+02 -0.68535617177E+01  0.41773537463E+02  0.51100000000E-03 0.  1.
         12    1    3    3    0    0 -0.16345191992E+02  0.31444476426E+02  0.76686427810E+01  0.36259184782E+02  0.00000000000E+00 0. -1.
</event>
<event>
 7    1  0.1724580E-015  0.9000764E+02  0.7816164E-02  0.1186339E+00
        -11   -1    0    0    0    0  0.00000000000E+00  0.00000000000E+00  0.45593999997E+02  0.45594000000E+02  0.51100000000E-03 0.  1.
         11   -1    0    0    0    0 -0.00000000000E+00 -0.00000000000E+00 -0.45593999997E+02  0.45594000000E+02  0.51100000000E-03 0. -1.
    9900012    2    1    2    0    0  0.32697094279E+00  0.36953586296E+00  0.10722831220E+01  0.90007636562E+02  0.89999896565E+02 0.  0.
         12    1    1    2    0    0 -0.32697094279E+00 -0.36953586296E+00 -0.10722831220E+01  0.11803634377E+01  0.00000000000E+00 0. -1.
         11    1    3    3    0    0 -0.26995807582E-01 -0.10001766561E+02 -0.16642149781E+01  0.10139313334E+02  0.51100000000E-03 0. -1.
        -11    1    3    3    0    0  0.24142065345E+02 -0.46765806214E+01  0.31274377559E+02  0.39784374035E+02  0.51100000000E-03 0.  1.
         12    1    3    3    0    0 -0.23788098594E+02  0.15047883046E+02 -0.28537879459E+02  0.40083949193E+02  0.00000000000E+00 0. -1.
</event>
<event>
 7    1  0.1698110E-015  0.9000791E+02  0.7816164E-02  0.1186339E+00
        -11   -1    0    0    0    0  0.00000000000E+00  0.00000000000E+00  0.45593999997E+02  0.45594000000E+02  0.51100000000E-03 0.  1.
         11   -1    0    0    0    0 -0.00000000000E+00 -0.00000000000E+00 -0.45593999997E+02  0.45594000000E+02  0.51100000000E-03 0. -1.
    9900012    2    1    2    0    0 -0.28143013340E+00  0.30257791069E+00  0.11053729415E+01  0.90007912863E+02  0.90000176512E+02 0.  0.
         12    1    1    2    0    0  0.28143013340E+00 -0.30257791069E+00 -0.11053729415E+01  0.11800871374E+01  0.00000000000E+00 0. -1.
         11    1    3    3    0    0 -0.22578956519E+01 -0.69902346853E+01 -0.78686290702E+01  0.10764608559E+02  0.51100000000E-03 0. -1.
        -11    1    3    3    0    0 -0.33616949685E+02  0.21321400501E+02 -0.57082176672E+00  0.39812400872E+02  0.51100000000E-03 0.  1.
         12    1    3    3    0    0  0.35593415203E+02 -0.14028587905E+02  0.95448237784E+01  0.39430903431E+02  0.00000000000E+00 0. -1.
</event>
<event>
 7    1  0.1698110E-015  0.9000769E+02  0.7816164E-02  0.1186339E+00
        -11   -1    0    0    0    0  0.00000000000E+00  0.00000000000E+00  0.45593999997E+02  0.45594000000E+02  0.51100000000E-03 0.  1.
         11   -1    0    0    0    0 -0.00000000000E+00 -0.00000000000E+00 -0.45593999997E+02  0.45594000000E+02  0.51100000000E-03 0. -1.
    9900012    2    1    2    0    0  0.65729793528E+00  0.72460064165E+00 -0.66033551598E+00  0.90007690863E+02  0.89999951582E+02 0.  0.
         12    1    1    2    0    0 -0.65729793528E+00 -0.72460064165E+00  0.66033551598E+00  0.11803091372E+01  0.00000000000E+00 0. -1.
         11    1    3    3    0    0  0.63672053925E+01  0.65151849892E+01 -0.34817226266E+02  0.35989278752E+02  0.51100000000E-03 0. -1.
        -11    1    3    3    0    0  0.12112337681E+01  0.78856883697E+01 -0.66763346913E+01  0.10403105953E+02  0.51100000000E-03 0.  1.
        -12    1    3    3    0    0 -0.69211412253E+01 -0.13676272717E+02  0.40833225441E+02  0.43615306158E+02  0.00000000000E+00 0.  1.
</event>
<event>
 7    1  0.1698110E-015  0.9000777E+02  0.7816164E-02  0.1186339E+00
        -11   -1    0    0    0    0  0.00000000000E+00  0.00000000000E+00  0.45593999997E+02  0.45594000000E+02  0.51100000000E-03 0.  1.
         11   -1    0    0    0    0 -0.00000000000E+00 -0.00000000000E+00 -0.45593999997E+02  0.45594000000E+02  0.51100000000E-03 0. -1.
    9900012    2    1    2    0    0 -0.10513722177E+01  0.49758494696E+00  0.19994291477E+00  0.90007766341E+02  0.90000028057E+02 0.  0.
         12    1    1    2    0    0  0.10513722177E+01 -0.49758494696E+00 -0.19994291477E+00  0.11802336585E+01  0.00000000000E+00 0. -1.
         11    1    3    3    0    0  0.29846276463E+01 -0.16870076121E+02 -0.28842100472E+02  0.33546597896E+02  0.51100000000E-03 0. -1.
        -11    1    3    3    0    0 -0.27746916643E+01 -0.13743870142E+02  0.20617101864E+00  0.14022674034E+02  0.51100000000E-03 0.  1.
        -12    1    3    3    0    0 -0.12613081997E+01  0.31111531210E+02  0.28835872368E+02  0.42438494411E+02  0.00000000000E+00 0.  1.
</event>
<event>
 7    1  0.1698110E-015  0.9000778E+02  0.7816164E-02  0.1186339E+00
        -11   -1    0    0    0    0  0.00000000000E+00  0.00000000000E+00  0.45593999997E+02  0.45594000000E+02  0.51100000000E-03 0. -1.
         11   -1    0    0    0    0 -0.00000000000E+00 -0.00000000000E+00 -0.45593999997E+02  0.45594000000E+02  0.51100000000E-03 0.  1.
    9900012    2    1    2    0    0  0.10244856656E+01 -0.41259077175E+00 -0.41608672168E+00  0.90007775367E+02  0.90000037202E+02 0.  0.
         12    1    1    2    0    0 -0.10244856656E+01  0.41259077175E+00  0.41608672168E+00  0.11802246328E+01  0.00000000000E+00 0. -1.
         11    1    3    3    0    0  0.15720816994E+02  0.61285900040E+01 -0.75044114702E+01  0.18466723970E+02  0.51100000000E-03 0. -1.
        -11    1    3    3    0    0  0.20210603579E+02 -0.18068896715E+02 -0.12537837848E+02  0.29868895253E+02  0.51100000000E-03 0.  1.
         12    1    3    3    0    0 -0.34906934907E+02  0.11527715939E+02  0.19626162597E+02  0.41672156144E+02  0.00000000000E+00 0. -1.
</event>
<event>
 7    1  0.1698110E-015  0.9000776E+02  0.7816164E-02  0.1186339E+00
        -11   -1    0    0    0    0  0.00000000000E+00  0.00000000000E+00  0.45593999997E+02  0.45594000000E+02  0.51100000000E-03 0.  1.
         11   -1    0    0    0    0 -0.00000000000E+00 -0.00000000000E+00 -0.45593999997E+02  0.45594000000E+02  0.51100000000E-03 0. -1.
    9900012    2    1    2    0    0  0.67434501474E+00  0.62074214107E+00  0.74357295279E+00  0.90007761575E+02  0.90000023227E+02 0.  0.
         12    1    1    2    0    0 -0.67434501474E+00 -0.62074214107E+00 -0.74357295279E+00  0.11802384254E+01  0.00000000000E+00 0. -1.
         11    1    3    3    0    0 -0.59857700712E+01 -0.54419694973E+01 -0.17819356320E+01  0.82837051018E+01  0.51100000000E-03 0. -1.
        -11    1    3    3    0    0  0.20171656396E+02  0.13992422199E+02  0.36686031863E+02  0.44142366666E+02  0.51100000000E-03 0.  1.
         12    1    3    3    0    0 -0.13511541310E+02 -0.79297105606E+01 -0.34160523278E+02  0.37581689807E+02  0.00000000000E+00 0. -1.
</event>
<event>
 7    1  0.1698110E-015  0.9000776E+02  0.7816164E-02  0.1186339E+00
        -11   -1    0    0    0    0  0.00000000000E+00  0.00000000000E+00  0.45593999997E+02  0.45594000000E+02  0.51100000000E-03 0.  1.
         11   -1    0    0    0    0 -0.00000000000E+00 -0.00000000000E+00 -0.45593999997E+02  0.45594000000E+02  0.51100000000E-03 0. -1.
    9900012    2    1    2    0    0  0.70569260296E+00 -0.90581143327E+00  0.27290572493E+00  0.90007756831E+02  0.90000018421E+02 0.  0.
         12    1    1    2    0    0 -0.70569260296E+00  0.90581143327E+00 -0.27290572493E+00  0.11802431687E+01  0.00000000000E+00 0. -1.
         11    1    3    3    0    0 -0.16158444608E+01 -0.93389042756E+01 -0.39704726642E+02  0.40820232782E+02  0.51100000000E-03 0. -1.
        -11    1    3    3    0    0  0.81349503118E+01  0.47161598711E+01  0.83366494053E+00  0.94400518007E+01  0.51100000000E-03 0.  1.
        -12    1    3    3    0    0 -0.58134132481E+01  0.37169329712E+01  0.39143967426E+02  0.39747472249E+02  0.00000000000E+00 0.  1.
</event>
<event>
 7    1  0.1990399E-015  0.9000778E+02  0.7816164E-02  0.1186339E+00
        -11   -1    0    0    0    0  0.00000000000E+00  0.00000000000E+00  0.45593999997E+02  0.45594000000E+02  0.51100000000E-03 0.  1.
         11   -1    0    0    0    0 -0.00000000000E+00 -0.00000000000E+00 -0.45593999997E+02  0.45594000000E+02  0.51100000000E-03 0. -1.
    9900012    2    1    2    0    0  0.10380111499E+01 -0.21546024320E+00  0.51867520938E+00  0.90007782123E+02  0.90000044047E+02 0.  0.
         12    1    1    2    0    0 -0.10380111499E+01  0.21546024320E+00 -0.51867520938E+00  0.11802178767E+01  0.00000000000E+00 0. -1.
         11    1    3    3    0    0 -0.74571081416E+01  0.52071409286E+00  0.68020059345E+01  0.10106774460E+02  0.51100000000E-03 0. -1.
        -11    1    3    3    0    0  0.34739802703E+02 -0.14127288400E+02  0.18113535239E+02  0.41647740977E+02  0.51100000000E-03 0.  1.
         12    1    3    3    0    0 -0.26244683412E+02  0.13391114064E+02 -0.24396865964E+02  0.38253266686E+02  0.00000000000E+00 0. -1.
</event>
<event>
 7    1  0.1698110E-015  0.9000782E+02  0.7816164E-02  0.1186339E+00
        -11   -1    0    0    0    0  0.00000000000E+00  0.00000000000E+00  0.45593999997E+02  0.45594000000E+02  0.51100000000E-03 0. -1.
         11   -1    0    0    0    0 -0.00000000000E+00 -0.00000000000E+00 -0.45593999997E+02  0.45594000000E+02  0.51100000000E-03 0.  1.
    9900012    2    1    2    0    0  0.98613819836E+00 -0.62069157336E+00  0.18732579043E+00  0.90007823095E+02  0.90000085560E+02 0.  0.
         12    1    1    2    0    0 -0.98613819836E+00  0.62069157336E+00 -0.18732579043E+00  0.11801769051E+01  0.00000000000E+00 0. -1.
         11    1    3    3    0    0 -0.32377115392E+02 -0.12479879895E+02 -0.16061564682E+02  0.38236093728E+02  0.51100000000E-03 0. -1.
        -11    1    3    3    0    0  0.78361929896E+01 -0.93375305862E+01 -0.40852653574E+01  0.12856313287E+02  0.51100000000E-03 0.  1.
        -12    1    3    3    0    0  0.25527060601E+02  0.21196718908E+02  0.20334155830E+02  0.38915416080E+02  0.00000000000E+00 0.  1.
</event>
<event>
 7    1  0.1698110E-015  0.9000791E+02  0.7816164E-02  0.1186339E+00
        -11   -1    0    0    0    0  0.00000000000E+00  0.00000000000E+00  0.45593999997E+02  0.45594000000E+02  0.51100000000E-03 0.  1.
         11   -1    0    0    0    0 -0.00000000000E+00 -0.00000000000E+00 -0.45593999997E+02  0.45594000000E+02  0.51100000000E-03 0. -1.
    9900012    2    1    2    0    0 -0.60679424915E+00 -0.94172437267E+00  0.37090010556E+00  0.90007910621E+02  0.90000174241E+02 0.  0.
         12    1    1    2    0    0  0.60679424915E+00  0.94172437267E+00 -0.37090010556E+00  0.11800893793E+01  0.00000000000E+00 0. -1.
         11    1    3    3    0    0  0.14297600318E+02  0.27261822922E+02 -0.17738191457E+02  0.35528464649E+02  0.51100000000E-03 0. -1.
        -11    1    3    3    0    0  0.46099991063E+01  0.40645581607E+01 -0.68922212952E+01  0.92344701767E+01  0.51100000000E-03 0.  1.
        -12    1    3    3    0    0 -0.19514393673E+02 -0.32268105455E+02  0.25001312858E+02  0.45244975795E+02  0.00000000000E+00 0.  1.
</event>
<event>
 7    1  0.1698110E-015  0.9000767E+02  0.7816164E-02  0.1186339E+00
        -11   -1    0    0    0    0  0.00000000000E+00  0.00000000000E+00  0.45593999997E+02  0.45594000000E+02  0.51100000000E-03 0.  1.
         11   -1    0    0    0    0 -0.00000000000E+00 -0.00000000000E+00 -0.45593999997E+02  0.45594000000E+02  0.51100000000E-03 0. -1.
    9900012    2    1    2    0    0  0.20677271454E+00 -0.41648013234E-01  0.11613259445E+01  0.90007674849E+02  0.89999935357E+02 0.  0.
         12    1    1    2    0    0 -0.20677271454E+00  0.41648013234E-01 -0.11613259445E+01  0.11803251509E+01  0.00000000000E+00 0. -1.
         11    1    3    3    0    0 -0.10546551611E+01  0.22157088529E+01  0.90595618552E+01  0.93860174994E+01  0.51100000000E-03 0. -1.
        -11    1    3    3    0    0  0.11784207181E+02  0.16252562757E+02  0.30617730278E+02  0.36612275847E+02  0.51100000000E-03 0.  1.
         12    1    3    3    0    0 -0.10522779306E+02 -0.18509919623E+02 -0.38515966189E+02  0.44009381503E+02  0.00000000000E+00 0. -1.
</event>
<event>
 7    1  0.1698110E-015  0.9000782E+02  0.7816164E-02  0.1186339E+00
        -11   -1    0    0    0    0  0.00000000000E+00  0.00000000000E+00  0.45593999997E+02  0.45594000000E+02  0.51100000000E-03 0.  1.
         11   -1    0    0    0    0 -0.00000000000E+00 -0.00000000000E+00 -0.45593999997E+02  0.45594000000E+02  0.51100000000E-03 0. -1.
    9900012    2    1    2    0    0 -0.49989364097E+00 -0.95417756482E-01  0.10648097862E+01  0.90007822860E+02  0.90000085322E+02 0.  0.
         12    1    1    2    0    0  0.49989364097E+00  0.95417756482E-01 -0.10648097862E+01  0.11801771398E+01  0.00000000000E+00 0. -1.
         11    1    3    3    0    0 -0.84497805288E+01  0.48281293703E+01  0.45636630840E+00  0.97425815198E+01  0.51100000000E-03 0. -1.
        -11    1    3    3    0    0 -0.12449395761E+02  0.41863277114E+01 -0.35473348803E+02  0.37826859110E+02  0.51100000000E-03 0.  1.
         12    1    3    3    0    0  0.20399282649E+02 -0.91098748383E+01  0.36081792281E+02  0.42438382231E+02  0.00000000000E+00 0. -1.
</event>
<event>
 7    1  0.1698110E-015  0.9000795E+02  0.7816164E-02  0.1186339E+00
        -11   -1    0    0    0    0  0.00000000000E+00  0.00000000000E+00  0.45593999997E+02  0.45594000000E+02  0.51100000000E-03 0. -1.
         11   -1    0    0    0    0 -0.00000000000E+00 -0.00000000000E+00 -0.45593999997E+02  0.45594000000E+02  0.51100000000E-03 0.  1.
    9900012    2    1    2    0    0 -0.36293381011E-01 -0.17178148810E+00 -0.11669196156E+01  0.90007945985E+02  0.90000210072E+02 0.  0.
         12    1    1    2    0    0  0.36293381011E-01  0.17178148810E+00  0.11669196156E+01  0.11800540151E+01  0.00000000000E+00 0. -1.
         11    1    3    3    0    0  0.39940005894E+01 -0.57614078348E+01 -0.55676700518E+01  0.89523634317E+01  0.51100000000E-03 0. -1.
        -11    1    3    3    0    0  0.15215808202E+02 -0.30188823346E+02  0.17889813420E+02  0.38248284912E+02  0.51100000000E-03 0.  1.
         12    1    3    3    0    0 -0.19246102172E+02  0.35778449692E+02 -0.13489062983E+02  0.42807297642E+02  0.00000000000E+00 0. -1.
</event>
<event>
 7    1  0.1698110E-015  0.9000749E+02  0.7816164E-02  0.1186340E+00
        -11   -1    0    0    0    0  0.00000000000E+00  0.00000000000E+00  0.45593999997E+02  0.45594000000E+02  0.51100000000E-03 0.  1.
         11   -1    0    0    0    0 -0.00000000000E+00 -0.00000000000E+00 -0.45593999997E+02  0.45594000000E+02  0.51100000000E-03 0. -1.
    9900012    2    1    2    0    0  0.18537993019E+00  0.11508821491E+01  0.18630483233E+00  0.90007489547E+02  0.89999747608E+02 0.  0.
         12    1    1    2    0    0 -0.18537993019E+00 -0.11508821491E+01 -0.18630483233E+00  0.11805104532E+01  0.00000000000E+00 0. -1.
         11    1    3    3    0    0 -0.76187550831E+01  0.81722832112E+01  0.40670449881E+00  0.11180207991E+02  0.51100000000E-03 0. -1.
        -11    1    3    3    0    0  0.89979345459E+01 -0.31406146226E+02  0.26912709202E+02  0.42327328804E+02  0.51100000000E-03 0.  1.
         12    1    3    3    0    0 -0.11937995326E+01  0.24384745163E+02 -0.27133108869E+02  0.36499952752E+02  0.00000000000E+00 0. -1.
</event>
<event>
 7    1  0.1698110E-015  0.9000774E+02  0.7816164E-02  0.1186339E+00
        -11   -1    0    0    0    0  0.00000000000E+00  0.00000000000E+00  0.45593999997E+02  0.45594000000E+02  0.51100000000E-03 0.  1.
         11   -1    0    0    0    0 -0.00000000000E+00 -0.00000000000E+00 -0.45593999997E+02  0.45594000000E+02  0.51100000000E-03 0. -1.
    9900012    2    1    2    0    0 -0.10983845405E+00 -0.11523403960E+01  0.23036944523E+00  0.90007736065E+02  0.89999997381E+02 0.  0.
         12    1    1    2    0    0  0.10983845405E+00  0.11523403960E+01 -0.23036944523E+00  0.11802639347E+01  0.00000000000E+00 0. -1.
         11    1    3    3    0    0  0.89917146672E+01 -0.12627152737E+02 -0.38365504369E+02  0.41378833293E+02  0.51100000000E-03 0. -1.
        -11    1    3    3    0    0 -0.72521924435E+01  0.34682927801E+00 -0.11161483632E+01  0.73457724723E+01  0.51100000000E-03 0.  1.
        -12    1    3    3    0    0 -0.18493606778E+01  0.11127983063E+02  0.39712022178E+02  0.41283130300E+02  0.00000000000E+00 0.  1.
</event>
<event>
 7    1  0.1698110E-015  0.9000772E+02  0.7816164E-02  0.1186339E+00
        -11   -1    0    0    0    0  0.00000000000E+00  0.00000000000E+00  0.45593999997E+02  0.45594000000E+02  0.51100000000E-03 0.  1.
         11   -1    0    0    0    0 -0.00000000000E+00 -0.00000000000E+00 -0.45593999997E+02  0.45594000000E+02  0.51100000000E-03 0. -1.
    9900012    2    1    2    0    0  0.82946728494E+00  0.81158762080E+00 -0.21531418794E+00  0.90007724336E+02  0.89999985497E+02 0.  0.
         12    1    1    2    0    0 -0.82946728494E+00 -0.81158762080E+00  0.21531418794E+00  0.11802756638E+01  0.00000000000E+00 0. -1.
         11    1    3    3    0    0 -0.23551100268E+02  0.20165161381E+02 -0.23352309089E+02  0.38815182563E+02  0.51100000000E-03 0. -1.
        -11    1    3    3    0    0  0.36324904920E+01  0.94606200971E+01  0.44433990163E+01  0.11065356518E+02  0.51100000000E-03 0.  1.
        -12    1    3    3    0    0  0.20748077061E+02 -0.28814193857E+02  0.18693595885E+02  0.40127185255E+02  0.00000000000E+00 0.  1.
</event>
<event>
 7    1  0.1698110E-015  0.9000779E+02  0.7816164E-02  0.1186339E+00
        -11   -1    0    0    0    0  0.00000000000E+00  0.00000000000E+00  0.45593999997E+02  0.45594000000E+02  0.51100000000E-03 0.  1.
         11   -1    0    0    0    0 -0.00000000000E+00 -0.00000000000E+00 -0.45593999997E+02  0.45594000000E+02  0.51100000000E-03 0. -1.
    9900012    2    1    2    0    0  0.54107625207E+00 -0.38503592643E+00  0.97564652452E+00  0.90007787173E+02  0.90000049164E+02 0.  0.
         12    1    1    2    0    0 -0.54107625207E+00  0.38503592643E+00 -0.97564652452E+00  0.11802128266E+01  0.00000000000E+00 0. -1.
         11    1    3    3    0    0  0.59876492929E+01 -0.70850402717E+00 -0.89300627576E+01  0.10774968359E+02  0.51100000000E-03 0. -1.
        -11    1    3    3    0    0 -0.28924642147E+02  0.18767020285E+02 -0.17534740644E+02  0.38682077289E+02  0.51100000000E-03 0.  1.
         12    1    3    3    0    0  0.23478069106E+02 -0.18443552184E+02  0.27440449926E+02  0.40550741525E+02  0.00000000000E+00 0. -1.
</event>
<event>
 7    1  0.1698110E-015  0.9000769E+02  0.7816164E-02  0.1186339E+00
        -11   -1    0    0    0    0  0.00000000000E+00  0.00000000000E+00  0.45593999997E+02  0.45594000000E+02  0.51100000000E-03 0.  1.
         11   -1    0    0    0    0 -0.00000000000E+00 -0.00000000000E+00 -0.45593999997E+02  0.45594000000E+02  0.51100000000E-03 0. -1.
    9900012    2    1    2    0    0 -0.57680032923E+00  0.59888743100E+00 -0.83771851922E+00  0.90007687714E+02  0.89999948392E+02 0.  0.
         12    1    1    2    0    0  0.57680032923E+00 -0.59888743100E+00  0.83771851922E+00  0.11803122859E+01  0.00000000000E+00 0. -1.
         11    1    3    3    0    0 -0.35011991107E+02  0.12964827038E+01 -0.48170363096E+01  0.35365579703E+02  0.51100000000E-03 0. -1.
        -11    1    3    3    0    0 -0.95432941300E+01 -0.33750128186E+01 -0.15358535571E+01  0.10238360259E+02  0.51100000000E-03 0.  1.
        -12    1    3    3    0    0  0.43978484907E+02  0.26774175458E+01  0.55151713475E+01  0.44403747752E+02  0.00000000000E+00 0.  1.
</event>
<event>
 7    1  0.1698110E-015  0.9000770E+02  0.7816164E-02  0.1186339E+00
        -11   -1    0    0    0    0  0.00000000000E+00  0.00000000000E+00  0.45593999997E+02  0.45594000000E+02  0.51100000000E-03 0. -1.
         11   -1    0    0    0    0 -0.00000000000E+00 -0.00000000000E+00 -0.45593999997E+02  0.45594000000E+02  0.51100000000E-03 0.  1.
    9900012    2    1    2    0    0 -0.43962363938E+00  0.97740961144E+00 -0.49447611339E+00  0.90007701258E+02  0.89999962115E+02 0.  0.
         12    1    1    2    0    0  0.43962363938E+00 -0.97740961144E+00  0.49447611339E+00  0.11802987417E+01  0.00000000000E+00 0. -1.
         11    1    3    3    0    0 -0.80907897678E+01  0.27201202844E+02  0.20985636116E+02  0.35295371349E+02  0.51100000000E-03 0. -1.
        -11    1    3    3    0    0  0.54383048104E+00  0.80123193152E+00  0.11468655768E+02  0.11509465217E+02  0.51100000000E-03 0.  1.
        -12    1    3    3    0    0  0.71073356474E+01 -0.27025025164E+02 -0.32948767997E+02  0.43202864692E+02  0.00000000000E+00 0.  1.
</event>
<event>
 7    1  0.1698110E-015  0.9000766E+02  0.7816164E-02  0.1186339E+00
        -11   -1    0    0    0    0  0.00000000000E+00  0.00000000000E+00  0.45593999997E+02  0.45594000000E+02  0.51100000000E-03 0.  1.
         11   -1    0    0    0    0 -0.00000000000E+00 -0.00000000000E+00 -0.45593999997E+02  0.45594000000E+02  0.51100000000E-03 0. -1.
    9900012    2    1    2    0    0 -0.34466568407E+00  0.69873227970E+00  0.88666274494E+00  0.90007664431E+02  0.89999924801E+02 0.  0.
         12    1    1    2    0    0  0.34466568407E+00 -0.69873227970E+00 -0.88666274494E+00  0.11803355691E+01  0.00000000000E+00 0. -1.
         11    1    3    3    0    0  0.16159694401E+01  0.84265124800E+01  0.69046370243E+01  0.11013241235E+02  0.51100000000E-03 0. -1.
        -11    1    3    3    0    0 -0.24758158998E+02  0.22765388737E+02  0.13461330884E+02  0.36227569485E+02  0.51100000000E-03 0.  1.
         12    1    3    3    0    0  0.22797523874E+02 -0.30493168938E+02 -0.19479305164E+02  0.42766853711E+02  0.00000000000E+00 0. -1.
</event>
<event>
 7    1  0.1698110E-015  0.9000853E+02  0.7816164E-02  0.1186337E+00
        -11   -1    0    0    0    0  0.00000000000E+00  0.00000000000E+00  0.45593999997E+02  0.45594000000E+02  0.51100000000E-03 0.  1.
         11   -1    0    0    0    0 -0.00000000000E+00 -0.00000000000E+00 -0.45593999997E+02  0.45594000000E+02  0.51100000000E-03 0. -1.
    9900012    2    1    2    0    0  0.43359075704E+00 -0.10695769058E+01  0.24322144451E+00  0.90008528774E+02  0.90000800550E+02 0.  0.
         12    1    1    2    0    0 -0.43359075704E+00  0.10695769058E+01 -0.24322144451E+00  0.11794712260E+01  0.00000000000E+00 0. -1.
         11    1    3    3    0    0  0.22486175567E+02  0.21815797528E+02 -0.13380858441E+02  0.34067645740E+02  0.51100000000E-03 0. -1.
        -11    1    3    3    0    0  0.11811198097E+02  0.15866689514E+01 -0.24047939072E+00  0.11919721031E+02  0.51100000000E-03 0.  1.
        -12    1    3    3    0    0 -0.33863782907E+02 -0.24472043385E+02  0.13864559276E+02  0.44021162003E+02  0.00000000000E+00 0.  1.
</event>
<event>
 7    1  0.1698110E-015  0.9000778E+02  0.7816164E-02  0.1186339E+00
        -11   -1    0    0    0    0  0.00000000000E+00  0.00000000000E+00  0.45593999997E+02  0.45594000000E+02  0.51100000000E-03 0.  1.
         11   -1    0    0    0    0 -0.00000000000E+00 -0.00000000000E+00 -0.45593999997E+02  0.45594000000E+02  0.51100000000E-03 0. -1.
    9900012    2    1    2    0    0 -0.86435367446E+00  0.74270853945E+00  0.30692019842E+00  0.90007778302E+02  0.90000040175E+02 0.  0.
         12    1    1    2    0    0  0.86435367446E+00 -0.74270853945E+00 -0.30692019842E+00  0.11802216984E+01  0.00000000000E+00 0. -1.
         11    1    3    3    0    0  0.23496962250E+02  0.70101357302E+01 -0.27234265227E+02  0.36646342801E+02  0.51100000000E-03 0. -1.
        -11    1    3    3    0    0 -0.89765331258E+00  0.81946461352E+01 -0.58170653627E+01  0.10089413087E+02  0.51100000000E-03 0.  1.
        -12    1    3    3    0    0 -0.23463662612E+02 -0.14462073326E+02  0.33358250789E+02  0.43272022413E+02  0.00000000000E+00 0.  1.
</event>
<event>
 7    1  0.1698110E-015  0.9000724E+02  0.7816164E-02  0.1186340E+00
        -11   -1    0    0    0    0  0.00000000000E+00  0.00000000000E+00  0.45593999997E+02  0.45594000000E+02  0.51100000000E-03 0.  1.
         11   -1    0    0    0    0 -0.00000000000E+00 -0.00000000000E+00 -0.45593999997E+02  0.45594000000E+02  0.51100000000E-03 0. -1.
    9900012    2    1    2    0    0  0.11591917812E+01 -0.68224045321E-02  0.22453100379E+00  0.90007243335E+02  0.89999498145E+02 0.  0.
         12    1    1    2    0    0 -0.11591917812E+01  0.68224045321E-02 -0.22453100379E+00  0.11807566653E+01  0.00000000000E+00 0. -1.
         11    1    3    3    0    0 -0.22200332921E+01  0.29855691035E+02 -0.22048903564E+02  0.37181245052E+02  0.51100000000E-03 0. -1.
        -11    1    3    3    0    0 -0.10573703093E+02  0.22733833774E+01 -0.85002884270E+00  0.10848687403E+02  0.51100000000E-03 0.  1.
        -12    1    3    3    0    0  0.13952928166E+02 -0.32135896817E+02  0.23123463411E+02  0.41977310880E+02  0.00000000000E+00 0.  1.
</event>
<event>
 7    1  0.1698110E-015  0.9000777E+02  0.7816164E-02  0.1186339E+00
        -11   -1    0    0    0    0  0.00000000000E+00  0.00000000000E+00  0.45593999997E+02  0.45594000000E+02  0.51100000000E-03 0. -1.
         11   -1    0    0    0    0 -0.00000000000E+00 -0.00000000000E+00 -0.45593999997E+02  0.45594000000E+02  0.51100000000E-03 0.  1.
    9900012    2    1    2    0    0 -0.42308177038E+00  0.64557349932E-01 -0.10998949704E+01  0.90007773419E+02  0.90000035228E+02 0.  0.
         12    1    1    2    0    0  0.42308177038E+00 -0.64557349932E-01  0.10998949704E+01  0.11802265807E+01  0.00000000000E+00 0. -1.
         11    1    3    3    0    0 -0.69879455204E+01  0.72655271878E+01  0.32165397943E+02  0.33708041963E+02  0.51100000000E-03 0. -1.
        -11    1    3    3    0    0  0.33018902270E+01  0.88756549551E+00  0.10826503506E+02  0.11353564639E+02  0.51100000000E-03 0.  1.
        -12    1    3    3    0    0  0.32629735230E+01 -0.80885353334E+01 -0.44091796419E+02  0.44946166817E+02  0.00000000000E+00 0.  1.
</event>
<event>
 7    1  0.1698110E-015  0.9000769E+02  0.7816164E-02  0.1186339E+00
        -11   -1    0    0    0    0  0.00000000000E+00  0.00000000000E+00  0.45593999997E+02  0.45594000000E+02  0.51100000000E-03 0. -1.
         11   -1    0    0    0    0 -0.00000000000E+00 -0.00000000000E+00 -0.45593999997E+02  0.45594000000E+02  0.51100000000E-03 0.  1.
    9900012    2    1    2    0    0  0.17174359125E-02 -0.10947673234E+01 -0.44115114135E+00  0.90007689544E+02  0.89999950246E+02 0.  0.
         12    1    1    2    0    0 -0.17174359125E-02  0.10947673234E+01  0.44115114135E+00  0.11803104555E+01  0.00000000000E+00 0. -1.
         11    1    3    3    0    0 -0.34475916453E+01 -0.50439670567E+01 -0.11965052292E+02  0.13434655501E+02  0.51100000000E-03 0. -1.
        -11    1    3    3    0    0 -0.28331074645E+02  0.60013753692E+01 -0.17203327553E+02  0.33684132407E+02  0.51100000000E-03 0.  1.
         12    1    3    3    0    0  0.31780383726E+02 -0.20521756358E+01  0.28727228704E+02  0.42888901637E+02  0.00000000000E+00 0. -1.
</event>
<event>
 7    1  0.1698110E-015  0.9000709E+02  0.7816164E-02  0.1186340E+00
        -11   -1    0    0    0    0  0.00000000000E+00  0.00000000000E+00  0.45593999997E+02  0.45594000000E+02  0.51100000000E-03 0. -1.
         11   -1    0    0    0    0 -0.00000000000E+00 -0.00000000000E+00 -0.45593999997E+02  0.45594000000E+02  0.51100000000E-03 0.  1.
    9900012    2    1    2    0    0 -0.99880080273E+00 -0.35083850207E+00 -0.52330973574E+00  0.90007091969E+02  0.89999344781E+02 0.  0.
         12    1    1    2    0    0  0.99880080273E+00  0.35083850207E+00  0.52330973574E+00  0.11809080310E+01  0.00000000000E+00 0. -1.
         11    1    3    3    0    0 -0.56886899860E+00 -0.44862532128E+01  0.73949827980E+01  0.86680938314E+01  0.51100000000E-03 0. -1.
        -11    1    3    3    0    0 -0.30245907508E+02 -0.42031105878E+01  0.22504382717E+02  0.37933208424E+02  0.51100000000E-03 0.  1.
         12    1    3    3    0    0  0.29815975704E+02  0.83385252985E+01 -0.30422675250E+02  0.43405789714E+02  0.00000000000E+00 0. -1.
</event>
<event>
 7    1  0.1698110E-015  0.9000767E+02  0.7816164E-02  0.1186339E+00
        -11   -1    0    0    0    0  0.00000000000E+00  0.00000000000E+00  0.45593999997E+02  0.45594000000E+02  0.51100000000E-03 0.  1.
         11   -1    0    0    0    0 -0.00000000000E+00 -0.00000000000E+00 -0.45593999997E+02  0.45594000000E+02  0.51100000000E-03 0. -1.
    9900012    2    1    2    0    0  0.92730444718E-01  0.85456014010E+00 -0.80889487896E+00  0.90007668312E+02  0.89999928734E+02 0.  0.
         12    1    1    2    0    0 -0.92730444718E-01 -0.85456014010E+00  0.80889487896E+00  0.11803316880E+01  0.00000000000E+00 0. -1.
         11    1    3    3    0    0 -0.35077829765E+02  0.10807020846E+00 -0.19820229934E+02  0.40290288347E+02  0.51100000000E-03 0. -1.
        -11    1    3    3    0    0  0.43669390598E+00  0.97142217170E+01  0.16457121859E+01  0.98623107837E+01  0.51100000000E-03 0.  1.
        -12    1    3    3    0    0  0.34733866304E+02 -0.89677317854E+01  0.17365622869E+02  0.39855069181E+02  0.00000000000E+00 0.  1.
</event>
<event>
 7    1  0.1698110E-015  0.9000777E+02  0.7816164E-02  0.1186339E+00
        -11   -1    0    0    0    0  0.00000000000E+00  0.00000000000E+00  0.45593999997E+02  0.45594000000E+02  0.51100000000E-03 0. -1.
         11   -1    0    0    0    0 -0.00000000000E+00 -0.00000000000E+00 -0.45593999997E+02  0.45594000000E+02  0.51100000000E-03 0.  1.
    9900012    2    1    2    0    0  0.18218288542E+00  0.10399837907E+01  0.52742531979E+00  0.90007773599E+02  0.90000035411E+02 0.  0.
         12    1    1    2    0    0 -0.18218288542E+00 -0.10399837907E+01 -0.52742531979E+00  0.11802264006E+01  0.00000000000E+00 0. -1.
         11    1    3    3    0    0 -0.31516733289E+02  0.21109070570E+02 -0.96573845452E+01  0.39142846269E+02  0.51100000000E-03 0. -1.
        -11    1    3    3    0    0 -0.11394948146E+01 -0.39750274992E+01 -0.87541302139E+01  0.96816366445E+01  0.51100000000E-03 0.  1.
        -12    1    3    3    0    0  0.32838410989E+02 -0.16094059280E+02  0.18938940079E+02  0.41183290686E+02  0.00000000000E+00 0.  1.
</event>
<event>
 7    1  0.1698110E-015  0.9000767E+02  0.7816164E-02  0.1186339E+00
        -11   -1    0    0    0    0  0.00000000000E+00  0.00000000000E+00  0.45593999997E+02  0.45594000000E+02  0.51100000000E-03 0. -1.
         11   -1    0    0    0    0 -0.00000000000E+00 -0.00000000000E+00 -0.45593999997E+02  0.45594000000E+02  0.51100000000E-03 0.  1.
    9900012    2    1    2    0    0  0.36792552587E+00 -0.89343351006E+00 -0.67793247185E+00  0.90007667392E+02  0.89999927801E+02 0.  0.
         12    1    1    2    0    0 -0.36792552587E+00  0.89343351006E+00  0.67793247185E+00  0.11803326082E+01  0.00000000000E+00 0. -1.
         11    1    3    3    0    0  0.73782565379E+01 -0.14032933620E+01 -0.72570586568E+01  0.10443792530E+02  0.51100000000E-03 0. -1.
        -11    1    3    3    0    0  0.22565536820E+02 -0.11849341142E+02 -0.24184514350E+02  0.35135467438E+02  0.51100000000E-03 0.  1.
         12    1    3    3    0    0 -0.29575867832E+02  0.12359200994E+02  0.30763640535E+02  0.44428407424E+02  0.00000000000E+00 0. -1.
</event>
<event>
 7    1  0.1698110E-015  0.9000769E+02  0.7816164E-02  0.1186339E+00
        -11   -1    0    0    0    0  0.00000000000E+00  0.00000000000E+00  0.45593999997E+02  0.45594000000E+02  0.51100000000E-03 0. -1.
         11   -1    0    0    0    0 -0.00000000000E+00 -0.00000000000E+00 -0.45593999997E+02  0.45594000000E+02  0.51100000000E-03 0.  1.
    9900012    2    1    2    0    0  0.22737608342E+00  0.15510186543E+00 -0.11477709079E+01  0.90007688800E+02  0.89999949492E+02 0.  0.
         12    1    1    2    0    0 -0.22737608342E+00 -0.15510186543E+00  0.11477709079E+01  0.11803112001E+01  0.00000000000E+00 0. -1.
         11    1    3    3    0    0 -0.97714483249E+01 -0.39527623876E+02  0.88067779332E+01  0.41659015704E+02  0.51100000000E-03 0. -1.
        -11    1    3    3    0    0 -0.39393141525E+00  0.68719977589E+01  0.71418898406E+01  0.99189780681E+01  0.51100000000E-03 0.  1.
        -12    1    3    3    0    0  0.10392755824E+02  0.32810727982E+02 -0.17096438682E+02  0.38429695028E+02  0.00000000000E+00 0.  1.
</event>
<event>
 7    1  0.1698110E-015  0.9000771E+02  0.7816164E-02  0.1186339E+00
        -11   -1    0    0    0    0  0.00000000000E+00  0.00000000000E+00  0.45593999997E+02  0.45594000000E+02  0.51100000000E-03 0.  1.
         11   -1    0    0    0    0 -0.00000000000E+00 -0.00000000000E+00 -0.45593999997E+02  0.45594000000E+02  0.51100000000E-03 0. -1.
    9900012    2    1    2    0    0 -0.51578553361E+00 -0.19181436716E-01  0.10614504551E+01  0.90007712021E+02  0.89999973020E+02 0.  0.
         12    1    1    2    0    0  0.51578553361E+00  0.19181436716E-01 -0.10614504551E+01  0.11802879788E+01  0.00000000000E+00 0. -1.
         11    1    3    3    0    0  0.39152031453E+02 -0.11318358922E+01  0.11317864513E+02  0.40770782146E+02  0.51100000000E-03 0. -1.
        -11    1    3    3    0    0  0.68407417113E+00 -0.32014491358E+01 -0.79407026683E+01  0.85890624149E+01  0.51100000000E-03 0.  1.
        -12    1    3    3    0    0 -0.40351891158E+02  0.43141035913E+01 -0.23157113891E+01  0.40647867460E+02  0.00000000000E+00 0.  1.
</event>
<event>
 7    1  0.1698110E-015  0.9000767E+02  0.7816164E-02  0.1186339E+00
        -11   -1    0    0    0    0  0.00000000000E+00  0.00000000000E+00  0.45593999997E+02  0.45594000000E+02  0.51100000000E-03 0.  1.
         11   -1    0    0    0    0 -0.00000000000E+00 -0.00000000000E+00 -0.45593999997E+02  0.45594000000E+02  0.51100000000E-03 0. -1.
    9900012    2    1    2    0    0 -0.45154069558E+00  0.66327972999E+00  0.86565226432E+00  0.90007668334E+02  0.89999928756E+02 0.  0.
         12    1    1    2    0    0  0.45154069558E+00 -0.66327972999E+00 -0.86565226432E+00  0.11803316664E+01  0.00000000000E+00 0. -1.
         11    1    3    3    0    0  0.20781781224E+02 -0.17317991752E+02 -0.25401249317E+02  0.37108203086E+02  0.51100000000E-03 0. -1.
        -11    1    3    3    0    0 -0.48366748667E+01 -0.74981710935E+01 -0.42608288536E+01  0.98879045451E+01  0.51100000000E-03 0.  1.
        -12    1    3    3    0    0 -0.16396647053E+02  0.25479442575E+02  0.30527730435E+02  0.43011560702E+02  0.00000000000E+00 0.  1.
</event>
<event>
 7    1  0.1698110E-015  0.9000776E+02  0.7816164E-02  0.1186339E+00
        -11   -1    0    0    0    0  0.00000000000E+00  0.00000000000E+00  0.45593999997E+02  0.45594000000E+02  0.51100000000E-03 0.  1.
         11   -1    0    0    0    0 -0.00000000000E+00 -0.00000000000E+00 -0.45593999997E+02  0.45594000000E+02  0.51100000000E-03 0. -1.
    9900012    2    1    2    0    0  0.88007995490E+00  0.72591311287E+00  0.30246598500E+00  0.90007755853E+02  0.90000017430E+02 0.  0.
         12    1    1    2    0    0 -0.88007995490E+00 -0.72591311287E+00 -0.30246598500E+00  0.11802441470E+01  0.00000000000E+00 0. -1.
         11    1    3    3    0    0 -0.26641172582E+02  0.64780893475E+01 -0.26738988368E+02  0.38297404838E+02  0.51100000000E-03 0. -1.
        -11    1    3    3    0    0 -0.32301490311E+01 -0.13410823393E+01 -0.56292644858E+01  0.66272908127E+01  0.51100000000E-03 0.  1.
        -12    1    3    3    0    0  0.30751401568E+02 -0.44110938953E+01  0.32670718839E+02  0.45083060202E+02  0.00000000000E+00 0.  1.
</event>
<event>
 7    1  0.1698110E-015  0.9000767E+02  0.7816164E-02  0.1186339E+00
        -11   -1    0    0    0    0  0.00000000000E+00  0.00000000000E+00  0.45593999997E+02  0.45594000000E+02  0.51100000000E-03 0. -1.
         11   -1    0    0    0    0 -0.00000000000E+00 -0.00000000000E+00 -0.45593999997E+02  0.45594000000E+02  0.51100000000E-03 0.  1.
    9900012    2    1    2    0    0 -0.16334817742E+00 -0.10277064072E+01 -0.55706308364E+00  0.90007668536E+02  0.89999928960E+02 0.  0.
         12    1    1    2    0    0  0.16334817742E+00  0.10277064072E+01  0.55706308364E+00  0.11803314643E+01  0.00000000000E+00 0. -1.
         11    1    3    3    0    0  0.19385420713E+02  0.83792634214E+01  0.37158701471E+02  0.42740796518E+02  0.51100000000E-03 0. -1.
        -11    1    3    3    0    0  0.31032652811E+01 -0.42265699191E+01 -0.74282965344E+01  0.90925100138E+01  0.51100000000E-03 0.  1.
        -12    1    3    3    0    0 -0.22652034171E+02 -0.51803999095E+01 -0.30287468020E+02  0.38174362004E+02  0.00000000000E+00 0.  1.
</event>
<event>
 7    1  0.1698110E-015  0.9000772E+02  0.7816164E-02  0.1186339E+00
        -11   -1    0    0    0    0  0.00000000000E+00  0.00000000000E+00  0.45593999997E+02  0.45594000000E+02  0.51100000000E-03 0. -1.
         11   -1    0    0    0    0 -0.00000000000E+00 -0.00000000000E+00 -0.45593999997E+02  0.45594000000E+02  0.51100000000E-03 0.  1.
    9900012    2    1    2    0    0 -0.53195908149E-01  0.61787431305E+00 -0.10042207162E+01  0.90007721339E+02  0.89999982460E+02 0.  0.
         12    1    1    2    0    0  0.53195908149E-01 -0.61787431305E+00  0.10042207162E+01  0.11802786613E+01  0.00000000000E+00 0. -1.
         11    1    3    3    0    0  0.24480664331E+02 -0.32796270051E+02 -0.34988133665E+01  0.41074809197E+02  0.51100000000E-03 0. -1.
        -11    1    3    3    0    0 -0.35610612488E+01  0.95513153620E+00  0.90166204029E+01  0.97412975121E+01  0.51100000000E-03 0.  1.
        -12    1    3    3    0    0 -0.20972798990E+02  0.32459012828E+02 -0.65220277526E+01  0.39191614629E+02  0.00000000000E+00 0.  1.
</event>
<event>
 7    1  0.1698110E-015  0.9000774E+02  0.7816164E-02  0.1186339E+00
        -11   -1    0    0    0    0  0.00000000000E+00  0.00000000000E+00  0.45593999997E+02  0.45594000000E+02  0.51100000000E-03 0.  1.
         11   -1    0    0    0    0 -0.00000000000E+00 -0.00000000000E+00 -0.45593999997E+02  0.45594000000E+02  0.51100000000E-03 0. -1.
    9900012    2    1    2    0    0  0.70014273619E+00 -0.94702420624E+00 -0.77268512291E-01  0.90007735148E+02  0.89999996452E+02 0.  0.
         12    1    1    2    0    0 -0.70014273619E+00  0.94702420624E+00  0.77268512291E-01  0.11802648522E+01  0.00000000000E+00 0. -1.
         11    1    3    3    0    0  0.44237496246E+01 -0.68205480292E+01 -0.72938444042E+01  0.10921977963E+02  0.51100000000E-03 0. -1.
        -11    1    3    3    0    0  0.24226017716E+02 -0.25628774743E+02  0.10629925496E+02  0.36833807100E+02  0.51100000000E-03 0.  1.
         12    1    3    3    0    0 -0.27949624604E+02  0.31502298566E+02 -0.34133496037E+01  0.42251950085E+02  0.00000000000E+00 0. -1.
</event>
<event>
 7    1  0.1698110E-015  0.9000776E+02  0.7816164E-02  0.1186339E+00
        -11   -1    0    0    0    0  0.00000000000E+00  0.00000000000E+00  0.45593999997E+02  0.45594000000E+02  0.51100000000E-03 0. -1.
         11   -1    0    0    0    0 -0.00000000000E+00 -0.00000000000E+00 -0.45593999997E+02  0.45594000000E+02  0.51100000000E-03 0.  1.
    9900012    2    1    2    0    0 -0.16665052203E+00 -0.11633945139E+01  0.10816040472E+00  0.90007763640E+02  0.90000025320E+02 0.  0.
         12    1    1    2    0    0  0.16665052203E+00  0.11633945139E+01 -0.10816040472E+00  0.11802363596E+01  0.00000000000E+00 0. -1.
         11    1    3    3    0    0 -0.39278497928E+01 -0.35755519477E+02  0.11096511498E+02  0.37643296146E+02  0.51100000000E-03 0. -1.
        -11    1    3    3    0    0  0.22615832102E+01  0.17026686411E+01 -0.18400343502E+02  0.18616833253E+02  0.51100000000E-03 0.  1.
        -12    1    3    3    0    0  0.14996160606E+01  0.32889456322E+02  0.74119924087E+01  0.33747634242E+02  0.00000000000E+00 0.  1.
</event>
<event>
 7    1  0.1698110E-015  0.9000773E+02  0.7816164E-02  0.1186339E+00
        -11   -1    0    0    0    0  0.00000000000E+00  0.00000000000E+00  0.45593999997E+02  0.45594000000E+02  0.51100000000E-03 0. -1.
         11   -1    0    0    0    0 -0.00000000000E+00 -0.00000000000E+00 -0.45593999997E+02  0.45594000000E+02  0.51100000000E-03 0.  1.
    9900012    2    1    2    0    0  0.26192860438E+00 -0.97020321675E+00 -0.61897616721E+00  0.90007732077E+02  0.89999993340E+02 0.  0.
         12    1    1    2    0    0 -0.26192860438E+00  0.97020321675E+00  0.61897616721E+00  0.11802679235E+01  0.00000000000E+00 0. -1.
         11    1    3    3    0    0 -0.43521386716E+01 -0.52642699242E+01  0.33611460662E+01  0.76125522652E+01  0.51100000000E-03 0. -1.
        -11    1    3    3    0    0 -0.23804190114E+02  0.33583521158E+02 -0.56540520575E+01  0.41550699938E+02  0.51100000000E-03 0.  1.
         12    1    3    3    0    0  0.28418257390E+02 -0.29289454451E+02  0.16739298242E+01  0.40844479874E+02  0.00000000000E+00 0. -1.
</event>
<event>
 7    1  0.1698110E-015  0.9000763E+02  0.7816164E-02  0.1186339E+00
        -11   -1    0    0    0    0  0.00000000000E+00  0.00000000000E+00  0.45593999997E+02  0.45594000000E+02  0.51100000000E-03 0.  1.
         11   -1    0    0    0    0 -0.00000000000E+00 -0.00000000000E+00 -0.45593999997E+02  0.45594000000E+02  0.51100000000E-03 0. -1.
    9900012    2    1    2    0    0 -0.90634105886E+00 -0.70380250456E+00 -0.27654667238E+00  0.90007631353E+02  0.89999891287E+02 0.  0.
         12    1    1    2    0    0  0.90634105886E+00  0.70380250456E+00  0.27654667238E+00  0.11803686468E+01  0.00000000000E+00 0. -1.
         11    1    3    3    0    0 -0.50039421292E+01 -0.25731590482E+02 -0.34486091358E+02  0.43317948739E+02  0.51100000000E-03 0. -1.
        -11    1    3    3    0    0 -0.82150943422E+00  0.91500199753E+01  0.61455109698E+00  0.92073566571E+01  0.51100000000E-03 0.  1.
        -12    1    3    3    0    0  0.49191105046E+01  0.15877768002E+02  0.33594993589E+02  0.37482325957E+02  0.00000000000E+00 0.  1.
</event>
<event>
 7    1  0.1698110E-015  0.9000773E+02  0.7816164E-02  0.1186339E+00
        -11   -1    0    0    0    0  0.00000000000E+00  0.00000000000E+00  0.45593999997E+02  0.45594000000E+02  0.51100000000E-03 0.  1.
         11   -1    0    0    0    0 -0.00000000000E+00 -0.00000000000E+00 -0.45593999997E+02  0.45594000000E+02  0.51100000000E-03 0. -1.
    9900012    2    1    2    0    0  0.88506443747E+00  0.33314397965E+00  0.70619050620E+00  0.90007733504E+02  0.89999994787E+02 0.  0.
         12    1    1    2    0    0 -0.88506443747E+00 -0.33314397965E+00 -0.70619050620E+00  0.11802664956E+01  0.00000000000E+00 0. -1.
         11    1    3    3    0    0 -0.41026288477E+00 -0.11738823780E+01  0.91920763594E+01  0.92758063547E+01  0.51100000000E-03 0. -1.
        -11    1    3    3    0    0  0.45924203313E+01  0.11275193589E+02  0.34469668451E+02  0.36556509110E+02  0.51100000000E-03 0.  1.
         12    1    3    3    0    0 -0.32970930091E+01 -0.97681672314E+01 -0.42955554304E+02  0.44175418039E+02  0.00000000000E+00 0. -1.
</event>
<event>
 7    1  0.1698110E-015  0.9000775E+02  0.7816164E-02  0.1186339E+00
        -11   -1    0    0    0    0  0.00000000000E+00  0.00000000000E+00  0.45593999997E+02  0.45594000000E+02  0.51100000000E-03 0. -1.
         11   -1    0    0    0    0 -0.00000000000E+00 -0.00000000000E+00 -0.45593999997E+02  0.45594000000E+02  0.51100000000E-03 0.  1.
    9900012    2    1    2    0    0 -0.11100937553E+01  0.79760207858E-02 -0.40077068492E+00  0.90007750491E+02  0.90000011997E+02 0.  0.
         12    1    1    2    0    0  0.11100937553E+01 -0.79760207858E-02  0.40077068492E+00  0.11802495094E+01  0.00000000000E+00 0. -1.
         11    1    3    3    0    0  0.35733187855E+01 -0.51495225402E+01  0.87647767105E+01  0.10775319048E+02  0.51100000000E-03 0. -1.
        -11    1    3    3    0    0  0.35310148179E+02  0.14019839561E+01 -0.15461727512E+02  0.38572492030E+02  0.51100000000E-03 0.  1.
         12    1    3    3    0    0 -0.39993560720E+02  0.37555146049E+01  0.62961801166E+01  0.40659939413E+02  0.00000000000E+00 0. -1.
</event>
<event>
 7    1  0.1698110E-015  0.9000792E+02  0.7816164E-02  0.1186339E+00
        -11   -1    0    0    0    0  0.00000000000E+00  0.00000000000E+00  0.45593999997E+02  0.45594000000E+02  0.51100000000E-03 0. -1.
         11   -1    0    0    0    0 -0.00000000000E+00 -0.00000000000E+00 -0.45593999997E+02  0.45594000000E+02  0.51100000000E-03 0.  1.
    9900012    2    1    2    0    0  0.62278887211E-01  0.10002490836E+01  0.62305867530E+00  0.90007924154E+02  0.90000187953E+02 0.  0.
         12    1    1    2    0    0 -0.62278887211E-01 -0.10002490836E+01 -0.62305867530E+00  0.11800758458E+01  0.00000000000E+00 0. -1.
         11    1    3    3    0    0 -0.84686601240E+01 -0.30731570581E+02  0.22373858326E+02  0.38945310004E+02  0.51100000000E-03 0. -1.
        -11    1    3    3    0    0  0.59312015167E+01 -0.59458189513E+01 -0.47099132467E+01  0.96288731161E+01  0.51100000000E-03 0.  1.
        -12    1    3    3    0    0  0.25997374946E+01  0.37677638615E+02 -0.17040886404E+02  0.41433741034E+02  0.00000000000E+00 0.  1.
</event>
<event>
 7    1  0.1698110E-015  0.9000783E+02  0.7816164E-02  0.1186339E+00
        -11   -1    0    0    0    0  0.00000000000E+00  0.00000000000E+00  0.45593999997E+02  0.45594000000E+02  0.51100000000E-03 0.  1.
         11   -1    0    0    0    0 -0.00000000000E+00 -0.00000000000E+00 -0.45593999997E+02  0.45594000000E+02  0.51100000000E-03 0. -1.
    9900012    2    1    2    0    0 -0.99964275236E-02 -0.60824779124E+00  0.10113052584E+01  0.90007828983E+02  0.90000091525E+02 0.  0.
         12    1    1    2    0    0  0.99964275235E-02  0.60824779124E+00 -0.10113052584E+01  0.11801710172E+01  0.00000000000E+00 0. -1.
         11    1    3    3    0    0  0.93459259684E+01  0.20260049005E+01 -0.16320454366E+01  0.97012679909E+01  0.51100000000E-03 0. -1.
        -11    1    3    3    0    0 -0.37005719749E+02 -0.47904544760E+01  0.24804109783E+02  0.44806423765E+02  0.51100000000E-03 0.  1.
         12    1    3    3    0    0  0.27649797353E+02  0.21562017843E+01 -0.22160759088E+02  0.35500137227E+02  0.00000000000E+00 0. -1.
</event>
<event>
 7    1  0.1698110E-015  0.9000805E+02  0.7816164E-02  0.1186338E+00
        -11   -1    0    0    0    0  0.00000000000E+00  0.00000000000E+00  0.45593999997E+02  0.45594000000E+02  0.51100000000E-03 0. -1.
         11   -1    0    0    0    0 -0.00000000000E+00 -0.00000000000E+00 -0.45593999997E+02  0.45594000000E+02  0.51100000000E-03 0.  1.
    9900012    2    1    2    0    0  0.50024788914E+00 -0.79334466279E+00 -0.71598557504E+00  0.90008051252E+02  0.90000316728E+02 0.  0.
         12    1    1    2    0    0 -0.50024788914E+00  0.79334466279E+00  0.71598557504E+00  0.11799487481E+01  0.00000000000E+00 0. -1.
         11    1    3    3    0    0 -0.50399367954E+01  0.34208109890E+01  0.23441039564E+01  0.65266939827E+01  0.51100000000E-03 0. -1.
        -11    1    3    3    0    0 -0.14176141583E+02 -0.34413009367E+02 -0.21492871925E+02  0.42978619658E+02  0.51100000000E-03 0.  1.
         12    1    3    3    0    0  0.19716326267E+02  0.30198853715E+02  0.18432782394E+02  0.40502737611E+02  0.00000000000E+00 0. -1.
</event>
<event>
 7    1  0.1698110E-015  0.9000761E+02  0.7816164E-02  0.1186339E+00
        -11   -1    0    0    0    0  0.00000000000E+00  0.00000000000E+00  0.45593999997E+02  0.45594000000E+02  0.51100000000E-03 0. -1.
         11   -1    0    0    0    0 -0.00000000000E+00 -0.00000000000E+00 -0.45593999997E+02  0.45594000000E+02  0.51100000000E-03 0.  1.
    9900012    2    1    2    0    0 -0.82757314781E+00 -0.56065462120E+00 -0.62777439064E+00  0.90007613790E+02  0.89999873492E+02 0.  0.
         12    1    1    2    0    0  0.82757314781E+00  0.56065462120E+00  0.62777439064E+00  0.11803862100E+01  0.00000000000E+00 0. -1.
         11    1    3    3    0    0 -0.34588161735E+02  0.19997858743E+02  0.69723383481E+00  0.39959247012E+02  0.51100000000E-03 0. -1.
        -11    1    3    3    0    0 -0.15949780105E+01 -0.97034458885E+00 -0.87550712686E+01  0.89519158091E+01  0.51100000000E-03 0.  1.
        -12    1    3    3    0    0  0.35355566597E+02 -0.19588168776E+02  0.74300630431E+01  0.41096450969E+02  0.00000000000E+00 0.  1.
</event>
<event>
 7    1  0.1698110E-015  0.9000782E+02  0.7816164E-02  0.1186339E+00
        -11   -1    0    0    0    0  0.00000000000E+00  0.00000000000E+00  0.45593999997E+02  0.45594000000E+02  0.51100000000E-03 0.  1.
         11   -1    0    0    0    0 -0.00000000000E+00 -0.00000000000E+00 -0.45593999997E+02  0.45594000000E+02  0.51100000000E-03 0. -1.
    9900012    2    1    2    0    0  0.10857164630E+01 -0.24397518921E+00 -0.39310043431E+00  0.90007816928E+02  0.90000079312E+02 0.  0.
         12    1    1    2    0    0 -0.10857164630E+01  0.24397518921E+00  0.39310043431E+00  0.11801830715E+01  0.00000000000E+00 0. -1.
         11    1    3    3    0    0  0.83016661989E+01  0.30418676376E+02  0.13523509683E+02  0.34308874196E+02  0.51100000000E-03 0. -1.
        -11    1    3    3    0    0  0.91114238579E+00  0.45317131550E+01  0.10923642148E+02  0.11861389573E+02  0.51100000000E-03 0.  1.
        -12    1    3    3    0    0 -0.81270921218E+01 -0.35194364720E+02 -0.24840252265E+02  0.43837553160E+02  0.00000000000E+00 0.  1.
</event>
<event>
 7    1  0.1698110E-015  0.9000774E+02  0.7816164E-02  0.1186339E+00
        -11   -1    0    0    0    0  0.00000000000E+00  0.00000000000E+00  0.45593999997E+02  0.45594000000E+02  0.51100000000E-03 0.  1.
         11   -1    0    0    0    0 -0.00000000000E+00 -0.00000000000E+00 -0.45593999997E+02  0.45594000000E+02  0.51100000000E-03 0. -1.
    9900012    2    1    2    0    0 -0.73483000954E+00  0.53067457075E+00  0.75592914429E+00  0.90007737523E+02  0.89999998859E+02 0.  0.
         12    1    1    2    0    0  0.73483000954E+00 -0.53067457075E+00 -0.75592914429E+00  0.11802624768E+01  0.00000000000E+00 0. -1.
         11    1    3    3    0    0 -0.25111486944E+02  0.15215026982E+02 -0.91154665560E+01  0.30743707541E+02  0.51100000000E-03 0. -1.
        -11    1    3    3    0    0 -0.13527407066E+02  0.54856406416E+01 -0.19571065069E+01  0.14727975465E+02  0.51100000000E-03 0.  1.
        -12    1    3    3    0    0  0.37904064000E+02 -0.20169993052E+02  0.11828502207E+02  0.44536054517E+02  0.00000000000E+00 0.  1.
</event>
<event>
 7    1  0.1698110E-015  0.9000774E+02  0.7816164E-02  0.1186339E+00
        -11   -1    0    0    0    0  0.00000000000E+00  0.00000000000E+00  0.45593999997E+02  0.45594000000E+02  0.51100000000E-03 0.  1.
         11   -1    0    0    0    0 -0.00000000000E+00 -0.00000000000E+00 -0.45593999997E+02  0.45594000000E+02  0.51100000000E-03 0. -1.
    9900012    2    1    2    0    0 -0.54099174401E+00  0.24587029281E+00  0.10197501489E+01  0.90007739591E+02  0.90000000953E+02 0.  0.
         12    1    1    2    0    0  0.54099174401E+00 -0.24587029281E+00 -0.10197501489E+01  0.11802604095E+01  0.00000000000E+00 0. -1.
         11    1    3    3    0    0 -0.88660610015E+01 -0.56979338233E+01 -0.11103813771E+01  0.10597473029E+02  0.51100000000E-03 0. -1.
        -11    1    3    3    0    0 -0.32514475284E+02 -0.11612427952E+02  0.48946806909E+01  0.34871155491E+02  0.51100000000E-03 0.  1.
         12    1    3    3    0    0  0.40839544542E+02  0.17556232069E+02 -0.27645491649E+01  0.44539111070E+02  0.00000000000E+00 0. -1.
</event>
<event>
 7    1  0.1698110E-015  0.9000771E+02  0.7816164E-02  0.1186339E+00
        -11   -1    0    0    0    0  0.00000000000E+00  0.00000000000E+00  0.45593999997E+02  0.45594000000E+02  0.51100000000E-03 0. -1.
         11   -1    0    0    0    0 -0.00000000000E+00 -0.00000000000E+00 -0.45593999997E+02  0.45594000000E+02  0.51100000000E-03 0.  1.
    9900012    2    1    2    0    0 -0.11711099504E+00 -0.56727614479E+00 -0.10283759971E+01  0.90007714271E+02  0.89999975300E+02 0.  0.
         12    1    1    2    0    0  0.11711099504E+00  0.56727614479E+00  0.10283759971E+01  0.11802857286E+01  0.00000000000E+00 0. -1.
         11    1    3    3    0    0  0.81172632977E+01  0.67085698682E+01  0.29112616870E+01  0.10925672427E+02  0.51100000000E-03 0. -1.
        -11    1    3    3    0    0  0.21280673370E+02  0.13076557939E+02 -0.26742651986E+02  0.36592797954E+02  0.51100000000E-03 0.  1.
         12    1    3    3    0    0 -0.29515047663E+02 -0.20352403952E+02  0.22803014302E+02  0.42489243890E+02  0.00000000000E+00 0. -1.
</event>
<event>
 7    1  0.1698110E-015  0.9000770E+02  0.7816164E-02  0.1186339E+00
        -11   -1    0    0    0    0  0.00000000000E+00  0.00000000000E+00  0.45593999997E+02  0.45594000000E+02  0.51100000000E-03 0. -1.
         11   -1    0    0    0    0 -0.00000000000E+00 -0.00000000000E+00 -0.45593999997E+02  0.45594000000E+02  0.51100000000E-03 0.  1.
    9900012    2    1    2    0    0 -0.18856416047E+00 -0.11416109736E+01  0.23297723680E+00  0.90007699000E+02  0.89999959827E+02 0.  0.
         12    1    1    2    0    0  0.18856416047E+00  0.11416109736E+01 -0.23297723680E+00  0.11803009999E+01  0.00000000000E+00 0. -1.
         11    1    3    3    0    0  0.71775096590E+01 -0.67500072757E+01 -0.53507601342E+01  0.11212041625E+02  0.51100000000E-03 0. -1.
        -11    1    3    3    0    0 -0.10430280777E+00  0.32763399803E+02 -0.21959028517E+02  0.39441731445E+02  0.51100000000E-03 0.  1.
         12    1    3    3    0    0 -0.72617710117E+01 -0.27155003501E+02  0.27542765888E+02  0.39353925930E+02  0.00000000000E+00 0. -1.
</event>
<event>
 7    1  0.1698110E-015  0.9000836E+02  0.7816164E-02  0.1186338E+00
        -11   -1    0    0    0    0  0.00000000000E+00  0.00000000000E+00  0.45593999997E+02  0.45594000000E+02  0.51100000000E-03 0.  1.
         11   -1    0    0    0    0 -0.00000000000E+00 -0.00000000000E+00 -0.45593999997E+02  0.45594000000E+02  0.51100000000E-03 0. -1.
    9900012    2    1    2    0    0  0.32947732949E+00  0.15133964533E-01  0.11325879921E+01  0.90008364502E+02  0.90000634112E+02 0.  0.
         12    1    1    2    0    0 -0.32947732949E+00 -0.15133964533E-01 -0.11325879921E+01  0.11796354976E+01  0.00000000000E+00 0. -1.
         11    1    3    3    0    0 -0.11987302201E+01  0.80593994667E+01  0.51062195807E+01  0.96158386307E+01  0.51100000000E-03 0. -1.
        -11    1    3    3    0    0 -0.15073464205E+02 -0.24180637354E+02 -0.32781662549E+02  0.43434432720E+02  0.51100000000E-03 0.  1.
         12    1    3    3    0    0  0.16601671755E+02  0.16136371852E+02  0.28808030960E+02  0.36958093152E+02  0.00000000000E+00 0. -1.
</event>
<event>
 7    1  0.1698110E-015  0.9000797E+02  0.7816164E-02  0.1186339E+00
        -11   -1    0    0    0    0  0.00000000000E+00  0.00000000000E+00  0.45593999997E+02  0.45594000000E+02  0.51100000000E-03 0. -1.
         11   -1    0    0    0    0 -0.00000000000E+00 -0.00000000000E+00 -0.45593999997E+02  0.45594000000E+02  0.51100000000E-03 0.  1.
    9900012    2    1    2    0    0  0.46593585219E+00  0.40168837296E+00 -0.10069819402E+01  0.90007973562E+02  0.90000238012E+02 0.  0.
         12    1    1    2    0    0 -0.46593585219E+00 -0.40168837296E+00  0.10069819402E+01  0.11800264383E+01  0.00000000000E+00 0. -1.
         11    1    3    3    0    0 -0.47891726187E+01  0.14845680856E+02 -0.74966512642E+01  0.17306940656E+02  0.51100000000E-03 0. -1.
        -11    1    3    3    0    0  0.22503617463E+02 -0.37812999379E+01 -0.25880480888E+02  0.34503772539E+02  0.51100000000E-03 0.  1.
         12    1    3    3    0    0 -0.17248508992E+02 -0.10662692545E+02  0.32370150212E+02  0.38197260367E+02  0.00000000000E+00 0. -1.
</event>
<event>
 7    1  0.1698110E-015  0.9000803E+02  0.7816164E-02  0.1186338E+00
        -11   -1    0    0    0    0  0.00000000000E+00  0.00000000000E+00  0.45593999997E+02  0.45594000000E+02  0.51100000000E-03 0.  1.
         11   -1    0    0    0    0 -0.00000000000E+00 -0.00000000000E+00 -0.45593999997E+02  0.45594000000E+02  0.51100000000E-03 0. -1.
    9900012    2    1    2    0    0 -0.11140371305E+01  0.29649494026E+00 -0.25166168676E+00  0.90008033228E+02  0.90000298466E+02 0.  0.
         12    1    1    2    0    0  0.11140371305E+01 -0.29649494026E+00  0.25166168676E+00  0.11799667717E+01  0.00000000000E+00 0. -1.
         11    1    3    3    0    0 -0.86078904902E+01 -0.13573905644E+02 -0.35747762123E+02  0.39195014863E+02  0.51100000000E-03 0. -1.
        -11    1    3    3    0    0  0.59938801989E+01 -0.79759778430E+01  0.10994779456E+01  0.10037513358E+02  0.51100000000E-03 0.  1.
        -12    1    3    3    0    0  0.14999731608E+01  0.21846378427E+02  0.34396622490E+02  0.40775505007E+02  0.00000000000E+00 0.  1.
</event>
<event>
 7    1  0.1708715E-015  0.9000770E+02  0.7816164E-02  0.1186339E+00
        -11   -1    0    0    0    0  0.00000000000E+00  0.00000000000E+00  0.45593999997E+02  0.45594000000E+02  0.51100000000E-03 0. -1.
         11   -1    0    0    0    0 -0.00000000000E+00 -0.00000000000E+00 -0.45593999997E+02  0.45594000000E+02  0.51100000000E-03 0.  1.
    9900012    2    1    2    0    0 -0.60447361967E+00  0.26435607689E+00 -0.97869555968E+00  0.90007696018E+02  0.89999956805E+02 0.  0.
         12    1    1    2    0    0  0.60447361967E+00 -0.26435607689E+00  0.97869555968E+00  0.11803039824E+01  0.00000000000E+00 0. -1.
         11    1    3    3    0    0  0.19745061511E+01  0.29577364862E+01 -0.99632462657E+01  0.10578901459E+02  0.51100000000E-03 0. -1.
        -11    1    3    3    0    0  0.53152668766E+01  0.25606591953E+02 -0.23831614267E+02  0.35382134648E+02  0.51100000000E-03 0.  1.
         12    1    3    3    0    0 -0.78942466473E+01 -0.28299972362E+02  0.32816164973E+02  0.44046659911E+02  0.00000000000E+00 0. -1.
</event>
<event>
 7    1  0.1698110E-015  0.9000769E+02  0.7816164E-02  0.1186339E+00
        -11   -1    0    0    0    0  0.00000000000E+00  0.00000000000E+00  0.45593999997E+02  0.45594000000E+02  0.51100000000E-03 0.  1.
         11   -1    0    0    0    0 -0.00000000000E+00 -0.00000000000E+00 -0.45593999997E+02  0.45594000000E+02  0.51100000000E-03 0. -1.
    9900012    2    1    2    0    0 -0.28744186556E+00 -0.11886132805E+00  0.11385838537E+01  0.90007693246E+02  0.89999953997E+02 0.  0.
         12    1    1    2    0    0  0.28744186556E+00  0.11886132805E+00 -0.11385838537E+01  0.11803067539E+01  0.00000000000E+00 0. -1.
         11    1    3    3    0    0 -0.72617054156E+01 -0.70173555573E+01  0.35266733137E+01  0.10696404512E+02  0.51100000000E-03 0. -1.
        -11    1    3    3    0    0  0.31175008325E+01  0.16775282032E+02  0.35810918623E+02  0.39668007154E+02  0.51100000000E-03 0.  1.
         12    1    3    3    0    0  0.38567627175E+01 -0.98767878030E+01 -0.38199008083E+02  0.39643281580E+02  0.00000000000E+00 0. -1.
</event>
<event>
 7    1  0.1698110E-015  0.9000762E+02  0.7816164E-02  0.1186339E+00
        -11   -1    0    0    0    0  0.00000000000E+00  0.00000000000E+00  0.45593999997E+02  0.45594000000E+02  0.51100000000E-03 0. -1.
         11   -1    0    0    0    0 -0.00000000000E+00 -0.00000000000E+00 -0.45593999997E+02  0.45594000000E+02  0.51100000000E-03 0.  1.
    9900012    2    1    2    0    0  0.24687573008E+00 -0.10557929324E+01 -0.46652843914E+00  0.90007620770E+02  0.89999880564E+02 0.  0.
         12    1    1    2    0    0 -0.24687573008E+00  0.10557929324E+01  0.46652843914E+00  0.11803792301E+01  0.00000000000E+00 0. -1.
         11    1    3    3    0    0 -0.17116283608E+02  0.58754814700E+01  0.35515828498E+02  0.39860538396E+02  0.51100000000E-03 0. -1.
        -11    1    3    3    0    0 -0.35558908917E+01 -0.88664046380E+01 -0.13596653007E+01  0.96491544308E+01  0.51100000000E-03 0.  1.
        -12    1    3    3    0    0  0.20919050229E+02  0.19351302355E+01 -0.34622691637E+02  0.40497927943E+02  0.00000000000E+00 0.  1.
</event>
<event>
 7    1  0.1698110E-015  0.9000797E+02  0.7816164E-02  0.1186339E+00
        -11   -1    0    0    0    0  0.00000000000E+00  0.00000000000E+00  0.45593999997E+02  0.45594000000E+02  0.51100000000E-03 0. -1.
         11   -1    0    0    0    0 -0.00000000000E+00 -0.00000000000E+00 -0.45593999997E+02  0.45594000000E+02  0.51100000000E-03 0.  1.
    9900012    2    1    2    0    0 -0.56434365412E+00 -0.22233485922E+00 -0.10122011872E+01  0.90007971275E+02  0.90000235695E+02 0.  0.
         12    1    1    2    0    0  0.56434365412E+00  0.22233485922E+00  0.10122011872E+01  0.11800287255E+01  0.00000000000E+00 0. -1.
         11    1    3    3    0    0  0.33705553083E+02  0.11941176538E+02  0.16390941453E+02  0.39335975490E+02  0.51100000000E-03 0. -1.
        -11    1    3    3    0    0 -0.15646988840E+01  0.86695287863E+01 -0.34528379611E+01  0.94620876249E+01  0.51100000000E-03 0.  1.
        -12    1    3    3    0    0 -0.32705197853E+02 -0.20833040184E+02 -0.13950304679E+02  0.41209908160E+02  0.00000000000E+00 0.  1.
</event>
<event>
 7    1  0.1698110E-015  0.9000735E+02  0.7816164E-02  0.1186340E+00
        -11   -1    0    0    0    0  0.00000000000E+00  0.00000000000E+00  0.45593999997E+02  0.45594000000E+02  0.51100000000E-03 0.  1.
         11   -1    0    0    0    0 -0.00000000000E+00 -0.00000000000E+00 -0.45593999997E+02  0.45594000000E+02  0.51100000000E-03 0. -1.
    9900012    2    1    2    0    0 -0.91699550429E+00 -0.22321028219E+00  0.70939136299E+00  0.90007347769E+02  0.89999603959E+02 0.  0.
         12    1    1    2    0    0  0.91699550429E+00  0.22321028219E+00 -0.70939136299E+00  0.11806522311E+01  0.00000000000E+00 0. -1.
         11    1    3    3    0    0  0.17082582265E+01 -0.97806673818E+01  0.43373135662E+01  0.10834753797E+02  0.51100000000E-03 0. -1.
        -11    1    3    3    0    0 -0.47602261690E+01 -0.14123919917E+02  0.32596052955E+02  0.35841980072E+02  0.51100000000E-03 0.  1.
         12    1    3    3    0    0  0.21349724383E+01  0.23681377017E+02 -0.36223975158E+02  0.43330613900E+02  0.00000000000E+00 0. -1.
</event>
<event>
 7    1  0.1698110E-015  0.9000776E+02  0.7816164E-02  0.1186339E+00
        -11   -1    0    0    0    0  0.00000000000E+00  0.00000000000E+00  0.45593999997E+02  0.45594000000E+02  0.51100000000E-03 0.  1.
         11   -1    0    0    0    0 -0.00000000000E+00 -0.00000000000E+00 -0.45593999997E+02  0.45594000000E+02  0.51100000000E-03 0. -1.
    9900012    2    1    2    0    0  0.12954791518E+00 -0.11711135840E+01  0.68340896425E-01  0.90007762665E+02  0.90000024332E+02 0.  0.
         12    1    1    2    0    0 -0.12954791518E+00  0.11711135840E+01 -0.68340896425E-01  0.11802373351E+01  0.00000000000E+00 0. -1.
         11    1    3    3    0    0  0.26833157571E+02  0.29750790955E+02  0.84950966001E+01  0.40954786951E+02  0.51100000000E-03 0. -1.
        -11    1    3    3    0    0  0.49795170513E+01 -0.71020776661E+01 -0.19250202491E+01  0.88848635589E+01  0.51100000000E-03 0.  1.
        -12    1    3    3    0    0 -0.31683126707E+02 -0.23819826873E+02 -0.65017354546E+01  0.40168112155E+02  0.00000000000E+00 0.  1.
</event>
<event>
 7    1  0.1698110E-015  0.9000793E+02  0.7816164E-02  0.1186339E+00
        -11   -1    0    0    0    0  0.00000000000E+00  0.00000000000E+00  0.45593999997E+02  0.45594000000E+02  0.51100000000E-03 0. -1.
         11   -1    0    0    0    0 -0.00000000000E+00 -0.00000000000E+00 -0.45593999997E+02  0.45594000000E+02  0.51100000000E-03 0.  1.
    9900012    2    1    2    0    0 -0.13718307030E+00 -0.32736932150E+00 -0.11254222473E+01  0.90007930044E+02  0.90000193920E+02 0.  0.
         12    1    1    2    0    0  0.13718307030E+00  0.32736932150E+00  0.11254222473E+01  0.11800699564E+01  0.00000000000E+00 0. -1.
         11    1    3    3    0    0 -0.33239103455E+02 -0.18970267276E+02  0.71971485480E+01  0.38942367500E+02  0.51100000000E-03 0. -1.
        -11    1    3    3    0    0  0.25589285636E+01 -0.80860433900E+01 -0.60441178299E+01  0.10414584663E+02  0.51100000000E-03 0.  1.
        -12    1    3    3    0    0  0.30542991821E+02  0.26728941345E+02 -0.22784529654E+01  0.40650977881E+02  0.00000000000E+00 0.  1.
</event>
<event>
 7    1  0.1698110E-015  0.9000766E+02  0.7816164E-02  0.1186339E+00
        -11   -1    0    0    0    0  0.00000000000E+00  0.00000000000E+00  0.45593999997E+02  0.45594000000E+02  0.51100000000E-03 0.  1.
         11   -1    0    0    0    0 -0.00000000000E+00 -0.00000000000E+00 -0.45593999997E+02  0.45594000000E+02  0.51100000000E-03 0. -1.
    9900012    2    1    2    0    0  0.18957194201E+00 -0.33203875127E-01  0.11645409336E+01  0.90007662928E+02  0.89999923278E+02 0.  0.
         12    1    1    2    0    0 -0.18957194201E+00  0.33203875127E-01 -0.11645409336E+01  0.11803370724E+01  0.00000000000E+00 0. -1.
         11    1    3    3    0    0  0.64409643396E+01  0.19003439915E+01  0.13585452360E+02  0.15154598147E+02  0.51100000000E-03 0. -1.
        -11    1    3    3    0    0  0.14254791812E+02 -0.18062042288E+02  0.21884239100E+02  0.31754627734E+02  0.51100000000E-03 0.  1.
         12    1    3    3    0    0 -0.20506184210E+02  0.16128494422E+02 -0.34305150527E+02  0.43098437047E+02  0.00000000000E+00 0. -1.
</event>
<event>
 7    1  0.1698110E-015  0.9000769E+02  0.7816164E-02  0.1186339E+00
        -11   -1    0    0    0    0  0.00000000000E+00  0.00000000000E+00  0.45593999997E+02  0.45594000000E+02  0.51100000000E-03 0.  1.
         11   -1    0    0    0    0 -0.00000000000E+00 -0.00000000000E+00 -0.45593999997E+02  0.45594000000E+02  0.51100000000E-03 0. -1.
    9900012    2    1    2    0    0  0.82763497690E+00  0.66302840529E+00  0.51820358460E+00  0.90007694414E+02  0.89999955180E+02 0.  0.
         12    1    1    2    0    0 -0.82763497690E+00 -0.66302840529E+00 -0.51820358460E+00  0.11803055860E+01  0.00000000000E+00 0. -1.
         11    1    3    3    0    0 -0.13450802787E+02  0.33782607538E+02  0.10137755520E+02  0.37748678850E+02  0.51100000000E-03 0. -1.
        -11    1    3    3    0    0 -0.56876469791E+00  0.77342244795E+01 -0.75316991814E-01  0.77554751299E+01  0.51100000000E-03 0.  1.
        -12    1    3    3    0    0  0.14847202462E+02 -0.40853803612E+02 -0.95442349434E+01  0.44503540434E+02  0.00000000000E+00 0.  1.
</event>
<event>
 7    1  0.1698110E-015  0.9000773E+02  0.7816164E-02  0.1186339E+00
        -11   -1    0    0    0    0  0.00000000000E+00  0.00000000000E+00  0.45593999997E+02  0.45594000000E+02  0.51100000000E-03 0.  1.
         11   -1    0    0    0    0 -0.00000000000E+00 -0.00000000000E+00 -0.45593999997E+02  0.45594000000E+02  0.51100000000E-03 0. -1.
    9900012    2    1    2    0    0 -0.20434478622E+00  0.27960041328E+00  0.11283198601E+01  0.90007729315E+02  0.89999990542E+02 0.  0.
         12    1    1    2    0    0  0.20434478622E+00 -0.27960041328E+00 -0.11283198601E+01  0.11802706848E+01  0.00000000000E+00 0. -1.
         11    1    3    3    0    0  0.35539533732E+02 -0.75731014949E+01 -0.67361545491E+01  0.36956543433E+02  0.51100000000E-03 0. -1.
        -11    1    3    3    0    0  0.26491401762E+01 -0.67092130488E+01 -0.63383869148E+01  0.96024284611E+01  0.51100000000E-03 0.  1.
        -12    1    3    3    0    0 -0.38393018694E+02  0.14561914957E+02  0.14202861324E+02  0.43448757421E+02  0.00000000000E+00 0.  1.
</event>
<event>
 7    1  0.1698110E-015  0.9000780E+02  0.7816164E-02  0.1186339E+00
        -11   -1    0    0    0    0  0.00000000000E+00  0.00000000000E+00  0.45593999997E+02  0.45594000000E+02  0.51100000000E-03 0.  1.
         11   -1    0    0    0    0 -0.00000000000E+00 -0.00000000000E+00 -0.45593999997E+02  0.45594000000E+02  0.51100000000E-03 0. -1.
    9900012    2    1    2    0    0  0.11061454531E+01 -0.36331630508E+00 -0.19315908262E+00  0.90007802164E+02  0.90000064353E+02 0.  0.
         12    1    1    2    0    0 -0.11061454531E+01  0.36331630508E+00  0.19315908262E+00  0.11801978360E+01  0.00000000000E+00 0. -1.
         11    1    3    3    0    0 -0.47890570185E+01 -0.33235039998E+02  0.21694097585E+02  0.39976703479E+02  0.51100000000E-03 0. -1.
        -11    1    3    3    0    0 -0.71562927996E+01 -0.19818018348E+01 -0.60759249104E+01  0.95946302129E+01  0.51100000000E-03 0.  1.
        -12    1    3    3    0    0  0.13051495271E+02  0.34853525528E+02 -0.15811331757E+02  0.40436468472E+02  0.00000000000E+00 0.  1.
</event>
<event>
 7    1  0.1698110E-015  0.9000844E+02  0.7816164E-02  0.1186338E+00
        -11   -1    0    0    0    0  0.00000000000E+00  0.00000000000E+00  0.45593999997E+02  0.45594000000E+02  0.51100000000E-03 0. -1.
         11   -1    0    0    0    0 -0.00000000000E+00 -0.00000000000E+00 -0.45593999997E+02  0.45594000000E+02  0.51100000000E-03 0.  1.
    9900012    2    1    2    0    0  0.77067280101E+00  0.81762647862E+00 -0.35904196137E+00  0.90008440440E+02  0.90000711051E+02 0.  0.
         12    1    1    2    0    0 -0.77067280101E+00 -0.81762647862E+00  0.35904196137E+00  0.11795595597E+01  0.00000000000E+00 0. -1.
         11    1    3    3    0    0  0.18312490245E+02  0.34052060411E+02  0.52376063985E+01  0.39016953216E+02  0.51100000000E-03 0. -1.
        -11    1    3    3    0    0  0.30823988435E+01  0.38314021949E+01 -0.69956713131E+01  0.85510375272E+01  0.51100000000E-03 0.  1.
        -12    1    3    3    0    0 -0.20624216287E+02 -0.37065836127E+02  0.13990229532E+01  0.42440449697E+02  0.00000000000E+00 0.  1.
</event>
<event>
 7    1  0.1698110E-015  0.9000775E+02  0.7816164E-02  0.1186339E+00
        -11   -1    0    0    0    0  0.00000000000E+00  0.00000000000E+00  0.45593999997E+02  0.45594000000E+02  0.51100000000E-03 0.  1.
         11   -1    0    0    0    0 -0.00000000000E+00 -0.00000000000E+00 -0.45593999997E+02  0.45594000000E+02  0.51100000000E-03 0. -1.
    9900012    2    1    2    0    0  0.18594040897E+00 -0.34167834696E+00  0.11142994242E+01  0.90007753782E+02  0.90000015332E+02 0.  0.
         12    1    1    2    0    0 -0.18594040897E+00  0.34167834696E+00 -0.11142994242E+01  0.11802462180E+01  0.00000000000E+00 0. -1.
         11    1    3    3    0    0 -0.50314400510E+01 -0.17916309603E+01 -0.78629347132E+01  0.95053181457E+01  0.51100000000E-03 0. -1.
        -11    1    3    3    0    0  0.52305188359E+01 -0.23509905547E+02 -0.27339667647E+02  0.36435304492E+02  0.51100000000E-03 0.  1.
         12    1    3    3    0    0 -0.13138375900E-01  0.24959858160E+02  0.36316901785E+02  0.44067131144E+02  0.00000000000E+00 0. -1.
</event>
<event>
 7    1  0.1698110E-015  0.9000769E+02  0.7816164E-02  0.1186339E+00
        -11   -1    0    0    0    0  0.00000000000E+00  0.00000000000E+00  0.45593999997E+02  0.45594000000E+02  0.51100000000E-03 0. -1.
         11   -1    0    0    0    0 -0.00000000000E+00 -0.00000000000E+00 -0.45593999997E+02  0.45594000000E+02  0.51100000000E-03 0.  1.
    9900012    2    1    2    0    0 -0.43717250605E+00 -0.95988486793E+00 -0.52974945206E+00  0.90007689345E+02  0.89999950045E+02 0.  0.
         12    1    1    2    0    0  0.43717250605E+00  0.95988486793E+00  0.52974945206E+00  0.11803106547E+01  0.00000000000E+00 0. -1.
         11    1    3    3    0    0 -0.15187284360E+01  0.69438465360E+01  0.32509070767E+02  0.33277067527E+02  0.51100000000E-03 0. -1.
        -11    1    3    3    0    0 -0.11106124259E+02  0.24330884795E+01  0.71842650441E+01  0.13449147932E+02  0.51100000000E-03 0.  1.
        -12    1    3    3    0    0  0.12187680189E+02 -0.10336819883E+02 -0.40223085263E+02  0.43281473887E+02  0.00000000000E+00 0.  1.
</event>
<event>
 7    1  0.1698110E-015  0.9000774E+02  0.7816164E-02  0.1186339E+00
        -11   -1    0    0    0    0  0.00000000000E+00  0.00000000000E+00  0.45593999997E+02  0.45594000000E+02  0.51100000000E-03 0.  1.
         11   -1    0    0    0    0 -0.00000000000E+00 -0.00000000000E+00 -0.45593999997E+02  0.45594000000E+02  0.51100000000E-03 0. -1.
    9900012    2    1    2    0    0  0.60426861986E+00 -0.56215532568E+00  0.84371918899E+00  0.90007736790E+02  0.89999998116E+02 0.  0.
         12    1    1    2    0    0 -0.60426861986E+00  0.56215532568E+00 -0.84371918899E+00  0.11802632101E+01  0.00000000000E+00 0. -1.
         11    1    3    3    0    0 -0.49477015424E+01  0.31182329178E+02 -0.63162436759E+01  0.32198017609E+02  0.51100000000E-03 0. -1.
        -11    1    3    3    0    0  0.14446618765E+02  0.55675146910E+01 -0.69083229342E+01  0.16953670387E+02  0.51100000000E-03 0.  1.
        -12    1    3    3    0    0 -0.88946486028E+01 -0.37311999195E+02  0.14068285799E+02  0.40856048793E+02  0.00000000000E+00 0.  1.
</event>
<event>
 7    1  0.1698110E-015  0.9000768E+02  0.7816164E-02  0.1186339E+00
        -11   -1    0    0    0    0  0.00000000000E+00  0.00000000000E+00  0.45593999997E+02  0.45594000000E+02  0.51100000000E-03 0.  1.
         11   -1    0    0    0    0 -0.00000000000E+00 -0.00000000000E+00 -0.45593999997E+02  0.45594000000E+02  0.51100000000E-03 0. -1.
    9900012    2    1    2    0    0 -0.10943520490E+01 -0.69798994199E-01 -0.43665576790E+00  0.90007683701E+02  0.89999944326E+02 0.  0.
         12    1    1    2    0    0  0.10943520490E+01  0.69798994199E-01  0.43665576790E+00  0.11803162993E+01  0.00000000000E+00 0. -1.
         11    1    3    3    0    0  0.18068538852E+01 -0.64977999034E+01  0.80169787591E+01  0.10476548727E+02  0.51100000000E-03 0. -1.
        -11    1    3    3    0    0  0.20762645364E+02 -0.10294963404E+02  0.25790111698E+02  0.34672807439E+02  0.51100000000E-03 0.  1.
         12    1    3    3    0    0 -0.23663851298E+02  0.16722964313E+02 -0.34243746225E+02  0.44858327535E+02  0.00000000000E+00 0. -1.
</event>
<event>
 7    1  0.1698110E-015  0.9000779E+02  0.7816164E-02  0.1186339E+00
        -11   -1    0    0    0    0  0.00000000000E+00  0.00000000000E+00  0.45593999997E+02  0.45594000000E+02  0.51100000000E-03 0.  1.
         11   -1    0    0    0    0 -0.00000000000E+00 -0.00000000000E+00 -0.45593999997E+02  0.45594000000E+02  0.51100000000E-03 0. -1.
    9900012    2    1    2    0    0 -0.57906810026E-01  0.81880199884E+00  0.84800667145E+00  0.90007785940E+02  0.90000047915E+02 0.  0.
         12    1    1    2    0    0  0.57906810026E-01 -0.81880199884E+00 -0.84800667145E+00  0.11802140597E+01  0.00000000000E+00 0. -1.
         11    1    3    3    0    0 -0.16503140051E+02 -0.16778739567E+02 -0.33901731272E+02  0.41269929931E+02  0.51100000000E-03 0. -1.
        -11    1    3    3    0    0 -0.31232727085E+00 -0.55468816094E+01  0.65983034324E+01  0.86257203966E+01  0.51100000000E-03 0.  1.
        -12    1    3    3    0    0  0.16757560512E+02  0.23144423175E+02  0.28151434511E+02  0.40112135613E+02  0.00000000000E+00 0.  1.
</event>
<event>
 7    1  0.1698110E-015  0.9000780E+02  0.7816164E-02  0.1186339E+00
        -11   -1    0    0    0    0  0.00000000000E+00  0.00000000000E+00  0.45593999997E+02  0.45594000000E+02  0.51100000000E-03 0.  1.
         11   -1    0    0    0    0 -0.00000000000E+00 -0.00000000000E+00 -0.45593999997E+02  0.45594000000E+02  0.51100000000E-03 0. -1.
    9900012    2    1    2    0    0 -0.16675235429E+00 -0.10183107429E+01 -0.57281446496E+00  0.90007796828E+02  0.90000058946E+02 0.  0.
         12    1    1    2    0    0  0.16675235429E+00  0.10183107429E+01  0.57281446496E+00  0.11802031723E+01  0.00000000000E+00 0. -1.
         11    1    3    3    0    0  0.30720390459E+02 -0.12712274747E+02  0.15785310941E+02  0.36803809055E+02  0.51100000000E-03 0. -1.
        -11    1    3    3    0    0  0.23862215900E+00 -0.11391559107E+02 -0.72520369409E+00  0.11417113474E+02  0.51100000000E-03 0.  1.
        -12    1    3    3    0    0 -0.31125764972E+02  0.23085523111E+02 -0.15632921712E+02  0.41786874299E+02  0.00000000000E+00 0.  1.
</event>
<event>
 7    1  0.1698110E-015  0.9000769E+02  0.7816164E-02  0.1186339E+00
        -11   -1    0    0    0    0  0.00000000000E+00  0.00000000000E+00  0.45593999997E+02  0.45594000000E+02  0.51100000000E-03 0.  1.
         11   -1    0    0    0    0 -0.00000000000E+00 -0.00000000000E+00 -0.45593999997E+02  0.45594000000E+02  0.51100000000E-03 0. -1.
    9900012    2    1    2    0    0  0.20080003066E+00 -0.10814018152E+01  0.42823134784E+00  0.90007689606E+02  0.89999950309E+02 0.  0.
         12    1    1    2    0    0 -0.20080003066E+00  0.10814018152E+01 -0.42823134784E+00  0.11803103937E+01  0.00000000000E+00 0. -1.
         11    1    3    3    0    0  0.86319828154E+01 -0.37422154145E+01 -0.24699388637E+01  0.97270705654E+01  0.51100000000E-03 0. -1.
        -11    1    3    3    0    0  0.22333950816E+02  0.30447511745E+02  0.77314389671E+01  0.38543890298E+02  0.51100000000E-03 0.  1.
         12    1    3    3    0    0 -0.30765133600E+02 -0.27786698146E+02 -0.48332687556E+01  0.41736728743E+02  0.00000000000E+00 0. -1.
</event>
<event>
 7    1  0.1698110E-015  0.9000776E+02  0.7816164E-02  0.1186339E+00
        -11   -1    0    0    0    0  0.00000000000E+00  0.00000000000E+00  0.45593999997E+02  0.45594000000E+02  0.51100000000E-03 0. -1.
         11   -1    0    0    0    0 -0.00000000000E+00 -0.00000000000E+00 -0.45593999997E+02  0.45594000000E+02  0.51100000000E-03 0.  1.
    9900012    2    1    2    0    0  0.49793943317E+00  0.22247729763E+00  0.10466694174E+01  0.90007764135E+02  0.90000025822E+02 0.  0.
         12    1    1    2    0    0 -0.49793943317E+00 -0.22247729763E+00 -0.10466694174E+01  0.11802358647E+01  0.00000000000E+00 0. -1.
         11    1    3    3    0    0  0.99977331141E+01 -0.26594717523E+01 -0.25728199347E+01  0.10660528134E+02  0.51100000000E-03 0. -1.
        -11    1    3    3    0    0 -0.33433071844E+02  0.41548053068E+01 -0.25047621340E+02  0.41981139040E+02  0.51100000000E-03 0.  1.
         12    1    3    3    0    0  0.23933278163E+02 -0.12728562569E+01  0.28667110692E+02  0.37366096961E+02  0.00000000000E+00 0. -1.
</event>
<event>
 7    1  0.1698110E-015  0.9000785E+02  0.7816164E-02  0.1186339E+00
        -11   -1    0    0    0    0  0.00000000000E+00  0.00000000000E+00  0.45593999997E+02  0.45594000000E+02  0.51100000000E-03 0. -1.
         11   -1    0    0    0    0 -0.00000000000E+00 -0.00000000000E+00 -0.45593999997E+02  0.45594000000E+02  0.51100000000E-03 0.  1.
    9900012    2    1    2    0    0 -0.60816300634E+00  0.54649319727E+00 -0.85102052796E+00  0.90007850435E+02  0.90000113261E+02 0.  0.
         12    1    1    2    0    0  0.60816300634E+00 -0.54649319727E+00  0.85102052796E+00  0.11801495651E+01  0.00000000000E+00 0. -1.
         11    1    3    3    0    0 -0.35848818650E+02 -0.17706333062E+02 -0.13518596109E+02  0.42206687505E+02  0.51100000000E-03 0. -1.
        -11    1    3    3    0    0  0.71168886159E+01 -0.56107716243E+01  0.40366118326E+01  0.99209423513E+01  0.51100000000E-03 0.  1.
        -12    1    3    3    0    0  0.28123767028E+02  0.23863597884E+02  0.86309637485E+01  0.37880220578E+02  0.00000000000E+00 0.  1.
</event>
<event>
 7    1  0.1698110E-015  0.9000773E+02  0.7816164E-02  0.1186339E+00
        -11   -1    0    0    0    0  0.00000000000E+00  0.00000000000E+00  0.45593999997E+02  0.45594000000E+02  0.51100000000E-03 0.  1.
         11   -1    0    0    0    0 -0.00000000000E+00 -0.00000000000E+00 -0.45593999997E+02  0.45594000000E+02  0.51100000000E-03 0. -1.
    9900012    2    1    2    0    0 -0.18884058384E+00  0.11570796907E+01 -0.13620450923E+00  0.90007726369E+02  0.89999987557E+02 0.  0.
         12    1    1    2    0    0  0.18884058384E+00 -0.11570796907E+01  0.13620450923E+00  0.11802736315E+01  0.00000000000E+00 0. -1.
         11    1    3    3    0    0 -0.62693165107E+01  0.20285564616E+02  0.14954538351E+00  0.21232777147E+02  0.51100000000E-03 0. -1.
        -11    1    3    3    0    0 -0.38217644600E+00  0.23734780008E+02  0.71561118222E+01  0.24793059059E+02  0.51100000000E-03 0.  1.
        -12    1    3    3    0    0  0.64626523729E+01 -0.42863264933E+02 -0.74418617150E+01  0.43981890162E+02  0.00000000000E+00 0.  1.
</event>
<event>
 8    1  0.1698110E-015  0.9000780E+02  0.7816164E-02  0.1186339E+00
        -11   -1    0    0    0    0  0.00000000000E+00  0.00000000000E+00  0.45593999997E+02  0.45594000000E+02  0.51100000000E-03 0. -1.
         11   -1    0    0    0    0 -0.00000000000E+00 -0.00000000000E+00 -0.45593999997E+02  0.45594000000E+02  0.51100000000E-03 0.  1.
    9900012    2    1    2    0    0  0.23899670245E+00  0.18046976900E+00 -0.11415747808E+01  0.90007795890E+02  0.90000057996E+02 0.  0.
         23    2    3    3    0    0  0.41677208256E+01  0.25045140799E+02 -0.98797901678E+01  0.63361161078E+02  0.57204873087E+02 0.  0.
         12    1    1    2    0    0 -0.23899670245E+00 -0.18046976900E+00  0.11415747808E+01  0.11802041101E+01  0.00000000000E+00 0. -1.
         11    1    4    4    0    0 -0.12704421018E+02  0.16822667375E+02  0.19355938278E+02  0.28619168365E+02  0.51100000000E-03 0. -1.
        -11    1    4    4    0    0  0.16872141844E+02  0.82224734234E+01 -0.29235728446E+02  0.34741992712E+02  0.51100000000E-03 0.  1.
         12    1    3    3    0    0 -0.39287241231E+01 -0.24864671030E+02  0.87382153869E+01  0.26646634812E+02  0.00000000000E+00 0. -1.
</event>
<event>
 7    1  0.1698110E-015  0.9000761E+02  0.7816164E-02  0.1186339E+00
        -11   -1    0    0    0    0  0.00000000000E+00  0.00000000000E+00  0.45593999997E+02  0.45594000000E+02  0.51100000000E-03 0.  1.
         11   -1    0    0    0    0 -0.00000000000E+00 -0.00000000000E+00 -0.45593999997E+02  0.45594000000E+02  0.51100000000E-03 0. -1.
    9900012    2    1    2    0    0  0.57929607049E+00  0.75503444043E+00  0.69832516706E+00  0.90007610665E+02  0.89999870326E+02 0.  0.
         12    1    1    2    0    0 -0.57929607049E+00 -0.75503444043E+00 -0.69832516706E+00  0.11803893351E+01  0.00000000000E+00 0. -1.
         11    1    3    3    0    0 -0.11070273052E+01  0.85816179485E+01  0.23783407441E+01  0.89736381153E+01  0.51100000000E-03 0. -1.
        -11    1    3    3    0    0 -0.20379549495E+02  0.30534347655E+02  0.67441463354E+00  0.36716852530E+02  0.51100000000E-03 0.  1.
         12    1    3    3    0    0  0.22065872871E+02 -0.38360931163E+02 -0.23544302106E+01  0.44317120020E+02  0.00000000000E+00 0. -1.
</event>
<event>
 7    1  0.1698110E-015  0.9000777E+02  0.7816164E-02  0.1186339E+00
        -11   -1    0    0    0    0  0.00000000000E+00  0.00000000000E+00  0.45593999997E+02  0.45594000000E+02  0.51100000000E-03 0. -1.
         11   -1    0    0    0    0 -0.00000000000E+00 -0.00000000000E+00 -0.45593999997E+02  0.45594000000E+02  0.51100000000E-03 0.  1.
    9900012    2    1    2    0    0 -0.78659148385E-01  0.35675300464E+00 -0.11222683467E+01  0.90007768578E+02  0.90000030323E+02 0.  0.
         12    1    1    2    0    0  0.78659148385E-01 -0.35675300464E+00  0.11222683467E+01  0.11802314222E+01  0.00000000000E+00 0. -1.
         11    1    3    3    0    0  0.40343185622E+01 -0.89658131121E+01  0.59449078658E+00  0.98496167732E+01  0.51100000000E-03 0. -1.
        -11    1    3    3    0    0 -0.10521045513E+02  0.37691133604E+02  0.19918865352E+02  0.43909852519E+02  0.51100000000E-03 0.  1.
         12    1    3    3    0    0  0.64080678027E+01 -0.28368567488E+02 -0.21635624485E+02  0.36248299286E+02  0.00000000000E+00 0. -1.
</event>
<event>
 7    1  0.1698110E-015  0.9000776E+02  0.7816164E-02  0.1186339E+00
        -11   -1    0    0    0    0  0.00000000000E+00  0.00000000000E+00  0.45593999997E+02  0.45594000000E+02  0.51100000000E-03 0.  1.
         11   -1    0    0    0    0 -0.00000000000E+00 -0.00000000000E+00 -0.45593999997E+02  0.45594000000E+02  0.51100000000E-03 0. -1.
    9900012    2    1    2    0    0 -0.11132055764E+01 -0.38819912721E+00 -0.55169840438E-01  0.90007758953E+02  0.90000020571E+02 0.  0.
         12    1    1    2    0    0  0.11132055764E+01  0.38819912721E+00  0.55169840438E-01  0.11802410470E+01  0.00000000000E+00 0. -1.
         11    1    3    3    0    0 -0.18173675393E+02  0.26019254007E+02 -0.19467760070E+02  0.37232750889E+02  0.51100000000E-03 0. -1.
        -11    1    3    3    0    0  0.14513759315E+01  0.90996160112E+01 -0.39574983487E+00  0.92231297204E+01  0.51100000000E-03 0.  1.
        -12    1    3    3    0    0  0.15609093885E+02 -0.35507069145E+02  0.19808340065E+02  0.43551878344E+02  0.00000000000E+00 0.  1.
</event>
<event>
 7    1  0.1698110E-015  0.9000778E+02  0.7816164E-02  0.1186339E+00
        -11   -1    0    0    0    0  0.00000000000E+00  0.00000000000E+00  0.45593999997E+02  0.45594000000E+02  0.51100000000E-03 0. -1.
         11   -1    0    0    0    0 -0.00000000000E+00 -0.00000000000E+00 -0.45593999997E+02  0.45594000000E+02  0.51100000000E-03 0.  1.
    9900012    2    1    2    0    0  0.38095436929E-01 -0.66622080955E+00 -0.97346163117E+00  0.90007775879E+02  0.90000037720E+02 0.  0.
         12    1    1    2    0    0 -0.38095436929E-01  0.66622080955E+00  0.97346163117E+00  0.11802241214E+01  0.00000000000E+00 0. -1.
         11    1    3    3    0    0  0.71017973816E+00 -0.63951303974E+01 -0.51213680338E+01  0.82237740035E+01  0.51100000000E-03 0. -1.
        -11    1    3    3    0    0  0.12237687922E+02  0.23179770763E+02 -0.30923787283E+02  0.40538172115E+02  0.51100000000E-03 0.  1.
         12    1    3    3    0    0 -0.12909772223E+02 -0.17450861175E+02  0.35071693685E+02  0.41245829760E+02  0.00000000000E+00 0. -1.
</event>
<event>
 7    1  0.1698110E-015  0.9000779E+02  0.7816164E-02  0.1186339E+00
        -11   -1    0    0    0    0  0.00000000000E+00  0.00000000000E+00  0.45593999997E+02  0.45594000000E+02  0.51100000000E-03 0.  1.
         11   -1    0    0    0    0 -0.00000000000E+00 -0.00000000000E+00 -0.45593999997E+02  0.45594000000E+02  0.51100000000E-03 0. -1.
    9900012    2    1    2    0    0  0.36289206226E+00 -0.11169580981E+01 -0.11668060033E+00  0.90007787983E+02  0.90000049985E+02 0.  0.
         12    1    1    2    0    0 -0.36289206226E+00  0.11169580981E+01  0.11668060033E+00  0.11802120166E+01  0.00000000000E+00 0. -1.
         11    1    3    3    0    0 -0.21157154554E+02 -0.28589532302E+02 -0.13522873409E+02  0.38050685297E+02  0.51100000000E-03 0. -1.
        -11    1    3    3    0    0 -0.16598577746E+01 -0.64597358705E+01  0.81457017318E+01  0.10527856967E+02  0.51100000000E-03 0.  1.
        -12    1    3    3    0    0  0.23179904391E+02  0.33932310074E+02  0.52604910769E+01  0.41429245720E+02  0.00000000000E+00 0.  1.
</event>
<event>
 7    1  0.1698110E-015  0.9000770E+02  0.7816164E-02  0.1186339E+00
        -11   -1    0    0    0    0  0.00000000000E+00  0.00000000000E+00  0.45593999997E+02  0.45594000000E+02  0.51100000000E-03 0.  1.
         11   -1    0    0    0    0 -0.00000000000E+00 -0.00000000000E+00 -0.45593999997E+02  0.45594000000E+02  0.51100000000E-03 0. -1.
    9900012    2    1    2    0    0  0.96805520815E+00 -0.79038856747E-01 -0.67062752349E+00  0.90007695250E+02  0.89999956028E+02 0.  0.
         12    1    1    2    0    0 -0.96805520815E+00  0.79038856747E-01  0.67062752349E+00  0.11803047497E+01  0.00000000000E+00 0. -1.
         11    1    3    3    0    0 -0.10813278431E+02  0.23709097416E+02 -0.25302481364E+02  0.36321671963E+02  0.51100000000E-03 0. -1.
        -11    1    3    3    0    0 -0.10541291327E+02  0.41055012227E+01  0.22684517744E+01  0.11537757011E+02  0.51100000000E-03 0.  1.
        -12    1    3    3    0    0  0.22322624966E+02 -0.27893637496E+02  0.22363402066E+02  0.42148266276E+02  0.00000000000E+00 0.  1.
</event>
<event>
 8    1  0.1698110E-015  0.9000765E+02  0.7816164E-02  0.1186339E+00
        -11   -1    0    0    0    0  0.00000000000E+00  0.00000000000E+00  0.45593999997E+02  0.45594000000E+02  0.51100000000E-03 0. -1.
         11   -1    0    0    0    0 -0.00000000000E+00 -0.00000000000E+00 -0.45593999997E+02  0.45594000000E+02  0.51100000000E-03 0.  1.
    9900012    2    1    2    0    0 -0.58379117714E+00 -0.66357564712E+00 -0.78236317861E+00  0.90007645426E+02  0.89999905545E+02 0.  0.
         23    2    3    3    0    0 -0.17193958630E+02  0.97322792649E+01 -0.15064129492E+02  0.65760164913E+02  0.60886138151E+02 0.  0.
         12    1    1    2    0    0  0.58379117714E+00  0.66357564712E+00  0.78236317861E+00  0.11803545744E+01  0.00000000000E+00 0. -1.
         11    1    4    4    0    0  0.83468548599E+00  0.11478501960E+02  0.21819687860E+02  0.24668836326E+02  0.51100000000E-03 0. -1.
        -11    1    4    4    0    0 -0.18028644116E+02 -0.17462226953E+01 -0.36883817352E+02  0.41091328587E+02  0.51100000000E-03 0.  1.
         12    1    3    3    0    0  0.16610167453E+02 -0.10395854912E+02  0.14281766313E+02  0.24247480512E+02  0.00000000000E+00 0. -1.
</event>
<event>
 7    1  0.1698110E-015  0.9000776E+02  0.7816164E-02  0.1186339E+00
        -11   -1    0    0    0    0  0.00000000000E+00  0.00000000000E+00  0.45593999997E+02  0.45594000000E+02  0.51100000000E-03 0. -1.
         11   -1    0    0    0    0 -0.00000000000E+00 -0.00000000000E+00 -0.45593999997E+02  0.45594000000E+02  0.51100000000E-03 0.  1.
    9900012    2    1    2    0    0  0.68726734251E+00 -0.66780036107E+00 -0.68896395655E+00  0.90007760594E+02  0.90000022234E+02 0.  0.
         12    1    1    2    0    0 -0.68726734251E+00  0.66780036107E+00  0.68896395655E+00  0.11802394061E+01  0.00000000000E+00 0. -1.
         11    1    3    3    0    0 -0.55995864212E+01  0.10036115500E+02  0.12597698660E+02  0.17052301728E+02  0.51100000000E-03 0. -1.
        -11    1    3    3    0    0 -0.13994875924E+02  0.12736794643E+02  0.19957401539E+02  0.27502370196E+02  0.51100000000E-03 0.  1.
         12    1    3    3    0    0  0.20281729688E+02 -0.23440710504E+02 -0.33244064156E+02  0.45453088671E+02  0.00000000000E+00 0. -1.
</event>
<event>
 7    1  0.1698110E-015  0.9000773E+02  0.7816164E-02  0.1186339E+00
        -11   -1    0    0    0    0  0.00000000000E+00  0.00000000000E+00  0.45593999997E+02  0.45594000000E+02  0.51100000000E-03 0.  1.
         11   -1    0    0    0    0 -0.00000000000E+00 -0.00000000000E+00 -0.45593999997E+02  0.45594000000E+02  0.51100000000E-03 0. -1.
    9900012    2    1    2    0    0 -0.23724220155E+00 -0.58489579259E+00  0.99732120732E+00  0.90007730310E+02  0.89999991550E+02 0.  0.
         12    1    1    2    0    0  0.23724220155E+00  0.58489579259E+00 -0.99732120732E+00  0.11802696899E+01  0.00000000000E+00 0. -1.
         11    1    3    3    0    0 -0.35903830073E+01  0.23954756051E+01  0.11076412770E+02  0.11887643737E+02  0.51100000000E-03 0. -1.
        -11    1    3    3    0    0 -0.21800387830E+02  0.29094077294E+02 -0.84597579418E+01  0.37326796646E+02  0.51100000000E-03 0.  1.
         12    1    3    3    0    0  0.25153528636E+02 -0.32074448692E+02 -0.16193336205E+01  0.40793289927E+02  0.00000000000E+00 0. -1.
</event>
<event>
 7    1  0.1698110E-015  0.9000775E+02  0.7816164E-02  0.1186339E+00
        -11   -1    0    0    0    0  0.00000000000E+00  0.00000000000E+00  0.45593999997E+02  0.45594000000E+02  0.51100000000E-03 0.  1.
         11   -1    0    0    0    0 -0.00000000000E+00 -0.00000000000E+00 -0.45593999997E+02  0.45594000000E+02  0.51100000000E-03 0. -1.
    9900012    2    1    2    0    0 -0.92653260957E+00  0.70921751282E+00 -0.17761314618E+00  0.90007746389E+02  0.90000007841E+02 0.  0.
         12    1    1    2    0    0  0.92653260957E+00 -0.70921751282E+00  0.17761314618E+00  0.11802536112E+01  0.00000000000E+00 0. -1.
         11    1    3    3    0    0 -0.49829362564E+01 -0.37996012567E+02  0.29634303336E+01  0.38435771676E+02  0.51100000000E-03 0. -1.
        -11    1    3    3    0    0 -0.45560015628E+01 -0.21457015591E+01 -0.80914094575E+01  0.95305872165E+01  0.51100000000E-03 0.  1.
        -12    1    3    3    0    0  0.86124052096E+01  0.40850931639E+02  0.49503659778E+01  0.42041387496E+02  0.00000000000E+00 0.  1.
</event>
<event>
 7    1  0.1698110E-015  0.9000770E+02  0.7816164E-02  0.1186339E+00
        -11   -1    0    0    0    0  0.00000000000E+00  0.00000000000E+00  0.45593999997E+02  0.45594000000E+02  0.51100000000E-03 0. -1.
         11   -1    0    0    0    0 -0.00000000000E+00 -0.00000000000E+00 -0.45593999997E+02  0.45594000000E+02  0.51100000000E-03 0.  1.
    9900012    2    1    2    0    0 -0.11568498169E+01 -0.16390404298E+00  0.16715516243E+00  0.90007700512E+02  0.89999961358E+02 0.  0.
         12    1    1    2    0    0  0.11568498169E+01  0.16390404298E+00 -0.16715516243E+00  0.11802994884E+01  0.00000000000E+00 0. -1.
         11    1    3    3    0    0 -0.27742906971E+01 -0.47392349803E+01 -0.16850708705E+02  0.17722963104E+02  0.51100000000E-03 0. -1.
        -11    1    3    3    0    0 -0.33284344586E+02 -0.57455640986E+01  0.99207486648E+01  0.35203413978E+02  0.51100000000E-03 0.  1.
         12    1    3    3    0    0  0.34901785467E+02  0.10320895036E+02  0.70971152026E+01  0.37081323430E+02  0.00000000000E+00 0. -1.
</event>
<event>
 7    1  0.1698110E-015  0.9000778E+02  0.7816164E-02  0.1186339E+00
        -11   -1    0    0    0    0  0.00000000000E+00  0.00000000000E+00  0.45593999997E+02  0.45594000000E+02  0.51100000000E-03 0.  1.
         11   -1    0    0    0    0 -0.00000000000E+00 -0.00000000000E+00 -0.45593999997E+02  0.45594000000E+02  0.51100000000E-03 0. -1.
    9900012    2    1    2    0    0 -0.17747722171E+00  0.18755301587E-01  0.11666467322E+01  0.90007782002E+02  0.90000043924E+02 0.  0.
         12    1    1    2    0    0  0.17747722171E+00 -0.18755301587E-01 -0.11666467322E+01  0.11802179982E+01  0.00000000000E+00 0. -1.
         11    1    3    3    0    0  0.35090795153E+02  0.13506379709E+02  0.91618722332E+01  0.38700466411E+02  0.51100000000E-03 0. -1.
        -11    1    3    3    0    0 -0.30532612211E+00  0.61775185101E+01  0.61983225255E+01  0.87563783252E+01  0.51100000000E-03 0.  1.
        -12    1    3    3    0    0 -0.34962946253E+02 -0.19665142918E+02 -0.14193548026E+02  0.42550937266E+02  0.00000000000E+00 0.  1.
</event>
<event>
 7    1  0.1698110E-015  0.9000783E+02  0.7816164E-02  0.1186339E+00
        -11   -1    0    0    0    0  0.00000000000E+00  0.00000000000E+00  0.45593999997E+02  0.45594000000E+02  0.51100000000E-03 0. -1.
         11   -1    0    0    0    0 -0.00000000000E+00 -0.00000000000E+00 -0.45593999997E+02  0.45594000000E+02  0.51100000000E-03 0.  1.
    9900012    2    1    2    0    0  0.35551009210E+00  0.10948421297E+01  0.26025520353E+00  0.90007830739E+02  0.90000093304E+02 0.  0.
         12    1    1    2    0    0 -0.35551009210E+00 -0.10948421297E+01 -0.26025520353E+00  0.11801692614E+01  0.00000000000E+00 0. -1.
         11    1    3    3    0    0 -0.12105932199E+01  0.73062297826E+00 -0.17154021485E+02  0.17212199140E+02  0.51100000000E-03 0. -1.
        -11    1    3    3    0    0  0.47623179909E+01  0.27657389379E+02 -0.13745419105E+02  0.31249758503E+02  0.51100000000E-03 0.  1.
         12    1    3    3    0    0 -0.31962146789E+01 -0.27293170227E+02  0.31159695793E+02  0.41545873095E+02  0.00000000000E+00 0. -1.
</event>
<event>
 7    1  0.1698110E-015  0.9000780E+02  0.7816164E-02  0.1186339E+00
        -11   -1    0    0    0    0  0.00000000000E+00  0.00000000000E+00  0.45593999997E+02  0.45594000000E+02  0.51100000000E-03 0.  1.
         11   -1    0    0    0    0 -0.00000000000E+00 -0.00000000000E+00 -0.45593999997E+02  0.45594000000E+02  0.51100000000E-03 0. -1.
    9900012    2    1    2    0    0  0.49222586071E+00 -0.12361025478E+00  0.10655081180E+01  0.90007799448E+02  0.90000061601E+02 0.  0.
         12    1    1    2    0    0 -0.49222586071E+00  0.12361025478E+00 -0.10655081180E+01  0.11802005518E+01  0.00000000000E+00 0. -1.
         11    1    3    3    0    0 -0.23527080878E+01  0.11670366625E+01  0.83687821630E+01  0.87711872099E+01  0.51100000000E-03 0. -1.
        -11    1    3    3    0    0  0.15721727194E+02  0.32871274795E+02 -0.21219691413E+02  0.42165966330E+02  0.51100000000E-03 0.  1.
         12    1    3    3    0    0 -0.12876793246E+02 -0.34161921712E+02  0.13916417368E+02  0.39070645909E+02  0.00000000000E+00 0. -1.
</event>
<event>
 7    1  0.1698110E-015  0.9000780E+02  0.7816164E-02  0.1186339E+00
        -11   -1    0    0    0    0  0.00000000000E+00  0.00000000000E+00  0.45593999997E+02  0.45594000000E+02  0.51100000000E-03 0.  1.
         11   -1    0    0    0    0 -0.00000000000E+00 -0.00000000000E+00 -0.45593999997E+02  0.45594000000E+02  0.51100000000E-03 0. -1.
    9900012    2    1    2    0    0 -0.83539948956E+00 -0.28601491130E-01  0.83316295284E+00  0.90007800501E+02  0.90000062667E+02 0.  0.
         12    1    1    2    0    0  0.83539948956E+00  0.28601491130E-01 -0.83316295284E+00  0.11801994994E+01  0.00000000000E+00 0. -1.
         11    1    3    3    0    0  0.26617301450E+01 -0.66139582255E+01 -0.50195174380E+01  0.87192205124E+01  0.51100000000E-03 0. -1.
        -11    1    3    3    0    0  0.36727573652E+02  0.15481686314E+02  0.18962707112E+01  0.39902294675E+02  0.51100000000E-03 0.  1.
         12    1    3    3    0    0 -0.40224703286E+02 -0.88963295799E+01  0.39564096796E+01  0.41386285313E+02  0.00000000000E+00 0. -1.
</event>
<event>
 7    1  0.1698110E-015  0.9000777E+02  0.7816164E-02  0.1186339E+00
        -11   -1    0    0    0    0  0.00000000000E+00  0.00000000000E+00  0.45593999997E+02  0.45594000000E+02  0.51100000000E-03 0. -1.
         11   -1    0    0    0    0 -0.00000000000E+00 -0.00000000000E+00 -0.45593999997E+02  0.45594000000E+02  0.51100000000E-03 0.  1.
    9900012    2    1    2    0    0  0.35860726663E+00 -0.11135001851E+01  0.15640556125E+00  0.90007769288E+02  0.90000031043E+02 0.  0.
         12    1    1    2    0    0 -0.35860726663E+00  0.11135001851E+01 -0.15640556125E+00  0.11802307120E+01  0.00000000000E+00 0. -1.
         11    1    3    3    0    0  0.16965358029E+02 -0.37298243354E+02  0.61821626977E+01  0.41439129651E+02  0.51100000000E-03 0. -1.
        -11    1    3    3    0    0 -0.65441209755E+01  0.44779820215E+01  0.90621926183E+01  0.12041643477E+02  0.51100000000E-03 0.  1.
        -12    1    3    3    0    0 -0.10062629787E+02  0.31706761147E+02 -0.15087949755E+02  0.36526996160E+02  0.00000000000E+00 0.  1.
</event>
<event>
 7    1  0.1698110E-015  0.9000773E+02  0.7816164E-02  0.1186339E+00
        -11   -1    0    0    0    0  0.00000000000E+00  0.00000000000E+00  0.45593999997E+02  0.45594000000E+02  0.51100000000E-03 0.  1.
         11   -1    0    0    0    0 -0.00000000000E+00 -0.00000000000E+00 -0.45593999997E+02  0.45594000000E+02  0.51100000000E-03 0. -1.
    9900012    2    1    2    0    0  0.51423958690E+00 -0.24878399565E+00  0.10328108988E+01  0.90007731309E+02  0.89999992563E+02 0.  0.
         12    1    1    2    0    0 -0.51423958690E+00  0.24878399565E+00 -0.10328108988E+01  0.11802686905E+01  0.00000000000E+00 0. -1.
         11    1    3    3    0    0 -0.75393447204E+00 -0.72010155081E+01 -0.18976782481E+01  0.74849331681E+01  0.51100000000E-03 0. -1.
        -11    1    3    3    0    0  0.50100097800E+00 -0.36359086754E+02 -0.92580134378E+01  0.37522593256E+02  0.51100000000E-03 0.  1.
         12    1    3    3    0    0  0.76717308094E+00  0.43311318266E+02  0.12188502585E+02  0.45000204886E+02  0.00000000000E+00 0. -1.
</event>
<event>
 7    1  0.1698110E-015  0.9000775E+02  0.7816164E-02  0.1186339E+00
        -11   -1    0    0    0    0  0.00000000000E+00  0.00000000000E+00  0.45593999997E+02  0.45594000000E+02  0.51100000000E-03 0. -1.
         11   -1    0    0    0    0 -0.00000000000E+00 -0.00000000000E+00 -0.45593999997E+02  0.45594000000E+02  0.51100000000E-03 0.  1.
    9900012    2    1    2    0    0 -0.56422331047E+00  0.74206994170E+00 -0.72386568541E+00  0.90007746945E+02  0.90000008405E+02 0.  0.
         12    1    1    2    0    0  0.56422331047E+00 -0.74206994170E+00  0.72386568541E+00  0.11802530546E+01  0.00000000000E+00 0. -1.
         11    1    3    3    0    0 -0.87869237338E+01  0.37015237596E+02  0.16617987035E+02  0.41515001341E+02  0.51100000000E-03 0. -1.
        -11    1    3    3    0    0  0.73521758861E+01 -0.53584897338E+01  0.49613767587E+01  0.10362584721E+02  0.51100000000E-03 0.  1.
        -12    1    3    3    0    0  0.87052453726E+00 -0.30914677920E+02 -0.22303229479E+02  0.38130160884E+02  0.00000000000E+00 0.  1.
</event>
<event>
 7    1  0.1698110E-015  0.9000780E+02  0.7816164E-02  0.1186339E+00
        -11   -1    0    0    0    0  0.00000000000E+00  0.00000000000E+00  0.45593999997E+02  0.45594000000E+02  0.51100000000E-03 0.  1.
         11   -1    0    0    0    0 -0.00000000000E+00 -0.00000000000E+00 -0.45593999997E+02  0.45594000000E+02  0.51100000000E-03 0. -1.
    9900012    2    1    2    0    0  0.29128027838E+00 -0.10930498377E+01 -0.33654737759E+00  0.90007802438E+02  0.90000064630E+02 0.  0.
         12    1    1    2    0    0 -0.29128027838E+00  0.10930498377E+01  0.33654737759E+00  0.11801975621E+01  0.00000000000E+00 0. -1.
         11    1    3    3    0    0  0.19572882299E+02  0.46646086938E+01 -0.30672309051E+02  0.36683059286E+02  0.51100000000E-03 0. -1.
        -11    1    3    3    0    0  0.67734114165E+01 -0.54354833748E+01 -0.45321704830E+01  0.97961294032E+01  0.51100000000E-03 0.  1.
        -12    1    3    3    0    0 -0.26055013438E+02 -0.32217515664E+00  0.34867932156E+02  0.43528613749E+02  0.00000000000E+00 0.  1.
</event>
<event>
 7    1  0.2348359E-015  0.9000775E+02  0.7816164E-02  0.1186339E+00
        -11   -1    0    0    0    0  0.00000000000E+00  0.00000000000E+00  0.45593999997E+02  0.45594000000E+02  0.51100000000E-03 0. -1.
         11   -1    0    0    0    0 -0.00000000000E+00 -0.00000000000E+00 -0.45593999997E+02  0.45594000000E+02  0.51100000000E-03 0.  1.
    9900012    2    1    2    0    0  0.84612420541E+00 -0.76411847918E+00 -0.30527318586E+00  0.90007747934E+02  0.90000009407E+02 0.  0.
         12    1    1    2    0    0 -0.84612420541E+00  0.76411847918E+00  0.30527318586E+00  0.11802520660E+01  0.00000000000E+00 0. -1.
         11    1    3    3    0    0 -0.21885038271E+01 -0.91337907029E+00 -0.91111062361E+01  0.94146729860E+01  0.51100000000E-03 0. -1.
        -11    1    3    3    0    0  0.17205232953E+02 -0.86750827935E+01 -0.31523084271E+02  0.36945662055E+02  0.51100000000E-03 0.  1.
         12    1    3    3    0    0 -0.14170604920E+02  0.88243433846E+01  0.40328917321E+02  0.43647412893E+02  0.00000000000E+00 0. -1.
</event>
<event>
 7    1  0.1698110E-015  0.9000769E+02  0.7816164E-02  0.1186339E+00
        -11   -1    0    0    0    0  0.00000000000E+00  0.00000000000E+00  0.45593999997E+02  0.45594000000E+02  0.51100000000E-03 0.  1.
         11   -1    0    0    0    0 -0.00000000000E+00 -0.00000000000E+00 -0.45593999997E+02  0.45594000000E+02  0.51100000000E-03 0. -1.
    9900012    2    1    2    0    0  0.20864297415E+00 -0.11616903842E+01  0.86739883620E-02  0.90007690008E+02  0.89999950716E+02 0.  0.
         12    1    1    2    0    0 -0.20864297415E+00  0.11616903842E+01 -0.86739883620E-02  0.11803099921E+01  0.00000000000E+00 0. -1.
         11    1    3    3    0    0 -0.32942409078E+02  0.11501207648E+02 -0.10258159394E+02  0.36369079280E+02  0.51100000000E-03 0. -1.
        -11    1    3    3    0    0 -0.57072354431E+01  0.61470029579E+01 -0.22587093747E+01  0.86867686781E+01  0.51100000000E-03 0.  1.
        -12    1    3    3    0    0  0.38858287495E+02 -0.18809900990E+02  0.12525542758E+02  0.44951842050E+02  0.00000000000E+00 0.  1.
</event>
<event>
 7    1  0.1698110E-015  0.9000775E+02  0.7816164E-02  0.1186339E+00
        -11   -1    0    0    0    0  0.00000000000E+00  0.00000000000E+00  0.45593999997E+02  0.45594000000E+02  0.51100000000E-03 0. -1.
         11   -1    0    0    0    0 -0.00000000000E+00 -0.00000000000E+00 -0.45593999997E+02  0.45594000000E+02  0.51100000000E-03 0.  1.
    9900012    2    1    2    0    0 -0.10882021313E+01  0.11327653948E+00 -0.44269689857E+00  0.90007747486E+02  0.90000008953E+02 0.  0.
         12    1    1    2    0    0  0.10882021313E+01 -0.11327653948E+00  0.44269689857E+00  0.11802525141E+01  0.00000000000E+00 0. -1.
         11    1    3    3    0    0  0.37359807925E+02 -0.14242582889E+01 -0.21941710612E+01  0.37451276972E+02  0.51100000000E-03 0. -1.
        -11    1    3    3    0    0 -0.56606301048E+01  0.14262824819E+02 -0.61126759272E+01  0.16517739320E+02  0.51100000000E-03 0.  1.
        -12    1    3    3    0    0 -0.32787379952E+02 -0.12725289990E+02  0.78641500899E+01  0.36038731194E+02  0.00000000000E+00 0.  1.
</event>
<event>
 7    1  0.1698110E-015  0.9000705E+02  0.7816164E-02  0.1186340E+00
        -11   -1    0    0    0    0  0.00000000000E+00  0.00000000000E+00  0.45593999997E+02  0.45594000000E+02  0.51100000000E-03 0.  1.
         11   -1    0    0    0    0 -0.00000000000E+00 -0.00000000000E+00 -0.45593999997E+02  0.45594000000E+02  0.51100000000E-03 0. -1.
    9900012    2    1    2    0    0 -0.92301738647E+00 -0.59512696946E+00  0.43417268938E+00  0.90007049904E+02  0.89999302160E+02 0.  0.
         12    1    1    2    0    0  0.92301738647E+00  0.59512696946E+00 -0.43417268938E+00  0.11809500962E+01  0.00000000000E+00 0. -1.
         11    1    3    3    0    0 -0.41415886247E+01  0.65510129843E+01  0.29038646588E+01  0.82765305337E+01  0.51100000000E-03 0. -1.
        -11    1    3    3    0    0  0.36495525530E+02  0.17300926941E+02 -0.19414885078E+01  0.40435316675E+02  0.51100000000E-03 0.  1.
         12    1    3    3    0    0 -0.33276954292E+02 -0.24447066895E+02 -0.52820346161E+00  0.41295202695E+02  0.00000000000E+00 0. -1.
</event>
<event>
 7    1  0.2018295E-015  0.9000761E+02  0.7816164E-02  0.1186339E+00
        -11   -1    0    0    0    0  0.00000000000E+00  0.00000000000E+00  0.45593999997E+02  0.45594000000E+02  0.51100000000E-03 0. -1.
         11   -1    0    0    0    0 -0.00000000000E+00 -0.00000000000E+00 -0.45593999997E+02  0.45594000000E+02  0.51100000000E-03 0.  1.
    9900012    2    1    2    0    0 -0.11688422368E+01 -0.52524067433E-01 -0.15612260663E+00  0.90007608023E+02  0.89999867648E+02 0.  0.
         12    1    1    2    0    0  0.11688422368E+01  0.52524067433E-01  0.15612260663E+00  0.11803919774E+01  0.00000000000E+00 0. -1.
         11    1    3    3    0    0  0.44978871490E+01 -0.81593833242E+01  0.18287795506E+01  0.94947859345E+01  0.51100000000E-03 0. -1.
        -11    1    3    3    0    0 -0.10639954249E+02 -0.33105228482E+02 -0.13709086333E+02  0.37377852100E+02  0.51100000000E-03 0.  1.
         12    1    3    3    0    0  0.49732248636E+01  0.41212087738E+02  0.11724184176E+02  0.43134969988E+02  0.00000000000E+00 0. -1.
</event>
<event>
 7    1  0.1698110E-015  0.9000776E+02  0.7816164E-02  0.1186339E+00
        -11   -1    0    0    0    0  0.00000000000E+00  0.00000000000E+00  0.45593999997E+02  0.45594000000E+02  0.51100000000E-03 0. -1.
         11   -1    0    0    0    0 -0.00000000000E+00 -0.00000000000E+00 -0.45593999997E+02  0.45594000000E+02  0.51100000000E-03 0.  1.
    9900012    2    1    2    0    0  0.10136500162E+01  0.79397163887E-01 -0.59931666252E+00  0.90007758191E+02  0.90000019799E+02 0.  0.
         12    1    1    2    0    0 -0.10136500162E+01 -0.79397163887E-01  0.59931666252E+00  0.11802418086E+01  0.00000000000E+00 0. -1.
         11    1    3    3    0    0 -0.20502942563E+02  0.23260486350E+02  0.27876505831E+02  0.41695568788E+02  0.51100000000E-03 0. -1.
        -11    1    3    3    0    0  0.36358704516E+01  0.23415097394E+01  0.19638516148E+01  0.47496247459E+01  0.51100000000E-03 0.  1.
        -12    1    3    3    0    0  0.17880722127E+02 -0.25522598926E+02 -0.30439674108E+02  0.43562564657E+02  0.00000000000E+00 0.  1.
</event>
<event>
 8    1  0.1698110E-015  0.9000770E+02  0.7816164E-02  0.1186339E+00
        -11   -1    0    0    0    0  0.00000000000E+00  0.00000000000E+00  0.45593999997E+02  0.45594000000E+02  0.51100000000E-03 0. -1.
         11   -1    0    0    0    0 -0.00000000000E+00 -0.00000000000E+00 -0.45593999997E+02  0.45594000000E+02  0.51100000000E-03 0.  1.
    9900012    2    1    2    0    0 -0.29078919231E+00  0.62268121943E+00 -0.95959702612E+00  0.90007696349E+02  0.89999957141E+02 0.  0.
         23    2    3    3    0    0  0.19988031912E+02 -0.91982701169E+01 -0.18943175271E+02  0.61179051618E+02  0.53850746278E+02 0.  0.
         12    1    1    2    0    0  0.29078919231E+00 -0.62268121943E+00  0.95959702612E+00  0.11803036507E+01  0.00000000000E+00 0. -1.
         11    1    4    4    0    0 -0.55985467761E+01 -0.18952428842E+01  0.16116147051E+02  0.17165834312E+02  0.51100000000E-03 0. -1.
        -11    1    4    4    0    0  0.25586578689E+02 -0.73030272328E+01 -0.35059322322E+02  0.44013217306E+02  0.51100000000E-03 0.  1.
         12    1    3    3    0    0 -0.20278821105E+02  0.98209513364E+01  0.17983578245E+02  0.28828644731E+02  0.00000000000E+00 0. -1.
</event>
<event>
 7    1  0.1698110E-015  0.9000781E+02  0.7816164E-02  0.1186339E+00
        -11   -1    0    0    0    0  0.00000000000E+00  0.00000000000E+00  0.45593999997E+02  0.45594000000E+02  0.51100000000E-03 0.  1.
         11   -1    0    0    0    0 -0.00000000000E+00 -0.00000000000E+00 -0.45593999997E+02  0.45594000000E+02  0.51100000000E-03 0. -1.
    9900012    2    1    2    0    0  0.23746006439E+00 -0.11262066283E+01  0.26097856122E+00  0.90007814226E+02  0.90000076574E+02 0.  0.
         12    1    1    2    0    0 -0.23746006439E+00  0.11262066283E+01 -0.26097856122E+00  0.11801857740E+01  0.00000000000E+00 0. -1.
         11    1    3    3    0    0 -0.47487831273E+01  0.69213716690E+01  0.33862853648E+01  0.90511466568E+01  0.51100000000E-03 0. -1.
        -11    1    3    3    0    0 -0.37683232722E+02 -0.22692463226E+01  0.40032601144E+00  0.37753619275E+02  0.51100000000E-03 0.  1.
         12    1    3    3    0    0  0.42669475913E+02 -0.57783319747E+01 -0.35256328150E+01  0.43203048294E+02  0.00000000000E+00 0. -1.
</event>
<event>
 7    1  0.1698110E-015  0.9000772E+02  0.7816164E-02  0.1186339E+00
        -11   -1    0    0    0    0  0.00000000000E+00  0.00000000000E+00  0.45593999997E+02  0.45594000000E+02  0.51100000000E-03 0.  1.
         11   -1    0    0    0    0 -0.00000000000E+00 -0.00000000000E+00 -0.45593999997E+02  0.45594000000E+02  0.51100000000E-03 0. -1.
    9900012    2    1    2    0    0 -0.47958433371E+00 -0.75807395016E+00  0.76705639282E+00  0.90007723441E+02  0.89999984590E+02 0.  0.
         12    1    1    2    0    0  0.47958433371E+00  0.75807395016E+00 -0.76705639282E+00  0.11802765595E+01  0.00000000000E+00 0. -1.
         11    1    3    3    0    0  0.32723043156E+02 -0.58678604743E+01 -0.20057126753E+02  0.38826764915E+02  0.51100000000E-03 0. -1.
        -11    1    3    3    0    0 -0.22919354149E+01 -0.58448733574E+01  0.17051095119E+02  0.18170177697E+02  0.51100000000E-03 0.  1.
        -12    1    3    3    0    0 -0.30910692075E+02  0.10954659882E+02  0.37730880269E+01  0.33010780829E+02  0.00000000000E+00 0.  1.
</event>
<event>
 7    1  0.1698110E-015  0.9000774E+02  0.7816164E-02  0.1186339E+00
        -11   -1    0    0    0    0  0.00000000000E+00  0.00000000000E+00  0.45593999997E+02  0.45594000000E+02  0.51100000000E-03 0. -1.
         11   -1    0    0    0    0 -0.00000000000E+00 -0.00000000000E+00 -0.45593999997E+02  0.45594000000E+02  0.51100000000E-03 0.  1.
    9900012    2    1    2    0    0  0.61765833230E+00  0.86734261202E+00 -0.50914287952E+00  0.90007740921E+02  0.90000002301E+02 0.  0.
         12    1    1    2    0    0 -0.61765833230E+00 -0.86734261202E+00  0.50914287952E+00  0.11802590791E+01  0.00000000000E+00 0. -1.
         11    1    3    3    0    0 -0.20410416704E+02  0.16480417512E+02  0.15192317920E+02  0.30314943434E+02  0.51100000000E-03 0. -1.
        -11    1    3    3    0    0 -0.11123580237E+02  0.88797326754E+01  0.39207366303E+01  0.14763328408E+02  0.51100000000E-03 0.  1.
        -12    1    3    3    0    0  0.32151655273E+02 -0.24492807576E+02 -0.19622197429E+02  0.44929469079E+02  0.00000000000E+00 0.  1.
</event>
<event>
 7    1  0.1900411E-015  0.9000801E+02  0.7816164E-02  0.1186338E+00
        -11   -1    0    0    0    0  0.00000000000E+00  0.00000000000E+00  0.45593999997E+02  0.45594000000E+02  0.51100000000E-03 0.  1.
         11   -1    0    0    0    0 -0.00000000000E+00 -0.00000000000E+00 -0.45593999997E+02  0.45594000000E+02  0.51100000000E-03 0. -1.
    9900012    2    1    2    0    0  0.69566478801E+00  0.48902129792E+00  0.81809307108E+00  0.90008013729E+02  0.90000278710E+02 0.  0.
         12    1    1    2    0    0 -0.69566478801E+00 -0.48902129792E+00 -0.81809307108E+00  0.11799862711E+01  0.00000000000E+00 0. -1.
         11    1    3    3    0    0 -0.72095634130E+01  0.58645595640E+01  0.19408208129E+01  0.94940849572E+01  0.51100000000E-03 0. -1.
        -11    1    3    3    0    0 -0.15532375898E+02 -0.23007318333E+02  0.27825583882E+02  0.39304637342E+02  0.51100000000E-03 0.  1.
         12    1    3    3    0    0  0.23437604099E+02  0.17631780067E+02 -0.28948311624E+02  0.41209291430E+02  0.00000000000E+00 0. -1.
</event>
<event>
 7    1  0.1698110E-015  0.9000772E+02  0.7816164E-02  0.1186339E+00
        -11   -1    0    0    0    0  0.00000000000E+00  0.00000000000E+00  0.45593999997E+02  0.45594000000E+02  0.51100000000E-03 0. -1.
         11   -1    0    0    0    0 -0.00000000000E+00 -0.00000000000E+00 -0.45593999997E+02  0.45594000000E+02  0.51100000000E-03 0.  1.
    9900012    2    1    2    0    0 -0.50527053985E+00  0.95691632023E+00  0.47125231060E+00  0.90007717872E+02  0.89999978948E+02 0.  0.
         12    1    1    2    0    0  0.50527053985E+00 -0.95691632023E+00 -0.47125231060E+00  0.11802821284E+01  0.00000000000E+00 0. -1.
         11    1    3    3    0    0 -0.36084972369E+02  0.29130828634E+01  0.77072324145E+01  0.37013682800E+02  0.51100000000E-03 0. -1.
        -11    1    3    3    0    0 -0.22124613977E+01  0.82077348374E+01  0.73415698750E+01  0.11232121130E+02  0.51100000000E-03 0.  1.
        -12    1    3    3    0    0  0.37792163227E+02 -0.10163901381E+02 -0.14577549979E+02  0.41761913941E+02  0.00000000000E+00 0.  1.
</event>
<event>
 7    1  0.1698110E-015  0.9000771E+02  0.7816164E-02  0.1186339E+00
        -11   -1    0    0    0    0  0.00000000000E+00  0.00000000000E+00  0.45593999997E+02  0.45594000000E+02  0.51100000000E-03 0.  1.
         11   -1    0    0    0    0 -0.00000000000E+00 -0.00000000000E+00 -0.45593999997E+02  0.45594000000E+02  0.51100000000E-03 0. -1.
    9900012    2    1    2    0    0 -0.15181537120E+00 -0.99832556329E+00  0.61104653276E+00  0.90007712026E+02  0.89999973024E+02 0.  0.
         12    1    1    2    0    0  0.15181537120E+00  0.99832556329E+00 -0.61104653276E+00  0.11802879744E+01  0.00000000000E+00 0. -1.
         11    1    3    3    0    0  0.69057192969E+01  0.47350827704E+01  0.31192039730E+01  0.89352896728E+01  0.51100000000E-03 0. -1.
        -11    1    3    3    0    0  0.33787908518E+02  0.10816641060E+02  0.65591243887E+01  0.36078312029E+02  0.51100000000E-03 0.  1.
         12    1    3    3    0    0 -0.40845443187E+02 -0.16550049394E+02 -0.90672818289E+01  0.44994110324E+02  0.00000000000E+00 0. -1.
</event>
<event>
 7    1  0.1698110E-015  0.9000769E+02  0.7816164E-02  0.1186339E+00
        -11   -1    0    0    0    0  0.00000000000E+00  0.00000000000E+00  0.45593999997E+02  0.45594000000E+02  0.51100000000E-03 0.  1.
         11   -1    0    0    0    0 -0.00000000000E+00 -0.00000000000E+00 -0.45593999997E+02  0.45594000000E+02  0.51100000000E-03 0. -1.
    9900012    2    1    2    0    0 -0.43395868898E+00  0.98532817987E+00  0.48367878073E+00  0.90007687783E+02  0.89999948462E+02 0.  0.
         12    1    1    2    0    0  0.43395868898E+00 -0.98532817987E+00 -0.48367878073E+00  0.11803122166E+01  0.00000000000E+00 0. -1.
         11    1    3    3    0    0  0.39130634582E+02 -0.21929397861E+01  0.86900007061E+01  0.40143886959E+02  0.51100000000E-03 0. -1.
        -11    1    3    3    0    0 -0.61389656135E+00 -0.59378950591E+01 -0.78461924878E+01  0.98589149270E+01  0.51100000000E-03 0.  1.
        -12    1    3    3    0    0 -0.38950696709E+02  0.91161630251E+01 -0.36012943758E+00  0.40004885897E+02  0.00000000000E+00 0.  1.
</event>
<event>
 7    1  0.1698110E-015  0.9000773E+02  0.7816164E-02  0.1186339E+00
        -11   -1    0    0    0    0  0.00000000000E+00  0.00000000000E+00  0.45593999997E+02  0.45594000000E+02  0.51100000000E-03 0. -1.
         11   -1    0    0    0    0 -0.00000000000E+00 -0.00000000000E+00 -0.45593999997E+02  0.45594000000E+02  0.51100000000E-03 0.  1.
    9900012    2    1    2    0    0 -0.11791279386E+01  0.14848576849E-01 -0.49699492974E-01  0.90007731719E+02  0.89999992978E+02 0.  0.
         12    1    1    2    0    0  0.11791279386E+01 -0.14848576849E-01  0.49699492974E-01  0.11802682812E+01  0.00000000000E+00 0. -1.
         11    1    3    3    0    0 -0.29287818077E+02 -0.15176616942E+02  0.19459207668E+02  0.38298390996E+02  0.51100000000E-03 0. -1.
        -11    1    3    3    0    0 -0.12204308536E+01  0.15964231156E+02  0.79350034958E+00  0.16030463840E+02  0.51100000000E-03 0.  1.
        -12    1    3    3    0    0  0.29329120992E+02 -0.77276563697E+00 -0.20302407511E+02  0.35678876883E+02  0.00000000000E+00 0.  1.
</event>
<event>
 7    1  0.1698110E-015  0.9000778E+02  0.7816164E-02  0.1186339E+00
        -11   -1    0    0    0    0  0.00000000000E+00  0.00000000000E+00  0.45593999997E+02  0.45594000000E+02  0.51100000000E-03 0. -1.
         11   -1    0    0    0    0 -0.00000000000E+00 -0.00000000000E+00 -0.45593999997E+02  0.45594000000E+02  0.51100000000E-03 0.  1.
    9900012    2    1    2    0    0 -0.41719345675E+00 -0.11014125396E+01  0.75817281458E-01  0.90007784671E+02  0.90000046629E+02 0.  0.
         12    1    1    2    0    0  0.41719345675E+00  0.11014125396E+01 -0.75817281458E-01  0.11802153290E+01  0.00000000000E+00 0. -1.
         11    1    3    3    0    0 -0.46325590373E+01  0.73475844569E+01  0.13439663155E+01  0.87894167215E+01  0.51100000000E-03 0. -1.
        -11    1    3    3    0    0 -0.25481381500E+02  0.57020623767E+01 -0.28398208495E+02  0.38578135834E+02  0.51100000000E-03 0.  1.
         12    1    3    3    0    0  0.29696747080E+02 -0.14151059373E+02  0.27130059461E+02  0.42640232115E+02  0.00000000000E+00 0. -1.
</event>
<event>
 7    1  0.1698110E-015  0.9000769E+02  0.7816164E-02  0.1186339E+00
        -11   -1    0    0    0    0  0.00000000000E+00  0.00000000000E+00  0.45593999997E+02  0.45594000000E+02  0.51100000000E-03 0. -1.
         11   -1    0    0    0    0 -0.00000000000E+00 -0.00000000000E+00 -0.45593999997E+02  0.45594000000E+02  0.51100000000E-03 0.  1.
    9900012    2    1    2    0    0 -0.83152415846E+00  0.45881287630E+00  0.70085383768E+00  0.90007687421E+02  0.89999948095E+02 0.  0.
         12    1    1    2    0    0  0.83152415846E+00 -0.45881287630E+00 -0.70085383768E+00  0.11803125787E+01  0.00000000000E+00 0. -1.
         11    1    3    3    0    0  0.30312001027E+02 -0.23097491785E+02  0.55749250992E+01  0.38514819526E+02  0.51100000000E-03 0. -1.
        -11    1    3    3    0    0  0.31222967352E+01  0.32688751686E+01 -0.10352699811E+02  0.11296578040E+02  0.51100000000E-03 0.  1.
        -12    1    3    3    0    0 -0.34265821921E+02  0.20287429493E+02  0.54786285498E+01  0.40196289855E+02  0.00000000000E+00 0.  1.
</event>
<event>
 7    1  0.1698110E-015  0.9000779E+02  0.7816164E-02  0.1186339E+00
        -11   -1    0    0    0    0  0.00000000000E+00  0.00000000000E+00  0.45593999997E+02  0.45594000000E+02  0.51100000000E-03 0.  1.
         11   -1    0    0    0    0 -0.00000000000E+00 -0.00000000000E+00 -0.45593999997E+02  0.45594000000E+02  0.51100000000E-03 0. -1.
    9900012    2    1    2    0    0 -0.63935554351E+00 -0.89451749473E+00  0.42890293453E+00  0.90007790363E+02  0.90000052396E+02 0.  0.
         12    1    1    2    0    0  0.63935554351E+00  0.89451749473E+00 -0.42890293453E+00  0.11802096367E+01  0.00000000000E+00 0. -1.
         11    1    3    3    0    0  0.32654745519E+02  0.68349208663E+01  0.13758262935E+02  0.36087925230E+02  0.51100000000E-03 0. -1.
        -11    1    3    3    0    0  0.59114201068E+01  0.31332162298E+01  0.59012400745E+01  0.89211303264E+01  0.51100000000E-03 0.  1.
        -12    1    3    3    0    0 -0.39205521170E+02 -0.10862654591E+02 -0.19230600075E+02  0.44998734807E+02  0.00000000000E+00 0.  1.
</event>
<event>
 7    1  0.1698110E-015  0.9000774E+02  0.7816164E-02  0.1186339E+00
        -11   -1    0    0    0    0  0.00000000000E+00  0.00000000000E+00  0.45593999997E+02  0.45594000000E+02  0.51100000000E-03 0. -1.
         11   -1    0    0    0    0 -0.00000000000E+00 -0.00000000000E+00 -0.45593999997E+02  0.45594000000E+02  0.51100000000E-03 0.  1.
    9900012    2    1    2    0    0  0.93375785548E+00  0.11526140278E+00  0.71261815423E+00  0.90007740047E+02  0.90000001415E+02 0.  0.
         12    1    1    2    0    0 -0.93375785548E+00 -0.11526140278E+00 -0.71261815423E+00  0.11802599533E+01  0.00000000000E+00 0. -1.
         11    1    3    3    0    0 -0.20105356519E+02 -0.37316749119E+02 -0.30102353063E+01  0.42495019031E+02  0.51100000000E-03 0. -1.
        -11    1    3    3    0    0 -0.11054639681E+00  0.61895984301E+01  0.73513528596E+01  0.96107095659E+01  0.51100000000E-03 0.  1.
        -12    1    3    3    0    0  0.21149660772E+02  0.31242412092E+02 -0.36284993991E+01  0.37902011450E+02  0.00000000000E+00 0.  1.
</event>
<event>
 7    1  0.1698110E-015  0.9000775E+02  0.7816164E-02  0.1186339E+00
        -11   -1    0    0    0    0  0.00000000000E+00  0.00000000000E+00  0.45593999997E+02  0.45594000000E+02  0.51100000000E-03 0.  1.
         11   -1    0    0    0    0 -0.00000000000E+00 -0.00000000000E+00 -0.45593999997E+02  0.45594000000E+02  0.51100000000E-03 0. -1.
    9900012    2    1    2    0    0  0.86820804376E+00 -0.68787415769E+00  0.40747924031E+00  0.90007747741E+02  0.90000009211E+02 0.  0.
         12    1    1    2    0    0 -0.86820804376E+00  0.68787415769E+00 -0.40747924031E+00  0.11802522592E+01  0.00000000000E+00 0. -1.
         11    1    3    3    0    0 -0.66776836374E+01 -0.40632279926E+01 -0.86504896118E+00  0.78644510582E+01  0.51100000000E-03 0. -1.
        -11    1    3    3    0    0 -0.32353152968E+02  0.20441820830E+02 -0.37710141308E+01  0.38455364953E+02  0.51100000000E-03 0.  1.
         12    1    3    3    0    0  0.39899044649E+02 -0.17066466995E+02  0.50435423322E+01  0.43687931730E+02  0.00000000000E+00 0. -1.
</event>
<event>
 7    1  0.1698110E-015  0.9000776E+02  0.7816164E-02  0.1186339E+00
        -11   -1    0    0    0    0  0.00000000000E+00  0.00000000000E+00  0.45593999997E+02  0.45594000000E+02  0.51100000000E-03 0. -1.
         11   -1    0    0    0    0 -0.00000000000E+00 -0.00000000000E+00 -0.45593999997E+02  0.45594000000E+02  0.51100000000E-03 0.  1.
    9900012    2    1    2    0    0 -0.87430130228E-01 -0.64715624315E+00 -0.98311404973E+00  0.90007759149E+02  0.90000020770E+02 0.  0.
         12    1    1    2    0    0  0.87430130228E-01  0.64715624315E+00  0.98311404973E+00  0.11802408506E+01  0.00000000000E+00 0. -1.
         11    1    3    3    0    0 -0.34475472817E+02 -0.10425836680E+02  0.23524237057E+02  0.43019135577E+02  0.51100000000E-03 0. -1.
        -11    1    3    3    0    0  0.23923883416E+01 -0.38146116511E+01 -0.63057347239E+01  0.77483594841E+01  0.51100000000E-03 0.  1.
        -12    1    3    3    0    0  0.31995654345E+02  0.13593292088E+02 -0.18201616383E+02  0.39240264088E+02  0.00000000000E+00 0.  1.
</event>
<event>
 7    1  0.1698110E-015  0.9000712E+02  0.7816164E-02  0.1186340E+00
        -11   -1    0    0    0    0  0.00000000000E+00  0.00000000000E+00  0.45593999997E+02  0.45594000000E+02  0.51100000000E-03 0. -1.
         11   -1    0    0    0    0 -0.00000000000E+00 -0.00000000000E+00 -0.45593999997E+02  0.45594000000E+02  0.51100000000E-03 0.  1.
    9900012    2    1    2    0    0 -0.98290777143E+00  0.16049471437E+00 -0.63451409761E+00  0.90007121352E+02  0.89999374552E+02 0.  0.
         12    1    1    2    0    0  0.98290777143E+00 -0.16049471437E+00  0.63451409761E+00  0.11808786477E+01  0.00000000000E+00 0. -1.
         11    1    3    3    0    0  0.26648734923E+02 -0.70976266460E+01  0.23309939869E+02  0.36109343305E+02  0.51100000000E-03 0. -1.
        -11    1    3    3    0    0  0.99934413484E+01  0.17803986796E+00 -0.45997196624E+01  0.11002635567E+02  0.51100000000E-03 0.  1.
        -12    1    3    3    0    0 -0.37625084042E+02  0.70800814924E+01 -0.19344734304E+02  0.42895142481E+02  0.00000000000E+00 0.  1.
</event>
<event>
 7    1  0.1698110E-015  0.9000775E+02  0.7816164E-02  0.1186339E+00
        -11   -1    0    0    0    0  0.00000000000E+00  0.00000000000E+00  0.45593999997E+02  0.45594000000E+02  0.51100000000E-03 0. -1.
         11   -1    0    0    0    0 -0.00000000000E+00 -0.00000000000E+00 -0.45593999997E+02  0.45594000000E+02  0.51100000000E-03 0.  1.
    9900012    2    1    2    0    0  0.59078634411E+00  0.66392184247E-01 -0.10195842139E+01  0.90007750706E+02  0.90000012215E+02 0.  0.
         12    1    1    2    0    0 -0.59078634411E+00 -0.66392184247E-01  0.10195842139E+01  0.11802492939E+01  0.00000000000E+00 0. -1.
         11    1    3    3    0    0 -0.29311993059E+02  0.16217156086E+02  0.19155759844E+02  0.38589276024E+02  0.51100000000E-03 0. -1.
        -11    1    3    3    0    0  0.28434442208E+00  0.82955812633E+01 -0.62357184006E+00  0.83238430035E+01  0.51100000000E-03 0.  1.
        -12    1    3    3    0    0  0.29618434981E+02 -0.24446345165E+02 -0.19551772218E+02  0.43094631678E+02  0.00000000000E+00 0.  1.
</event>
<event>
 7    1  0.1698110E-015  0.9000776E+02  0.7816164E-02  0.1186339E+00
        -11   -1    0    0    0    0  0.00000000000E+00  0.00000000000E+00  0.45593999997E+02  0.45594000000E+02  0.51100000000E-03 0.  1.
         11   -1    0    0    0    0 -0.00000000000E+00 -0.00000000000E+00 -0.45593999997E+02  0.45594000000E+02  0.51100000000E-03 0. -1.
    9900012    2    1    2    0    0 -0.94343686032E+00 -0.43179016243E+00  0.56254798812E+00  0.90007755918E+02  0.90000017496E+02 0.  0.
         12    1    1    2    0    0  0.94343686032E+00  0.43179016243E+00 -0.56254798812E+00  0.11802440818E+01  0.00000000000E+00 0. -1.
         11    1    3    3    0    0 -0.26770951362E+02 -0.74988713305E+01 -0.23666572828E+02  0.36510595418E+02  0.51100000000E-03 0. -1.
        -11    1    3    3    0    0  0.66434496702E+01 -0.45826122075E+01 -0.98232712112E+01  0.12713473786E+02  0.51100000000E-03 0.  1.
        -12    1    3    3    0    0  0.19184064832E+02  0.11649693376E+02  0.34052392027E+02  0.40783686714E+02  0.00000000000E+00 0.  1.
</event>
<event>
 7    1  0.1698110E-015  0.9000656E+02  0.7816164E-02  0.1186341E+00
        -11   -1    0    0    0    0  0.00000000000E+00  0.00000000000E+00  0.45593999997E+02  0.45594000000E+02  0.51100000000E-03 0.  1.
         11   -1    0    0    0    0 -0.00000000000E+00 -0.00000000000E+00 -0.45593999997E+02  0.45594000000E+02  0.51100000000E-03 0. -1.
    9900012    2    1    2    0    0  0.47302608401E+00 -0.52168374843E+00  0.94862975321E+00  0.90006557653E+02  0.89998803407E+02 0.  0.
         12    1    1    2    0    0 -0.47302608401E+00  0.52168374843E+00 -0.94862975321E+00  0.11814423465E+01  0.00000000000E+00 0. -1.
         11    1    3    3    0    0  0.37851845478E+02  0.12805611787E+01 -0.10442316420E+02  0.39286690055E+02  0.51100000000E-03 0. -1.
        -11    1    3    3    0    0 -0.35940115772E+01  0.63076901396E+01 -0.81036148759E+01  0.10879910314E+02  0.51100000000E-03 0.  1.
        -12    1    3    3    0    0 -0.33784807816E+02 -0.81099350668E+01  0.19494561049E+02  0.39839957285E+02  0.00000000000E+00 0.  1.
</event>
<event>
 7    1  0.1698110E-015  0.9000721E+02  0.7816164E-02  0.1186340E+00
        -11   -1    0    0    0    0  0.00000000000E+00  0.00000000000E+00  0.45593999997E+02  0.45594000000E+02  0.51100000000E-03 0. -1.
         11   -1    0    0    0    0 -0.00000000000E+00 -0.00000000000E+00 -0.45593999997E+02  0.45594000000E+02  0.51100000000E-03 0.  1.
    9900012    2    1    2    0    0 -0.13387832364E+00  0.58746248085E-02 -0.11731590884E+01  0.90007212058E+02  0.89999466456E+02 0.  0.
         12    1    1    2    0    0  0.13387832364E+00 -0.58746248085E-02  0.11731590884E+01  0.11807879417E+01  0.00000000000E+00 0. -1.
         11    1    3    3    0    0 -0.21005672556E+02  0.30471303245E+02  0.20805428784E+02  0.42457089727E+02  0.51100000000E-03 0. -1.
        -11    1    3    3    0    0 -0.36759180320E+01 -0.80467314432E+01 -0.34871529010E+01  0.95090743984E+01  0.51100000000E-03 0.  1.
        -12    1    3    3    0    0  0.24547712265E+02 -0.22418697177E+02 -0.18491434971E+02  0.38041047933E+02  0.00000000000E+00 0.  1.
</event>
<event>
 7    1  0.1698110E-015  0.9000863E+02  0.7816164E-02  0.1186337E+00
        -11   -1    0    0    0    0  0.00000000000E+00  0.00000000000E+00  0.45593999997E+02  0.45594000000E+02  0.51100000000E-03 0.  1.
         11   -1    0    0    0    0 -0.00000000000E+00 -0.00000000000E+00 -0.45593999997E+02  0.45594000000E+02  0.51100000000E-03 0. -1.
    9900012    2    1    2    0    0  0.87010875875E+00 -0.79958932905E-01  0.79210665199E+00  0.90008629138E+02  0.90000902238E+02 0.  0.
         12    1    1    2    0    0 -0.87010875875E+00  0.79958932905E-01 -0.79210665199E+00  0.11793708624E+01  0.00000000000E+00 0. -1.
         11    1    3    3    0    0 -0.18501640981E+02  0.33612183439E+02 -0.39815440439E+01  0.38573854977E+02  0.51100000000E-03 0. -1.
        -11    1    3    3    0    0 -0.16391170908E+01 -0.18975905738E+01 -0.10188972774E+02  0.10492984384E+02  0.51100000000E-03 0.  1.
        -12    1    3    3    0    0  0.21010866830E+02 -0.31794551798E+02  0.14962623470E+02  0.40941789777E+02  0.00000000000E+00 0.  1.
</event>
<event>
 7    1  0.1698110E-015  0.9000776E+02  0.7816164E-02  0.1186339E+00
        -11   -1    0    0    0    0  0.00000000000E+00  0.00000000000E+00  0.45593999997E+02  0.45594000000E+02  0.51100000000E-03 0. -1.
         11   -1    0    0    0    0 -0.00000000000E+00 -0.00000000000E+00 -0.45593999997E+02  0.45594000000E+02  0.51100000000E-03 0.  1.
    9900012    2    1    2    0    0  0.11107485289E+01  0.32249075630E-01 -0.39770726610E+00  0.90007757073E+02  0.90000018666E+02 0.  0.
         12    1    1    2    0    0 -0.11107485289E+01 -0.32249075630E-01  0.39770726610E+00  0.11802429271E+01  0.00000000000E+00 0. -1.
         11    1    3    3    0    0  0.52172146199E+01  0.97186009169E+01 -0.70536232988E+01  0.13092903959E+02  0.51100000000E-03 0. -1.
        -11    1    3    3    0    0 -0.28791162919E+02 -0.24711255095E+02 -0.15003971965E+02  0.40800690749E+02  0.51100000000E-03 0.  1.
         12    1    3    3    0    0  0.24684696828E+02  0.15024903253E+02  0.21659887998E+02  0.36114162365E+02  0.00000000000E+00 0. -1.
</event>
<event>
 7    1  0.1698110E-015  0.9000769E+02  0.7816164E-02  0.1186339E+00
        -11   -1    0    0    0    0  0.00000000000E+00  0.00000000000E+00  0.45593999997E+02  0.45594000000E+02  0.51100000000E-03 0.  1.
         11   -1    0    0    0    0 -0.00000000000E+00 -0.00000000000E+00 -0.45593999997E+02  0.45594000000E+02  0.51100000000E-03 0. -1.
    9900012    2    1    2    0    0 -0.90233950744E+00  0.61675281195E+00 -0.44556198362E+00  0.90007692371E+02  0.89999953110E+02 0.  0.
         12    1    1    2    0    0  0.90233950744E+00 -0.61675281195E+00  0.44556198362E+00  0.11803076290E+01  0.00000000000E+00 0. -1.
         11    1    3    3    0    0  0.11536416629E+02  0.18426916956E+01 -0.13962860159E+01  0.11765799430E+02  0.51100000000E-03 0. -1.
        -11    1    3    3    0    0  0.42123582988E+01 -0.86313022960E+01  0.36796740591E+02  0.38029507756E+02  0.51100000000E-03 0.  1.
         12    1    3    3    0    0 -0.16651114435E+02  0.74053634123E+01 -0.35846016559E+02  0.40212385186E+02  0.00000000000E+00 0. -1.
</event>
<event>
 7    1  0.1698110E-015  0.9000775E+02  0.7816164E-02  0.1186339E+00
        -11   -1    0    0    0    0  0.00000000000E+00  0.00000000000E+00  0.45593999997E+02  0.45594000000E+02  0.51100000000E-03 0.  1.
         11   -1    0    0    0    0 -0.00000000000E+00 -0.00000000000E+00 -0.45593999997E+02  0.45594000000E+02  0.51100000000E-03 0. -1.
    9900012    2    1    2    0    0 -0.64647854658E+00 -0.10171122884E+00 -0.98219625642E+00  0.90007750378E+02  0.90000011882E+02 0.  0.
         12    1    1    2    0    0  0.64647854658E+00  0.10171122884E+00  0.98219625642E+00  0.11802496225E+01  0.00000000000E+00 0. -1.
         11    1    3    3    0    0  0.25329857429E+01  0.14263825003E+00  0.10585127585E+02  0.10884911056E+02  0.51100000000E-03 0. -1.
        -11    1    3    3    0    0  0.20018712053E+02  0.20645133694E+01  0.27230179367E+02  0.33859913118E+02  0.51100000000E-03 0.  1.
         12    1    3    3    0    0 -0.23198176343E+02 -0.23088628482E+01 -0.38797503209E+02  0.45262926204E+02  0.00000000000E+00 0. -1.
</event>
<event>
 7    1  0.1698110E-015  0.9000776E+02  0.7816164E-02  0.1186339E+00
        -11   -1    0    0    0    0  0.00000000000E+00  0.00000000000E+00  0.45593999997E+02  0.45594000000E+02  0.51100000000E-03 0.  1.
         11   -1    0    0    0    0 -0.00000000000E+00 -0.00000000000E+00 -0.45593999997E+02  0.45594000000E+02  0.51100000000E-03 0. -1.
    9900012    2    1    2    0    0  0.78394371499E+00 -0.76863878622E+00  0.43312726575E+00  0.90007757415E+02  0.90000019013E+02 0.  0.
         12    1    1    2    0    0 -0.78394371499E+00  0.76863878622E+00 -0.43312726575E+00  0.11802425854E+01  0.00000000000E+00 0. -1.
         11    1    3    3    0    0  0.83274786833E+01 -0.14201038999E+00 -0.31589504313E+01  0.89076392081E+01  0.51100000000E-03 0. -1.
        -11    1    3    3    0    0 -0.13978738171E+02  0.33029404305E+02 -0.18474147678E+02  0.40344030566E+02  0.51100000000E-03 0.  1.
         12    1    3    3    0    0  0.64352032031E+01 -0.33656032701E+02  0.22066225375E+02  0.40756087641E+02  0.00000000000E+00 0. -1.
</event>
<event>
 7    1  0.1698110E-015  0.9000776E+02  0.7816164E-02  0.1186339E+00
        -11   -1    0    0    0    0  0.00000000000E+00  0.00000000000E+00  0.45593999997E+02  0.45594000000E+02  0.51100000000E-03 0.  1.
         11   -1    0    0    0    0 -0.00000000000E+00 -0.00000000000E+00 -0.45593999997E+02  0.45594000000E+02  0.51100000000E-03 0. -1.
    9900012    2    1    2    0    0 -0.11236039036E+00  0.95161032631E+00  0.68904339518E+00  0.90007759401E+02  0.90000021025E+02 0.  0.
         12    1    1    2    0    0  0.11236039036E+00 -0.95161032631E+00 -0.68904339518E+00  0.11802405987E+01  0.00000000000E+00 0. -1.
         11    1    3    3    0    0 -0.86995320139E+01 -0.20702996381E+01 -0.43156145020E+01  0.99293769514E+01  0.51100000000E-03 0. -1.
        -11    1    3    3    0    0 -0.17852850260E+02 -0.25623618047E+02  0.21326426489E+02  0.37816802235E+02  0.51100000000E-03 0.  1.
         12    1    3    3    0    0  0.26440021884E+02  0.28645528011E+02 -0.16321768592E+02  0.42261580215E+02  0.00000000000E+00 0. -1.
</event>
<event>
 7    1  0.1698110E-015  0.9000773E+02  0.7816164E-02  0.1186339E+00
        -11   -1    0    0    0    0  0.00000000000E+00  0.00000000000E+00  0.45593999997E+02  0.45594000000E+02  0.51100000000E-03 0.  1.
         11   -1    0    0    0    0 -0.00000000000E+00 -0.00000000000E+00 -0.45593999997E+02  0.45594000000E+02  0.51100000000E-03 0. -1.
    9900012    2    1    2    0    0 -0.10203721613E+01  0.24681747726E+00  0.53940162176E+00  0.90007732096E+02  0.89999993360E+02 0.  0.
         12    1    1    2    0    0  0.10203721613E+01 -0.24681747726E+00 -0.53940162176E+00  0.11802679035E+01  0.00000000000E+00 0. -1.
         11    1    3    3    0    0  0.40476765304E+02 -0.10460991635E+02 -0.17166274762E+01  0.41841936925E+02  0.51100000000E-03 0. -1.
        -11    1    3    3    0    0 -0.61477100890E+01 -0.23743379859E+01 -0.67274278656E+01  0.94175424691E+01  0.51100000000E-03 0.  1.
        -12    1    3    3    0    0 -0.35349427376E+02  0.13082147098E+02  0.89834569636E+01  0.38748252703E+02  0.00000000000E+00 0.  1.
</event>
<event>
 7    1  0.1765866E-015  0.9000773E+02  0.7816164E-02  0.1186339E+00
        -11   -1    0    0    0    0  0.00000000000E+00  0.00000000000E+00  0.45593999997E+02  0.45594000000E+02  0.51100000000E-03 0.  1.
         11   -1    0    0    0    0 -0.00000000000E+00 -0.00000000000E+00 -0.45593999997E+02  0.45594000000E+02  0.51100000000E-03 0. -1.
    9900012    2    1    2    0    0  0.56231226956E+00  0.23028769291E+00  0.10118322318E+01  0.90007732244E+02  0.89999993510E+02 0.  0.
         12    1    1    2    0    0 -0.56231226956E+00 -0.23028769291E+00 -0.10118322318E+01  0.11802677558E+01  0.00000000000E+00 0. -1.
         11    1    3    3    0    0  0.72121045944E+01  0.65298140206E+00 -0.71159509123E+01  0.10152713679E+02  0.51100000000E-03 0. -1.
        -11    1    3    3    0    0  0.22788085803E+02 -0.21091544400E+02  0.25247120362E+02  0.40019585038E+02  0.51100000000E-03 0.  1.
         12    1    3    3    0    0 -0.29437878128E+02  0.20668850691E+02 -0.17119337218E+02  0.39835433528E+02  0.00000000000E+00 0. -1.
</event>
<event>
 7    1  0.1698110E-015  0.9000770E+02  0.7816164E-02  0.1186339E+00
        -11   -1    0    0    0    0  0.00000000000E+00  0.00000000000E+00  0.45593999997E+02  0.45594000000E+02  0.51100000000E-03 0.  1.
         11   -1    0    0    0    0 -0.00000000000E+00 -0.00000000000E+00 -0.45593999997E+02  0.45594000000E+02  0.51100000000E-03 0. -1.
    9900012    2    1    2    0    0 -0.38727586704E+00 -0.52685200336E+00  0.98262536534E+00  0.90007699937E+02  0.89999960776E+02 0.  0.
         12    1    1    2    0    0  0.38727586704E+00  0.52685200336E+00 -0.98262536534E+00  0.11803000632E+01  0.00000000000E+00 0. -1.
         11    1    3    3    0    0  0.96040607784E+01  0.22740039924E+02 -0.27466393907E+02  0.36928988528E+02  0.51100000000E-03 0. -1.
        -11    1    3    3    0    0  0.97284991865E+00  0.83011145887E+01 -0.11508026166E+01  0.84367818096E+01  0.51100000000E-03 0.  1.
        -12    1    3    3    0    0 -0.10964186564E+02 -0.31568006516E+02  0.29599821889E+02  0.44641929599E+02  0.00000000000E+00 0.  1.
</event>
<event>
 7    1  0.1698110E-015  0.9000791E+02  0.7816164E-02  0.1186339E+00
        -11   -1    0    0    0    0  0.00000000000E+00  0.00000000000E+00  0.45593999997E+02  0.45594000000E+02  0.51100000000E-03 0.  1.
         11   -1    0    0    0    0 -0.00000000000E+00 -0.00000000000E+00 -0.45593999997E+02  0.45594000000E+02  0.51100000000E-03 0. -1.
    9900012    2    1    2    0    0  0.10693571147E+01 -0.49609679669E+00  0.54574132340E-01  0.90007908899E+02  0.90000172496E+02 0.  0.
         12    1    1    2    0    0 -0.10693571147E+01  0.49609679669E+00 -0.54574132340E-01  0.11800911009E+01  0.00000000000E+00 0. -1.
         11    1    3    3    0    0  0.25720645360E+02 -0.23684828884E+02 -0.20246343987E+02  0.40403430078E+02  0.51100000000E-03 0. -1.
        -11    1    3    3    0    0 -0.78371468503E+01 -0.54330188006E+01 -0.18276066744E+01  0.97097224707E+01  0.51100000000E-03 0.  1.
        -12    1    3    3    0    0 -0.16814141395E+02  0.28621750888E+02  0.22128524794E+02  0.39894756350E+02  0.00000000000E+00 0.  1.
</event>
<event>
 7    1  0.1845782E-015  0.9000822E+02  0.7816164E-02  0.1186338E+00
        -11   -1    0    0    0    0  0.00000000000E+00  0.00000000000E+00  0.45593999997E+02  0.45594000000E+02  0.51100000000E-03 0. -1.
         11   -1    0    0    0    0 -0.00000000000E+00 -0.00000000000E+00 -0.45593999997E+02  0.45594000000E+02  0.51100000000E-03 0.  1.
    9900012    2    1    2    0    0 -0.37795585557E+00 -0.45584995885E+00 -0.10204023213E+01  0.90008224296E+02  0.90000492056E+02 0.  0.
         12    1    1    2    0    0  0.37795585557E+00  0.45584995885E+00  0.10204023213E+01  0.11797757037E+01  0.00000000000E+00 0. -1.
         11    1    3    3    0    0  0.33187217817E+00 -0.96378616159E+01 -0.20202911216E+01  0.98529230256E+01  0.51100000000E-03 0. -1.
        -11    1    3    3    0    0  0.35165201761E+02 -0.98281762674E+01 -0.10435999819E+02  0.37974920094E+02  0.51100000000E-03 0.  1.
         12    1    3    3    0    0 -0.35875029795E+02  0.19010187925E+02  0.11435888619E+02  0.42180381177E+02  0.00000000000E+00 0. -1.
</event>
<event>
 7    1  0.1698110E-015  0.9000783E+02  0.7816164E-02  0.1186339E+00
        -11   -1    0    0    0    0  0.00000000000E+00  0.00000000000E+00  0.45593999997E+02  0.45594000000E+02  0.51100000000E-03 0. -1.
         11   -1    0    0    0    0 -0.00000000000E+00 -0.00000000000E+00 -0.45593999997E+02  0.45594000000E+02  0.51100000000E-03 0.  1.
    9900012    2    1    2    0    0  0.28753685857E+00  0.16207592403E+00 -0.11330758884E+01  0.90007827547E+02  0.90000090071E+02 0.  0.
         12    1    1    2    0    0 -0.28753685857E+00 -0.16207592403E+00  0.11330758884E+01  0.11801724531E+01  0.00000000000E+00 0. -1.
         11    1    3    3    0    0 -0.81944106762E+01  0.15626253515E+01  0.75335359305E+01  0.11240299293E+02  0.51100000000E-03 0. -1.
        -11    1    3    3    0    0 -0.11374288904E+02  0.19723555390E+02 -0.33560509261E+02  0.40554911755E+02  0.51100000000E-03 0.  1.
         12    1    3    3    0    0  0.19856236439E+02 -0.21124104818E+02  0.24893897442E+02  0.38212616499E+02  0.00000000000E+00 0. -1.
</event>
<event>
 7    1  0.1698110E-015  0.9000778E+02  0.7816164E-02  0.1186339E+00
        -11   -1    0    0    0    0  0.00000000000E+00  0.00000000000E+00  0.45593999997E+02  0.45594000000E+02  0.51100000000E-03 0.  1.
         11   -1    0    0    0    0 -0.00000000000E+00 -0.00000000000E+00 -0.45593999997E+02  0.45594000000E+02  0.51100000000E-03 0. -1.
    9900012    2    1    2    0    0  0.17984819955E+00  0.87144027784E+00  0.77534679798E+00  0.90007781296E+02  0.90000043209E+02 0.  0.
         12    1    1    2    0    0 -0.17984819955E+00 -0.87144027784E+00 -0.77534679798E+00  0.11802187042E+01  0.00000000000E+00 0. -1.
         11    1    3    3    0    0 -0.18434749604E+02  0.50146933582E+01 -0.32725624279E+02  0.37893978771E+02  0.51100000000E-03 0. -1.
        -11    1    3    3    0    0  0.13222860472E+00  0.91921527814E+01 -0.24802376938E+01  0.95218032137E+01  0.51100000000E-03 0.  1.
        -12    1    3    3    0    0  0.18482369199E+02 -0.13335405862E+02  0.35981208770E+02  0.42591999311E+02  0.00000000000E+00 0.  1.
</event>
<event>
 7    1  0.1698110E-015  0.9000778E+02  0.7816164E-02  0.1186339E+00
        -11   -1    0    0    0    0  0.00000000000E+00  0.00000000000E+00  0.45593999997E+02  0.45594000000E+02  0.51100000000E-03 0.  1.
         11   -1    0    0    0    0 -0.00000000000E+00 -0.00000000000E+00 -0.45593999997E+02  0.45594000000E+02  0.51100000000E-03 0. -1.
    9900012    2    1    2    0    0  0.66341188662E+00  0.91531849476E+00 -0.33911063972E+00  0.90007779976E+02  0.90000041872E+02 0.  0.
         12    1    1    2    0    0 -0.66341188662E+00 -0.91531849476E+00  0.33911063972E+00  0.11802200236E+01  0.00000000000E+00 0. -1.
         11    1    3    3    0    0  0.94730439968E+01 -0.16675143326E+01 -0.61668197848E+01  0.11425796827E+02  0.51100000000E-03 0. -1.
        -11    1    3    3    0    0  0.10571393020E+02  0.17381454966E+01 -0.33261158982E+02  0.34943957951E+02  0.51100000000E-03 0.  1.
        -12    1    3    3    0    0 -0.19381025130E+02  0.84468733080E+00  0.39088868127E+02  0.43638025199E+02  0.00000000000E+00 0.  1.
</event>
<event>
 7    1  0.1698110E-015  0.9000769E+02  0.7816164E-02  0.1186339E+00
        -11   -1    0    0    0    0  0.00000000000E+00  0.00000000000E+00  0.45593999997E+02  0.45594000000E+02  0.51100000000E-03 0.  1.
         11   -1    0    0    0    0 -0.00000000000E+00 -0.00000000000E+00 -0.45593999997E+02  0.45594000000E+02  0.51100000000E-03 0. -1.
    9900012    2    1    2    0    0  0.72139235941E+00 -0.25971176676E+00  0.89737488921E+00  0.90007686978E+02  0.89999947646E+02 0.  0.
         12    1    1    2    0    0 -0.72139235941E+00  0.25971176676E+00 -0.89737488921E+00  0.11803130220E+01  0.00000000000E+00 0. -1.
         11    1    3    3    0    0  0.34655029308E+01 -0.68884478239E+01 -0.36893623784E+01  0.85482056015E+01  0.51100000000E-03 0. -1.
        -11    1    3    3    0    0 -0.28590342895E+02 -0.80824202055E+01  0.30086875745E+02  0.42284196996E+02  0.51100000000E-03 0.  1.
         12    1    3    3    0    0  0.25846232324E+02  0.14711156263E+02 -0.25500138478E+02  0.39175284380E+02  0.00000000000E+00 0. -1.
</event>
<event>
 7    1  0.1698110E-015  0.9000779E+02  0.7816164E-02  0.1186339E+00
        -11   -1    0    0    0    0  0.00000000000E+00  0.00000000000E+00  0.45593999997E+02  0.45594000000E+02  0.51100000000E-03 0.  1.
         11   -1    0    0    0    0 -0.00000000000E+00 -0.00000000000E+00 -0.45593999997E+02  0.45594000000E+02  0.51100000000E-03 0. -1.
    9900012    2    1    2    0    0  0.11781516769E+01 -0.66166327994E-01  0.22044720399E-01  0.90007785898E+02  0.90000047872E+02 0.  0.
         12    1    1    2    0    0 -0.11781516769E+01  0.66166327994E-01 -0.22044720399E-01  0.11802141019E+01  0.00000000000E+00 0. -1.
         11    1    3    3    0    0 -0.20152516391E+02  0.58903385712E+01  0.26579189759E+02  0.33871423558E+02  0.51100000000E-03 0. -1.
        -11    1    3    3    0    0 -0.41402329178E+01  0.70575729165E+01  0.78867912477E+01  0.11364521131E+02  0.51100000000E-03 0.  1.
        -12    1    3    3    0    0  0.25470900986E+02 -0.13014077816E+02 -0.34443936286E+02  0.44771841209E+02  0.00000000000E+00 0.  1.
</event>
<event>
 7    1  0.1698110E-015  0.9000776E+02  0.7816164E-02  0.1186339E+00
        -11   -1    0    0    0    0  0.00000000000E+00  0.00000000000E+00  0.45593999997E+02  0.45594000000E+02  0.51100000000E-03 0. -1.
         11   -1    0    0    0    0 -0.00000000000E+00 -0.00000000000E+00 -0.45593999997E+02  0.45594000000E+02  0.51100000000E-03 0.  1.
    9900012    2    1    2    0    0  0.80361767760E+00  0.71278385110E+00 -0.48897655022E+00  0.90007762627E+02  0.90000024294E+02 0.  0.
         12    1    1    2    0    0 -0.80361767760E+00 -0.71278385110E+00  0.48897655022E+00  0.11802373731E+01  0.00000000000E+00 0. -1.
         11    1    3    3    0    0  0.69446665471E-01  0.61324850687E+01 -0.12114140260E+01  0.62513774610E+01  0.51100000000E-03 0. -1.
        -11    1    3    3    0    0 -0.21976937808E+02  0.21221418777E+02  0.26371294033E+02  0.40358141180E+02  0.51100000000E-03 0.  1.
         12    1    3    3    0    0  0.22711108820E+02 -0.26641119994E+02 -0.25648856557E+02  0.43398243986E+02  0.00000000000E+00 0. -1.
</event>
<event>
 7    1  0.1698110E-015  0.9000769E+02  0.7816164E-02  0.1186339E+00
        -11   -1    0    0    0    0  0.00000000000E+00  0.00000000000E+00  0.45593999997E+02  0.45594000000E+02  0.51100000000E-03 0.  1.
         11   -1    0    0    0    0 -0.00000000000E+00 -0.00000000000E+00 -0.45593999997E+02  0.45594000000E+02  0.51100000000E-03 0. -1.
    9900012    2    1    2    0    0  0.10878357125E+01 -0.23585685024E+00  0.39256470133E+00  0.90007694092E+02  0.89999954854E+02 0.  0.
         12    1    1    2    0    0 -0.10878357125E+01  0.23585685024E+00 -0.39256470133E+00  0.11803059077E+01  0.00000000000E+00 0. -1.
         11    1    3    3    0    0  0.72002887875E+01  0.82551853256E+00 -0.21961002221E+02  0.23125986645E+02  0.51100000000E-03 0. -1.
        -11    1    3    3    0    0  0.24504202319E+02  0.11516323692E+02  0.24314655198E+00  0.27076572220E+02  0.51100000000E-03 0.  1.
         12    1    3    3    0    0 -0.30616655394E+02 -0.12577699074E+02  0.22110420370E+02  0.39805135228E+02  0.00000000000E+00 0. -1.
</event>
<event>
 7    1  0.1698110E-015  0.9000770E+02  0.7816164E-02  0.1186339E+00
        -11   -1    0    0    0    0  0.00000000000E+00  0.00000000000E+00  0.45593999997E+02  0.45594000000E+02  0.51100000000E-03 0.  1.
         11   -1    0    0    0    0 -0.00000000000E+00 -0.00000000000E+00 -0.45593999997E+02  0.45594000000E+02  0.51100000000E-03 0. -1.
    9900012    2    1    2    0    0  0.95058714607E+00  0.50314281561E+00 -0.48613866584E+00  0.90007703674E+02  0.89999964562E+02 0.  0.
         12    1    1    2    0    0 -0.95058714607E+00 -0.50314281561E+00  0.48613866584E+00  0.11802963262E+01  0.00000000000E+00 0. -1.
         11    1    3    3    0    0  0.33626196898E+01  0.17584229153E+02 -0.51579054662E+01  0.18631057811E+02  0.51100000000E-03 0. -1.
        -11    1    3    3    0    0  0.14458365378E+02  0.21664398041E+02 -0.80203271667E+01  0.27252818570E+02  0.51100000000E-03 0.  1.
         12    1    3    3    0    0 -0.16870397922E+02 -0.38745484378E+02  0.12692093967E+02  0.44123827293E+02  0.00000000000E+00 0. -1.
</event>
<event>
 7    1  0.1698110E-015  0.9000688E+02  0.7816164E-02  0.1186341E+00
        -11   -1    0    0    0    0  0.00000000000E+00  0.00000000000E+00  0.45593999997E+02  0.45594000000E+02  0.51100000000E-03 0.  1.
         11   -1    0    0    0    0 -0.00000000000E+00 -0.00000000000E+00 -0.45593999997E+02  0.45594000000E+02  0.51100000000E-03 0. -1.
    9900012    2    1    2    0    0  0.58122198067E+00  0.61743366421E+00  0.82219418059E+00  0.90006879095E+02  0.89999129095E+02 0.  0.
         12    1    1    2    0    0 -0.58122198067E+00 -0.61743366421E+00 -0.82219418059E+00  0.11811209045E+01  0.00000000000E+00 0. -1.
         11    1    3    3    0    0  0.44726600250E+02  0.33008400137E+01 -0.59246289579E+00  0.44852149640E+02  0.51100000000E-03 0. -1.
        -11    1    3    3    0    0 -0.99579730788E+01 -0.43593428569E+01 -0.40518435995E+00  0.10877925933E+02  0.51100000000E-03 0.  1.
        -12    1    3    3    0    0 -0.34187405191E+02  0.16759365074E+01  0.18198414363E+01  0.34276803523E+02  0.00000000000E+00 0.  1.
</event>
<event>
 7    1  0.1698110E-015  0.9000771E+02  0.7816164E-02  0.1186339E+00
        -11   -1    0    0    0    0  0.00000000000E+00  0.00000000000E+00  0.45593999997E+02  0.45594000000E+02  0.51100000000E-03 0.  1.
         11   -1    0    0    0    0 -0.00000000000E+00 -0.00000000000E+00 -0.45593999997E+02  0.45594000000E+02  0.51100000000E-03 0. -1.
    9900012    2    1    2    0    0  0.91101725666E+00 -0.38039331767E+00 -0.64686692168E+00  0.90007708370E+02  0.89999969320E+02 0.  0.
         12    1    1    2    0    0 -0.91101725666E+00  0.38039331767E+00  0.64686692168E+00  0.11802916302E+01  0.00000000000E+00 0. -1.
         11    1    3    3    0    0  0.35061341745E+01  0.90603338016E+01  0.34376682901E+00  0.97211522640E+01  0.51100000000E-03 0. -1.
        -11    1    3    3    0    0  0.26431196416E+02  0.24161132398E+02 -0.20779387687E+01  0.35870409707E+02  0.51100000000E-03 0.  1.
         12    1    3    3    0    0 -0.29026313334E+02 -0.33601859517E+02  0.10873050181E+01  0.44416146399E+02  0.00000000000E+00 0. -1.
</event>
<event>
 7    1  0.1698110E-015  0.9000775E+02  0.7816164E-02  0.1186339E+00
        -11   -1    0    0    0    0  0.00000000000E+00  0.00000000000E+00  0.45593999997E+02  0.45594000000E+02  0.51100000000E-03 0. -1.
         11   -1    0    0    0    0 -0.00000000000E+00 -0.00000000000E+00 -0.45593999997E+02  0.45594000000E+02  0.51100000000E-03 0.  1.
    9900012    2    1    2    0    0 -0.10261998293E+01 -0.44883962596E+00  0.37208057543E+00  0.90007751275E+02  0.90000012791E+02 0.  0.
         12    1    1    2    0    0  0.10261998293E+01  0.44883962596E+00 -0.37208057543E+00  0.11802487255E+01  0.00000000000E+00 0. -1.
         11    1    3    3    0    0  0.43646533502E+01 -0.30628265041E+01  0.84181772716E+01  0.99647786678E+01  0.51100000000E-03 0. -1.
        -11    1    3    3    0    0  0.20831634992E+02 -0.12611572224E+02 -0.32833572065E+02  0.40878505663E+02  0.51100000000E-03 0.  1.
         12    1    3    3    0    0 -0.26222488171E+02  0.15225559102E+02  0.24787475369E+02  0.39164466944E+02  0.00000000000E+00 0. -1.
</event>
<event>
 7    1  0.1698110E-015  0.9000792E+02  0.7816164E-02  0.1186339E+00
        -11   -1    0    0    0    0  0.00000000000E+00  0.00000000000E+00  0.45593999997E+02  0.45594000000E+02  0.51100000000E-03 0.  1.
         11   -1    0    0    0    0 -0.00000000000E+00 -0.00000000000E+00 -0.45593999997E+02  0.45594000000E+02  0.51100000000E-03 0. -1.
    9900012    2    1    2    0    0 -0.11332396606E+01  0.14907293210E+00  0.29347873490E+00  0.90007921767E+02  0.90000185534E+02 0.  0.
         12    1    1    2    0    0  0.11332396606E+01 -0.14907293210E+00 -0.29347873490E+00  0.11800782327E+01  0.00000000000E+00 0. -1.
         11    1    3    3    0    0  0.38243956738E+02  0.83006451110E+01 -0.15165479384E+02  0.41970140594E+02  0.51100000000E-03 0. -1.
        -11    1    3    3    0    0 -0.74730082491E+01  0.59306550443E+01 -0.77253917636E+00  0.95715901806E+01  0.51100000000E-03 0.  1.
        -12    1    3    3    0    0 -0.31904188150E+02 -0.14082227223E+02  0.16231497295E+02  0.38466190993E+02  0.00000000000E+00 0.  1.
</event>
<event>
 7    1  0.1698110E-015  0.9000770E+02  0.7816164E-02  0.1186339E+00
        -11   -1    0    0    0    0  0.00000000000E+00  0.00000000000E+00  0.45593999997E+02  0.45594000000E+02  0.51100000000E-03 0.  1.
         11   -1    0    0    0    0 -0.00000000000E+00 -0.00000000000E+00 -0.45593999997E+02  0.45594000000E+02  0.51100000000E-03 0. -1.
    9900012    2    1    2    0    0  0.22148892071E+00 -0.62938579010E+00  0.97361230120E+00  0.90007701424E+02  0.89999962283E+02 0.  0.
         12    1    1    2    0    0 -0.22148892071E+00  0.62938579010E+00 -0.97361230120E+00  0.11802985757E+01  0.00000000000E+00 0. -1.
         11    1    3    3    0    0 -0.28970417864E+02 -0.20608914004E+02  0.16957068971E+02  0.39389778319E+02  0.51100000000E-03 0. -1.
        -11    1    3    3    0    0  0.20222447548E+01  0.44513160680E+01  0.92204047233E+01  0.10436453042E+02  0.51100000000E-03 0.  1.
        -12    1    3    3    0    0  0.27169662030E+02  0.15528212146E+02 -0.25203861393E+02  0.40181470063E+02  0.00000000000E+00 0.  1.
</event>
<event>
 7    1  0.1698110E-015  0.9000773E+02  0.7816164E-02  0.1186339E+00
        -11   -1    0    0    0    0  0.00000000000E+00  0.00000000000E+00  0.45593999997E+02  0.45594000000E+02  0.51100000000E-03 0. -1.
         11   -1    0    0    0    0 -0.00000000000E+00 -0.00000000000E+00 -0.45593999997E+02  0.45594000000E+02  0.51100000000E-03 0.  1.
    9900012    2    1    2    0    0  0.10129568038E+01 -0.24583033268E+00 -0.55365087348E+00  0.90007727435E+02  0.89999988637E+02 0.  0.
         12    1    1    2    0    0 -0.10129568038E+01  0.24583033268E+00  0.55365087348E+00  0.11802725654E+01  0.00000000000E+00 0. -1.
         11    1    3    3    0    0  0.70397276141E+01 -0.58570519389E+01  0.36803081495E+01  0.98695233235E+01  0.51100000000E-03 0. -1.
        -11    1    3    3    0    0 -0.49858871020E+00  0.35444467508E+02 -0.24994979387E+02  0.43374045955E+02  0.51100000000E-03 0.  1.
         12    1    3    3    0    0 -0.55281821001E+01 -0.29833245902E+02  0.20761020364E+02  0.36764158156E+02  0.00000000000E+00 0. -1.
</event>
<event>
 7    1  0.1698110E-015  0.9000776E+02  0.7816164E-02  0.1186339E+00
        -11   -1    0    0    0    0  0.00000000000E+00  0.00000000000E+00  0.45593999997E+02  0.45594000000E+02  0.51100000000E-03 0. -1.
         11   -1    0    0    0    0 -0.00000000000E+00 -0.00000000000E+00 -0.45593999997E+02  0.45594000000E+02  0.51100000000E-03 0.  1.
    9900012    2    1    2    0    0 -0.10651156195E+01 -0.46620780009E+00  0.20285014201E+00  0.90007758848E+02  0.90000020465E+02 0.  0.
         12    1    1    2    0    0  0.10651156195E+01  0.46620780009E+00 -0.20285014201E+00  0.11802411515E+01  0.00000000000E+00 0. -1.
         11    1    3    3    0    0  0.18131953503E+02 -0.34189974261E+02 -0.22946068421E+01  0.38768380139E+02  0.51100000000E-03 0. -1.
        -11    1    3    3    0    0 -0.52925685331E+01 -0.41383690689E+01 -0.71040387347E+01  0.97777679883E+01  0.51100000000E-03 0.  1.
        -12    1    3    3    0    0 -0.13904500590E+02  0.37862135530E+02  0.96014957188E+01  0.41461610721E+02  0.00000000000E+00 0.  1.
</event>
<event>
 7    1  0.1698110E-015  0.9000784E+02  0.7816164E-02  0.1186339E+00
        -11   -1    0    0    0    0  0.00000000000E+00  0.00000000000E+00  0.45593999997E+02  0.45594000000E+02  0.51100000000E-03 0. -1.
         11   -1    0    0    0    0 -0.00000000000E+00 -0.00000000000E+00 -0.45593999997E+02  0.45594000000E+02  0.51100000000E-03 0.  1.
    9900012    2    1    2    0    0 -0.11573057014E+01  0.21801507172E+00  0.76715761846E-01  0.90007842228E+02  0.90000104946E+02 0.  0.
         12    1    1    2    0    0  0.11573057014E+01 -0.21801507172E+00 -0.76715761846E-01  0.11801577717E+01  0.00000000000E+00 0. -1.
         11    1    3    3    0    0  0.14655916600E+02 -0.22345393001E+02  0.25780418326E+02  0.37131421318E+02  0.51100000000E-03 0. -1.
        -11    1    3    3    0    0  0.91245112374E+01  0.21781972351E+01  0.28797551066E+01  0.98129627663E+01  0.51100000000E-03 0.  1.
        -12    1    3    3    0    0 -0.24937733539E+02  0.20385210837E+02 -0.28583457671E+02  0.43063458144E+02  0.00000000000E+00 0.  1.
</event>
<event>
 7    1  0.1698110E-015  0.9000769E+02  0.7816164E-02  0.1186339E+00
        -11   -1    0    0    0    0  0.00000000000E+00  0.00000000000E+00  0.45593999997E+02  0.45594000000E+02  0.51100000000E-03 0.  1.
         11   -1    0    0    0    0 -0.00000000000E+00 -0.00000000000E+00 -0.45593999997E+02  0.45594000000E+02  0.51100000000E-03 0. -1.
    9900012    2    1    2    0    0  0.66572738534E+00  0.24531458046E+00  0.94327001991E+00  0.90007690496E+02  0.89999951210E+02 0.  0.
         12    1    1    2    0    0 -0.66572738534E+00 -0.24531458046E+00 -0.94327001991E+00  0.11803095041E+01  0.00000000000E+00 0. -1.
         11    1    3    3    0    0 -0.17561662266E+02 -0.23399153396E+02 -0.24400048638E+02  0.38095862439E+02  0.51100000000E-03 0. -1.
        -11    1    3    3    0    0  0.41322110125E+01 -0.16698185311E+01 -0.71195387924E+01  0.83994818088E+01  0.51100000000E-03 0.  1.
        -12    1    3    3    0    0  0.14095178639E+02  0.25314286507E+02  0.32462857450E+02  0.43512346248E+02  0.00000000000E+00 0.  1.
</event>
<event>
 7    1  0.1698110E-015  0.9000771E+02  0.7816164E-02  0.1186339E+00
        -11   -1    0    0    0    0  0.00000000000E+00  0.00000000000E+00  0.45593999997E+02  0.45594000000E+02  0.51100000000E-03 0.  1.
         11   -1    0    0    0    0 -0.00000000000E+00 -0.00000000000E+00 -0.45593999997E+02  0.45594000000E+02  0.51100000000E-03 0. -1.
    9900012    2    1    2    0    0 -0.13492597746E+00  0.36146557594E+00  0.11154486044E+01  0.90007708523E+02  0.89999969475E+02 0.  0.
         12    1    1    2    0    0  0.13492597746E+00 -0.36146557594E+00 -0.11154486044E+01  0.11802914772E+01  0.00000000000E+00 0. -1.
         11    1    3    3    0    0  0.72304685357E+01 -0.89905418235E+00  0.73625089865E+01  0.10358306450E+02  0.51100000000E-03 0. -1.
        -11    1    3    3    0    0 -0.78895295647E+01  0.90094404797E+01  0.35355223600E+02  0.37328360942E+02  0.51100000000E-03 0.  1.
         12    1    3    3    0    0  0.52413505157E+00 -0.77489207214E+01 -0.41602283982E+02  0.42321041131E+02  0.00000000000E+00 0. -1.
</event>
<event>
 7    1  0.1698110E-015  0.9000774E+02  0.7816164E-02  0.1186339E+00
        -11   -1    0    0    0    0  0.00000000000E+00  0.00000000000E+00  0.45593999997E+02  0.45594000000E+02  0.51100000000E-03 0.  1.
         11   -1    0    0    0    0 -0.00000000000E+00 -0.00000000000E+00 -0.45593999997E+02  0.45594000000E+02  0.51100000000E-03 0. -1.
    9900012    2    1    2    0    0 -0.86187804421E-01 -0.82689886262E+00 -0.83775079172E+00  0.90007738819E+02  0.90000000171E+02 0.  0.
         12    1    1    2    0    0  0.86187804421E-01  0.82689886262E+00  0.83775079172E+00  0.11802611811E+01  0.00000000000E+00 0. -1.
         11    1    3    3    0    0  0.61037346415E+01  0.54079743763E+01 -0.55710800307E+01  0.98761681030E+01  0.51100000000E-03 0. -1.
        -11    1    3    3    0    0  0.35437404432E+02 -0.62425934875E+01 -0.74743702312E+01  0.36751133547E+02  0.51100000000E-03 0.  1.
         12    1    3    3    0    0 -0.41627326878E+02  0.77202485869E-02  0.12207699470E+02  0.43380437169E+02  0.00000000000E+00 0. -1.
</event>
<event>
 7    1  0.1698110E-015  0.9000774E+02  0.7816164E-02  0.1186339E+00
        -11   -1    0    0    0    0  0.00000000000E+00  0.00000000000E+00  0.45593999997E+02  0.45594000000E+02  0.51100000000E-03 0.  1.
         11   -1    0    0    0    0 -0.00000000000E+00 -0.00000000000E+00 -0.45593999997E+02  0.45594000000E+02  0.51100000000E-03 0. -1.
    9900012    2    1    2    0    0 -0.87976232287E+00  0.58323879831E+00  0.52808557240E+00  0.90007735787E+02  0.89999997099E+02 0.  0.
         12    1    1    2    0    0  0.87976232287E+00 -0.58323879831E+00 -0.52808557240E+00  0.11802642130E+01  0.00000000000E+00 0. -1.
         11    1    3    3    0    0 -0.83648461965E+01 -0.24425245369E+01  0.13351215365E+01  0.88158452676E+01  0.51100000000E-03 0. -1.
        -11    1    3    3    0    0  0.19805012486E+02  0.38608553417E+02 -0.28152960806E+01  0.43483155461E+02  0.51100000000E-03 0.  1.
         12    1    3    3    0    0 -0.12319928612E+02 -0.35582790082E+02  0.20082601165E+01  0.37708735059E+02  0.00000000000E+00 0. -1.
</event>
<event>
 7    1  0.1698110E-015  0.9000771E+02  0.7816164E-02  0.1186339E+00
        -11   -1    0    0    0    0  0.00000000000E+00  0.00000000000E+00  0.45593999997E+02  0.45594000000E+02  0.51100000000E-03 0.  1.
         11   -1    0    0    0    0 -0.00000000000E+00 -0.00000000000E+00 -0.45593999997E+02  0.45594000000E+02  0.51100000000E-03 0. -1.
    9900012    2    1    2    0    0  0.22536315560E+00 -0.39943089782E+00  0.10875400325E+01  0.90007713206E+02  0.89999974220E+02 0.  0.
         12    1    1    2    0    0 -0.22536315560E+00  0.39943089782E+00 -0.10875400325E+01  0.11802867941E+01  0.00000000000E+00 0. -1.
         11    1    3    3    0    0 -0.73280119983E+01  0.47634435544E+01  0.17948024971E+02  0.19963009667E+02  0.51100000000E-03 0. -1.
        -11    1    3    3    0    0  0.11150032107E+01  0.75272583332E+01  0.24841966645E+02  0.25981265505E+02  0.51100000000E-03 0.  1.
         12    1    3    3    0    0  0.64383719432E+01 -0.12690132785E+02 -0.41702451583E+02  0.44063438035E+02  0.00000000000E+00 0. -1.
</event>
<event>
 7    1  0.1698110E-015  0.9000777E+02  0.7816164E-02  0.1186339E+00
        -11   -1    0    0    0    0  0.00000000000E+00  0.00000000000E+00  0.45593999997E+02  0.45594000000E+02  0.51100000000E-03 0.  1.
         11   -1    0    0    0    0 -0.00000000000E+00 -0.00000000000E+00 -0.45593999997E+02  0.45594000000E+02  0.51100000000E-03 0. -1.
    9900012    2    1    2    0    0  0.12989269356E+00 -0.11711200374E+01  0.67502721388E-01  0.90007766603E+02  0.90000028322E+02 0.  0.
         12    1    1    2    0    0 -0.12989269356E+00  0.11711200374E+01 -0.67502721388E-01  0.11802333969E+01  0.00000000000E+00 0. -1.
         11    1    3    3    0    0  0.73812743202E+01  0.19018534148E+01 -0.73558367482E+01  0.10592855683E+02  0.51100000000E-03 0. -1.
        -11    1    3    3    0    0  0.54659153531E+01 -0.39270840620E+02 -0.26806216043E+01  0.39739915527E+02  0.51100000000E-03 0.  1.
         12    1    3    3    0    0 -0.12717296980E+02  0.36197867168E+02  0.10103961074E+02  0.39674995392E+02  0.00000000000E+00 0. -1.
</event>
<event>
 7    1  0.1698110E-015  0.9000797E+02  0.7816164E-02  0.1186339E+00
        -11   -1    0    0    0    0  0.00000000000E+00  0.00000000000E+00  0.45593999997E+02  0.45594000000E+02  0.51100000000E-03 0.  1.
         11   -1    0    0    0    0 -0.00000000000E+00 -0.00000000000E+00 -0.45593999997E+02  0.45594000000E+02  0.51100000000E-03 0. -1.
    9900012    2    1    2    0    0  0.11264004764E+01  0.11434658333E+00 -0.33260828268E+00  0.90007965490E+02  0.90000229834E+02 0.  0.
         12    1    1    2    0    0 -0.11264004764E+01 -0.11434658333E+00  0.33260828268E+00  0.11800345097E+01  0.00000000000E+00 0. -1.
         11    1    3    3    0    0  0.17269559974E+02  0.13982780649E+02 -0.32884186625E+02  0.39687851877E+02  0.51100000000E-03 0. -1.
        -11    1    3    3    0    0 -0.49947815871E+01  0.79863871284E+01 -0.17148541175E+00  0.94212329329E+01  0.51100000000E-03 0.  1.
        -12    1    3    3    0    0 -0.11148377910E+02 -0.21854821194E+02  0.32723063754E+02  0.40898880680E+02  0.00000000000E+00 0.  1.
</event>
<event>
 7    1  0.1698110E-015  0.9000776E+02  0.7816164E-02  0.1186339E+00
        -11   -1    0    0    0    0  0.00000000000E+00  0.00000000000E+00  0.45593999997E+02  0.45594000000E+02  0.51100000000E-03 0.  1.
         11   -1    0    0    0    0 -0.00000000000E+00 -0.00000000000E+00 -0.45593999997E+02  0.45594000000E+02  0.51100000000E-03 0. -1.
    9900012    2    1    2    0    0  0.90977726511E+00  0.43371356644E+00  0.61414214951E+00  0.90007757351E+02  0.90000018948E+02 0.  0.
         12    1    1    2    0    0 -0.90977726511E+00 -0.43371356644E+00 -0.61414214951E+00  0.11802426486E+01  0.00000000000E+00 0. -1.
         11    1    3    3    0    0  0.43372284280E+01 -0.29753920590E+00  0.74849468152E+01  0.86558944716E+01  0.51100000000E-03 0. -1.
        -11    1    3    3    0    0 -0.28881159157E+02  0.11513095627E+02  0.24467275993E+02  0.39564129208E+02  0.51100000000E-03 0.  1.
         12    1    3    3    0    0  0.25453707995E+02 -0.10781842855E+02 -0.31338080659E+02  0.41787733672E+02  0.00000000000E+00 0. -1.
</event>
<event>
 7    1  0.1698110E-015  0.9000766E+02  0.7816164E-02  0.1186339E+00
        -11   -1    0    0    0    0  0.00000000000E+00  0.00000000000E+00  0.45593999997E+02  0.45594000000E+02  0.51100000000E-03 0.  1.
         11   -1    0    0    0    0 -0.00000000000E+00 -0.00000000000E+00 -0.45593999997E+02  0.45594000000E+02  0.51100000000E-03 0. -1.
    9900012    2    1    2    0    0 -0.10200692408E+01  0.56673609866E+00  0.17742044953E+00  0.90007657220E+02  0.89999917496E+02 0.  0.
         12    1    1    2    0    0  0.10200692408E+01 -0.56673609866E+00 -0.17742044953E+00  0.11803427797E+01  0.00000000000E+00 0. -1.
         11    1    3    3    0    0 -0.63591350974E+01  0.25584505238E+01  0.54487103459E+01  0.87562956189E+01  0.51100000000E-03 0. -1.
        -11    1    3    3    0    0  0.13421639135E+02  0.32686858934E+02  0.17041653733E+02  0.39229951648E+02  0.51100000000E-03 0.  1.
         12    1    3    3    0    0 -0.80825732789E+01 -0.34678573359E+02 -0.22312943630E+02  0.42021409953E+02  0.00000000000E+00 0. -1.
</event>
<event>
 7    1  0.1698110E-015  0.9000769E+02  0.7816164E-02  0.1186339E+00
        -11   -1    0    0    0    0  0.00000000000E+00  0.00000000000E+00  0.45593999997E+02  0.45594000000E+02  0.51100000000E-03 0. -1.
         11   -1    0    0    0    0 -0.00000000000E+00 -0.00000000000E+00 -0.45593999997E+02  0.45594000000E+02  0.51100000000E-03 0.  1.
    9900012    2    1    2    0    0 -0.41477842433E+00 -0.10689098136E+01  0.28021392959E+00  0.90007691067E+02  0.89999951789E+02 0.  0.
         12    1    1    2    0    0  0.41477842433E+00  0.10689098136E+01 -0.28021392959E+00  0.11803089330E+01  0.00000000000E+00 0. -1.
         11    1    3    3    0    0  0.43682196934E-01 -0.65752687121E+01  0.92469242096E+01  0.11346438841E+02  0.51100000000E-03 0. -1.
        -11    1    3    3    0    0 -0.16782845103E+02 -0.18680086271E+02 -0.32572339141E+02  0.41128661421E+02  0.51100000000E-03 0.  1.
         12    1    3    3    0    0  0.16324384482E+02  0.24186445169E+02  0.23605628861E+02  0.37532590806E+02  0.00000000000E+00 0. -1.
</event>
<event>
 7    1  0.1837609E-015  0.9000762E+02  0.7816164E-02  0.1186339E+00
        -11   -1    0    0    0    0  0.00000000000E+00  0.00000000000E+00  0.45593999997E+02  0.45594000000E+02  0.51100000000E-03 0.  1.
         11   -1    0    0    0    0 -0.00000000000E+00 -0.00000000000E+00 -0.45593999997E+02  0.45594000000E+02  0.51100000000E-03 0. -1.
    9900012    2    1    2    0    0  0.10750994851E+01  0.43755050545E+00 -0.21450638675E+00  0.90007617715E+02  0.89999877469E+02 0.  0.
         12    1    1    2    0    0 -0.10750994851E+01 -0.43755050545E+00  0.21450638675E+00  0.11803822846E+01  0.00000000000E+00 0. -1.
         11    1    3    3    0    0  0.60416110727E+01 -0.60307453196E+01  0.43583217494E+01  0.95846712096E+01  0.51100000000E-03 0. -1.
        -11    1    3    3    0    0 -0.16628207080E+02 -0.12664061632E+01  0.34825978465E+02  0.38612819524E+02  0.51100000000E-03 0.  1.
         12    1    3    3    0    0  0.11661695492E+02  0.77347019882E+01 -0.39398806602E+02  0.41810126982E+02  0.00000000000E+00 0. -1.
</event>
<event>
 7    1  0.1698110E-015  0.9000775E+02  0.7816164E-02  0.1186339E+00
        -11   -1    0    0    0    0  0.00000000000E+00  0.00000000000E+00  0.45593999997E+02  0.45594000000E+02  0.51100000000E-03 0. -1.
         11   -1    0    0    0    0 -0.00000000000E+00 -0.00000000000E+00 -0.45593999997E+02  0.45594000000E+02  0.51100000000E-03 0.  1.
    9900012    2    1    2    0    0  0.71549474643E+00  0.38095990056E+00 -0.85786517646E+00  0.90007747553E+02  0.90000009021E+02 0.  0.
         12    1    1    2    0    0 -0.71549474643E+00 -0.38095990056E+00  0.85786517646E+00  0.11802524471E+01  0.00000000000E+00 0. -1.
         11    1    3    3    0    0 -0.15627106306E+02 -0.31186167220E+02  0.28016015896E+01  0.34994748879E+02  0.51100000000E-03 0. -1.
        -11    1    3    3    0    0 -0.95647918988E+00 -0.98138557774E+01  0.10450857412E+01  0.99155848102E+01  0.51100000000E-03 0.  1.
        -12    1    3    3    0    0  0.17299080242E+02  0.41380982898E+02 -0.47045525073E+01  0.45097413863E+02  0.00000000000E+00 0.  1.
</event>
<event>
 7    1  0.1698110E-015  0.9000776E+02  0.7816164E-02  0.1186339E+00
        -11   -1    0    0    0    0  0.00000000000E+00  0.00000000000E+00  0.45593999997E+02  0.45594000000E+02  0.51100000000E-03 0. -1.
         11   -1    0    0    0    0 -0.00000000000E+00 -0.00000000000E+00 -0.45593999997E+02  0.45594000000E+02  0.51100000000E-03 0.  1.
    9900012    2    1    2    0    0  0.11164318859E+01  0.20994574908E+00  0.32011567175E+00  0.90007757899E+02  0.90000019503E+02 0.  0.
         12    1    1    2    0    0 -0.11164318859E+01 -0.20994574908E+00 -0.32011567175E+00  0.11802421009E+01  0.00000000000E+00 0. -1.
         11    1    3    3    0    0  0.13119096203E+02 -0.21357756161E+02  0.25484205449E+02  0.35745057855E+02  0.51100000000E-03 0. -1.
        -11    1    3    3    0    0  0.37715429813E+01 -0.10049747115E+02  0.25220742164E+00  0.10737111454E+02  0.51100000000E-03 0.  1.
        -12    1    3    3    0    0 -0.15774207298E+02  0.31617449025E+02 -0.25416297199E+02  0.43525588590E+02  0.00000000000E+00 0.  1.
</event>
<event>
 7    1  0.1698110E-015  0.9000655E+02  0.7816164E-02  0.1186341E+00
        -11   -1    0    0    0    0  0.00000000000E+00  0.00000000000E+00  0.45593999997E+02  0.45594000000E+02  0.51100000000E-03 0. -1.
         11   -1    0    0    0    0 -0.00000000000E+00 -0.00000000000E+00 -0.45593999997E+02  0.45594000000E+02  0.51100000000E-03 0.  1.
    9900012    2    1    2    0    0 -0.14662041831E-01  0.69669395579E+00 -0.95406274241E+00  0.90006546167E+02  0.89998791768E+02 0.  0.
         12    1    1    2    0    0  0.14662041831E-01 -0.69669395579E+00  0.95406274241E+00  0.11814538332E+01  0.00000000000E+00 0. -1.
         11    1    3    3    0    0  0.94167083598E+01  0.38336215881E+02  0.37175399001E+01  0.39650472224E+02  0.51100000000E-03 0. -1.
        -11    1    3    3    0    0  0.46053143749E+01  0.92424616142E-01 -0.87534221184E+01  0.98914034316E+01  0.51100000000E-03 0.  1.
        -12    1    3    3    0    0 -0.14036684777E+02 -0.37731946542E+02  0.40818194760E+01  0.40464670511E+02  0.00000000000E+00 0.  1.
</event>
<event>
 7    1  0.1698110E-015  0.9000705E+02  0.7816164E-02  0.1186340E+00
        -11   -1    0    0    0    0  0.00000000000E+00  0.00000000000E+00  0.45593999997E+02  0.45594000000E+02  0.51100000000E-03 0.  1.
         11   -1    0    0    0    0 -0.00000000000E+00 -0.00000000000E+00 -0.45593999997E+02  0.45594000000E+02  0.51100000000E-03 0. -1.
    9900012    2    1    2    0    0  0.87425458137E+00  0.58206846941E+00 -0.53992761522E+00  0.90007048432E+02  0.89999300669E+02 0.  0.
         12    1    1    2    0    0 -0.87425458137E+00 -0.58206846941E+00  0.53992761522E+00  0.11809515679E+01  0.00000000000E+00 0. -1.
         11    1    3    3    0    0 -0.98694752454E+01 -0.17311498290E+01 -0.18743596495E+01  0.10193951428E+02  0.51100000000E-03 0. -1.
        -11    1    3    3    0    0  0.17772400623E+02  0.18916262198E+02  0.33836687928E+02  0.42645101121E+02  0.51100000000E-03 0.  1.
         12    1    3    3    0    0 -0.70286707958E+01 -0.16603043899E+02 -0.32502255893E+02  0.37167995884E+02  0.00000000000E+00 0. -1.
</event>
<event>
 7    1  0.1698110E-015  0.9000787E+02  0.7816164E-02  0.1186339E+00
        -11   -1    0    0    0    0  0.00000000000E+00  0.00000000000E+00  0.45593999997E+02  0.45594000000E+02  0.51100000000E-03 0. -1.
         11   -1    0    0    0    0 -0.00000000000E+00 -0.00000000000E+00 -0.45593999997E+02  0.45594000000E+02  0.51100000000E-03 0.  1.
    9900012    2    1    2    0    0 -0.81373639140E-01 -0.67908359205E+00 -0.96173546308E+00  0.90007868103E+02  0.90000131162E+02 0.  0.
         12    1    1    2    0    0  0.81373639140E-01  0.67908359205E+00  0.96173546308E+00  0.11801318973E+01  0.00000000000E+00 0. -1.
         11    1    3    3    0    0  0.13851406283E+02  0.31596688530E+02  0.20921765717E+02  0.40347645075E+02  0.51100000000E-03 0. -1.
        -11    1    3    3    0    0  0.73151417542E+01 -0.75061081254E+01 -0.20785500734E+00  0.10483137032E+02  0.51100000000E-03 0.  1.
        -12    1    3    3    0    0 -0.21247921676E+02 -0.24769663997E+02 -0.21675646173E+02  0.39177085995E+02  0.00000000000E+00 0.  1.
</event>
<event>
 7    1  0.1698110E-015  0.9000731E+02  0.7816164E-02  0.1186340E+00
        -11   -1    0    0    0    0  0.00000000000E+00  0.00000000000E+00  0.45593999997E+02  0.45594000000E+02  0.51100000000E-03 0. -1.
         11   -1    0    0    0    0 -0.00000000000E+00 -0.00000000000E+00 -0.45593999997E+02  0.45594000000E+02  0.51100000000E-03 0.  1.
    9900012    2    1    2    0    0  0.86584208339E+00  0.67903072773E+00 -0.42809193112E+00  0.90007310395E+02  0.89999566091E+02 0.  0.
         12    1    1    2    0    0 -0.86584208339E+00 -0.67903072773E+00  0.42809193112E+00  0.11806896053E+01  0.00000000000E+00 0. -1.
         11    1    3    3    0    0  0.89417191665E+01 -0.37034242761E+02  0.96691358136E+00  0.38110686174E+02  0.51100000000E-03 0. -1.
        -11    1    3    3    0    0  0.66955248423E+01 -0.72367858187E+00 -0.77105921558E+01  0.10237528767E+02  0.51100000000E-03 0.  1.
        -12    1    3    3    0    0 -0.14771401925E+02  0.38436952071E+02  0.63155866433E+01  0.41659095453E+02  0.00000000000E+00 0.  1.
</event>
<event>
 7    1  0.1698110E-015  0.9000778E+02  0.7816164E-02  0.1186339E+00
        -11   -1    0    0    0    0  0.00000000000E+00  0.00000000000E+00  0.45593999997E+02  0.45594000000E+02  0.51100000000E-03 0.  1.
         11   -1    0    0    0    0 -0.00000000000E+00 -0.00000000000E+00 -0.45593999997E+02  0.45594000000E+02  0.51100000000E-03 0. -1.
    9900012    2    1    2    0    0 -0.84088567964E+00 -0.54242801471E+00  0.62578013125E+00  0.90007780677E+02  0.90000042582E+02 0.  0.
         12    1    1    2    0    0  0.84088567964E+00  0.54242801471E+00 -0.62578013125E+00  0.11802193228E+01  0.00000000000E+00 0. -1.
         11    1    3    3    0    0  0.82437110148E+01  0.24480351974E+02 -0.23099151863E+02  0.34652809715E+02  0.51100000000E-03 0. -1.
        -11    1    3    3    0    0  0.55878767003E+00  0.49318558177E+01 -0.87970317513E+01  0.10100654106E+02  0.51100000000E-03 0.  1.
        -12    1    3    3    0    0 -0.96433843644E+01 -0.29954635807E+02  0.32521963746E+02  0.45254316857E+02  0.00000000000E+00 0.  1.
</event>
<event>
 7    1  0.2052880E-015  0.9000782E+02  0.7816164E-02  0.1186339E+00
        -11   -1    0    0    0    0  0.00000000000E+00  0.00000000000E+00  0.45593999997E+02  0.45594000000E+02  0.51100000000E-03 0.  1.
         11   -1    0    0    0    0 -0.00000000000E+00 -0.00000000000E+00 -0.45593999997E+02  0.45594000000E+02  0.51100000000E-03 0. -1.
    9900012    2    1    2    0    0 -0.48243240296E+00  0.10677753056E+01 -0.14119226431E+00  0.90007821885E+02  0.90000084334E+02 0.  0.
         12    1    1    2    0    0  0.48243240296E+00 -0.10677753056E+01  0.14119226431E+00  0.11801781146E+01  0.00000000000E+00 0. -1.
         11    1    3    3    0    0 -0.64237128459E+00 -0.55444554897E+01  0.76060155042E+01  0.94342514094E+01  0.51100000000E-03 0. -1.
        -11    1    3    3    0    0 -0.72378540714E+01 -0.35259161278E+02  0.46248896926E+01  0.36290282315E+02  0.51100000000E-03 0.  1.
         12    1    3    3    0    0  0.73977929530E+01  0.41871392073E+02 -0.12372097461E+02  0.44283288161E+02  0.00000000000E+00 0. -1.
</event>
<event>
 7    1  0.1698110E-015  0.9000774E+02  0.7816164E-02  0.1186339E+00
        -11   -1    0    0    0    0  0.00000000000E+00  0.00000000000E+00  0.45593999997E+02  0.45594000000E+02  0.51100000000E-03 0.  1.
         11   -1    0    0    0    0 -0.00000000000E+00 -0.00000000000E+00 -0.45593999997E+02  0.45594000000E+02  0.51100000000E-03 0. -1.
    9900012    2    1    2    0    0 -0.10355217817E+01  0.10522148951E+00  0.55644563131E+00  0.90007742120E+02  0.90000003516E+02 0.  0.
         12    1    1    2    0    0  0.10355217817E+01 -0.10522148951E+00 -0.55644563131E+00  0.11802578798E+01  0.00000000000E+00 0. -1.
         11    1    3    3    0    0  0.33890025070E+02  0.95174426995E+01 -0.11580553132E+02  0.37057046913E+02  0.51100000000E-03 0. -1.
        -11    1    3    3    0    0  0.74336186131E+01 -0.12388506581E+01  0.54377178098E+01  0.92931271313E+01  0.51100000000E-03 0.  1.
        -12    1    3    3    0    0 -0.42359165465E+02 -0.81733705519E+01  0.66992809531E+01  0.43657568076E+02  0.00000000000E+00 0.  1.
</event>
<event>
 7    1  0.1698110E-015  0.9000768E+02  0.7816164E-02  0.1186339E+00
        -11   -1    0    0    0    0  0.00000000000E+00  0.00000000000E+00  0.45593999997E+02  0.45594000000E+02  0.51100000000E-03 0. -1.
         11   -1    0    0    0    0 -0.00000000000E+00 -0.00000000000E+00 -0.45593999997E+02  0.45594000000E+02  0.51100000000E-03 0.  1.
    9900012    2    1    2    0    0 -0.83262289079E+00 -0.11979578300E+00 -0.82797864186E+00  0.90007677782E+02  0.89999938328E+02 0.  0.
         12    1    1    2    0    0  0.83262289079E+00  0.11979578300E+00  0.82797864186E+00  0.11803222184E+01  0.00000000000E+00 0. -1.
         11    1    3    3    0    0 -0.14961328188E+02  0.27791990487E+02 -0.20521483712E+02  0.37647939790E+02  0.51100000000E-03 0. -1.
        -11    1    3    3    0    0 -0.35990838832E+01  0.56811839833E+01 -0.37734447075E+01  0.77115589521E+01  0.51100000000E-03 0.  1.
        -12    1    3    3    0    0  0.17727789180E+02 -0.33592970254E+02  0.23466949778E+02  0.44648179040E+02  0.00000000000E+00 0.  1.
</event>
<event>
 7    1  0.1698110E-015  0.9000768E+02  0.7816164E-02  0.1186339E+00
        -11   -1    0    0    0    0  0.00000000000E+00  0.00000000000E+00  0.45593999997E+02  0.45594000000E+02  0.51100000000E-03 0.  1.
         11   -1    0    0    0    0 -0.00000000000E+00 -0.00000000000E+00 -0.45593999997E+02  0.45594000000E+02  0.51100000000E-03 0. -1.
    9900012    2    1    2    0    0 -0.11305923647E+01 -0.29100669388E+00  0.17390011213E+00  0.90007675790E+02  0.89999936311E+02 0.  0.
         12    1    1    2    0    0  0.11305923647E+01  0.29100669388E+00 -0.17390011213E+00  0.11803242097E+01  0.00000000000E+00 0. -1.
         11    1    3    3    0    0 -0.25582628570E+02 -0.32371048268E+02 -0.98172045572E+01  0.42411474345E+02  0.51100000000E-03 0. -1.
        -11    1    3    3    0    0  0.83602255732E+00  0.70568749668E+01  0.11089708827E+02  0.13171182944E+02  0.51100000000E-03 0.  1.
        -12    1    3    3    0    0  0.23616013648E+02  0.25023166608E+02 -0.10986041578E+01  0.34425018501E+02  0.00000000000E+00 0.  1.
</event>
<event>
 7    1  0.1698110E-015  0.9000782E+02  0.7816164E-02  0.1186339E+00
        -11   -1    0    0    0    0  0.00000000000E+00  0.00000000000E+00  0.45593999997E+02  0.45594000000E+02  0.51100000000E-03 0.  1.
         11   -1    0    0    0    0 -0.00000000000E+00 -0.00000000000E+00 -0.45593999997E+02  0.45594000000E+02  0.51100000000E-03 0. -1.
    9900012    2    1    2    0    0  0.40814534717E+00  0.10889950644E+01  0.20080083703E+00  0.90007824653E+02  0.90000087138E+02 0.  0.
         12    1    1    2    0    0 -0.40814534717E+00 -0.10889950644E+01 -0.20080083703E+00  0.11801753475E+01  0.00000000000E+00 0. -1.
         11    1    3    3    0    0 -0.32907224950E+01  0.66621735594E+01 -0.61506789072E+01  0.96459453842E+01  0.51100000000E-03 0. -1.
        -11    1    3    3    0    0 -0.18181282421E+02  0.18065607702E+02 -0.24718766691E+02  0.35608182193E+02  0.51100000000E-03 0.  1.
         12    1    3    3    0    0  0.21880150263E+02 -0.23638786197E+02  0.31070246435E+02  0.44753697075E+02  0.00000000000E+00 0. -1.
</event>
<event>
 7    1  0.1698110E-015  0.9000790E+02  0.7816164E-02  0.1186339E+00
        -11   -1    0    0    0    0  0.00000000000E+00  0.00000000000E+00  0.45593999997E+02  0.45594000000E+02  0.51100000000E-03 0.  1.
         11   -1    0    0    0    0 -0.00000000000E+00 -0.00000000000E+00 -0.45593999997E+02  0.45594000000E+02  0.51100000000E-03 0. -1.
    9900012    2    1    2    0    0  0.10307160870E+01  0.24336471448E+00  0.52060540422E+00  0.90007901689E+02  0.90000165191E+02 0.  0.
         12    1    1    2    0    0 -0.10307160870E+01 -0.24336471448E+00 -0.52060540422E+00  0.11800983108E+01  0.00000000000E+00 0. -1.
         11    1    3    3    0    0 -0.55897415653E+00 -0.95470115297E+01 -0.10713163414E+02  0.14360701649E+02  0.51100000000E-03 0. -1.
        -11    1    3    3    0    0  0.27678475790E+02 -0.12007911648E+02  0.24788091469E+02  0.39047886538E+02  0.51100000000E-03 0.  1.
         12    1    3    3    0    0 -0.26088785546E+02  0.21798287892E+02 -0.13554322650E+02  0.36599313502E+02  0.00000000000E+00 0. -1.
</event>
<event>
 7    1  0.1698110E-015  0.9000773E+02  0.7816164E-02  0.1186339E+00
        -11   -1    0    0    0    0  0.00000000000E+00  0.00000000000E+00  0.45593999997E+02  0.45594000000E+02  0.51100000000E-03 0.  1.
         11   -1    0    0    0    0 -0.00000000000E+00 -0.00000000000E+00 -0.45593999997E+02  0.45594000000E+02  0.51100000000E-03 0. -1.
    9900012    2    1    2    0    0 -0.80795491398E+00 -0.68871679370E+00 -0.51567310436E+00  0.90007728542E+02  0.89999989758E+02 0.  0.
         12    1    1    2    0    0  0.80795491398E+00  0.68871679370E+00  0.51567310436E+00  0.11802714584E+01  0.00000000000E+00 0. -1.
         11    1    3    3    0    0  0.13447710922E+02 -0.35008438152E+02 -0.18031780758E+02  0.41612219221E+02  0.51100000000E-03 0. -1.
        -11    1    3    3    0    0 -0.20659389724E+01 -0.17403881243E+01  0.89907386041E+01  0.93877811846E+01  0.51100000000E-03 0.  1.
        -12    1    3    3    0    0 -0.12189726863E+02  0.36060109483E+02  0.85253690499E+01  0.39007728136E+02  0.00000000000E+00 0.  1.
</event>
<event>
 7    1  0.1698110E-015  0.9000750E+02  0.7816164E-02  0.1186340E+00
        -11   -1    0    0    0    0  0.00000000000E+00  0.00000000000E+00  0.45593999997E+02  0.45594000000E+02  0.51100000000E-03 0.  1.
         11   -1    0    0    0    0 -0.00000000000E+00 -0.00000000000E+00 -0.45593999997E+02  0.45594000000E+02  0.51100000000E-03 0. -1.
    9900012    2    1    2    0    0  0.49953468100E+00  0.81519792540E+00  0.69245200051E+00  0.90007503355E+02  0.89999761599E+02 0.  0.
         12    1    1    2    0    0 -0.49953468100E+00 -0.81519792540E+00 -0.69245200051E+00  0.11804966447E+01  0.00000000000E+00 0. -1.
         11    1    3    3    0    0  0.96862710819E+01  0.67168151802E+00 -0.37624695539E+00  0.97168186958E+01  0.51100000000E-03 0. -1.
        -11    1    3    3    0    0  0.11482864203E+02 -0.16768024884E+02  0.32942736273E+02  0.38707191867E+02  0.51100000000E-03 0.  1.
         12    1    3    3    0    0 -0.20669600604E+02  0.16911541291E+02 -0.31874037317E+02  0.41583492793E+02  0.00000000000E+00 0. -1.
</event>
<event>
 7    1  0.1698110E-015  0.9000779E+02  0.7816164E-02  0.1186339E+00
        -11   -1    0    0    0    0  0.00000000000E+00  0.00000000000E+00  0.45593999997E+02  0.45594000000E+02  0.51100000000E-03 0.  1.
         11   -1    0    0    0    0 -0.00000000000E+00 -0.00000000000E+00 -0.45593999997E+02  0.45594000000E+02  0.51100000000E-03 0. -1.
    9900012    2    1    2    0    0  0.10470191122E+01  0.52804518472E+00  0.13344343670E+00  0.90007793285E+02  0.90000055357E+02 0.  0.
         12    1    1    2    0    0 -0.10470191122E+01 -0.52804518472E+00 -0.13344343670E+00  0.11802067146E+01  0.00000000000E+00 0. -1.
         11    1    3    3    0    0  0.14031649319E+02 -0.49454160923E+01 -0.21035085796E+01  0.15025613849E+02  0.51100000000E-03 0. -1.
        -11    1    3    3    0    0  0.67879412523E+00  0.38375965508E+02  0.70745455702E+01  0.39028511187E+02  0.51100000000E-03 0.  1.
         12    1    3    3    0    0 -0.13663424332E+02 -0.32902504231E+02 -0.48375935538E+01  0.35953668249E+02  0.00000000000E+00 0. -1.
</event>
<event>
 7    1  0.1698110E-015  0.9000701E+02  0.7816164E-02  0.1186341E+00
        -11   -1    0    0    0    0  0.00000000000E+00  0.00000000000E+00  0.45593999997E+02  0.45594000000E+02  0.51100000000E-03 0.  1.
         11   -1    0    0    0    0 -0.00000000000E+00 -0.00000000000E+00 -0.45593999997E+02  0.45594000000E+02  0.51100000000E-03 0. -1.
    9900012    2    1    2    0    0 -0.11119180683E+01 -0.25466284734E+00 -0.30582052800E+00  0.90007008403E+02  0.89999260111E+02 0.  0.
         12    1    1    2    0    0  0.11119180683E+01  0.25466284734E+00  0.30582052800E+00  0.11809915968E+01  0.00000000000E+00 0. -1.
         11    1    3    3    0    0 -0.53975194000E+01 -0.13230302594E+02 -0.22767022590E+01  0.14469191264E+02  0.51100000000E-03 0. -1.
        -11    1    3    3    0    0  0.25200631031E+02  0.18837178916E+01  0.29753169249E+02  0.39036793901E+02  0.51100000000E-03 0.  1.
         12    1    3    3    0    0 -0.20915029699E+02  0.11091921855E+02 -0.27782287518E+02  0.36501023239E+02  0.00000000000E+00 0. -1.
</event>
<event>
 7    1  0.1698110E-015  0.9000784E+02  0.7816164E-02  0.1186339E+00
        -11   -1    0    0    0    0  0.00000000000E+00  0.00000000000E+00  0.45593999997E+02  0.45594000000E+02  0.51100000000E-03 0. -1.
         11   -1    0    0    0    0 -0.00000000000E+00 -0.00000000000E+00 -0.45593999997E+02  0.45594000000E+02  0.51100000000E-03 0.  1.
    9900012    2    1    2    0    0  0.71019726125E+00  0.92894329024E+00 -0.15957600818E+00  0.90007838872E+02  0.90000101545E+02 0.  0.
         12    1    1    2    0    0 -0.71019726125E+00 -0.92894329024E+00  0.15957600818E+00  0.11801611283E+01  0.00000000000E+00 0. -1.
         11    1    3    3    0    0 -0.12563654206E+02  0.38322071133E+02  0.80634939446E+01  0.41127198759E+02  0.51100000000E-03 0. -1.
        -11    1    3    3    0    0 -0.35481332667E+01 -0.45674262939E+01  0.69107639519E+01  0.90116197928E+01  0.51100000000E-03 0.  1.
        -12    1    3    3    0    0  0.16821984734E+02 -0.32825701549E+02 -0.15133833905E+02  0.39869020319E+02  0.00000000000E+00 0.  1.
</event>
<event>
 7    1  0.1698110E-015  0.9000769E+02  0.7816164E-02  0.1186339E+00
        -11   -1    0    0    0    0  0.00000000000E+00  0.00000000000E+00  0.45593999997E+02  0.45594000000E+02  0.51100000000E-03 0.  1.
         11   -1    0    0    0    0 -0.00000000000E+00 -0.00000000000E+00 -0.45593999997E+02  0.45594000000E+02  0.51100000000E-03 0. -1.
    9900012    2    1    2    0    0 -0.11105452586E+00  0.11429131559E+01 -0.27301574881E+00  0.90007694451E+02  0.89999955218E+02 0.  0.
         12    1    1    2    0    0  0.11105452586E+00 -0.11429131559E+01  0.27301574881E+00  0.11803055489E+01  0.00000000000E+00 0. -1.
         11    1    3    3    0    0  0.66470688410E+01  0.45798037344E+01 -0.49582835627E+01  0.94732625094E+01  0.51100000000E-03 0. -1.
        -11    1    3    3    0    0 -0.32661367007E+01  0.35377181723E+02  0.17376156805E+02  0.39549253610E+02  0.51100000000E-03 0.  1.
         12    1    3    3    0    0 -0.34919866661E+01 -0.38814072301E+02 -0.12690888991E+02  0.40985178331E+02  0.00000000000E+00 0. -1.
</event>
<event>
 7    1  0.1698110E-015  0.9000772E+02  0.7816164E-02  0.1186339E+00
        -11   -1    0    0    0    0  0.00000000000E+00  0.00000000000E+00  0.45593999997E+02  0.45594000000E+02  0.51100000000E-03 0. -1.
         11   -1    0    0    0    0 -0.00000000000E+00 -0.00000000000E+00 -0.45593999997E+02  0.45594000000E+02  0.51100000000E-03 0.  1.
    9900012    2    1    2    0    0  0.83906704198E+00 -0.43643907097E+00 -0.70607690117E+00  0.90007721578E+02  0.89999982703E+02 0.  0.
         12    1    1    2    0    0 -0.83906704198E+00  0.43643907097E+00  0.70607690117E+00  0.11802784222E+01  0.00000000000E+00 0. -1.
         11    1    3    3    0    0 -0.28298834584E+01  0.22991717881E+01  0.66430049726E+01  0.75778589738E+01  0.51100000000E-03 0. -1.
        -11    1    3    3    0    0  0.29882880430E+02  0.26713443591E+02  0.65733436522E+01  0.40617772691E+02  0.51100000000E-03 0.  1.
         12    1    3    3    0    0 -0.26213929930E+02 -0.29449054450E+02 -0.13922425526E+02  0.41812089913E+02  0.00000000000E+00 0. -1.
</event>
<event>
 7    1  0.1698110E-015  0.9000727E+02  0.7816164E-02  0.1186340E+00
        -11   -1    0    0    0    0  0.00000000000E+00  0.00000000000E+00  0.45593999997E+02  0.45594000000E+02  0.51100000000E-03 0.  1.
         11   -1    0    0    0    0 -0.00000000000E+00 -0.00000000000E+00 -0.45593999997E+02  0.45594000000E+02  0.51100000000E-03 0. -1.
    9900012    2    1    2    0    0  0.25611956832E-01  0.55647662463E+00  0.10410573611E+01  0.90007270295E+02  0.89999525462E+02 0.  0.
         12    1    1    2    0    0 -0.25611956832E-01 -0.55647662463E+00 -0.10410573611E+01  0.11807297045E+01  0.00000000000E+00 0. -1.
         11    1    3    3    0    0  0.24989274846E+01 -0.78531238844E+01 -0.35836517479E+02  0.36771893867E+02  0.51100000000E-03 0. -1.
        -11    1    3    3    0    0 -0.16022715758E+01 -0.35439423575E+00 -0.76607925943E+01  0.78345780301E+01  0.51100000000E-03 0.  1.
        -12    1    3    3    0    0 -0.87104395200E+00  0.87639947447E+01  0.44538367434E+02  0.45400798398E+02  0.00000000000E+00 0.  1.
</event>
<event>
 7    1  0.1698110E-015  0.9000794E+02  0.7816164E-02  0.1186339E+00
        -11   -1    0    0    0    0  0.00000000000E+00  0.00000000000E+00  0.45593999997E+02  0.45594000000E+02  0.51100000000E-03 0.  1.
         11   -1    0    0    0    0 -0.00000000000E+00 -0.00000000000E+00 -0.45593999997E+02  0.45594000000E+02  0.51100000000E-03 0. -1.
    9900012    2    1    2    0    0 -0.28246348899E+00 -0.22255277435E+00  0.11239300691E+01  0.90007943154E+02  0.90000207203E+02 0.  0.
         12    1    1    2    0    0  0.28246348899E+00  0.22255277435E+00 -0.11239300691E+01  0.11800568461E+01  0.00000000000E+00 0. -1.
         11    1    3    3    0    0 -0.13683440301E+02 -0.25032232787E+02  0.32126270729E+02  0.42964479375E+02  0.51100000000E-03 0. -1.
        -11    1    3    3    0    0  0.86933786822E+01 -0.24660558115E+00 -0.30632953025E+01  0.92205978980E+01  0.51100000000E-03 0.  1.
        -12    1    3    3    0    0  0.47075981301E+01  0.25056285594E+02 -0.27939045357E+02  0.37822865880E+02  0.00000000000E+00 0.  1.
</event>
<event>
 7    1  0.1698110E-015  0.9000803E+02  0.7816164E-02  0.1186338E+00
        -11   -1    0    0    0    0  0.00000000000E+00  0.00000000000E+00  0.45593999997E+02  0.45594000000E+02  0.51100000000E-03 0.  1.
         11   -1    0    0    0    0 -0.00000000000E+00 -0.00000000000E+00 -0.45593999997E+02  0.45594000000E+02  0.51100000000E-03 0. -1.
    9900012    2    1    2    0    0 -0.36962894889E+00 -0.10634397975E+01  0.35326823203E+00  0.90008030421E+02  0.90000295622E+02 0.  0.
         12    1    1    2    0    0  0.36962894889E+00  0.10634397975E+01 -0.35326823203E+00  0.11799695786E+01  0.00000000000E+00 0. -1.
         11    1    3    3    0    0 -0.33929503130E+01 -0.55018210320E+01 -0.55335912982E+01  0.85089822782E+01  0.51100000000E-03 0. -1.
        -11    1    3    3    0    0 -0.13775640217E+02  0.38515410666E+02 -0.67537703414E+01  0.41458636449E+02  0.51100000000E-03 0.  1.
         12    1    3    3    0    0  0.16798961581E+02 -0.34077029431E+02  0.12640629872E+02  0.40040411694E+02  0.00000000000E+00 0. -1.
</event>
<event>
 7    1  0.1698110E-015  0.9000774E+02  0.7816164E-02  0.1186339E+00
        -11   -1    0    0    0    0  0.00000000000E+00  0.00000000000E+00  0.45593999997E+02  0.45594000000E+02  0.51100000000E-03 0. -1.
         11   -1    0    0    0    0 -0.00000000000E+00 -0.00000000000E+00 -0.45593999997E+02  0.45594000000E+02  0.51100000000E-03 0.  1.
    9900012    2    1    2    0    0  0.35956919687E+00  0.71430817277E-01 -0.11218815674E+01  0.90007741291E+02  0.90000002676E+02 0.  0.
         12    1    1    2    0    0 -0.35956919687E+00 -0.71430817277E-01  0.11218815674E+01  0.11802587090E+01  0.00000000000E+00 0. -1.
         11    1    3    3    0    0 -0.15531890167E+01  0.83634189348E+01 -0.62984635588E+01  0.10584413818E+02  0.51100000000E-03 0. -1.
        -11    1    3    3    0    0 -0.16119192676E+02  0.31357212177E+02 -0.18360772888E+01  0.35305443038E+02  0.51100000000E-03 0.  1.
         12    1    3    3    0    0  0.18031950890E+02 -0.39649200294E+02  0.70126592802E+01  0.44117884435E+02  0.00000000000E+00 0. -1.
</event>
<event>
 7    1  0.1698110E-015  0.9000769E+02  0.7816164E-02  0.1186339E+00
        -11   -1    0    0    0    0  0.00000000000E+00  0.00000000000E+00  0.45593999997E+02  0.45594000000E+02  0.51100000000E-03 0. -1.
         11   -1    0    0    0    0 -0.00000000000E+00 -0.00000000000E+00 -0.45593999997E+02  0.45594000000E+02  0.51100000000E-03 0.  1.
    9900012    2    1    2    0    0  0.30221837698E+00 -0.88582802518E+00 -0.71909370812E+00  0.90007693684E+02  0.89999954441E+02 0.  0.
         12    1    1    2    0    0 -0.30221837698E+00  0.88582802518E+00  0.71909370812E+00  0.11803063156E+01  0.00000000000E+00 0. -1.
         11    1    3    3    0    0  0.91844427031E+01  0.13659414570E+01 -0.30172686608E+01  0.97633853895E+01  0.51100000000E-03 0. -1.
        -11    1    3    3    0    0  0.18473860043E+01  0.37601543310E+02 -0.60672095731E+01  0.38132662202E+02  0.51100000000E-03 0.  1.
         12    1    3    3    0    0 -0.10729610330E+02 -0.39853312792E+02  0.83653845258E+01  0.42111646093E+02  0.00000000000E+00 0. -1.
</event>
<event>
 7    1  0.1698110E-015  0.9000776E+02  0.7816164E-02  0.1186339E+00
        -11   -1    0    0    0    0  0.00000000000E+00  0.00000000000E+00  0.45593999997E+02  0.45594000000E+02  0.51100000000E-03 0. -1.
         11   -1    0    0    0    0 -0.00000000000E+00 -0.00000000000E+00 -0.45593999997E+02  0.45594000000E+02  0.51100000000E-03 0.  1.
    9900012    2    1    2    0    0  0.10010797975E+01  0.66614171237E-01  0.62159013270E+00  0.90007757439E+02  0.90000019038E+02 0.  0.
         12    1    1    2    0    0 -0.10010797975E+01 -0.66614171237E-01 -0.62159013270E+00  0.11802425606E+01  0.00000000000E+00 0. -1.
         11    1    3    3    0    0 -0.52114275061E+01 -0.33001721757E+02  0.27022284958E+02  0.42970646960E+02  0.51100000000E-03 0. -1.
        -11    1    3    3    0    0  0.73586759188E+01  0.20898844656E+01 -0.75926325947E+01  0.10778023860E+02  0.51100000000E-03 0.  1.
        -12    1    3    3    0    0 -0.11461686152E+01  0.30978451463E+02 -0.18808062230E+02  0.36259086618E+02  0.00000000000E+00 0.  1.
</event>
<event>
 7    1  0.1698110E-015  0.9000769E+02  0.7816164E-02  0.1186339E+00
        -11   -1    0    0    0    0  0.00000000000E+00  0.00000000000E+00  0.45593999997E+02  0.45594000000E+02  0.51100000000E-03 0.  1.
         11   -1    0    0    0    0 -0.00000000000E+00 -0.00000000000E+00 -0.45593999997E+02  0.45594000000E+02  0.51100000000E-03 0. -1.
    9900012    2    1    2    0    0 -0.95277715989E+00 -0.40219693120E-01 -0.69551005960E+00  0.90007688099E+02  0.89999948782E+02 0.  0.
         12    1    1    2    0    0  0.95277715989E+00  0.40219693120E-01  0.69551005960E+00  0.11803119008E+01  0.00000000000E+00 0. -1.
         11    1    3    3    0    0  0.32052208369E+02  0.20347020694E+02  0.21827491740E+01  0.38027749167E+02  0.51100000000E-03 0. -1.
        -11    1    3    3    0    0 -0.21536855062E+00  0.81296144517E+01 -0.25515012111E+01  0.85233311233E+01  0.51100000000E-03 0.  1.
        -12    1    3    3    0    0 -0.32789616978E+02 -0.28516854839E+02 -0.32675802251E+00  0.43456607809E+02  0.00000000000E+00 0.  1.
</event>
<event>
 7    1  0.1698110E-015  0.9000771E+02  0.7816164E-02  0.1186339E+00
        -11   -1    0    0    0    0  0.00000000000E+00  0.00000000000E+00  0.45593999997E+02  0.45594000000E+02  0.51100000000E-03 0.  1.
         11   -1    0    0    0    0 -0.00000000000E+00 -0.00000000000E+00 -0.45593999997E+02  0.45594000000E+02  0.51100000000E-03 0. -1.
    9900012    2    1    2    0    0 -0.80008893833E+00  0.73001323806E+00  0.46907322661E+00  0.90007707100E+02  0.89999968034E+02 0.  0.
         12    1    1    2    0    0  0.80008893833E+00 -0.73001323806E+00 -0.46907322661E+00  0.11802928996E+01  0.00000000000E+00 0. -1.
         11    1    3    3    0    0  0.32248410817E+01  0.41581390375E+01  0.10923772464E+02  0.12125119602E+02  0.51100000000E-03 0. -1.
        -11    1    3    3    0    0  0.18063110924E+02 -0.99033465532E+01  0.26975386577E+02  0.33941475078E+02  0.51100000000E-03 0.  1.
         12    1    3    3    0    0 -0.22088040944E+02  0.64752207538E+01 -0.37430085815E+02  0.43941112420E+02  0.00000000000E+00 0. -1.
</event>
<event>
 7    1  0.1698110E-015  0.9000779E+02  0.7816164E-02  0.1186339E+00
        -11   -1    0    0    0    0  0.00000000000E+00  0.00000000000E+00  0.45593999997E+02  0.45594000000E+02  0.51100000000E-03 0.  1.
         11   -1    0    0    0    0 -0.00000000000E+00 -0.00000000000E+00 -0.45593999997E+02  0.45594000000E+02  0.51100000000E-03 0. -1.
    9900012    2    1    2    0    0 -0.38431673652E+00  0.54299655513E+00  0.97486233847E+00  0.90007787650E+02  0.90000049647E+02 0.  0.
         12    1    1    2    0    0  0.38431673652E+00 -0.54299655513E+00 -0.97486233847E+00  0.11802123503E+01  0.00000000000E+00 0. -1.
         11    1    3    3    0    0 -0.13276418180E+02  0.35857455559E+02 -0.67728158823E+00  0.38242373220E+02  0.51100000000E-03 0. -1.
        -11    1    3    3    0    0  0.94028971532E+01 -0.19310759569E+01  0.13154094917E+02  0.16284156183E+02  0.51100000000E-03 0.  1.
        -12    1    3    3    0    0  0.34892042898E+01 -0.33383383047E+02 -0.11501950991E+02  0.35481258248E+02  0.00000000000E+00 0.  1.
</event>
<event>
 7    1  0.2325265E-015  0.9000777E+02  0.7816164E-02  0.1186339E+00
        -11   -1    0    0    0    0  0.00000000000E+00  0.00000000000E+00  0.45593999997E+02  0.45594000000E+02  0.51100000000E-03 0.  1.
         11   -1    0    0    0    0 -0.00000000000E+00 -0.00000000000E+00 -0.45593999997E+02  0.45594000000E+02  0.51100000000E-03 0. -1.
    9900012    2    1    2    0    0  0.98670984364E+00  0.60555705630E+00 -0.22946937303E+00  0.90007766185E+02  0.90000027899E+02 0.  0.
         12    1    1    2    0    0 -0.98670984364E+00 -0.60555705630E+00  0.22946937303E+00  0.11802338146E+01  0.00000000000E+00 0. -1.
         11    1    3    3    0    0  0.48068434925E+01 -0.71411585336E+01  0.23992937240E+01  0.89363583298E+01  0.51100000000E-03 0. -1.
        -11    1    3    3    0    0  0.17250763782E+02 -0.17708604003E+02  0.27057077751E+02  0.36650633876E+02  0.51100000000E-03 0.  1.
         12    1    3    3    0    0 -0.21070897431E+02  0.25455319593E+02 -0.29685840848E+02  0.44420773980E+02  0.00000000000E+00 0. -1.
</event>
<event>
 7    1  0.1698110E-015  0.9000770E+02  0.7816164E-02  0.1186339E+00
        -11   -1    0    0    0    0  0.00000000000E+00  0.00000000000E+00  0.45593999997E+02  0.45594000000E+02  0.51100000000E-03 0.  1.
         11   -1    0    0    0    0 -0.00000000000E+00 -0.00000000000E+00 -0.45593999997E+02  0.45594000000E+02  0.51100000000E-03 0. -1.
    9900012    2    1    2    0    0 -0.10681205728E+01  0.22451136897E+00  0.44924358750E+00  0.90007700583E+02  0.89999961431E+02 0.  0.
         12    1    1    2    0    0  0.10681205728E+01 -0.22451136897E+00 -0.44924358750E+00  0.11802994170E+01  0.00000000000E+00 0. -1.
         11    1    3    3    0    0  0.33860818747E+02  0.17573397220E+02 -0.34886958044E+01  0.38308619588E+02  0.51100000000E-03 0. -1.
        -11    1    3    3    0    0 -0.38304075664E+01  0.92975033958E+01 -0.21866709549E+01  0.10290632714E+02  0.51100000000E-03 0.  1.
        -12    1    3    3    0    0 -0.31098531754E+02 -0.26646389247E+02  0.61246103468E+01  0.41408448281E+02  0.00000000000E+00 0.  1.
</event>
<event>
 7    1  0.1698110E-015  0.9000769E+02  0.7816164E-02  0.1186339E+00
        -11   -1    0    0    0    0  0.00000000000E+00  0.00000000000E+00  0.45593999997E+02  0.45594000000E+02  0.51100000000E-03 0.  1.
         11   -1    0    0    0    0 -0.00000000000E+00 -0.00000000000E+00 -0.45593999997E+02  0.45594000000E+02  0.51100000000E-03 0. -1.
    9900012    2    1    2    0    0  0.22768581095E-01  0.74048868084E+00  0.91884824471E+00  0.90007693264E+02  0.89999954015E+02 0.  0.
         12    1    1    2    0    0 -0.22768581095E-01 -0.74048868084E+00 -0.91884824471E+00  0.11803067362E+01  0.00000000000E+00 0. -1.
         11    1    3    3    0    0  0.51913706705E+01 -0.61656662196E+01 -0.28948911500E+01  0.85642375260E+01  0.51100000000E-03 0. -1.
        -11    1    3    3    0    0  0.10593219383E+02  0.41702066502E+02  0.43016713804E+01  0.43240987782E+02  0.51100000000E-03 0.  1.
         12    1    3    3    0    0 -0.15761821472E+02 -0.34795911602E+02 -0.48793198573E+00  0.38202467956E+02  0.00000000000E+00 0. -1.
</event>
<event>
 7    1  0.1698110E-015  0.9000774E+02  0.7816164E-02  0.1186339E+00
        -11   -1    0    0    0    0  0.00000000000E+00  0.00000000000E+00  0.45593999997E+02  0.45594000000E+02  0.51100000000E-03 0. -1.
         11   -1    0    0    0    0 -0.00000000000E+00 -0.00000000000E+00 -0.45593999997E+02  0.45594000000E+02  0.51100000000E-03 0.  1.
    9900012    2    1    2    0    0  0.47917989216E+00 -0.77457350888E+00  0.75061975216E+00  0.90007742612E+02  0.90000004014E+02 0.  0.
         12    1    1    2    0    0 -0.47917989216E+00  0.77457350888E+00 -0.75061975216E+00  0.11802573881E+01  0.00000000000E+00 0. -1.
         11    1    3    3    0    0 -0.11476634772E+02  0.28276442478E+02  0.29638630978E+02  0.42540789737E+02  0.51100000000E-03 0. -1.
        -11    1    3    3    0    0 -0.35926896365E+01 -0.80087642359E+01 -0.39895860750E+00  0.87867452246E+01  0.51100000000E-03 0.  1.
        -12    1    3    3    0    0  0.15548504300E+02 -0.21042251751E+02 -0.28489052619E+02  0.38680207650E+02  0.00000000000E+00 0.  1.
</event>
<event>
 7    1  0.1698110E-015  0.9000777E+02  0.7816164E-02  0.1186339E+00
        -11   -1    0    0    0    0  0.00000000000E+00  0.00000000000E+00  0.45593999997E+02  0.45594000000E+02  0.51100000000E-03 0.  1.
         11   -1    0    0    0    0 -0.00000000000E+00 -0.00000000000E+00 -0.45593999997E+02  0.45594000000E+02  0.51100000000E-03 0. -1.
    9900012    2    1    2    0    0 -0.87520476681E+00 -0.52682420731E+00  0.59110855646E+00  0.90007772711E+02  0.90000034510E+02 0.  0.
         12    1    1    2    0    0  0.87520476681E+00  0.52682420731E+00 -0.59110855646E+00  0.11802272894E+01  0.00000000000E+00 0. -1.
         11    1    3    3    0    0  0.36768442874E+02  0.28530573382E+00 -0.18975590962E+02  0.41377201976E+02  0.51100000000E-03 0. -1.
        -11    1    3    3    0    0 -0.69259243762E+01 -0.98810862779E+01  0.24414493928E+01  0.12311172564E+02  0.51100000000E-03 0.  1.
        -12    1    3    3    0    0 -0.30717723265E+02  0.90689563368E+01  0.17125250126E+02  0.36319398171E+02  0.00000000000E+00 0.  1.
</event>
<event>
 7    1  0.1698110E-015  0.9000780E+02  0.7816164E-02  0.1186339E+00
        -11   -1    0    0    0    0  0.00000000000E+00  0.00000000000E+00  0.45593999997E+02  0.45594000000E+02  0.51100000000E-03 0.  1.
         11   -1    0    0    0    0 -0.00000000000E+00 -0.00000000000E+00 -0.45593999997E+02  0.45594000000E+02  0.51100000000E-03 0. -1.
    9900012    2    1    2    0    0 -0.72322491953E+00 -0.81583899070E+00  0.45190230293E+00  0.90007803731E+02  0.90000065940E+02 0.  0.
         12    1    1    2    0    0  0.72322491953E+00  0.81583899070E+00 -0.45190230293E+00  0.11801962694E+01  0.00000000000E+00 0. -1.
         11    1    3    3    0    0  0.61382068307E+01  0.13240595197E+02 -0.11209934535E+02  0.18402542672E+02  0.51100000000E-03 0. -1.
        -11    1    3    3    0    0 -0.73033405965E+01  0.18983695022E+02  0.28108078350E+02  0.34695583716E+02  0.51100000000E-03 0.  1.
         12    1    3    3    0    0  0.44190884625E+00 -0.33040129210E+02 -0.16446241512E+02  0.36909677342E+02  0.00000000000E+00 0. -1.
</event>
<event>
 7    1  0.1698110E-015  0.9000769E+02  0.7816164E-02  0.1186339E+00
        -11   -1    0    0    0    0  0.00000000000E+00  0.00000000000E+00  0.45593999997E+02  0.45594000000E+02  0.51100000000E-03 0. -1.
         11   -1    0    0    0    0 -0.00000000000E+00 -0.00000000000E+00 -0.45593999997E+02  0.45594000000E+02  0.51100000000E-03 0.  1.
    9900012    2    1    2    0    0 -0.19997152372E+00  0.69468256246E+00 -0.93303288687E+00  0.90007693751E+02  0.89999954509E+02 0.  0.
         12    1    1    2    0    0  0.19997152372E+00 -0.69468256246E+00  0.93303288687E+00  0.11803062488E+01  0.00000000000E+00 0. -1.
         11    1    3    3    0    0  0.60638260958E+01  0.81399122917E+01  0.46253165566E+00  0.10160811721E+02  0.51100000000E-03 0. -1.
        -11    1    3    3    0    0  0.23640206223E+02  0.22639077919E+02  0.12756588644E+02  0.35130012146E+02  0.51100000000E-03 0.  1.
         12    1    3    3    0    0 -0.29904003842E+02 -0.30084307648E+02 -0.14152153187E+02  0.44716869885E+02  0.00000000000E+00 0. -1.
</event>
<event>
 7    1  0.1698110E-015  0.9000787E+02  0.7816164E-02  0.1186339E+00
        -11   -1    0    0    0    0  0.00000000000E+00  0.00000000000E+00  0.45593999997E+02  0.45594000000E+02  0.51100000000E-03 0.  1.
         11   -1    0    0    0    0 -0.00000000000E+00 -0.00000000000E+00 -0.45593999997E+02  0.45594000000E+02  0.51100000000E-03 0. -1.
    9900012    2    1    2    0    0  0.10898304397E+01  0.44269293203E+00  0.94892512028E-01  0.90007867801E+02  0.90000130855E+02 0.  0.
         12    1    1    2    0    0 -0.10898304397E+01 -0.44269293203E+00 -0.94892512028E-01  0.11801321994E+01  0.00000000000E+00 0. -1.
         11    1    3    3    0    0 -0.27233375306E+02 -0.26163499362E+02 -0.10999889215E+02  0.39334247068E+02  0.51100000000E-03 0. -1.
        -11    1    3    3    0    0  0.49929969437E+01  0.37195274639E+00 -0.89438048754E+01  0.10249878694E+02  0.51100000000E-03 0.  1.
        -12    1    3    3    0    0  0.23330208802E+02  0.26234239547E+02  0.20038586603E+02  0.40423742039E+02  0.00000000000E+00 0.  1.
</event>
<event>
 7    1  0.1698110E-015  0.9000763E+02  0.7816164E-02  0.1186339E+00
        -11   -1    0    0    0    0  0.00000000000E+00  0.00000000000E+00  0.45593999997E+02  0.45594000000E+02  0.51100000000E-03 0.  1.
         11   -1    0    0    0    0 -0.00000000000E+00 -0.00000000000E+00 -0.45593999997E+02  0.45594000000E+02  0.51100000000E-03 0. -1.
    9900012    2    1    2    0    0 -0.49931063639E+00  0.94319198108E+00 -0.50433307082E+00  0.90007629689E+02  0.89999889601E+02 0.  0.
         12    1    1    2    0    0  0.49931063639E+00 -0.94319198108E+00  0.50433307082E+00  0.11803703110E+01  0.00000000000E+00 0. -1.
         11    1    3    3    0    0  0.11237445352E+02 -0.19960373309E+02  0.17783860284E+01  0.22975189614E+02  0.51100000000E-03 0. -1.
        -11    1    3    3    0    0 -0.21056649855E+02 -0.15945555374E+01  0.23481921435E+02  0.31580464611E+02  0.51100000000E-03 0.  1.
         12    1    3    3    0    0  0.93198938669E+01  0.22498120827E+02 -0.25764640534E+02  0.35451975464E+02  0.00000000000E+00 0. -1.
</event>
<event>
 7    1  0.1698110E-015  0.9000773E+02  0.7816164E-02  0.1186339E+00
        -11   -1    0    0    0    0  0.00000000000E+00  0.00000000000E+00  0.45593999997E+02  0.45594000000E+02  0.51100000000E-03 0. -1.
         11   -1    0    0    0    0 -0.00000000000E+00 -0.00000000000E+00 -0.45593999997E+02  0.45594000000E+02  0.51100000000E-03 0.  1.
    9900012    2    1    2    0    0  0.13286171556E+00  0.10875941014E+01  0.43876424817E+00  0.90007734254E+02  0.89999995547E+02 0.  0.
         12    1    1    2    0    0 -0.13286171556E+00 -0.10875941014E+01 -0.43876424817E+00  0.11802657456E+01  0.00000000000E+00 0. -1.
         11    1    3    3    0    0  0.24319364360E+02  0.16455032164E+02  0.23722077424E+02  0.37748331406E+02  0.51100000000E-03 0. -1.
        -11    1    3    3    0    0  0.51748213988E+01 -0.85572325176E+01  0.47734960765E+01  0.11081122232E+02  0.51100000000E-03 0.  1.
        -12    1    3    3    0    0 -0.29361324043E+02 -0.68102055455E+01 -0.28056809252E+02  0.41178280616E+02  0.00000000000E+00 0.  1.
</event>
<event>
 7    1  0.1698110E-015  0.9000785E+02  0.7816164E-02  0.1186339E+00
        -11   -1    0    0    0    0  0.00000000000E+00  0.00000000000E+00  0.45593999997E+02  0.45594000000E+02  0.51100000000E-03 0.  1.
         11   -1    0    0    0    0 -0.00000000000E+00 -0.00000000000E+00 -0.45593999997E+02  0.45594000000E+02  0.51100000000E-03 0. -1.
    9900012    2    1    2    0    0  0.41845414204E+00 -0.71496214450E+00  0.84052731484E+00  0.90007847084E+02  0.90000109866E+02 0.  0.
         12    1    1    2    0    0 -0.41845414204E+00  0.71496214450E+00 -0.84052731484E+00  0.11801529155E+01  0.00000000000E+00 0. -1.
         11    1    3    3    0    0  0.16093906011E+02  0.17557564657E+02 -0.27388940708E+02  0.36296500668E+02  0.51100000000E-03 0. -1.
        -11    1    3    3    0    0  0.57426790344E+01  0.54978079720E+01 -0.34670370339E+01  0.86732116915E+01  0.51100000000E-03 0.  1.
        -12    1    3    3    0    0 -0.21418130903E+02 -0.23770334774E+02  0.31696505057E+02  0.45038134725E+02  0.00000000000E+00 0.  1.
</event>
<event>
 7    1  0.1698110E-015  0.9000772E+02  0.7816164E-02  0.1186339E+00
        -11   -1    0    0    0    0  0.00000000000E+00  0.00000000000E+00  0.45593999997E+02  0.45594000000E+02  0.51100000000E-03 0. -1.
         11   -1    0    0    0    0 -0.00000000000E+00 -0.00000000000E+00 -0.45593999997E+02  0.45594000000E+02  0.51100000000E-03 0.  1.
    9900012    2    1    2    0    0  0.54700543039E+00 -0.81602529877E+00  0.65417608079E+00  0.90007720976E+02  0.89999982093E+02 0.  0.
         12    1    1    2    0    0 -0.54700543039E+00  0.81602529877E+00 -0.65417608079E+00  0.11802790237E+01  0.00000000000E+00 0. -1.
         11    1    3    3    0    0  0.19666255968E+01  0.90312325613E+01 -0.20076290976E+01  0.94584011688E+01  0.51100000000E-03 0. -1.
        -11    1    3    3    0    0  0.30089996393E+01  0.28428877997E+02 -0.20874822242E+02  0.35397929133E+02  0.51100000000E-03 0.  1.
         12    1    3    3    0    0 -0.44286198057E+01 -0.38276135857E+02  0.23536627420E+02  0.45151390675E+02  0.00000000000E+00 0. -1.
</event>
<event>
 7    1  0.1698110E-015  0.9000784E+02  0.7816164E-02  0.1186339E+00
        -11   -1    0    0    0    0  0.00000000000E+00  0.00000000000E+00  0.45593999997E+02  0.45594000000E+02  0.51100000000E-03 0.  1.
         11   -1    0    0    0    0 -0.00000000000E+00 -0.00000000000E+00 -0.45593999997E+02  0.45594000000E+02  0.51100000000E-03 0. -1.
    9900012    2    1    2    0    0  0.11766317582E+01 -0.19543130408E-01 -0.89095989055E-01  0.90007838010E+02  0.90000100671E+02 0.  0.
         12    1    1    2    0    0 -0.11766317582E+01  0.19543130408E-01  0.89095989055E-01  0.11801619904E+01  0.00000000000E+00 0. -1.
         11    1    3    3    0    0  0.22665618503E+01 -0.40305276442E+02 -0.40459267235E+01  0.40571198344E+02  0.51100000000E-03 0. -1.
        -11    1    3    3    0    0 -0.85672383910E+01  0.25018218427E+01 -0.45107597420E+01  0.10000181993E+02  0.51100000000E-03 0.  1.
        -12    1    3    3    0    0  0.74773082988E+01  0.37783911469E+02  0.84675904765E+01  0.39436457673E+02  0.00000000000E+00 0.  1.
</event>
<event>
 7    1  0.1698110E-015  0.9000764E+02  0.7816164E-02  0.1186339E+00
        -11   -1    0    0    0    0  0.00000000000E+00  0.00000000000E+00  0.45593999997E+02  0.45594000000E+02  0.51100000000E-03 0.  1.
         11   -1    0    0    0    0 -0.00000000000E+00 -0.00000000000E+00 -0.45593999997E+02  0.45594000000E+02  0.51100000000E-03 0. -1.
    9900012    2    1    2    0    0 -0.84674687883E+00  0.81819860721E+00 -0.82528601681E-01  0.90007644033E+02  0.89999904135E+02 0.  0.
         12    1    1    2    0    0  0.84674687883E+00 -0.81819860721E+00  0.82528601681E-01  0.11803559665E+01  0.00000000000E+00 0. -1.
         11    1    3    3    0    0  0.60269504849E+01  0.30919574122E+01  0.43780775089E+01  0.80654755421E+01  0.51100000000E-03 0. -1.
        -11    1    3    3    0    0  0.24084883125E+02 -0.30894722326E+02 -0.66036085863E+01  0.39726226972E+02  0.51100000000E-03 0.  1.
         12    1    3    3    0    0 -0.30958580489E+02  0.28620963521E+02  0.21430024758E+01  0.42215941520E+02  0.00000000000E+00 0. -1.
</event>
<event>
 7    1  0.1698110E-015  0.9000777E+02  0.7816164E-02  0.1186339E+00
        -11   -1    0    0    0    0  0.00000000000E+00  0.00000000000E+00  0.45593999997E+02  0.45594000000E+02  0.51100000000E-03 0. -1.
         11   -1    0    0    0    0 -0.00000000000E+00 -0.00000000000E+00 -0.45593999997E+02  0.45594000000E+02  0.51100000000E-03 0.  1.
    9900012    2    1    2    0    0 -0.76195242659E+00  0.79883027037E+00  0.41743402278E+00  0.90007765928E+02  0.90000027638E+02 0.  0.
         12    1    1    2    0    0  0.76195242659E+00 -0.79883027037E+00 -0.41743402278E+00  0.11802340720E+01  0.00000000000E+00 0. -1.
         11    1    3    3    0    0  0.52729696017E+01  0.47288251848E+01  0.88745367707E+01  0.11354444029E+02  0.51100000000E-03 0. -1.
        -11    1    3    3    0    0 -0.16424410933E+02  0.24588669809E+02  0.21069782458E+02  0.36308396970E+02  0.51100000000E-03 0.  1.
         12    1    3    3    0    0  0.10389488905E+02 -0.28518664723E+02 -0.29526885206E+02  0.42344924929E+02  0.00000000000E+00 0. -1.
</event>
<event>
 7    1  0.1698110E-015  0.9000773E+02  0.7816164E-02  0.1186339E+00
        -11   -1    0    0    0    0  0.00000000000E+00  0.00000000000E+00  0.45593999997E+02  0.45594000000E+02  0.51100000000E-03 0.  1.
         11   -1    0    0    0    0 -0.00000000000E+00 -0.00000000000E+00 -0.45593999997E+02  0.45594000000E+02  0.51100000000E-03 0. -1.
    9900012    2    1    2    0    0  0.69632868999E+00  0.28902909280E+00  0.90808333121E+00  0.90007734438E+02  0.89999995732E+02 0.  0.
         12    1    1    2    0    0 -0.69632868999E+00 -0.28902909280E+00 -0.90808333121E+00  0.11802655622E+01  0.00000000000E+00 0. -1.
         11    1    3    3    0    0  0.71728138203E+01  0.98932939233E+01 -0.33827147583E+02  0.35966685094E+02  0.51100000000E-03 0. -1.
        -11    1    3    3    0    0  0.27176750887E+00  0.23917523875E+01 -0.84130698726E+01  0.87506618038E+01  0.51100000000E-03 0.  1.
        -12    1    3    3    0    0 -0.67482526392E+01 -0.11996017218E+02  0.43148300787E+02  0.45290387540E+02  0.00000000000E+00 0.  1.
</event>
<event>
 7    1  0.1698110E-015  0.9000755E+02  0.7816164E-02  0.1186339E+00
        -11   -1    0    0    0    0  0.00000000000E+00  0.00000000000E+00  0.45593999997E+02  0.45594000000E+02  0.51100000000E-03 0.  1.
         11   -1    0    0    0    0 -0.00000000000E+00 -0.00000000000E+00 -0.45593999997E+02  0.45594000000E+02  0.51100000000E-03 0. -1.
    9900012    2    1    2    0    0  0.10992450423E+00  0.58436785742E+00  0.10197475414E+01  0.90007553374E+02  0.89999812278E+02 0.  0.
         12    1    1    2    0    0 -0.10992450423E+00 -0.58436785742E+00 -0.10197475414E+01  0.11804466264E+01  0.00000000000E+00 0. -1.
         11    1    3    3    0    0 -0.12804234073E+01 -0.15090820079E+01 -0.85690060087E+01  0.87945822440E+01  0.51100000000E-03 0. -1.
        -11    1    3    3    0    0 -0.10746990375E+01 -0.37604618132E+02 -0.67367089600E+01  0.38218392572E+02  0.51100000000E-03 0.  1.
         12    1    3    3    0    0  0.24650469491E+01  0.39698067998E+02  0.16325462510E+02  0.42994578558E+02  0.00000000000E+00 0. -1.
</event>
<event>
 7    1  0.1698110E-015  0.9000774E+02  0.7816164E-02  0.1186339E+00
        -11   -1    0    0    0    0  0.00000000000E+00  0.00000000000E+00  0.45593999997E+02  0.45594000000E+02  0.51100000000E-03 0. -1.
         11   -1    0    0    0    0 -0.00000000000E+00 -0.00000000000E+00 -0.45593999997E+02  0.45594000000E+02  0.51100000000E-03 0.  1.
    9900012    2    1    2    0    0  0.60865232617E+00  0.26505172521E+00 -0.97586615090E+00  0.90007735277E+02  0.89999996583E+02 0.  0.
         12    1    1    2    0    0 -0.60865232617E+00 -0.26505172521E+00  0.97586615090E+00  0.11802647227E+01  0.00000000000E+00 0. -1.
         11    1    3    3    0    0  0.33058349809E+01  0.25169305636E+01 -0.68642031149E+01  0.80237627736E+01  0.51100000000E-03 0. -1.
        -11    1    3    3    0    0  0.20181185881E+02  0.24940698608E+02 -0.20188258072E+02  0.37906259046E+02  0.51100000000E-03 0.  1.
         12    1    3    3    0    0 -0.22878368535E+02 -0.27192577446E+02  0.26076595036E+02  0.44077713458E+02  0.00000000000E+00 0. -1.
</event>
<event>
 7    1  0.1698110E-015  0.9000783E+02  0.7816164E-02  0.1186339E+00
        -11   -1    0    0    0    0  0.00000000000E+00  0.00000000000E+00  0.45593999997E+02  0.45594000000E+02  0.51100000000E-03 0. -1.
         11   -1    0    0    0    0 -0.00000000000E+00 -0.00000000000E+00 -0.45593999997E+02  0.45594000000E+02  0.51100000000E-03 0.  1.
    9900012    2    1    2    0    0  0.10659379562E+01 -0.37917257451E-01 -0.50512518384E+00  0.90007825057E+02  0.90000087548E+02 0.  0.
         12    1    1    2    0    0 -0.10659379562E+01  0.37917257451E-01  0.50512518384E+00  0.11801749430E+01  0.00000000000E+00 0. -1.
         11    1    3    3    0    0  0.26799298957E+02  0.78550786548E+01  0.31333774286E+02  0.41972730392E+02  0.51100000000E-03 0. -1.
        -11    1    3    3    0    0 -0.68311625987E+00 -0.87716881297E+01 -0.19223877667E+01  0.90058167567E+01  0.51100000000E-03 0.  1.
        -12    1    3    3    0    0 -0.25050244741E+02  0.87869221748E+00 -0.29916511703E+02  0.39029277909E+02  0.00000000000E+00 0.  1.
</event>
<event>
 7    1  0.1698110E-015  0.9000772E+02  0.7816164E-02  0.1186339E+00
        -11   -1    0    0    0    0  0.00000000000E+00  0.00000000000E+00  0.45593999997E+02  0.45594000000E+02  0.51100000000E-03 0.  1.
         11   -1    0    0    0    0 -0.00000000000E+00 -0.00000000000E+00 -0.45593999997E+02  0.45594000000E+02  0.51100000000E-03 0. -1.
    9900012    2    1    2    0    0  0.45549516994E+00  0.26182547858E+00  0.10568933219E+01  0.90007723793E+02  0.89999984947E+02 0.  0.
         12    1    1    2    0    0 -0.45549516994E+00 -0.26182547858E+00 -0.10568933219E+01  0.11802762071E+01  0.00000000000E+00 0. -1.
         11    1    3    3    0    0  0.19351441955E+02  0.33403467964E+02 -0.11257629361E+02  0.40211990710E+02  0.51100000000E-03 0. -1.
        -11    1    3    3    0    0 -0.81811963860E+01  0.40912541859E+01  0.17713317309E-01  0.91471661810E+01  0.51100000000E-03 0.  1.
        -12    1    3    3    0    0 -0.10714750399E+02 -0.37232896671E+02  0.12296809366E+02  0.40648566902E+02  0.00000000000E+00 0.  1.
</event>
<event>
 7    1  0.1698110E-015  0.9000776E+02  0.7816164E-02  0.1186339E+00
        -11   -1    0    0    0    0  0.00000000000E+00  0.00000000000E+00  0.45593999997E+02  0.45594000000E+02  0.51100000000E-03 0.  1.
         11   -1    0    0    0    0 -0.00000000000E+00 -0.00000000000E+00 -0.45593999997E+02  0.45594000000E+02  0.51100000000E-03 0. -1.
    9900012    2    1    2    0    0 -0.38709444992E+00  0.25177299799E+00  0.10861588209E+01  0.90007757339E+02  0.90000018935E+02 0.  0.
         12    1    1    2    0    0  0.38709444992E+00 -0.25177299799E+00 -0.10861588209E+01  0.11802426614E+01  0.00000000000E+00 0. -1.
         11    1    3    3    0    0  0.22398568322E+01 -0.51033838399E+01 -0.30052028685E+02  0.30564455068E+02  0.51100000000E-03 0. -1.
        -11    1    3    3    0    0  0.10847350936E+02  0.78932600302E+01 -0.95759869651E+01  0.16482357321E+02  0.51100000000E-03 0.  1.
        -12    1    3    3    0    0 -0.13474302218E+02 -0.25381031922E+01  0.40714174471E+02  0.42960944950E+02  0.00000000000E+00 0.  1.
</event>
<event>
 7    1  0.1698110E-015  0.9000770E+02  0.7816164E-02  0.1186339E+00
        -11   -1    0    0    0    0  0.00000000000E+00  0.00000000000E+00  0.45593999997E+02  0.45594000000E+02  0.51100000000E-03 0.  1.
         11   -1    0    0    0    0 -0.00000000000E+00 -0.00000000000E+00 -0.45593999997E+02  0.45594000000E+02  0.51100000000E-03 0. -1.
    9900012    2    1    2    0    0 -0.22491425947E+00  0.23923820180E+00  0.11337053232E+01  0.90007699572E+02  0.89999960406E+02 0.  0.
         12    1    1    2    0    0  0.22491425947E+00 -0.23923820180E+00 -0.11337053232E+01  0.11803004284E+01  0.00000000000E+00 0. -1.
         11    1    3    3    0    0  0.49091732512E+01  0.11704747552E+01 -0.74600726721E+01  0.90068128490E+01  0.51100000000E-03 0. -1.
        -11    1    3    3    0    0 -0.21015738552E+02 -0.36076584295E+02  0.14422824958E+01  0.41776325596E+02  0.51100000000E-03 0.  1.
         12    1    3    3    0    0  0.15881651042E+02  0.35145347741E+02  0.71514954996E+01  0.39224561126E+02  0.00000000000E+00 0. -1.
</event>
<event>
 7    1  0.1698110E-015  0.9000767E+02  0.7816164E-02  0.1186339E+00
        -11   -1    0    0    0    0  0.00000000000E+00  0.00000000000E+00  0.45593999997E+02  0.45594000000E+02  0.51100000000E-03 0. -1.
         11   -1    0    0    0    0 -0.00000000000E+00 -0.00000000000E+00 -0.45593999997E+02  0.45594000000E+02  0.51100000000E-03 0.  1.
    9900012    2    1    2    0    0  0.60496237099E+00  0.84633777902E+00  0.55760001450E+00  0.90007667469E+02  0.89999927880E+02 0.  0.
         12    1    1    2    0    0 -0.60496237099E+00 -0.84633777902E+00 -0.55760001450E+00  0.11803325306E+01  0.00000000000E+00 0. -1.
         11    1    3    3    0    0 -0.32890583253E+02  0.86798330579E+01  0.14282212946E+02  0.36893245663E+02  0.51100000000E-03 0. -1.
        -11    1    3    3    0    0 -0.49134054944E+01 -0.83982378328E+01  0.43540062316E+01  0.10659705567E+02  0.51100000000E-03 0.  1.
        -12    1    3    3    0    0  0.38408951119E+02  0.56474255394E+00 -0.18078619163E+02  0.42454716240E+02  0.00000000000E+00 0.  1.
</event>
<event>
 7    1  0.1737235E-015  0.9000780E+02  0.7816164E-02  0.1186339E+00
        -11   -1    0    0    0    0  0.00000000000E+00  0.00000000000E+00  0.45593999997E+02  0.45594000000E+02  0.51100000000E-03 0. -1.
         11   -1    0    0    0    0 -0.00000000000E+00 -0.00000000000E+00 -0.45593999997E+02  0.45594000000E+02  0.51100000000E-03 0.  1.
    9900012    2    1    2    0    0 -0.67330663083E+00  0.74809077482E+00 -0.61635469136E+00  0.90007798859E+02  0.90000061004E+02 0.  0.
         12    1    1    2    0    0  0.67330663083E+00 -0.74809077482E+00  0.61635469136E+00  0.11802011405E+01  0.00000000000E+00 0. -1.
         11    1    3    3    0    0 -0.27762322397E+01 -0.50908762177E+01 -0.83264757031E+01  0.10146658761E+02  0.51100000000E-03 0. -1.
        -11    1    3    3    0    0  0.68081562745E+01  0.24636309358E+02 -0.28812978666E+02  0.38516054711E+02  0.51100000000E-03 0.  1.
         12    1    3    3    0    0 -0.47052306657E+01 -0.18797342366E+02  0.36523099678E+02  0.41345085388E+02  0.00000000000E+00 0. -1.
</event>
<event>
 7    1  0.1820419E-015  0.9000770E+02  0.7816164E-02  0.1186339E+00
        -11   -1    0    0    0    0  0.00000000000E+00  0.00000000000E+00  0.45593999997E+02  0.45594000000E+02  0.51100000000E-03 0.  1.
         11   -1    0    0    0    0 -0.00000000000E+00 -0.00000000000E+00 -0.45593999997E+02  0.45594000000E+02  0.51100000000E-03 0. -1.
    9900012    2    1    2    0    0  0.10344384098E+01 -0.39543538298E+00 -0.40825828601E+00  0.90007700549E+02  0.89999961396E+02 0.  0.
         12    1    1    2    0    0 -0.10344384098E+01  0.39543538298E+00  0.40825828601E+00  0.11802994509E+01  0.00000000000E+00 0. -1.
         11    1    3    3    0    0  0.13775650739E+01 -0.96652680776E+01  0.16938202116E+01  0.99087900228E+01  0.51100000000E-03 0. -1.
        -11    1    3    3    0    0 -0.88481025075E+01 -0.34415184018E+02 -0.20529272947E+01  0.35593655610E+02  0.51100000000E-03 0.  1.
         12    1    3    3    0    0  0.85049758433E+01  0.43685016713E+02 -0.49151202842E-01  0.44505254916E+02  0.00000000000E+00 0. -1.
</event>
<event>
 7    1  0.1698110E-015  0.9000770E+02  0.7816164E-02  0.1186339E+00
        -11   -1    0    0    0    0  0.00000000000E+00  0.00000000000E+00  0.45593999997E+02  0.45594000000E+02  0.51100000000E-03 0. -1.
         11   -1    0    0    0    0 -0.00000000000E+00 -0.00000000000E+00 -0.45593999997E+02  0.45594000000E+02  0.51100000000E-03 0.  1.
    9900012    2    1    2    0    0  0.11083979017E+01 -0.20162798812E+00 -0.35202244106E+00  0.90007695144E+02  0.89999955920E+02 0.  0.
         12    1    1    2    0    0 -0.11083979017E+01  0.20162798812E+00  0.35202244106E+00  0.11803048560E+01  0.00000000000E+00 0. -1.
         11    1    3    3    0    0 -0.28678436293E+02  0.91757276416E+01  0.90979643782E+01  0.31455041600E+02  0.51100000000E-03 0. -1.
        -11    1    3    3    0    0 -0.61237906863E+01 -0.18805420996E+02 -0.81829727829E+01  0.21403404286E+02  0.51100000000E-03 0.  1.
        -12    1    3    3    0    0  0.35910624881E+02  0.94280653662E+01 -0.12670140363E+01  0.37149249258E+02  0.00000000000E+00 0.  1.
</event>
<event>
 7    1  0.1698110E-015  0.9000778E+02  0.7816164E-02  0.1186339E+00
        -11   -1    0    0    0    0  0.00000000000E+00  0.00000000000E+00  0.45593999997E+02  0.45594000000E+02  0.51100000000E-03 0. -1.
         11   -1    0    0    0    0 -0.00000000000E+00 -0.00000000000E+00 -0.45593999997E+02  0.45594000000E+02  0.51100000000E-03 0.  1.
    9900012    2    1    2    0    0  0.68197766994E+00 -0.95811726464E+00 -0.99146529694E-01  0.90007782957E+02  0.90000044892E+02 0.  0.
         12    1    1    2    0    0 -0.68197766994E+00  0.95811726464E+00  0.99146529694E-01  0.11802170434E+01  0.00000000000E+00 0. -1.
         11    1    3    3    0    0  0.54806241800E+01  0.53737072164E+01  0.13546857210E+00  0.76767390633E+01  0.51100000000E-03 0. -1.
        -11    1    3    3    0    0  0.11071631429E+02  0.11009103102E+02 -0.36166593853E+02  0.39392942069E+02  0.51100000000E-03 0.  1.
         12    1    3    3    0    0 -0.15870277939E+02 -0.17340927583E+02  0.35931978751E+02  0.42938101825E+02  0.00000000000E+00 0. -1.
</event>
<event>
 7    1  0.1698110E-015  0.9000772E+02  0.7816164E-02  0.1186339E+00
        -11   -1    0    0    0    0  0.00000000000E+00  0.00000000000E+00  0.45593999997E+02  0.45594000000E+02  0.51100000000E-03 0.  1.
         11   -1    0    0    0    0 -0.00000000000E+00 -0.00000000000E+00 -0.45593999997E+02  0.45594000000E+02  0.51100000000E-03 0. -1.
    9900012    2    1    2    0    0  0.11263941869E+01  0.25530062440E+00 -0.24311973168E+00  0.90007724830E+02  0.89999985998E+02 0.  0.
         12    1    1    2    0    0 -0.11263941869E+01 -0.25530062440E+00  0.24311973168E+00  0.11802751700E+01  0.00000000000E+00 0. -1.
         11    1    3    3    0    0  0.96955059704E+01  0.29931479272E+02 -0.22003906609E+02  0.38393595739E+02  0.51100000000E-03 0. -1.
        -11    1    3    3    0    0  0.80058918845E+01 -0.28530150001E+01 -0.53395740027E+01  0.10037183382E+02  0.51100000000E-03 0.  1.
        -12    1    3    3    0    0 -0.16575003668E+02 -0.26823163648E+02  0.27100360880E+02  0.41576945709E+02  0.00000000000E+00 0.  1.
</event>
<event>
 7    1  0.1793397E-015  0.9000770E+02  0.7816164E-02  0.1186339E+00
        -11   -1    0    0    0    0  0.00000000000E+00  0.00000000000E+00  0.45593999997E+02  0.45594000000E+02  0.51100000000E-03 0. -1.
         11   -1    0    0    0    0 -0.00000000000E+00 -0.00000000000E+00 -0.45593999997E+02  0.45594000000E+02  0.51100000000E-03 0.  1.
    9900012    2    1    2    0    0 -0.11097639252E+01  0.64234239562E-01 -0.39673043873E+00  0.90007704678E+02  0.89999965579E+02 0.  0.
         12    1    1    2    0    0  0.11097639252E+01 -0.64234239562E-01  0.39673043873E+00  0.11802953224E+01  0.00000000000E+00 0. -1.
         11    1    3    3    0    0  0.10202625035E+01  0.47113234234E+01 -0.89886925929E+01  0.10199710720E+02  0.51100000000E-03 0. -1.
        -11    1    3    3    0    0 -0.65346582418E+01 -0.20534141238E+02 -0.30521535493E+02  0.37361970556E+02  0.51100000000E-03 0.  1.
         12    1    3    3    0    0  0.44046318131E+01  0.15887052055E+02  0.39113497647E+02  0.42446023401E+02  0.00000000000E+00 0. -1.
</event>
<event>
 7    1  0.1698110E-015  0.9000770E+02  0.7816164E-02  0.1186339E+00
        -11   -1    0    0    0    0  0.00000000000E+00  0.00000000000E+00  0.45593999997E+02  0.45594000000E+02  0.51100000000E-03 0.  1.
         11   -1    0    0    0    0 -0.00000000000E+00 -0.00000000000E+00 -0.45593999997E+02  0.45594000000E+02  0.51100000000E-03 0. -1.
    9900012    2    1    2    0    0 -0.21483798051E+00  0.53253493215E+00  0.10311907081E+01  0.90007702119E+02  0.89999962987E+02 0.  0.
         12    1    1    2    0    0  0.21483798051E+00 -0.53253493215E+00 -0.10311907081E+01  0.11802978811E+01  0.00000000000E+00 0. -1.
         11    1    3    3    0    0 -0.10864445654E+02  0.46209712244E+01 -0.25363421325E+01  0.12075702302E+02  0.51100000000E-03 0. -1.
        -11    1    3    3    0    0  0.14117759426E+02  0.20511999004E+02  0.31758241887E+02  0.40356401752E+02  0.51100000000E-03 0.  1.
         12    1    3    3    0    0 -0.34681517529E+01 -0.24600435296E+02 -0.28190709047E+02  0.37575598064E+02  0.00000000000E+00 0. -1.
</event>
<event>
 7    1  0.1698110E-015  0.9000776E+02  0.7816164E-02  0.1186339E+00
        -11   -1    0    0    0    0  0.00000000000E+00  0.00000000000E+00  0.45593999997E+02  0.45594000000E+02  0.51100000000E-03 0.  1.
         11   -1    0    0    0    0 -0.00000000000E+00 -0.00000000000E+00 -0.45593999997E+02  0.45594000000E+02  0.51100000000E-03 0. -1.
    9900012    2    1    2    0    0 -0.32657224581E+00 -0.11096195858E+01 -0.23465288074E+00  0.90007759757E+02  0.90000021386E+02 0.  0.
         12    1    1    2    0    0  0.32657224581E+00  0.11096195858E+01  0.23465288074E+00  0.11802402431E+01  0.00000000000E+00 0. -1.
         11    1    3    3    0    0 -0.10042500007E+01  0.10595332365E+02  0.49745215622E+01  0.11747997745E+02  0.51100000000E-03 0. -1.
        -11    1    3    3    0    0  0.30028433883E+02  0.53653855417E+01 -0.24574719091E+02  0.39171558843E+02  0.51100000000E-03 0.  1.
         12    1    3    3    0    0 -0.29350756129E+02 -0.17070337493E+02  0.19365544648E+02  0.39088203169E+02  0.00000000000E+00 0. -1.
</event>
<event>
 7    1  0.1698110E-015  0.9000779E+02  0.7816164E-02  0.1186339E+00
        -11   -1    0    0    0    0  0.00000000000E+00  0.00000000000E+00  0.45593999997E+02  0.45594000000E+02  0.51100000000E-03 0.  1.
         11   -1    0    0    0    0 -0.00000000000E+00 -0.00000000000E+00 -0.45593999997E+02  0.45594000000E+02  0.51100000000E-03 0. -1.
    9900012    2    1    2    0    0  0.12832002575E+00  0.12845148294E+00  0.11661602539E+01  0.90007790040E+02  0.90000052068E+02 0.  0.
         12    1    1    2    0    0 -0.12832002575E+00 -0.12845148294E+00 -0.11661602539E+01  0.11802099602E+01  0.00000000000E+00 0. -1.
         11    1    3    3    0    0 -0.90525748137E+00 -0.28307240742E+01  0.13213700265E+02  0.13543794330E+02  0.51100000000E-03 0. -1.
        -11    1    3    3    0    0  0.28452297407E+02 -0.20612658164E+02  0.66492253498E+01  0.35757895664E+02  0.51100000000E-03 0.  1.
         12    1    3    3    0    0 -0.27418719900E+02  0.23571833721E+02 -0.18696765361E+02  0.40706100045E+02  0.00000000000E+00 0. -1.
</event>
<event>
 7    1  0.1698110E-015  0.9000782E+02  0.7816164E-02  0.1186339E+00
        -11   -1    0    0    0    0  0.00000000000E+00  0.00000000000E+00  0.45593999997E+02  0.45594000000E+02  0.51100000000E-03 0. -1.
         11   -1    0    0    0    0 -0.00000000000E+00 -0.00000000000E+00 -0.45593999997E+02  0.45594000000E+02  0.51100000000E-03 0.  1.
    9900012    2    1    2    0    0  0.88762746855E+00 -0.76908434768E+00  0.11596438180E+00  0.90007821626E+02  0.90000084071E+02 0.  0.
         12    1    1    2    0    0 -0.88762746855E+00  0.76908434768E+00 -0.11596438180E+00  0.11801783741E+01  0.00000000000E+00 0. -1.
         11    1    3    3    0    0  0.23719385587E+02  0.76051444558E+01 -0.34592759750E+02  0.42627532208E+02  0.51100000000E-03 0. -1.
        -11    1    3    3    0    0  0.25418332783E+01  0.31147692996E+01  0.71180013340E+01  0.81748790484E+01  0.51100000000E-03 0.  1.
        -12    1    3    3    0    0 -0.25373591396E+02 -0.11488998103E+02  0.27590722797E+02  0.39205410369E+02  0.00000000000E+00 0.  1.
</event>
<event>
 8    1  0.1698110E-015  0.9000760E+02  0.7816164E-02  0.1186339E+00
        -11   -1    0    0    0    0  0.00000000000E+00  0.00000000000E+00  0.45593999997E+02  0.45594000000E+02  0.51100000000E-03 0.  1.
         11   -1    0    0    0    0 -0.00000000000E+00 -0.00000000000E+00 -0.45593999997E+02  0.45594000000E+02  0.51100000000E-03 0. -1.
    9900012    2    1    2    0    0  0.83040333032E+00 -0.48308227386E+00 -0.68585733286E+00  0.90007602416E+02  0.89999861968E+02 0.  0.
         23    2    3    3    0    0  0.22769248505E+02 -0.24085573116E+01  0.86931889903E+01  0.66070457815E+02  0.61363621432E+02 0.  0.
         12    1    1    2    0    0 -0.83040333032E+00  0.48308227386E+00  0.68585733286E+00  0.11803975836E+01  0.00000000000E+00 0. -1.
         11    1    4    4    0    0  0.28976372980E+02 -0.20859500598E+02 -0.11993666432E+02  0.37664266766E+02  0.51100000000E-03 0. -1.
        -11    1    4    4    0    0 -0.62071244747E+01  0.18450943287E+02  0.20686855422E+02  0.28406191049E+02  0.51100000000E-03 0.  1.
        -12    1    3    3    0    0 -0.21938845175E+02  0.19254750377E+01 -0.93790463232E+01  0.23937144601E+02  0.00000000000E+00 0.  1.
</event>
<event>
 7    1  0.1698110E-015  0.9000767E+02  0.7816164E-02  0.1186339E+00
        -11   -1    0    0    0    0  0.00000000000E+00  0.00000000000E+00  0.45593999997E+02  0.45594000000E+02  0.51100000000E-03 0.  1.
         11   -1    0    0    0    0 -0.00000000000E+00 -0.00000000000E+00 -0.45593999997E+02  0.45594000000E+02  0.51100000000E-03 0. -1.
    9900012    2    1    2    0    0 -0.10436269821E+00  0.11612545771E+01  0.18375646233E+00  0.90007673688E+02  0.89999934180E+02 0.  0.
         12    1    1    2    0    0  0.10436269821E+00 -0.11612545771E+01 -0.18375646233E+00  0.11803263122E+01  0.00000000000E+00 0. -1.
         11    1    3    3    0    0 -0.29814664475E+00 -0.74107787693E+01 -0.38785217587E+02  0.39487993579E+02  0.51100000000E-03 0. -1.
        -11    1    3    3    0    0 -0.93187283740E+01 -0.74981522562E+00  0.11918157415E-01  0.93488536027E+01  0.51100000000E-03 0.  1.
        -12    1    3    3    0    0  0.95125123206E+01  0.93218485721E+01  0.38957055892E+02  0.41170826506E+02  0.00000000000E+00 0.  1.
</event>
<event>
 7    1  0.1698110E-015  0.9000770E+02  0.7816164E-02  0.1186339E+00
        -11   -1    0    0    0    0  0.00000000000E+00  0.00000000000E+00  0.45593999997E+02  0.45594000000E+02  0.51100000000E-03 0. -1.
         11   -1    0    0    0    0 -0.00000000000E+00 -0.00000000000E+00 -0.45593999997E+02  0.45594000000E+02  0.51100000000E-03 0.  1.
    9900012    2    1    2    0    0  0.10395552635E+01  0.13668271770E+00 -0.54199570411E+00  0.90007696372E+02  0.89999957164E+02 0.  0.
         12    1    1    2    0    0 -0.10395552635E+01 -0.13668271770E+00  0.54199570411E+00  0.11803036281E+01  0.00000000000E+00 0. -1.
         11    1    3    3    0    0  0.26755147238E+02 -0.28013672905E+01  0.30360504359E+02  0.40564094808E+02  0.51100000000E-03 0. -1.
        -11    1    3    3    0    0  0.27769557762E+01  0.22367746690E+01  0.33441650135E+01  0.48885666817E+01  0.51100000000E-03 0.  1.
        -12    1    3    3    0    0 -0.28492547751E+02  0.70127533922E+00 -0.34246665077E+02  0.44555034882E+02  0.00000000000E+00 0.  1.
</event>
<event>
 7    1  0.1698110E-015  0.9000681E+02  0.7816164E-02  0.1186341E+00
        -11   -1    0    0    0    0  0.00000000000E+00  0.00000000000E+00  0.45593999997E+02  0.45594000000E+02  0.51100000000E-03 0.  1.
         11   -1    0    0    0    0 -0.00000000000E+00 -0.00000000000E+00 -0.45593999997E+02  0.45594000000E+02  0.51100000000E-03 0. -1.
    9900012    2    1    2    0    0 -0.96698677853E+00 -0.67722154608E+00  0.39094877660E-01  0.90006805324E+02  0.89999054350E+02 0.  0.
         12    1    1    2    0    0  0.96698677853E+00  0.67722154608E+00 -0.39094877660E-01  0.11811946757E+01  0.00000000000E+00 0. -1.
         11    1    3    3    0    0 -0.19568350639E+02  0.28944400057E+02 -0.79938639218E+01  0.35841323944E+02  0.51100000000E-03 0. -1.
        -11    1    3    3    0    0 -0.75446970464E+01  0.58153232144E+01  0.16158833929E+01  0.96618588797E+01  0.51100000000E-03 0.  1.
        -12    1    3    3    0    0  0.26146060907E+02 -0.35436944817E+02  0.64170754065E+01  0.44503622501E+02  0.00000000000E+00 0.  1.
</event>
<event>
 7    1  0.1698110E-015  0.9000782E+02  0.7816164E-02  0.1186339E+00
        -11   -1    0    0    0    0  0.00000000000E+00  0.00000000000E+00  0.45593999997E+02  0.45594000000E+02  0.51100000000E-03 0.  1.
         11   -1    0    0    0    0 -0.00000000000E+00 -0.00000000000E+00 -0.45593999997E+02  0.45594000000E+02  0.51100000000E-03 0. -1.
    9900012    2    1    2    0    0  0.76987192561E+00 -0.96072398424E-01  0.88931694194E+00  0.90007823187E+02  0.90000085653E+02 0.  0.
         12    1    1    2    0    0 -0.76987192561E+00  0.96072398424E-01 -0.88931694194E+00  0.11801768134E+01  0.00000000000E+00 0. -1.
         11    1    3    3    0    0 -0.20203948860E+02 -0.16999820020E+02 -0.24700309364E+02  0.36156586028E+02  0.51100000000E-03 0. -1.
        -11    1    3    3    0    0  0.29411476573E+01 -0.10829999197E+02 -0.11961161131E+01  0.11285828554E+02  0.51100000000E-03 0.  1.
        -12    1    3    3    0    0  0.18032673128E+02  0.27733746818E+02  0.26785742419E+02  0.42565408604E+02  0.00000000000E+00 0.  1.
</event>
<event>
 7    1  0.1698110E-015  0.9000774E+02  0.7816164E-02  0.1186339E+00
        -11   -1    0    0    0    0  0.00000000000E+00  0.00000000000E+00  0.45593999997E+02  0.45594000000E+02  0.51100000000E-03 0.  1.
         11   -1    0    0    0    0 -0.00000000000E+00 -0.00000000000E+00 -0.45593999997E+02  0.45594000000E+02  0.51100000000E-03 0. -1.
    9900012    2    1    2    0    0 -0.75355569071E+00  0.88352773576E+00 -0.21108166530E+00  0.90007736085E+02  0.89999997402E+02 0.  0.
         12    1    1    2    0    0  0.75355569071E+00 -0.88352773576E+00  0.21108166530E+00  0.11802639147E+01  0.00000000000E+00 0. -1.
         11    1    3    3    0    0  0.10683723748E+02 -0.12526934944E+01 -0.14112242979E+02  0.17744480727E+02  0.51100000000E-03 0. -1.
        -11    1    3    3    0    0 -0.11082403436E+02 -0.33481224810E+02  0.59257539596E+01  0.35762083845E+02  0.51100000000E-03 0.  1.
         12    1    3    3    0    0 -0.35487600348E+00  0.35617446040E+02  0.79754073538E+01  0.36501171513E+02  0.00000000000E+00 0. -1.
</event>
<event>
 7    1  0.1698110E-015  0.9000772E+02  0.7816164E-02  0.1186339E+00
        -11   -1    0    0    0    0  0.00000000000E+00  0.00000000000E+00  0.45593999997E+02  0.45594000000E+02  0.51100000000E-03 0.  1.
         11   -1    0    0    0    0 -0.00000000000E+00 -0.00000000000E+00 -0.45593999997E+02  0.45594000000E+02  0.51100000000E-03 0. -1.
    9900012    2    1    2    0    0 -0.50242049457E+00  0.61860272946E+00 -0.87061000621E+00  0.90007721443E+02  0.89999982566E+02 0.  0.
         12    1    1    2    0    0  0.50242049457E+00 -0.61860272946E+00  0.87061000621E+00  0.11802785575E+01  0.00000000000E+00 0. -1.
         11    1    3    3    0    0 -0.12590603721E+02  0.39575353887E+02 -0.49916136850E+01  0.41828795641E+02  0.51100000000E-03 0. -1.
        -11    1    3    3    0    0 -0.42101213384E+01 -0.53634156422E+01 -0.64367119736E+01  0.93767057290E+01  0.51100000000E-03 0.  1.
        -12    1    3    3    0    0  0.16298304565E+02 -0.33593335515E+02  0.10557715652E+02  0.38802220072E+02  0.00000000000E+00 0.  1.
</event>
<event>
 7    1  0.1698110E-015  0.9000786E+02  0.7816164E-02  0.1186339E+00
        -11   -1    0    0    0    0  0.00000000000E+00  0.00000000000E+00  0.45593999997E+02  0.45594000000E+02  0.51100000000E-03 0.  1.
         11   -1    0    0    0    0 -0.00000000000E+00 -0.00000000000E+00 -0.45593999997E+02  0.45594000000E+02  0.51100000000E-03 0. -1.
    9900012    2    1    2    0    0 -0.78976343770E+00  0.84613575599E-01  0.87283235743E+00  0.90007863538E+02  0.90000126537E+02 0.  0.
         12    1    1    2    0    0  0.78976343770E+00 -0.84613575599E-01 -0.87283235743E+00  0.11801364620E+01  0.00000000000E+00 0. -1.
         11    1    3    3    0    0 -0.11126223878E+02  0.62226312441E+01 -0.17616159219E+01  0.12869238062E+02  0.51100000000E-03 0. -1.
        -11    1    3    3    0    0 -0.31895691282E+02  0.73245247328E+01  0.23735900967E+01  0.32811853272E+02  0.51100000000E-03 0.  1.
         12    1    3    3    0    0  0.42232151723E+02 -0.13462542401E+02  0.26085818260E+00  0.44326772204E+02  0.00000000000E+00 0. -1.
</event>
<event>
 7    1  0.1698110E-015  0.9000777E+02  0.7816164E-02  0.1186339E+00
        -11   -1    0    0    0    0  0.00000000000E+00  0.00000000000E+00  0.45593999997E+02  0.45594000000E+02  0.51100000000E-03 0.  1.
         11   -1    0    0    0    0 -0.00000000000E+00 -0.00000000000E+00 -0.45593999997E+02  0.45594000000E+02  0.51100000000E-03 0. -1.
    9900012    2    1    2    0    0  0.90912581310E+00 -0.21749743544E+00  0.72050188944E+00  0.90007772119E+02  0.90000033911E+02 0.  0.
         12    1    1    2    0    0 -0.90912581310E+00  0.21749743544E+00 -0.72050188944E+00  0.11802278810E+01  0.00000000000E+00 0. -1.
         11    1    3    3    0    0  0.58404603515E+01 -0.39174141882E+01  0.67286883785E+00  0.70646913431E+01  0.51100000000E-03 0. -1.
        -11    1    3    3    0    0  0.70622278613E+01  0.17471400005E+02  0.37112885150E+02  0.41623204165E+02  0.51100000000E-03 0.  1.
         12    1    3    3    0    0 -0.11993562400E+02 -0.13771483252E+02 -0.37065252099E+02  0.41319876611E+02  0.00000000000E+00 0. -1.
</event>
<event>
 7    1  0.2304761E-015  0.9000780E+02  0.7816164E-02  0.1186339E+00
        -11   -1    0    0    0    0  0.00000000000E+00  0.00000000000E+00  0.45593999997E+02  0.45594000000E+02  0.51100000000E-03 0.  1.
         11   -1    0    0    0    0 -0.00000000000E+00 -0.00000000000E+00 -0.45593999997E+02  0.45594000000E+02  0.51100000000E-03 0. -1.
    9900012    2    1    2    0    0  0.10307558458E+01  0.22852804959E+00  0.52742948890E+00  0.90007803174E+02  0.90000065376E+02 0.  0.
         12    1    1    2    0    0 -0.10307558458E+01 -0.22852804959E+00 -0.52742948890E+00  0.11801968263E+01  0.00000000000E+00 0. -1.
         11    1    3    3    0    0  0.60939353712E+01  0.70310710870E+01  0.19385105087E+01  0.95042007656E+01  0.51100000000E-03 0. -1.
        -11    1    3    3    0    0  0.60395721375E+01  0.15814291214E+02  0.33450794808E+02  0.37490317573E+02  0.51100000000E-03 0.  1.
         12    1    3    3    0    0 -0.11102751663E+02 -0.22616834252E+02 -0.34861875828E+02  0.43013284835E+02  0.00000000000E+00 0. -1.
</event>
<event>
 7    1  0.1698110E-015  0.9000774E+02  0.7816164E-02  0.1186339E+00
        -11   -1    0    0    0    0  0.00000000000E+00  0.00000000000E+00  0.45593999997E+02  0.45594000000E+02  0.51100000000E-03 0. -1.
         11   -1    0    0    0    0 -0.00000000000E+00 -0.00000000000E+00 -0.45593999997E+02  0.45594000000E+02  0.51100000000E-03 0.  1.
    9900012    2    1    2    0    0 -0.38594869494E+00  0.93104168032E+00 -0.61417970212E+00  0.90007740828E+02  0.90000002207E+02 0.  0.
         12    1    1    2    0    0  0.38594869494E+00 -0.93104168032E+00  0.61417970212E+00  0.11802591716E+01  0.00000000000E+00 0. -1.
         11    1    3    3    0    0 -0.25714617579E+02 -0.23340948922E+02 -0.57509210186E+01  0.35201058885E+02  0.51100000000E-03 0. -1.
        -11    1    3    3    0    0  0.20666724987E+01 -0.10762388313E+02 -0.41869979229E+01  0.11731627733E+02  0.51100000000E-03 0.  1.
        -12    1    3    3    0    0  0.23261996385E+02  0.35034378915E+02  0.93237392394E+01  0.43075054210E+02  0.00000000000E+00 0.  1.
</event>
<event>
 7    1  0.1698110E-015  0.9000761E+02  0.7816164E-02  0.1186339E+00
        -11   -1    0    0    0    0  0.00000000000E+00  0.00000000000E+00  0.45593999997E+02  0.45594000000E+02  0.51100000000E-03 0. -1.
         11   -1    0    0    0    0 -0.00000000000E+00 -0.00000000000E+00 -0.45593999997E+02  0.45594000000E+02  0.51100000000E-03 0.  1.
    9900012    2    1    2    0    0  0.77502212291E+00 -0.86618565451E+00  0.20585955181E+00  0.90007612337E+02  0.89999872020E+02 0.  0.
         12    1    1    2    0    0 -0.77502212291E+00  0.86618565451E+00 -0.20585955181E+00  0.11803876627E+01  0.00000000000E+00 0. -1.
         11    1    3    3    0    0  0.26025163781E+02  0.82790494223E+01 -0.27868890987E+02  0.39019570657E+02  0.51100000000E-03 0. -1.
        -11    1    3    3    0    0  0.76865946817E+01 -0.19396881342E+01  0.15230644151E+01  0.80725369824E+01  0.51100000000E-03 0.  1.
        -12    1    3    3    0    0 -0.32936736340E+02 -0.72055469426E+01  0.26551686123E+02  0.42915504698E+02  0.00000000000E+00 0.  1.
</event>
<event>
 7    1  0.1698110E-015  0.9000801E+02  0.7816164E-02  0.1186339E+00
        -11   -1    0    0    0    0  0.00000000000E+00  0.00000000000E+00  0.45593999997E+02  0.45594000000E+02  0.51100000000E-03 0. -1.
         11   -1    0    0    0    0 -0.00000000000E+00 -0.00000000000E+00 -0.45593999997E+02  0.45594000000E+02  0.51100000000E-03 0.  1.
    9900012    2    1    2    0    0 -0.93241154712E+00  0.47789771634E+00 -0.54276775040E+00  0.90008010868E+02  0.90000275811E+02 0.  0.
         12    1    1    2    0    0  0.93241154712E+00 -0.47789771634E+00  0.54276775040E+00  0.11799891319E+01  0.00000000000E+00 0. -1.
         11    1    3    3    0    0 -0.18661977547E+01  0.96184855603E+01 -0.12841003135E+01  0.98816432039E+01  0.51100000000E-03 0. -1.
        -11    1    3    3    0    0  0.35925682257E+02 -0.54231864677E+01  0.18432276573E+02  0.40740820034E+02  0.51100000000E-03 0.  1.
         12    1    3    3    0    0 -0.34991896050E+02 -0.37174013763E+01 -0.17690944010E+02  0.39385547630E+02  0.00000000000E+00 0. -1.
</event>
<event>
 7    1  0.1698110E-015  0.9000771E+02  0.7816164E-02  0.1186339E+00
        -11   -1    0    0    0    0  0.00000000000E+00  0.00000000000E+00  0.45593999997E+02  0.45594000000E+02  0.51100000000E-03 0.  1.
         11   -1    0    0    0    0 -0.00000000000E+00 -0.00000000000E+00 -0.45593999997E+02  0.45594000000E+02  0.51100000000E-03 0. -1.
    9900012    2    1    2    0    0 -0.68681808655E+00  0.67694208512E+00 -0.68051883884E+00  0.90007713780E+02  0.89999974802E+02 0.  0.
         12    1    1    2    0    0  0.68681808655E+00 -0.67694208512E+00  0.68051883884E+00  0.11802862198E+01  0.00000000000E+00 0. -1.
         11    1    3    3    0    0  0.21542369531E+02 -0.18619514842E+02  0.25860923889E+01  0.28591045662E+02  0.51100000000E-03 0. -1.
        -11    1    3    3    0    0 -0.56750316922E-01 -0.82639246330E+01  0.18236279706E+02  0.20021427739E+02  0.51100000000E-03 0.  1.
         12    1    3    3    0    0 -0.22172437300E+02  0.27560381560E+02 -0.21502890933E+02  0.41395240379E+02  0.00000000000E+00 0. -1.
</event>
<event>
 7    1  0.1698110E-015  0.9000773E+02  0.7816164E-02  0.1186339E+00
        -11   -1    0    0    0    0  0.00000000000E+00  0.00000000000E+00  0.45593999997E+02  0.45594000000E+02  0.51100000000E-03 0.  1.
         11   -1    0    0    0    0 -0.00000000000E+00 -0.00000000000E+00 -0.45593999997E+02  0.45594000000E+02  0.51100000000E-03 0. -1.
    9900012    2    1    2    0    0  0.44202546317E+00  0.10618145547E+01  0.26494404454E+00  0.90007732231E+02  0.89999993497E+02 0.  0.
         12    1    1    2    0    0 -0.44202546317E+00 -0.10618145547E+01 -0.26494404454E+00  0.11802677685E+01  0.00000000000E+00 0. -1.
         11    1    3    3    0    0 -0.13258417796E+01  0.56836523414E+01  0.63597669649E+01  0.86318246316E+01  0.51100000000E-03 0. -1.
        -11    1    3    3    0    0  0.27659185108E+02  0.51193921384E+01  0.26485440057E+02  0.38635698932E+02  0.51100000000E-03 0.  1.
         12    1    3    3    0    0 -0.25891317865E+02 -0.97412299251E+01 -0.32580262978E+02  0.42740208667E+02  0.00000000000E+00 0. -1.
</event>
<event>
 7    1  0.1698110E-015  0.9000780E+02  0.7816164E-02  0.1186339E+00
        -11   -1    0    0    0    0  0.00000000000E+00  0.00000000000E+00  0.45593999997E+02  0.45594000000E+02  0.51100000000E-03 0.  1.
         11   -1    0    0    0    0 -0.00000000000E+00 -0.00000000000E+00 -0.45593999997E+02  0.45594000000E+02  0.51100000000E-03 0. -1.
    9900012    2    1    2    0    0 -0.12570545479E+00  0.10266879417E+00  0.11689858792E+01  0.90007800556E+02  0.90000062723E+02 0.  0.
         12    1    1    2    0    0  0.12570545479E+00 -0.10266879417E+00 -0.11689858792E+01  0.11801994444E+01  0.00000000000E+00 0. -1.
         11    1    3    3    0    0 -0.38515848924E+01 -0.13997331791E+02 -0.17502056484E+02  0.22739436776E+02  0.51100000000E-03 0. -1.
        -11    1    3    3    0    0 -0.27413703771E+02  0.10456995041E+02 -0.24860016103E+01  0.29445544722E+02  0.51100000000E-03 0.  1.
        -12    1    3    3    0    0  0.31139583208E+02  0.36430055439E+01  0.21157043974E+02  0.37822819058E+02  0.00000000000E+00 0.  1.
</event>
<event>
 7    1  0.1698110E-015  0.9000776E+02  0.7816164E-02  0.1186339E+00
        -11   -1    0    0    0    0  0.00000000000E+00  0.00000000000E+00  0.45593999997E+02  0.45594000000E+02  0.51100000000E-03 0.  1.
         11   -1    0    0    0    0 -0.00000000000E+00 -0.00000000000E+00 -0.45593999997E+02  0.45594000000E+02  0.51100000000E-03 0. -1.
    9900012    2    1    2    0    0  0.26410773376E+00 -0.66232214097E+00  0.94050483948E+00  0.90007757285E+02  0.90000018881E+02 0.  0.
         12    1    1    2    0    0 -0.26410773376E+00  0.66232214097E+00 -0.94050483948E+00  0.11802427151E+01  0.00000000000E+00 0. -1.
         11    1    3    3    0    0 -0.79654197996E+01 -0.17553892518E+01  0.10359439007E+01  0.82220729768E+01  0.51100000000E-03 0. -1.
        -11    1    3    3    0    0  0.38629073539E+02 -0.19795027933E+02  0.77088626595E+01  0.44084861542E+02  0.51100000000E-03 0.  1.
         12    1    3    3    0    0 -0.30399546006E+02  0.20888095044E+02 -0.78043017207E+01  0.37700822767E+02  0.00000000000E+00 0. -1.
</event>
<event>
 7    1  0.1698110E-015  0.9000776E+02  0.7816164E-02  0.1186339E+00
        -11   -1    0    0    0    0  0.00000000000E+00  0.00000000000E+00  0.45593999997E+02  0.45594000000E+02  0.51100000000E-03 0.  1.
         11   -1    0    0    0    0 -0.00000000000E+00 -0.00000000000E+00 -0.45593999997E+02  0.45594000000E+02  0.51100000000E-03 0. -1.
    9900012    2    1    2    0    0  0.10070688236E+01  0.35079358838E+00 -0.50570119339E+00  0.90007755341E+02  0.90000016912E+02 0.  0.
         12    1    1    2    0    0 -0.10070688236E+01 -0.35079358838E+00  0.50570119339E+00  0.11802446586E+01  0.00000000000E+00 0. -1.
         11    1    3    3    0    0 -0.93565943866E+01 -0.25151295671E+01 -0.12974255928E+01  0.97752262728E+01  0.51100000000E-03 0. -1.
        -11    1    3    3    0    0 -0.21137204803E+01  0.27104249019E+02  0.29859119818E+02  0.40381619156E+02  0.51100000000E-03 0.  1.
         12    1    3    3    0    0  0.12477383691E+02 -0.24238325863E+02 -0.29067395419E+02  0.39850909912E+02  0.00000000000E+00 0. -1.
</event>
<event>
 7    1  0.1698110E-015  0.9000776E+02  0.7816164E-02  0.1186339E+00
        -11   -1    0    0    0    0  0.00000000000E+00  0.00000000000E+00  0.45593999997E+02  0.45594000000E+02  0.51100000000E-03 0. -1.
         11   -1    0    0    0    0 -0.00000000000E+00 -0.00000000000E+00 -0.45593999997E+02  0.45594000000E+02  0.51100000000E-03 0.  1.
    9900012    2    1    2    0    0 -0.58298022599E+00  0.10103326864E+01 -0.17977181067E+00  0.90007764437E+02  0.90000026127E+02 0.  0.
         12    1    1    2    0    0  0.58298022599E+00 -0.10103326864E+01  0.17977181067E+00  0.11802355634E+01  0.00000000000E+00 0. -1.
         11    1    3    3    0    0 -0.70244533356E+01 -0.34604166067E+02  0.16655393691E+02  0.39040919471E+02  0.51100000000E-03 0. -1.
        -11    1    3    3    0    0 -0.87160969974E+01  0.40218457839E+01  0.37744051843E+01  0.10314636452E+02  0.51100000000E-03 0.  1.
        -12    1    3    3    0    0  0.15157570107E+02  0.31592652970E+02 -0.20609570686E+02  0.40652208514E+02  0.00000000000E+00 0.  1.
</event>
<event>
 7    1  0.1698110E-015  0.9000696E+02  0.7816164E-02  0.1186341E+00
        -11   -1    0    0    0    0  0.00000000000E+00  0.00000000000E+00  0.45593999997E+02  0.45594000000E+02  0.51100000000E-03 0. -1.
         11   -1    0    0    0    0 -0.00000000000E+00 -0.00000000000E+00 -0.45593999997E+02  0.45594000000E+02  0.51100000000E-03 0.  1.
    9900012    2    1    2    0    0 -0.82754702533E+00 -0.52995142283E+00 -0.65511763718E+00  0.90006957364E+02  0.89999208398E+02 0.  0.
         12    1    1    2    0    0  0.82754702533E+00  0.52995142283E+00  0.65511763718E+00  0.11810426361E+01  0.00000000000E+00 0. -1.
         11    1    3    3    0    0 -0.10441903769E+01 -0.72104918646E+01  0.44642678160E+01  0.85446599620E+01  0.51100000000E-03 0. -1.
        -11    1    3    3    0    0 -0.23177899570E+02 -0.24683669318E+02 -0.20315374846E+02  0.39486871424E+02  0.51100000000E-03 0.  1.
         12    1    3    3    0    0  0.23394542922E+02  0.31364209760E+02  0.15195989392E+02  0.41975425978E+02  0.00000000000E+00 0. -1.
</event>
<event>
 7    1  0.1698110E-015  0.9000769E+02  0.7816164E-02  0.1186339E+00
        -11   -1    0    0    0    0  0.00000000000E+00  0.00000000000E+00  0.45593999997E+02  0.45594000000E+02  0.51100000000E-03 0. -1.
         11   -1    0    0    0    0 -0.00000000000E+00 -0.00000000000E+00 -0.45593999997E+02  0.45594000000E+02  0.51100000000E-03 0.  1.
    9900012    2    1    2    0    0 -0.29590757553E+00  0.11003637114E+01  0.30782861806E+00  0.90007694934E+02  0.89999955707E+02 0.  0.
         12    1    1    2    0    0  0.29590757553E+00 -0.11003637114E+01 -0.30782861806E+00  0.11803050660E+01  0.00000000000E+00 0. -1.
         11    1    3    3    0    0  0.14534560782E+02 -0.21063437357E+02  0.24171932954E+02  0.35202332215E+02  0.51100000000E-03 0. -1.
        -11    1    3    3    0    0  0.67113001173E+01 -0.34668797298E+01  0.62266972714E+01  0.97894107839E+01  0.51100000000E-03 0.  1.
        -12    1    3    3    0    0 -0.21541768475E+02  0.25630680798E+02 -0.30090801607E+02  0.45015951935E+02  0.00000000000E+00 0.  1.
</event>
<event>
 7    1  0.1698110E-015  0.9000781E+02  0.7816164E-02  0.1186339E+00
        -11   -1    0    0    0    0  0.00000000000E+00  0.00000000000E+00  0.45593999997E+02  0.45594000000E+02  0.51100000000E-03 0.  1.
         11   -1    0    0    0    0 -0.00000000000E+00 -0.00000000000E+00 -0.45593999997E+02  0.45594000000E+02  0.51100000000E-03 0. -1.
    9900012    2    1    2    0    0 -0.74748314074E+00  0.88092641129E+00  0.24099627073E+00  0.90007812900E+02  0.90000075231E+02 0.  0.
         12    1    1    2    0    0  0.74748314074E+00 -0.88092641129E+00 -0.24099627073E+00  0.11801870997E+01  0.00000000000E+00 0. -1.
         11    1    3    3    0    0  0.81911716465E+01  0.22789207312E+01 -0.20416406985E+01  0.87439733327E+01  0.51100000000E-03 0. -1.
        -11    1    3    3    0    0 -0.28449000021E+02 -0.33095389506E+02  0.50864590611E+01  0.43937711306E+02  0.51100000000E-03 0.  1.
         12    1    3    3    0    0  0.19510345234E+02  0.31697395186E+02 -0.28038220919E+01  0.37326128262E+02  0.00000000000E+00 0. -1.
</event>
<event>
 7    1  0.1698110E-015  0.9000768E+02  0.7816164E-02  0.1186339E+00
        -11   -1    0    0    0    0  0.00000000000E+00  0.00000000000E+00  0.45593999997E+02  0.45594000000E+02  0.51100000000E-03 0. -1.
         11   -1    0    0    0    0 -0.00000000000E+00 -0.00000000000E+00 -0.45593999997E+02  0.45594000000E+02  0.51100000000E-03 0.  1.
    9900012    2    1    2    0    0  0.41635402491E+00  0.54152580627E+00 -0.96257169175E+00  0.90007684307E+02  0.89999944940E+02 0.  0.
         12    1    1    2    0    0 -0.41635402491E+00 -0.54152580627E+00  0.96257169175E+00  0.11803156928E+01  0.00000000000E+00 0. -1.
         11    1    3    3    0    0  0.13400302276E+01 -0.56245430181E+01  0.36795707460E+02  0.37247218056E+02  0.51100000000E-03 0. -1.
        -11    1    3    3    0    0 -0.10070665955E+02 -0.11141793747E+01  0.28317932743E+01  0.10520397420E+02  0.51100000000E-03 0.  1.
        -12    1    3    3    0    0  0.91469897527E+01  0.72802481990E+01 -0.40590072426E+02  0.42240068832E+02  0.00000000000E+00 0.  1.
</event>
<event>
 7    1  0.1882091E-015  0.9000775E+02  0.7816164E-02  0.1186339E+00
        -11   -1    0    0    0    0  0.00000000000E+00  0.00000000000E+00  0.45593999997E+02  0.45594000000E+02  0.51100000000E-03 0. -1.
         11   -1    0    0    0    0 -0.00000000000E+00 -0.00000000000E+00 -0.45593999997E+02  0.45594000000E+02  0.51100000000E-03 0.  1.
    9900012    2    1    2    0    0 -0.11231117683E+01 -0.12043013534E+00 -0.34220532812E+00  0.90007750896E+02  0.90000012407E+02 0.  0.
         12    1    1    2    0    0  0.11231117683E+01  0.12043013534E+00  0.34220532812E+00  0.11802491043E+01  0.00000000000E+00 0. -1.
         11    1    3    3    0    0  0.31363026389E+01  0.28520717440E+01  0.91189621665E+01  0.10056151288E+02  0.51100000000E-03 0. -1.
        -11    1    3    3    0    0 -0.12238470135E+02  0.36564031004E+02 -0.90963304208E+01  0.39616306515E+02  0.51100000000E-03 0.  1.
         12    1    3    3    0    0  0.79790557281E+01 -0.39536532883E+02 -0.36483707382E+00  0.40335293092E+02  0.00000000000E+00 0. -1.
</event>
<event>
 7    1  0.1698110E-015  0.9000776E+02  0.7816164E-02  0.1186339E+00
        -11   -1    0    0    0    0  0.00000000000E+00  0.00000000000E+00  0.45593999997E+02  0.45594000000E+02  0.51100000000E-03 0.  1.
         11   -1    0    0    0    0 -0.00000000000E+00 -0.00000000000E+00 -0.45593999997E+02  0.45594000000E+02  0.51100000000E-03 0. -1.
    9900012    2    1    2    0    0 -0.93757300006E+00  0.71379853697E+00 -0.66457897067E-01  0.90007759290E+02  0.90000020912E+02 0.  0.
         12    1    1    2    0    0  0.93757300006E+00 -0.71379853697E+00  0.66457897067E-01  0.11802407102E+01  0.00000000000E+00 0. -1.
         11    1    3    3    0    0  0.59350898857E+01 -0.68720884365E+01  0.38479404782E+01  0.98619236265E+01  0.51100000000E-03 0. -1.
        -11    1    3    3    0    0 -0.25558147744E+02  0.36455791029E+02  0.44790412865E+01  0.44747127581E+02  0.51100000000E-03 0.  1.
         12    1    3    3    0    0  0.18685484859E+02 -0.28869904055E+02 -0.83934396617E+01  0.35398708082E+02  0.00000000000E+00 0. -1.
</event>
<event>
 7    1  0.1698110E-015  0.9000790E+02  0.7816164E-02  0.1186339E+00
        -11   -1    0    0    0    0  0.00000000000E+00  0.00000000000E+00  0.45593999997E+02  0.45594000000E+02  0.51100000000E-03 0.  1.
         11   -1    0    0    0    0 -0.00000000000E+00 -0.00000000000E+00 -0.45593999997E+02  0.45594000000E+02  0.51100000000E-03 0. -1.
    9900012    2    1    2    0    0  0.11681503474E+01 -0.16638199025E+00  0.19710455237E-01  0.90007895469E+02  0.90000158890E+02 0.  0.
         12    1    1    2    0    0 -0.11681503474E+01  0.16638199025E+00 -0.19710455237E-01  0.11801045305E+01  0.00000000000E+00 0. -1.
         11    1    3    3    0    0  0.61348131103E+01  0.85790653188E+00 -0.55297568502E+01  0.83036224986E+01  0.51100000000E-03 0. -1.
        -11    1    3    3    0    0 -0.14282911671E+02  0.36176584520E+02  0.15843272234E+02  0.41997096432E+02  0.51100000000E-03 0.  1.
         12    1    3    3    0    0  0.93162489078E+01 -0.37200873042E+02 -0.10293804929E+02  0.39707176539E+02  0.00000000000E+00 0. -1.
</event>
<event>
 7    1  0.1698110E-015  0.9000774E+02  0.7816164E-02  0.1186339E+00
        -11   -1    0    0    0    0  0.00000000000E+00  0.00000000000E+00  0.45593999997E+02  0.45594000000E+02  0.51100000000E-03 0. -1.
         11   -1    0    0    0    0 -0.00000000000E+00 -0.00000000000E+00 -0.45593999997E+02  0.45594000000E+02  0.51100000000E-03 0.  1.
    9900012    2    1    2    0    0 -0.15300478726E+00  0.11053344502E+01 -0.38450931455E+00  0.90007736417E+02  0.89999997738E+02 0.  0.
         12    1    1    2    0    0  0.15300478726E+00 -0.11053344502E+01  0.38450931455E+00  0.11802635827E+01  0.00000000000E+00 0. -1.
         11    1    3    3    0    0  0.44631436987E+01 -0.15021108902E+02  0.30183460585E+02  0.34008743838E+02  0.51100000000E-03 0. -1.
        -11    1    3    3    0    0  0.12704768585E+02 -0.50237633878E+01  0.16323392873E+01  0.13759137879E+02  0.51100000000E-03 0.  1.
        -12    1    3    3    0    0 -0.17320917071E+02  0.21150206740E+02 -0.32200309187E+02  0.42239854700E+02  0.00000000000E+00 0.  1.
</event>
<event>
 7    1  0.1698110E-015  0.9000774E+02  0.7816164E-02  0.1186339E+00
        -11   -1    0    0    0    0  0.00000000000E+00  0.00000000000E+00  0.45593999997E+02  0.45594000000E+02  0.51100000000E-03 0. -1.
         11   -1    0    0    0    0 -0.00000000000E+00 -0.00000000000E+00 -0.45593999997E+02  0.45594000000E+02  0.51100000000E-03 0.  1.
    9900012    2    1    2    0    0  0.10127947229E+01 -0.58836104124E+00 -0.14521349773E+00  0.90007742051E+02  0.90000003446E+02 0.  0.
         12    1    1    2    0    0 -0.10127947229E+01  0.58836104124E+00  0.14521349773E+00  0.11802579487E+01  0.00000000000E+00 0. -1.
         11    1    3    3    0    0 -0.62151218079E+01 -0.57270915705E+01 -0.78822886330E+01  0.11556720612E+02  0.51100000000E-03 0. -1.
        -11    1    3    3    0    0 -0.24790465311E+02  0.10929571148E+02 -0.21592983522E+02  0.34645052078E+02  0.51100000000E-03 0.  1.
         12    1    3    3    0    0  0.32018381842E+02 -0.57908406185E+01  0.29330058657E+02  0.43805969362E+02  0.00000000000E+00 0. -1.
</event>
<event>
 7    1  0.1698110E-015  0.9000777E+02  0.7816164E-02  0.1186339E+00
        -11   -1    0    0    0    0  0.00000000000E+00  0.00000000000E+00  0.45593999997E+02  0.45594000000E+02  0.51100000000E-03 0. -1.
         11   -1    0    0    0    0 -0.00000000000E+00 -0.00000000000E+00 -0.45593999997E+02  0.45594000000E+02  0.51100000000E-03 0.  1.
    9900012    2    1    2    0    0  0.36478020583E+00 -0.88645756201E+00  0.68852014426E+00  0.90007774769E+02  0.90000036596E+02 0.  0.
         12    1    1    2    0    0 -0.36478020583E+00  0.88645756201E+00 -0.68852014426E+00  0.11802252314E+01  0.00000000000E+00 0. -1.
         11    1    3    3    0    0  0.10945435196E+02  0.21945489836E+02  0.20950912150E+02  0.32254422890E+02  0.51100000000E-03 0. -1.
        -11    1    3    3    0    0 -0.13070612484E+02  0.12840607110E+02 -0.69263957701E+01  0.19588186753E+02  0.51100000000E-03 0.  1.
        -12    1    3    3    0    0  0.24899574937E+01 -0.35672554508E+02 -0.13335996235E+02  0.38165165126E+02  0.00000000000E+00 0.  1.
</event>
<event>
 7    1  0.1698110E-015  0.9000768E+02  0.7816164E-02  0.1186339E+00
        -11   -1    0    0    0    0  0.00000000000E+00  0.00000000000E+00  0.45593999997E+02  0.45594000000E+02  0.51100000000E-03 0.  1.
         11   -1    0    0    0    0 -0.00000000000E+00 -0.00000000000E+00 -0.45593999997E+02  0.45594000000E+02  0.51100000000E-03 0. -1.
    9900012    2    1    2    0    0 -0.12791864451E+00 -0.38563600566E+00  0.11081883608E+01  0.90007678115E+02  0.89999938666E+02 0.  0.
         12    1    1    2    0    0  0.12791864451E+00  0.38563600566E+00 -0.11081883608E+01  0.11803218847E+01  0.00000000000E+00 0. -1.
         11    1    3    3    0    0 -0.80999298930E+00  0.55211396202E+01 -0.35912163321E+02  0.36343122403E+02  0.51100000000E-03 0. -1.
        -11    1    3    3    0    0 -0.63624064280E+01 -0.17844848225E+01 -0.65690609858E+01  0.93175728671E+01  0.51100000000E-03 0.  1.
        -12    1    3    3    0    0  0.70444807728E+01 -0.41222908034E+01  0.43589412667E+02  0.44346982846E+02  0.00000000000E+00 0.  1.
</event>
<event>
 7    1  0.1698110E-015  0.9000776E+02  0.7816164E-02  0.1186339E+00
        -11   -1    0    0    0    0  0.00000000000E+00  0.00000000000E+00  0.45593999997E+02  0.45594000000E+02  0.51100000000E-03 0. -1.
         11   -1    0    0    0    0 -0.00000000000E+00 -0.00000000000E+00 -0.45593999997E+02  0.45594000000E+02  0.51100000000E-03 0.  1.
    9900012    2    1    2    0    0  0.74079417827E+00 -0.90542885398E+00  0.15618257483E+00  0.90007758321E+02  0.90000019931E+02 0.  0.
         12    1    1    2    0    0 -0.74079417827E+00  0.90542885398E+00 -0.15618257483E+00  0.11802416790E+01  0.00000000000E+00 0. -1.
         11    1    3    3    0    0  0.11132750423E+02  0.34580119874E+02 -0.15532569794E+02  0.39509284316E+02  0.51100000000E-03 0. -1.
        -11    1    3    3    0    0  0.73853160619E+01  0.42749055487E+00 -0.17688769610E+00  0.73997926340E+01  0.51100000000E-03 0.  1.
        -12    1    3    3    0    0 -0.17777272307E+02 -0.35913039283E+02  0.15865640065E+02  0.43098681371E+02  0.00000000000E+00 0.  1.
</event>
<event>
 7    1  0.1698110E-015  0.9000771E+02  0.7816164E-02  0.1186339E+00
        -11   -1    0    0    0    0  0.00000000000E+00  0.00000000000E+00  0.45593999997E+02  0.45594000000E+02  0.51100000000E-03 0.  1.
         11   -1    0    0    0    0 -0.00000000000E+00 -0.00000000000E+00 -0.45593999997E+02  0.45594000000E+02  0.51100000000E-03 0. -1.
    9900012    2    1    2    0    0 -0.26320925496E+00 -0.72197557970E+00  0.89584966977E+00  0.90007714238E+02  0.89999975266E+02 0.  0.
         12    1    1    2    0    0  0.26320925496E+00  0.72197557970E+00 -0.89584966977E+00  0.11802857622E+01  0.00000000000E+00 0. -1.
         11    1    3    3    0    0 -0.50311759718E+00 -0.38361277239E+01  0.98621554048E+01  0.10593918667E+02  0.51100000000E-03 0. -1.
        -11    1    3    3    0    0 -0.32607640510E+02 -0.67450048374E+01 -0.24919041347E+02  0.41589805624E+02  0.51100000000E-03 0.  1.
         12    1    3    3    0    0  0.32847548853E+02  0.98591569816E+01  0.15952735612E+02  0.37823989947E+02  0.00000000000E+00 0. -1.
</event>
<event>
 7    1  0.1698110E-015  0.9000763E+02  0.7816164E-02  0.1186339E+00
        -11   -1    0    0    0    0  0.00000000000E+00  0.00000000000E+00  0.45593999997E+02  0.45594000000E+02  0.51100000000E-03 0. -1.
         11   -1    0    0    0    0 -0.00000000000E+00 -0.00000000000E+00 -0.45593999997E+02  0.45594000000E+02  0.51100000000E-03 0.  1.
    9900012    2    1    2    0    0 -0.89990237585E+00  0.34622948718E+00 -0.68085418570E+00  0.90007634986E+02  0.89999894968E+02 0.  0.
         12    1    1    2    0    0  0.89990237585E+00 -0.34622948718E+00  0.68085418570E+00  0.11803650139E+01  0.00000000000E+00 0. -1.
         11    1    3    3    0    0  0.30227576368E+02  0.89446341605E+01  0.30483210107E+02  0.43851327825E+02  0.51100000000E-03 0. -1.
        -11    1    3    3    0    0 -0.83646904565E+01 -0.48336222390E+01 -0.38444505663E+01  0.10397680068E+02  0.51100000000E-03 0.  1.
        -12    1    3    3    0    0 -0.22762788287E+02 -0.37647824343E+01 -0.27319613727E+02  0.35758627093E+02  0.00000000000E+00 0.  1.
</event>
<event>
 7    1  0.1698110E-015  0.9000780E+02  0.7816164E-02  0.1186339E+00
        -11   -1    0    0    0    0  0.00000000000E+00  0.00000000000E+00  0.45593999997E+02  0.45594000000E+02  0.51100000000E-03 0.  1.
         11   -1    0    0    0    0 -0.00000000000E+00 -0.00000000000E+00 -0.45593999997E+02  0.45594000000E+02  0.51100000000E-03 0. -1.
    9900012    2    1    2    0    0  0.50016412040E-01  0.16428072847E+00  0.11676369695E+01  0.90007802605E+02  0.90000064799E+02 0.  0.
         12    1    1    2    0    0 -0.50016412040E-01 -0.16428072847E+00 -0.11676369695E+01  0.11801973953E+01  0.00000000000E+00 0. -1.
         11    1    3    3    0    0  0.51243170627E+01  0.31619790187E+00 -0.48241939083E+01  0.70449594462E+01  0.51100000000E-03 0. -1.
        -11    1    3    3    0    0  0.12574361368E+02  0.34855266101E+02  0.19019968162E+02  0.41650490128E+02  0.51100000000E-03 0.  1.
         12    1    3    3    0    0 -0.17648662018E+02 -0.35007183274E+02 -0.13028137284E+02  0.41312353031E+02  0.00000000000E+00 0. -1.
</event>
<event>
 7    1  0.1698110E-015  0.9000776E+02  0.7816164E-02  0.1186339E+00
        -11   -1    0    0    0    0  0.00000000000E+00  0.00000000000E+00  0.45593999997E+02  0.45594000000E+02  0.51100000000E-03 0. -1.
         11   -1    0    0    0    0 -0.00000000000E+00 -0.00000000000E+00 -0.45593999997E+02  0.45594000000E+02  0.51100000000E-03 0.  1.
    9900012    2    1    2    0    0 -0.26174744663E+00  0.81299676286E+00 -0.81454318632E+00  0.90007764403E+02  0.90000026093E+02 0.  0.
         12    1    1    2    0    0  0.26174744663E+00 -0.81299676286E+00  0.81454318632E+00  0.11802355971E+01  0.00000000000E+00 0. -1.
         11    1    3    3    0    0  0.29105184538E+02 -0.25271433548E+01  0.29581946091E+02  0.41576312430E+02  0.51100000000E-03 0. -1.
        -11    1    3    3    0    0 -0.39433378570E+01 -0.86849284994E+01 -0.87166162288E+01  0.12921195581E+02  0.51100000000E-03 0.  1.
        -12    1    3    3    0    0 -0.25423594128E+02  0.12025068617E+02 -0.21679873048E+02  0.35510256392E+02  0.00000000000E+00 0.  1.
</event>
<event>
 7    1  0.2125227E-015  0.9000777E+02  0.7816164E-02  0.1186339E+00
        -11   -1    0    0    0    0  0.00000000000E+00  0.00000000000E+00  0.45593999997E+02  0.45594000000E+02  0.51100000000E-03 0.  1.
         11   -1    0    0    0    0 -0.00000000000E+00 -0.00000000000E+00 -0.45593999997E+02  0.45594000000E+02  0.51100000000E-03 0. -1.
    9900012    2    1    2    0    0 -0.10820857947E+01 -0.46902543798E+00 -0.45359008581E-01  0.90007766138E+02  0.90000027851E+02 0.  0.
         12    1    1    2    0    0  0.10820857947E+01  0.46902543798E+00  0.45359008581E-01  0.11802338616E+01  0.00000000000E+00 0. -1.
         11    1    3    3    0    0  0.18756692967E+01 -0.19976382834E+01  0.93155228404E+01  0.97101833182E+01  0.51100000000E-03 0. -1.
        -11    1    3    3    0    0 -0.26975709224E+02 -0.28664919544E+02  0.37722334527E+01  0.39542334859E+02  0.51100000000E-03 0.  1.
         12    1    3    3    0    0  0.24017954133E+02  0.30193532389E+02 -0.13133115302E+02  0.40755247961E+02  0.00000000000E+00 0. -1.
</event>
<event>
 7    1  0.1698110E-015  0.9000788E+02  0.7816164E-02  0.1186339E+00
        -11   -1    0    0    0    0  0.00000000000E+00  0.00000000000E+00  0.45593999997E+02  0.45594000000E+02  0.51100000000E-03 0.  1.
         11   -1    0    0    0    0 -0.00000000000E+00 -0.00000000000E+00 -0.45593999997E+02  0.45594000000E+02  0.51100000000E-03 0. -1.
    9900012    2    1    2    0    0 -0.49563128009E+00 -0.39080098102E+00  0.99715274647E+00  0.90007877391E+02  0.90000140572E+02 0.  0.
         12    1    1    2    0    0  0.49563128009E+00  0.39080098102E+00 -0.99715274647E+00  0.11801226090E+01  0.00000000000E+00 0. -1.
         11    1    3    3    0    0  0.31258656090E+02 -0.20142617576E+02  0.83131195127E+01  0.38104285582E+02  0.51100000000E-03 0. -1.
        -11    1    3    3    0    0 -0.56896451617E+01 -0.10159810931E+02 -0.27702355730E+01  0.11969462211E+02  0.51100000000E-03 0.  1.
        -12    1    3    3    0    0 -0.26064642209E+02  0.29911627526E+02 -0.45457311932E+01  0.39934129599E+02  0.00000000000E+00 0.  1.
</event>
<event>
 7    1  0.1932770E-015  0.9000790E+02  0.7816164E-02  0.1186339E+00
        -11   -1    0    0    0    0  0.00000000000E+00  0.00000000000E+00  0.45593999997E+02  0.45594000000E+02  0.51100000000E-03 0.  1.
         11   -1    0    0    0    0 -0.00000000000E+00 -0.00000000000E+00 -0.45593999997E+02  0.45594000000E+02  0.51100000000E-03 0. -1.
    9900012    2    1    2    0    0 -0.32657773131E+00  0.11334074243E+01  0.36900163061E-01  0.90007903806E+02  0.90000167337E+02 0.  0.
         12    1    1    2    0    0  0.32657773131E+00 -0.11334074243E+01 -0.36900163061E-01  0.11800961935E+01  0.00000000000E+00 0. -1.
         11    1    3    3    0    0 -0.28658900785E+01  0.60973223119E+01  0.72308622415E+01  0.98831186543E+01  0.51100000000E-03 0. -1.
        -11    1    3    3    0    0 -0.34117955539E+02 -0.64453107624E+01  0.14360894817E+02  0.37574089759E+02  0.51100000000E-03 0.  1.
         12    1    3    3    0    0  0.36657267887E+02  0.14813958747E+01 -0.21554856896E+02  0.42550695393E+02  0.00000000000E+00 0. -1.
</event>
<event>
 7    1  0.1698110E-015  0.9000776E+02  0.7816164E-02  0.1186339E+00
        -11   -1    0    0    0    0  0.00000000000E+00  0.00000000000E+00  0.45593999997E+02  0.45594000000E+02  0.51100000000E-03 0. -1.
         11   -1    0    0    0    0 -0.00000000000E+00 -0.00000000000E+00 -0.45593999997E+02  0.45594000000E+02  0.51100000000E-03 0.  1.
    9900012    2    1    2    0    0  0.33235002925E+00  0.29243730869E+00 -0.10940691240E+01  0.90007761308E+02  0.90000022957E+02 0.  0.
         12    1    1    2    0    0 -0.33235002925E+00 -0.29243730869E+00  0.10940691240E+01  0.11802386918E+01  0.00000000000E+00 0. -1.
         11    1    3    3    0    0  0.75911959878E+01 -0.41839961556E+01 -0.20784339065E+01  0.89135833490E+01  0.51100000000E-03 0. -1.
        -11    1    3    3    0    0  0.21789889241E+01 -0.35705877550E+02 -0.12149462522E+02  0.37779189036E+02  0.51100000000E-03 0.  1.
         12    1    3    3    0    0 -0.94378348826E+01  0.40182311015E+02  0.13133827305E+02  0.43314988923E+02  0.00000000000E+00 0. -1.
</event>
<event>
 7    1  0.1698110E-015  0.9000775E+02  0.7816164E-02  0.1186339E+00
        -11   -1    0    0    0    0  0.00000000000E+00  0.00000000000E+00  0.45593999997E+02  0.45594000000E+02  0.51100000000E-03 0.  1.
         11   -1    0    0    0    0 -0.00000000000E+00 -0.00000000000E+00 -0.45593999997E+02  0.45594000000E+02  0.51100000000E-03 0. -1.
    9900012    2    1    2    0    0 -0.11168071484E+01  0.35334827214E+00 -0.14448525720E+00  0.90007750366E+02  0.90000011871E+02 0.  0.
         12    1    1    2    0    0  0.11168071484E+01 -0.35334827214E+00  0.14448525720E+00  0.11802496336E+01  0.00000000000E+00 0. -1.
         11    1    3    3    0    0  0.25149956763E+02 -0.93574683232E+01 -0.19673535150E+02  0.33273570956E+02  0.51100000000E-03 0. -1.
        -11    1    3    3    0    0  0.98022056523E+01  0.12746651012E+02  0.11187966204E+02  0.19589051425E+02  0.51100000000E-03 0.  1.
        -12    1    3    3    0    0 -0.36068969563E+02 -0.30358344172E+01  0.83410836881E+01  0.37145127986E+02  0.00000000000E+00 0.  1.
</event>
<event>
 7    1  0.1698110E-015  0.9000776E+02  0.7816164E-02  0.1186339E+00
        -11   -1    0    0    0    0  0.00000000000E+00  0.00000000000E+00  0.45593999997E+02  0.45594000000E+02  0.51100000000E-03 0.  1.
         11   -1    0    0    0    0 -0.00000000000E+00 -0.00000000000E+00 -0.45593999997E+02  0.45594000000E+02  0.51100000000E-03 0. -1.
    9900012    2    1    2    0    0 -0.23820699346E+00  0.81386594211E+00  0.82087891295E+00  0.90007761663E+02  0.90000023316E+02 0.  0.
         12    1    1    2    0    0  0.23820699346E+00 -0.81386594211E+00 -0.82087891295E+00  0.11802383375E+01  0.00000000000E+00 0. -1.
         11    1    3    3    0    0 -0.88596639752E-01 -0.13410641409E+02 -0.65217095477E+01  0.14912607017E+02  0.51100000000E-03 0. -1.
        -11    1    3    3    0    0 -0.20713447823E+02 -0.11695388981E+02  0.27493399029E+02  0.36355412727E+02  0.51100000000E-03 0.  1.
         12    1    3    3    0    0  0.20563837469E+02  0.25919896332E+02 -0.20150810568E+02  0.38739741918E+02  0.00000000000E+00 0. -1.
</event>
<event>
 7    1  0.1698110E-015  0.9000765E+02  0.7816164E-02  0.1186339E+00
        -11   -1    0    0    0    0  0.00000000000E+00  0.00000000000E+00  0.45593999997E+02  0.45594000000E+02  0.51100000000E-03 0.  1.
         11   -1    0    0    0    0 -0.00000000000E+00 -0.00000000000E+00 -0.45593999997E+02  0.45594000000E+02  0.51100000000E-03 0. -1.
    9900012    2    1    2    0    0  0.83737386048E+00  0.78782894240E+00  0.26714292982E+00  0.90007646337E+02  0.89999906469E+02 0.  0.
         12    1    1    2    0    0 -0.83737386048E+00 -0.78782894240E+00 -0.26714292982E+00  0.11803536630E+01  0.00000000000E+00 0. -1.
         11    1    3    3    0    0 -0.17092948667E+02 -0.29447898241E+02 -0.26390639427E+02  0.43079153364E+02  0.51100000000E-03 0. -1.
        -11    1    3    3    0    0  0.94122234097E+01  0.26987536553E+01  0.64015144974E+01  0.11698401982E+02  0.51100000000E-03 0.  1.
        -12    1    3    3    0    0  0.85180991175E+01  0.27536973528E+02  0.20256267859E+02  0.35230090991E+02  0.00000000000E+00 0.  1.
</event>
<event>
 7    1  0.1698110E-015  0.9000758E+02  0.7816164E-02  0.1186339E+00
        -11   -1    0    0    0    0  0.00000000000E+00  0.00000000000E+00  0.45593999997E+02  0.45594000000E+02  0.51100000000E-03 0.  1.
         11   -1    0    0    0    0 -0.00000000000E+00 -0.00000000000E+00 -0.45593999997E+02  0.45594000000E+02  0.51100000000E-03 0. -1.
    9900012    2    1    2    0    0  0.89460637578E+00  0.43970768470E+00 -0.63223158750E+00  0.90007584736E+02  0.89999844054E+02 0.  0.
         12    1    1    2    0    0 -0.89460637578E+00 -0.43970768470E+00  0.63223158750E+00  0.11804152641E+01  0.00000000000E+00 0. -1.
         11    1    3    3    0    0 -0.16188929433E+02 -0.18635596889E+02 -0.21725126522E+02  0.32883856682E+02  0.51100000000E-03 0. -1.
        -11    1    3    3    0    0 -0.89318637375E+01 -0.65691802783E+01 -0.50694500244E+01  0.12191457795E+02  0.51100000000E-03 0.  1.
        -12    1    3    3    0    0  0.26015399547E+02  0.25644484852E+02  0.26162344959E+02  0.44932270259E+02  0.00000000000E+00 0.  1.
</event>
<event>
 7    1  0.1698110E-015  0.9000777E+02  0.7816164E-02  0.1186339E+00
        -11   -1    0    0    0    0  0.00000000000E+00  0.00000000000E+00  0.45593999997E+02  0.45594000000E+02  0.51100000000E-03 0. -1.
         11   -1    0    0    0    0 -0.00000000000E+00 -0.00000000000E+00 -0.45593999997E+02  0.45594000000E+02  0.51100000000E-03 0.  1.
    9900012    2    1    2    0    0  0.33027275375E+00 -0.57355875061E+00 -0.97718996427E+00  0.90007766990E+02  0.90000028714E+02 0.  0.
         12    1    1    2    0    0 -0.33027275375E+00  0.57355875061E+00  0.97718996427E+00  0.11802330103E+01  0.00000000000E+00 0. -1.
         11    1    3    3    0    0 -0.68084838445E+00  0.20474703078E+02 -0.36530625679E+01  0.20809177952E+02  0.51100000000E-03 0. -1.
        -11    1    3    3    0    0 -0.26741496096E+02 -0.66407648911E+01  0.19437631408E+02  0.33719858938E+02  0.51100000000E-03 0.  1.
         12    1    3    3    0    0  0.27752617234E+02 -0.14407496937E+02 -0.16761758804E+02  0.35478730100E+02  0.00000000000E+00 0. -1.
</event>
<event>
 7    1  0.1698110E-015  0.9000778E+02  0.7816164E-02  0.1186339E+00
        -11   -1    0    0    0    0  0.00000000000E+00  0.00000000000E+00  0.45593999997E+02  0.45594000000E+02  0.51100000000E-03 0.  1.
         11   -1    0    0    0    0 -0.00000000000E+00 -0.00000000000E+00 -0.45593999997E+02  0.45594000000E+02  0.51100000000E-03 0. -1.
    9900012    2    1    2    0    0 -0.42384992343E+00  0.83450326315E+00  0.71894070851E+00  0.90007779598E+02  0.90000041489E+02 0.  0.
         12    1    1    2    0    0  0.42384992343E+00 -0.83450326315E+00 -0.71894070851E+00  0.11802204015E+01  0.00000000000E+00 0. -1.
         11    1    3    3    0    0 -0.55772882225E+01  0.87100918671E+01 -0.11321520277E+01  0.10404499638E+02  0.51100000000E-03 0. -1.
        -11    1    3    3    0    0 -0.29190374725E+02  0.44401484987E+01 -0.21287141215E+02  0.36399660392E+02  0.51100000000E-03 0.  1.
         12    1    3    3    0    0  0.34343813024E+02 -0.12315737103E+02  0.23138233951E+02  0.43203619568E+02  0.00000000000E+00 0. -1.
</event>
<event>
 7    1  0.1698110E-015  0.9000769E+02  0.7816164E-02  0.1186339E+00
        -11   -1    0    0    0    0  0.00000000000E+00  0.00000000000E+00  0.45593999997E+02  0.45594000000E+02  0.51100000000E-03 0. -1.
         11   -1    0    0    0    0 -0.00000000000E+00 -0.00000000000E+00 -0.45593999997E+02  0.45594000000E+02  0.51100000000E-03 0.  1.
    9900012    2    1    2    0    0 -0.10870351204E+01  0.44016963045E+00  0.13321364316E+00  0.90007686257E+02  0.89999946916E+02 0.  0.
         12    1    1    2    0    0  0.10870351204E+01 -0.44016963045E+00 -0.13321364316E+00  0.11803137428E+01  0.00000000000E+00 0. -1.
         11    1    3    3    0    0 -0.45689878808E+01 -0.50209938075E+01  0.10075341280E+02  0.12149013591E+02  0.51100000000E-03 0. -1.
        -11    1    3    3    0    0  0.33653221791E+02 -0.15487453468E+02  0.65067061839E+01  0.37613000113E+02  0.51100000000E-03 0.  1.
         12    1    3    3    0    0 -0.30171269031E+02  0.20948616906E+02 -0.16448833821E+02  0.40245672553E+02  0.00000000000E+00 0. -1.
</event>
<event>
 7    1  0.1698110E-015  0.9000767E+02  0.7816164E-02  0.1186339E+00
        -11   -1    0    0    0    0  0.00000000000E+00  0.00000000000E+00  0.45593999997E+02  0.45594000000E+02  0.51100000000E-03 0. -1.
         11   -1    0    0    0    0 -0.00000000000E+00 -0.00000000000E+00 -0.45593999997E+02  0.45594000000E+02  0.51100000000E-03 0.  1.
    9900012    2    1    2    0    0  0.35535658115E+00 -0.36195154068E+00 -0.10657806216E+01  0.90007671422E+02  0.89999931885E+02 0.  0.
         12    1    1    2    0    0 -0.35535658115E+00  0.36195154068E+00  0.10657806216E+01  0.11803285775E+01  0.00000000000E+00 0. -1.
         11    1    3    3    0    0 -0.73752765360E+01 -0.33298220678E+01  0.67881527692E+01  0.10562264779E+02  0.51100000000E-03 0. -1.
        -11    1    3    3    0    0 -0.15479448196E+02 -0.26500570880E+02  0.16379033090E+02  0.34787444554E+02  0.51100000000E-03 0.  1.
         12    1    3    3    0    0  0.23210081313E+02  0.29468441407E+02 -0.24232966480E+02  0.44657962089E+02  0.00000000000E+00 0. -1.
</event>
<event>
 7    1  0.1698110E-015  0.9000775E+02  0.7816164E-02  0.1186339E+00
        -11   -1    0    0    0    0  0.00000000000E+00  0.00000000000E+00  0.45593999997E+02  0.45594000000E+02  0.51100000000E-03 0.  1.
         11   -1    0    0    0    0 -0.00000000000E+00 -0.00000000000E+00 -0.45593999997E+02  0.45594000000E+02  0.51100000000E-03 0. -1.
    9900012    2    1    2    0    0  0.22372655511E+00 -0.11542363310E+01 -0.10328874337E+00  0.90007752719E+02  0.90000014255E+02 0.  0.
         12    1    1    2    0    0 -0.22372655511E+00  0.11542363310E+01  0.10328874337E+00  0.11802472807E+01  0.00000000000E+00 0. -1.
         11    1    3    3    0    0  0.42572650677E+01 -0.39544725791E+02 -0.43227020914E+01  0.40007441775E+02  0.51100000000E-03 0. -1.
        -11    1    3    3    0    0 -0.43057507700E+00  0.10275285277E+01  0.11677294382E+02  0.11730320291E+02  0.51100000000E-03 0.  1.
        -12    1    3    3    0    0 -0.36029634356E+01  0.37362960932E+02 -0.74578810342E+01  0.38269990654E+02  0.00000000000E+00 0.  1.
</event>
<event>
 7    1  0.1698110E-015  0.9000774E+02  0.7816164E-02  0.1186339E+00
        -11   -1    0    0    0    0  0.00000000000E+00  0.00000000000E+00  0.45593999997E+02  0.45594000000E+02  0.51100000000E-03 0. -1.
         11   -1    0    0    0    0 -0.00000000000E+00 -0.00000000000E+00 -0.45593999997E+02  0.45594000000E+02  0.51100000000E-03 0.  1.
    9900012    2    1    2    0    0  0.96323267989E+00 -0.67959206939E+00 -0.57831442576E-01  0.90007742803E+02  0.90000004208E+02 0.  0.
         12    1    1    2    0    0 -0.96323267989E+00  0.67959206939E+00  0.57831442576E-01  0.11802571975E+01  0.00000000000E+00 0. -1.
         11    1    3    3    0    0  0.44130845218E+01 -0.11526425315E+02  0.76125240013E+01  0.14501183313E+02  0.51100000000E-03 0. -1.
        -11    1    3    3    0    0  0.26141494861E+02  0.24903296270E+02  0.11071522976E+02  0.37764143575E+02  0.51100000000E-03 0.  1.
         12    1    3    3    0    0 -0.29591346702E+02 -0.14056463024E+02 -0.18741878420E+02  0.37742415915E+02  0.00000000000E+00 0. -1.
</event>
<event>
 7    1  0.1698110E-015  0.9000780E+02  0.7816164E-02  0.1186339E+00
        -11   -1    0    0    0    0  0.00000000000E+00  0.00000000000E+00  0.45593999997E+02  0.45594000000E+02  0.51100000000E-03 0. -1.
         11   -1    0    0    0    0 -0.00000000000E+00 -0.00000000000E+00 -0.45593999997E+02  0.45594000000E+02  0.51100000000E-03 0.  1.
    9900012    2    1    2    0    0 -0.76073630708E+00 -0.19433642475E-01 -0.90209460134E+00  0.90007799989E+02  0.90000062149E+02 0.  0.
         12    1    1    2    0    0  0.76073630708E+00  0.19433642475E-01  0.90209460134E+00  0.11802000106E+01  0.00000000000E+00 0. -1.
         11    1    3    3    0    0 -0.51354892714E+01  0.29815097005E+02  0.25751435207E+02  0.39729707713E+02  0.51100000000E-03 0. -1.
        -11    1    3    3    0    0 -0.54864703945E+01 -0.97674423088E+01  0.43800806855E+01  0.12028690441E+02  0.51100000000E-03 0.  1.
        -12    1    3    3    0    0  0.98612233588E+01 -0.20067088339E+02 -0.31033610494E+02  0.38249401836E+02  0.00000000000E+00 0.  1.
</event>
<event>
 7    1  0.1698110E-015  0.9000773E+02  0.7816164E-02  0.1186339E+00
        -11   -1    0    0    0    0  0.00000000000E+00  0.00000000000E+00  0.45593999997E+02  0.45594000000E+02  0.51100000000E-03 0.  1.
         11   -1    0    0    0    0 -0.00000000000E+00 -0.00000000000E+00 -0.45593999997E+02  0.45594000000E+02  0.51100000000E-03 0. -1.
    9900012    2    1    2    0    0 -0.65663709941E+00 -0.96936719793E+00  0.14896605853E+00  0.90007730568E+02  0.89999991812E+02 0.  0.
         12    1    1    2    0    0  0.65663709941E+00  0.96936719793E+00 -0.14896605853E+00  0.11802694317E+01  0.00000000000E+00 0. -1.
         11    1    3    3    0    0 -0.57543201158E+01 -0.57686710317E+01 -0.34705975334E+00  0.81553795865E+01  0.51100000000E-03 0. -1.
        -11    1    3    3    0    0 -0.28425547590E+02 -0.17149059110E+02  0.18410142754E+02  0.37960971281E+02  0.51100000000E-03 0.  1.
         12    1    3    3    0    0  0.33523230607E+02  0.21948362944E+02 -0.17914116942E+02  0.43891379700E+02  0.00000000000E+00 0. -1.
</event>
<event>
 7    1  0.1698110E-015  0.9000771E+02  0.7816164E-02  0.1186339E+00
        -11   -1    0    0    0    0  0.00000000000E+00  0.00000000000E+00  0.45593999997E+02  0.45594000000E+02  0.51100000000E-03 0. -1.
         11   -1    0    0    0    0 -0.00000000000E+00 -0.00000000000E+00 -0.45593999997E+02  0.45594000000E+02  0.51100000000E-03 0.  1.
    9900012    2    1    2    0    0 -0.61371914371E+00  0.98054909083E+00 -0.23444016370E+00  0.90007707707E+02  0.89999968649E+02 0.  0.
         12    1    1    2    0    0  0.61371914371E+00 -0.98054909083E+00  0.23444016370E+00  0.11802922931E+01  0.00000000000E+00 0. -1.
         11    1    3    3    0    0 -0.62476841658E+01  0.29393970713E+02  0.16745494836E+02  0.34401317842E+02  0.51100000000E-03 0. -1.
        -11    1    3    3    0    0 -0.10416063926E+02  0.71131049244E+01  0.10466661075E+01  0.12656467105E+02  0.51100000000E-03 0.  1.
        -12    1    3    3    0    0  0.16050028948E+02 -0.35526526546E+02 -0.18026601107E+02  0.42949922760E+02  0.00000000000E+00 0.  1.
</event>
<event>
 7    1  0.1698110E-015  0.9000770E+02  0.7816164E-02  0.1186339E+00
        -11   -1    0    0    0    0  0.00000000000E+00  0.00000000000E+00  0.45593999997E+02  0.45594000000E+02  0.51100000000E-03 0.  1.
         11   -1    0    0    0    0 -0.00000000000E+00 -0.00000000000E+00 -0.45593999997E+02  0.45594000000E+02  0.51100000000E-03 0. -1.
    9900012    2    1    2    0    0  0.78669811449E+00  0.27969161950E+00 -0.83425679106E+00  0.90007701005E+02  0.89999961858E+02 0.  0.
         12    1    1    2    0    0 -0.78669811449E+00 -0.27969161950E+00  0.83425679106E+00  0.11802989955E+01  0.00000000000E+00 0. -1.
         11    1    3    3    0    0 -0.32065513821E+02 -0.52813617381E+01 -0.11730251350E+02  0.34549801091E+02  0.51100000000E-03 0. -1.
        -11    1    3    3    0    0 -0.97997147945E+01 -0.54892826489E+00 -0.28680448304E+01  0.10225527551E+02  0.51100000000E-03 0.  1.
        -12    1    3    3    0    0  0.42651926730E+02  0.61099816225E+01  0.13764039389E+02  0.45232372362E+02  0.00000000000E+00 0.  1.
</event>
<event>
 7    1  0.1698110E-015  0.9000763E+02  0.7816164E-02  0.1186339E+00
        -11   -1    0    0    0    0  0.00000000000E+00  0.00000000000E+00  0.45593999997E+02  0.45594000000E+02  0.51100000000E-03 0. -1.
         11   -1    0    0    0    0 -0.00000000000E+00 -0.00000000000E+00 -0.45593999997E+02  0.45594000000E+02  0.51100000000E-03 0.  1.
    9900012    2    1    2    0    0  0.11337925833E+01  0.16518660830E+00  0.28373307920E+00  0.90007628576E+02  0.89999888474E+02 0.  0.
         12    1    1    2    0    0 -0.11337925833E+01 -0.16518660830E+00 -0.28373307920E+00  0.11803714236E+01  0.00000000000E+00 0. -1.
         11    1    3    3    0    0 -0.26434351624E+02  0.21756630078E+02  0.20173352058E+02  0.39737765811E+02  0.51100000000E-03 0. -1.
        -11    1    3    3    0    0  0.24253970442E+01 -0.18196648818E+01  0.75442869136E+01  0.81308053967E+01  0.51100000000E-03 0.  1.
        -12    1    3    3    0    0  0.25142747163E+02 -0.19771778588E+02 -0.27433905892E+02  0.42139057369E+02  0.00000000000E+00 0.  1.
</event>
<event>
 7    1  0.1698110E-015  0.9000778E+02  0.7816164E-02  0.1186339E+00
        -11   -1    0    0    0    0  0.00000000000E+00  0.00000000000E+00  0.45593999997E+02  0.45594000000E+02  0.51100000000E-03 0.  1.
         11   -1    0    0    0    0 -0.00000000000E+00 -0.00000000000E+00 -0.45593999997E+02  0.45594000000E+02  0.51100000000E-03 0. -1.
    9900012    2    1    2    0    0  0.61814423550E+00  0.34066982695E+00 -0.94591595526E+00  0.90007781706E+02  0.90000043625E+02 0.  0.
         12    1    1    2    0    0 -0.61814423550E+00 -0.34066982695E+00  0.94591595526E+00  0.11802182939E+01  0.00000000000E+00 0. -1.
         11    1    3    3    0    0  0.92004728089E+00 -0.57362542111E+00  0.83070336241E+01  0.83774901382E+01  0.51100000000E-03 0. -1.
        -11    1    3    3    0    0 -0.51747559818E+01  0.30290891204E+02  0.22509571172E+02  0.38091954321E+02  0.51100000000E-03 0.  1.
         12    1    3    3    0    0  0.48728529364E+01 -0.29376595956E+02 -0.31762520751E+02  0.43538337246E+02  0.00000000000E+00 0. -1.
</event>
<event>
 7    1  0.1698110E-015  0.9000781E+02  0.7816164E-02  0.1186339E+00
        -11   -1    0    0    0    0  0.00000000000E+00  0.00000000000E+00  0.45593999997E+02  0.45594000000E+02  0.51100000000E-03 0.  1.
         11   -1    0    0    0    0 -0.00000000000E+00 -0.00000000000E+00 -0.45593999997E+02  0.45594000000E+02  0.51100000000E-03 0. -1.
    9900012    2    1    2    0    0  0.78621217650E-01 -0.93877814542E-01  0.11738158416E+01  0.90007814434E+02  0.90000076785E+02 0.  0.
         12    1    1    2    0    0 -0.78621217650E-01  0.93877814542E-01 -0.11738158416E+01  0.11801855659E+01  0.00000000000E+00 0. -1.
         11    1    3    3    0    0 -0.27301301158E+02 -0.29207865798E+02 -0.45060070778E+01  0.40233873408E+02  0.51100000000E-03 0. -1.
        -11    1    3    3    0    0 -0.54585905024E+01  0.71188698719E+01  0.49441661196E+01  0.10243012126E+02  0.51100000000E-03 0.  1.
        -12    1    3    3    0    0  0.32838512878E+02  0.21995118112E+02  0.73565679987E+00  0.39530928900E+02  0.00000000000E+00 0.  1.
</event>
<event>
 7    1  0.1698110E-015  0.9000773E+02  0.7816164E-02  0.1186339E+00
        -11   -1    0    0    0    0  0.00000000000E+00  0.00000000000E+00  0.45593999997E+02  0.45594000000E+02  0.51100000000E-03 0. -1.
         11   -1    0    0    0    0 -0.00000000000E+00 -0.00000000000E+00 -0.45593999997E+02  0.45594000000E+02  0.51100000000E-03 0.  1.
    9900012    2    1    2    0    0 -0.60502584750E+00  0.82006356143E+00 -0.59537431156E+00  0.90007732619E+02  0.89999993889E+02 0.  0.
         12    1    1    2    0    0  0.60502584750E+00 -0.82006356143E+00  0.59537431156E+00  0.11802673815E+01  0.00000000000E+00 0. -1.
         11    1    3    3    0    0 -0.10840606299E+02  0.38790216818E+01 -0.76379458855E+01  0.13816793107E+02  0.51100000000E-03 0. -1.
        -11    1    3    3    0    0  0.25654089742E+02 -0.25370668059E+02 -0.17057408154E+02  0.39909375984E+02  0.51100000000E-03 0.  1.
         12    1    3    3    0    0 -0.15418509290E+02  0.22311709939E+02  0.24099979728E+02  0.36281563528E+02  0.00000000000E+00 0. -1.
</event>
<event>
 7    1  0.1698110E-015  0.9000775E+02  0.7816164E-02  0.1186339E+00
        -11   -1    0    0    0    0  0.00000000000E+00  0.00000000000E+00  0.45593999997E+02  0.45594000000E+02  0.51100000000E-03 0.  1.
         11   -1    0    0    0    0 -0.00000000000E+00 -0.00000000000E+00 -0.45593999997E+02  0.45594000000E+02  0.51100000000E-03 0. -1.
    9900012    2    1    2    0    0  0.90583070163E+00 -0.75660905339E+00 -0.31793020503E-02  0.90007747219E+02  0.90000008682E+02 0.  0.
         12    1    1    2    0    0 -0.90583070163E+00  0.75660905339E+00  0.31793020503E-02  0.11802527812E+01  0.00000000000E+00 0. -1.
         11    1    3    3    0    0 -0.24074060343E+02 -0.84448855657E+01 -0.27560204387E+02  0.37555842950E+02  0.51100000000E-03 0. -1.
        -11    1    3    3    0    0 -0.92949351573E+01  0.18098264062E+01  0.32020303517E+01  0.99962137749E+01  0.51100000000E-03 0.  1.
        -12    1    3    3    0    0  0.34274826202E+02  0.58784501061E+01  0.24354994733E+02  0.42455690493E+02  0.00000000000E+00 0.  1.
</event>
<event>
 7    1  0.1698110E-015  0.9000786E+02  0.7816164E-02  0.1186339E+00
        -11   -1    0    0    0    0  0.00000000000E+00  0.00000000000E+00  0.45593999997E+02  0.45594000000E+02  0.51100000000E-03 0. -1.
         11   -1    0    0    0    0 -0.00000000000E+00 -0.00000000000E+00 -0.45593999997E+02  0.45594000000E+02  0.51100000000E-03 0.  1.
    9900012    2    1    2    0    0  0.69392842350E+00 -0.43402901263E+00 -0.85018665882E+00  0.90007857977E+02  0.90000120902E+02 0.  0.
         12    1    1    2    0    0 -0.69392842350E+00  0.43402901263E+00  0.85018665882E+00  0.11801420235E+01  0.00000000000E+00 0. -1.
         11    1    3    3    0    0  0.78667097897E+01 -0.89936478789E+00  0.65045681571E+01  0.10247116039E+02  0.51100000000E-03 0. -1.
        -11    1    3    3    0    0  0.17979831725E+02  0.23013786187E+02 -0.27762538090E+02  0.40294754310E+02  0.51100000000E-03 0.  1.
         12    1    3    3    0    0 -0.25152613091E+02 -0.22548450411E+02  0.20407783274E+02  0.39465987628E+02  0.00000000000E+00 0. -1.
</event>
<event>
 7    1  0.1698110E-015  0.9000773E+02  0.7816164E-02  0.1186339E+00
        -11   -1    0    0    0    0  0.00000000000E+00  0.00000000000E+00  0.45593999997E+02  0.45594000000E+02  0.51100000000E-03 0.  1.
         11   -1    0    0    0    0 -0.00000000000E+00 -0.00000000000E+00 -0.45593999997E+02  0.45594000000E+02  0.51100000000E-03 0. -1.
    9900012    2    1    2    0    0  0.51372232427E+00 -0.83168458262E+00  0.66139043915E+00  0.90007725801E+02  0.89999986982E+02 0.  0.
         12    1    1    2    0    0 -0.51372232427E+00  0.83168458262E+00 -0.66139043915E+00  0.11802741988E+01  0.00000000000E+00 0. -1.
         11    1    3    3    0    0 -0.32575460674E+02  0.76103833159E+01 -0.12943385064E+02  0.35869343311E+02  0.51100000000E-03 0. -1.
        -11    1    3    3    0    0 -0.83286686146E+01  0.31585589620E+01 -0.36470601818E+00  0.89149439902E+01  0.51100000000E-03 0.  1.
        -12    1    3    3    0    0  0.41417851613E+02 -0.11600626861E+02  0.13969481521E+02  0.45223438500E+02  0.00000000000E+00 0.  1.
</event>
<event>
 7    1  0.1698110E-015  0.9000759E+02  0.7816164E-02  0.1186339E+00
        -11   -1    0    0    0    0  0.00000000000E+00  0.00000000000E+00  0.45593999997E+02  0.45594000000E+02  0.51100000000E-03 0.  1.
         11   -1    0    0    0    0 -0.00000000000E+00 -0.00000000000E+00 -0.45593999997E+02  0.45594000000E+02  0.51100000000E-03 0. -1.
    9900012    2    1    2    0    0  0.22639518873E+00 -0.11584891922E+01 -0.38305098031E-02  0.90007590468E+02  0.89999849862E+02 0.  0.
         12    1    1    2    0    0 -0.22639518873E+00  0.11584891922E+01  0.38305098031E-02  0.11804095318E+01  0.00000000000E+00 0. -1.
         11    1    3    3    0    0 -0.26112255628E+02  0.12513819238E+02 -0.18602853319E+02  0.34416736013E+02  0.51100000000E-03 0. -1.
        -11    1    3    3    0    0 -0.81795638155E+01  0.10595684598E+01 -0.64486892106E+01  0.10469648625E+02  0.51100000000E-03 0.  1.
        -12    1    3    3    0    0  0.34518214633E+02 -0.14731876890E+02  0.25047712020E+02  0.45121205830E+02  0.00000000000E+00 0.  1.
</event>
<event>
 7    1  0.1698110E-015  0.9000798E+02  0.7816164E-02  0.1186339E+00
        -11   -1    0    0    0    0  0.00000000000E+00  0.00000000000E+00  0.45593999997E+02  0.45594000000E+02  0.51100000000E-03 0.  1.
         11   -1    0    0    0    0 -0.00000000000E+00 -0.00000000000E+00 -0.45593999997E+02  0.45594000000E+02  0.51100000000E-03 0. -1.
    9900012    2    1    2    0    0 -0.11232950588E+01  0.14092959074E+00 -0.33287229712E+00  0.90007975888E+02  0.90000240369E+02 0.  0.
         12    1    1    2    0    0  0.11232950588E+01 -0.14092959074E+00  0.33287229712E+00  0.11800241120E+01  0.00000000000E+00 0. -1.
         11    1    3    3    0    0  0.30926453637E+02 -0.23735333318E+02 -0.16544468149E+02  0.42350100459E+02  0.51100000000E-03 0. -1.
        -11    1    3    3    0    0 -0.10752253576E+02 -0.98011865123E+00 -0.69068187022E+00  0.10818901573E+02  0.51100000000E-03 0.  1.
        -12    1    3    3    0    0 -0.21297495119E+02  0.24856381559E+02  0.16902277722E+02  0.36838973856E+02  0.00000000000E+00 0.  1.
</event>
<event>
 7    1  0.1698110E-015  0.9000775E+02  0.7816164E-02  0.1186339E+00
        -11   -1    0    0    0    0  0.00000000000E+00  0.00000000000E+00  0.45593999997E+02  0.45594000000E+02  0.51100000000E-03 0.  1.
         11   -1    0    0    0    0 -0.00000000000E+00 -0.00000000000E+00 -0.45593999997E+02  0.45594000000E+02  0.51100000000E-03 0. -1.
    9900012    2    1    2    0    0 -0.22595523669E+00 -0.10789179196E+01  0.42175880021E+00  0.90007745734E+02  0.90000007178E+02 0.  0.
         12    1    1    2    0    0  0.22595523669E+00  0.10789179196E+01 -0.42175880021E+00  0.11802542657E+01  0.00000000000E+00 0. -1.
         11    1    3    3    0    0  0.14681187997E+02 -0.65707805846E+01 -0.36336392063E+02  0.39737209601E+02  0.51100000000E-03 0. -1.
        -11    1    3    3    0    0 -0.40219077947E+01  0.71785238684E+01 -0.31948520356E+01  0.88268922633E+01  0.51100000000E-03 0.  1.
        -12    1    3    3    0    0 -0.10885235439E+02 -0.16866612034E+01  0.39953002899E+02  0.41443643870E+02  0.00000000000E+00 0.  1.
</event>
<event>
 7    1  0.1698110E-015  0.9000799E+02  0.7816164E-02  0.1186339E+00
        -11   -1    0    0    0    0  0.00000000000E+00  0.00000000000E+00  0.45593999997E+02  0.45594000000E+02  0.51100000000E-03 0.  1.
         11   -1    0    0    0    0 -0.00000000000E+00 -0.00000000000E+00 -0.45593999997E+02  0.45594000000E+02  0.51100000000E-03 0. -1.
    9900012    2    1    2    0    0  0.42007228597E+00  0.90947357921E+00 -0.62355414500E+00  0.90007990386E+02  0.90000255059E+02 0.  0.
         12    1    1    2    0    0 -0.42007228597E+00 -0.90947357921E+00  0.62355414500E+00  0.11800096137E+01  0.00000000000E+00 0. -1.
         11    1    3    3    0    0  0.83482905469E+01  0.38931551845E+01 -0.27088619928E+01  0.96014866507E+01  0.51100000000E-03 0. -1.
        -11    1    3    3    0    0 -0.25744492816E+02  0.22756546524E+02  0.24244505009E+02  0.42052768559E+02  0.51100000000E-03 0.  1.
         12    1    3    3    0    0  0.17816274555E+02 -0.25740228129E+02 -0.22159197161E+02  0.38353735177E+02  0.00000000000E+00 0. -1.
</event>
<event>
 7    1  0.1698110E-015  0.9000778E+02  0.7816164E-02  0.1186339E+00
        -11   -1    0    0    0    0  0.00000000000E+00  0.00000000000E+00  0.45593999997E+02  0.45594000000E+02  0.51100000000E-03 0.  1.
         11   -1    0    0    0    0 -0.00000000000E+00 -0.00000000000E+00 -0.45593999997E+02  0.45594000000E+02  0.51100000000E-03 0. -1.
    9900012    2    1    2    0    0  0.67976291825E+00  0.85650855788E+00  0.44412081816E+00  0.90007776362E+02  0.90000038210E+02 0.  0.
         12    1    1    2    0    0 -0.67976291825E+00 -0.85650855788E+00 -0.44412081816E+00  0.11802236381E+01  0.00000000000E+00 0. -1.
         11    1    3    3    0    0  0.73913466829E+01  0.29927777080E+01  0.10951250389E+00  0.79750057960E+01  0.51100000000E-03 0. -1.
        -11    1    3    3    0    0  0.30156698726E+02  0.19992013860E+02 -0.10529040941E+02  0.37682460106E+02  0.51100000000E-03 0.  1.
         12    1    3    3    0    0 -0.36868282490E+02 -0.22128283010E+02  0.10863649255E+02  0.44350310460E+02  0.00000000000E+00 0. -1.
</event>
<event>
 7    1  0.1698110E-015  0.9000691E+02  0.7816164E-02  0.1186341E+00
        -11   -1    0    0    0    0  0.00000000000E+00  0.00000000000E+00  0.45593999997E+02  0.45594000000E+02  0.51100000000E-03 0. -1.
         11   -1    0    0    0    0 -0.00000000000E+00 -0.00000000000E+00 -0.45593999997E+02  0.45594000000E+02  0.51100000000E-03 0.  1.
    9900012    2    1    2    0    0 -0.28069843254E+00 -0.11472009841E+01  0.10901744378E-01  0.90006907050E+02  0.89999157419E+02 0.  0.
         12    1    1    2    0    0  0.28069843254E+00  0.11472009841E+01 -0.10901744378E-01  0.11810929498E+01  0.00000000000E+00 0. -1.
         11    1    3    3    0    0 -0.76970732266E+00  0.93204567001E+00 -0.91201122363E+01  0.91998698881E+01  0.51100000000E-03 0. -1.
        -11    1    3    3    0    0  0.63494512659E+01 -0.38631547453E+02 -0.80922283321E+01  0.39977445512E+02  0.51100000000E-03 0.  1.
         12    1    3    3    0    0 -0.58604423758E+01  0.36552300799E+02  0.17223242313E+02  0.40829591650E+02  0.00000000000E+00 0. -1.
</event>
<event>
 7    1  0.1698110E-015  0.9000787E+02  0.7816164E-02  0.1186339E+00
        -11   -1    0    0    0    0  0.00000000000E+00  0.00000000000E+00  0.45593999997E+02  0.45594000000E+02  0.51100000000E-03 0. -1.
         11   -1    0    0    0    0 -0.00000000000E+00 -0.00000000000E+00 -0.45593999997E+02  0.45594000000E+02  0.51100000000E-03 0.  1.
    9900012    2    1    2    0    0 -0.46263547565E+00  0.39801614362E+00 -0.10100781706E+01  0.90007870200E+02  0.90000133287E+02 0.  0.
         12    1    1    2    0    0  0.46263547565E+00 -0.39801614362E+00  0.10100781706E+01  0.11801297999E+01  0.00000000000E+00 0. -1.
         11    1    3    3    0    0 -0.56293691861E+01 -0.98962659371E+01 -0.26047278717E+01  0.11679489907E+02  0.51100000000E-03 0. -1.
        -11    1    3    3    0    0 -0.22940503387E+02  0.94508301291E+00 -0.28166265732E+02  0.36338662649E+02  0.51100000000E-03 0.  1.
         12    1    3    3    0    0  0.28107237098E+02  0.93491990678E+01  0.29760915433E+02  0.41989717645E+02  0.00000000000E+00 0. -1.
</event>
<event>
 7    1  0.2531748E-015  0.9000770E+02  0.7816164E-02  0.1186339E+00
        -11   -1    0    0    0    0  0.00000000000E+00  0.00000000000E+00  0.45593999997E+02  0.45594000000E+02  0.51100000000E-03 0. -1.
         11   -1    0    0    0    0 -0.00000000000E+00 -0.00000000000E+00 -0.45593999997E+02  0.45594000000E+02  0.51100000000E-03 0.  1.
    9900012    2    1    2    0    0 -0.94393942470E+00 -0.62394554563E+00 -0.33583298023E+00  0.90007697720E+02  0.89999958530E+02 0.  0.
         12    1    1    2    0    0  0.94393942470E+00  0.62394554563E+00  0.33583298023E+00  0.11803022799E+01  0.00000000000E+00 0. -1.
         11    1    3    3    0    0 -0.17498585954E+01  0.90925599115E+01 -0.24685543054E+01  0.95828185555E+01  0.51100000000E-03 0. -1.
        -11    1    3    3    0    0  0.96276947878E+01  0.34237122817E+02  0.71108462527E+00  0.35572162252E+02  0.51100000000E-03 0.  1.
         12    1    3    3    0    0 -0.88217756171E+01 -0.43953628274E+02  0.14216366999E+01  0.44852716912E+02  0.00000000000E+00 0. -1.
</event>
<event>
 7    1  0.1698110E-015  0.9000761E+02  0.7816164E-02  0.1186339E+00
        -11   -1    0    0    0    0  0.00000000000E+00  0.00000000000E+00  0.45593999997E+02  0.45594000000E+02  0.51100000000E-03 0. -1.
         11   -1    0    0    0    0 -0.00000000000E+00 -0.00000000000E+00 -0.45593999997E+02  0.45594000000E+02  0.51100000000E-03 0.  1.
    9900012    2    1    2    0    0  0.50776956857E+00 -0.36996033526E+00 -0.99931009108E+00  0.90007609708E+02  0.89999869356E+02 0.  0.
         12    1    1    2    0    0 -0.50776956857E+00  0.36996033526E+00  0.99931009108E+00  0.11803902925E+01  0.00000000000E+00 0. -1.
         11    1    3    3    0    0  0.97389236016E+01  0.24303996487E+01  0.39872290462E+02  0.41116335224E+02  0.51100000000E-03 0. -1.
        -11    1    3    3    0    0  0.25421384884E+01 -0.38942582023E+01  0.15112828445E+01  0.48899581939E+01  0.51100000000E-03 0.  1.
        -12    1    3    3    0    0 -0.11773292521E+02  0.10938982183E+01 -0.42382883397E+02  0.44001316289E+02  0.00000000000E+00 0.  1.
</event>
<event>
 7    1  0.1698110E-015  0.9000771E+02  0.7816164E-02  0.1186339E+00
        -11   -1    0    0    0    0  0.00000000000E+00  0.00000000000E+00  0.45593999997E+02  0.45594000000E+02  0.51100000000E-03 0. -1.
         11   -1    0    0    0    0 -0.00000000000E+00 -0.00000000000E+00 -0.45593999997E+02  0.45594000000E+02  0.51100000000E-03 0.  1.
    9900012    2    1    2    0    0  0.88426957606E+00  0.78101155138E+00 -0.34365258232E-01  0.90007706521E+02  0.89999967447E+02 0.  0.
         12    1    1    2    0    0 -0.88426957606E+00 -0.78101155138E+00  0.34365258232E-01  0.11802934794E+01  0.00000000000E+00 0. -1.
         11    1    3    3    0    0 -0.50482523676E+01 -0.40210054012E+02 -0.72004717734E+01  0.41160418968E+02  0.51100000000E-03 0. -1.
        -11    1    3    3    0    0  0.49469215094E+01 -0.16421367348E+01 -0.12963682985E+01  0.53711466655E+01  0.51100000000E-03 0.  1.
        -12    1    3    3    0    0  0.98560043424E+00  0.42633202298E+02  0.84624748137E+01  0.43476140887E+02  0.00000000000E+00 0.  1.
</event>
<event>
 7    1  0.1698110E-015  0.9000763E+02  0.7816164E-02  0.1186339E+00
        -11   -1    0    0    0    0  0.00000000000E+00  0.00000000000E+00  0.45593999997E+02  0.45594000000E+02  0.51100000000E-03 0.  1.
         11   -1    0    0    0    0 -0.00000000000E+00 -0.00000000000E+00 -0.45593999997E+02  0.45594000000E+02  0.51100000000E-03 0. -1.
    9900012    2    1    2    0    0  0.10201267881E+01  0.57877702206E+00 -0.13280372859E+00  0.90007627883E+02  0.89999887771E+02 0.  0.
         12    1    1    2    0    0 -0.10201267881E+01 -0.57877702206E+00  0.13280372859E+00  0.11803721173E+01  0.00000000000E+00 0. -1.
         11    1    3    3    0    0 -0.42599306137E+01  0.13470639488E+02  0.15832803204E+02  0.21219867921E+02  0.51100000000E-03 0. -1.
        -11    1    3    3    0    0 -0.22588623815E+02  0.11215735908E+02  0.59528600571E+01  0.25912838535E+02  0.51100000000E-03 0.  1.
         12    1    3    3    0    0  0.27868681217E+02 -0.24107598374E+02 -0.21918466990E+02  0.42874921426E+02  0.00000000000E+00 0. -1.
</event>
<event>
 7    1  0.1698110E-015  0.9000778E+02  0.7816164E-02  0.1186339E+00
        -11   -1    0    0    0    0  0.00000000000E+00  0.00000000000E+00  0.45593999997E+02  0.45594000000E+02  0.51100000000E-03 0. -1.
         11   -1    0    0    0    0 -0.00000000000E+00 -0.00000000000E+00 -0.45593999997E+02  0.45594000000E+02  0.51100000000E-03 0.  1.
    9900012    2    1    2    0    0 -0.11632957071E+01  0.10479252506E+00 -0.16936920910E+00  0.90007777858E+02  0.90000039726E+02 0.  0.
         12    1    1    2    0    0  0.11632957071E+01 -0.10479252506E+00  0.16936920910E+00  0.11802221420E+01  0.00000000000E+00 0. -1.
         11    1    3    3    0    0 -0.37614106636E+01  0.86470569908E+01 -0.45214048632E+01  0.10457672159E+02  0.51100000000E-03 0. -1.
        -11    1    3    3    0    0 -0.23777644730E+02  0.21222954802E+02 -0.15111892994E+02  0.35272645344E+02  0.51100000000E-03 0.  1.
         12    1    3    3    0    0  0.26375759686E+02 -0.29765219268E+02  0.19463928648E+02  0.44277460355E+02  0.00000000000E+00 0. -1.
</event>
<event>
 7    1  0.1698110E-015  0.9000778E+02  0.7816164E-02  0.1186339E+00
        -11   -1    0    0    0    0  0.00000000000E+00  0.00000000000E+00  0.45593999997E+02  0.45594000000E+02  0.51100000000E-03 0.  1.
         11   -1    0    0    0    0 -0.00000000000E+00 -0.00000000000E+00 -0.45593999997E+02  0.45594000000E+02  0.51100000000E-03 0. -1.
    9900012    2    1    2    0    0  0.68506236964E+00 -0.89536047970E+00  0.34919070306E+00  0.90007781806E+02  0.90000043726E+02 0.  0.
         12    1    1    2    0    0 -0.68506236964E+00  0.89536047970E+00 -0.34919070306E+00  0.11802181942E+01  0.00000000000E+00 0. -1.
         11    1    3    3    0    0  0.95893149904E+01  0.36018632244E+01  0.43114411833E+01  0.11113815997E+02  0.51100000000E-03 0. -1.
        -11    1    3    3    0    0  0.23210447890E+02  0.11192822582E+02  0.22669450190E+02  0.34320666380E+02  0.51100000000E-03 0.  1.
         12    1    3    3    0    0 -0.32114700511E+02 -0.15690046286E+02 -0.26631700670E+02  0.44573299429E+02  0.00000000000E+00 0. -1.
</event>
<event>
 7    1  0.1698110E-015  0.9000760E+02  0.7816164E-02  0.1186339E+00
        -11   -1    0    0    0    0  0.00000000000E+00  0.00000000000E+00  0.45593999997E+02  0.45594000000E+02  0.51100000000E-03 0.  1.
         11   -1    0    0    0    0 -0.00000000000E+00 -0.00000000000E+00 -0.45593999997E+02  0.45594000000E+02  0.51100000000E-03 0. -1.
    9900012    2    1    2    0    0 -0.39245249982E-01  0.18976176391E-02  0.11797423496E+01  0.90007603540E+02  0.89999863107E+02 0.  0.
         12    1    1    2    0    0  0.39245249982E-01 -0.18976176391E-02 -0.11797423496E+01  0.11803964597E+01  0.00000000000E+00 0. -1.
         11    1    3    3    0    0 -0.90810763056E+01 -0.75216659506E+01  0.32974794385E+01  0.12243968983E+02  0.51100000000E-03 0. -1.
        -11    1    3    3    0    0  0.22895391298E+02 -0.46759091281E+00  0.32426064171E+02  0.39697194130E+02  0.51100000000E-03 0.  1.
         12    1    3    3    0    0 -0.13853560242E+02  0.79911544811E+01 -0.34543801260E+02  0.38066440427E+02  0.00000000000E+00 0. -1.
</event>
<event>
 7    1  0.1698110E-015  0.9000771E+02  0.7816164E-02  0.1186339E+00
        -11   -1    0    0    0    0  0.00000000000E+00  0.00000000000E+00  0.45593999997E+02  0.45594000000E+02  0.51100000000E-03 0.  1.
         11   -1    0    0    0    0 -0.00000000000E+00 -0.00000000000E+00 -0.45593999997E+02  0.45594000000E+02  0.51100000000E-03 0. -1.
    9900012    2    1    2    0    0  0.29802244196E+00  0.11393289333E+01  0.78656386416E-01  0.90007714178E+02  0.89999975205E+02 0.  0.
         12    1    1    2    0    0 -0.29802244196E+00 -0.11393289333E+01 -0.78656386416E-01  0.11802858219E+01  0.00000000000E+00 0. -1.
         11    1    3    3    0    0  0.22365581405E+02  0.31991026476E+02  0.45653449745E+01  0.39299966686E+02  0.51100000000E-03 0. -1.
        -11    1    3    3    0    0 -0.97541831121E+00  0.43345103667E+01 -0.83950722872E+01  0.94982450994E+01  0.51100000000E-03 0.  1.
        -12    1    3    3    0    0 -0.21092140652E+02 -0.35186207909E+02  0.39083836991E+01  0.41209502392E+02  0.00000000000E+00 0.  1.
</event>
<event>
 7    1  0.1698110E-015  0.9000796E+02  0.7816164E-02  0.1186339E+00
        -11   -1    0    0    0    0  0.00000000000E+00  0.00000000000E+00  0.45593999997E+02  0.45594000000E+02  0.51100000000E-03 0. -1.
         11   -1    0    0    0    0 -0.00000000000E+00 -0.00000000000E+00 -0.45593999997E+02  0.45594000000E+02  0.51100000000E-03 0.  1.
    9900012    2    1    2    0    0  0.43488644568E+00  0.10859348111E+01 -0.15531079188E+00  0.90007956748E+02  0.90000220977E+02 0.  0.
         12    1    1    2    0    0 -0.43488644568E+00 -0.10859348111E+01  0.15531079188E+00  0.11800432521E+01  0.00000000000E+00 0. -1.
         11    1    3    3    0    0  0.38957856654E+01  0.72946326321E+01  0.83126219234E+01  0.11725548801E+02  0.51100000000E-03 0. -1.
        -11    1    3    3    0    0  0.96948567249E+01  0.23315623898E+02 -0.30175547439E+02  0.39346819798E+02  0.51100000000E-03 0.  1.
         12    1    3    3    0    0 -0.13155755945E+02 -0.29524321720E+02  0.21707614724E+02  0.38935588149E+02  0.00000000000E+00 0. -1.
</event>
<event>
 7    1  0.1698110E-015  0.9000776E+02  0.7816164E-02  0.1186339E+00
        -11   -1    0    0    0    0  0.00000000000E+00  0.00000000000E+00  0.45593999997E+02  0.45594000000E+02  0.51100000000E-03 0.  1.
         11   -1    0    0    0    0 -0.00000000000E+00 -0.00000000000E+00 -0.45593999997E+02  0.45594000000E+02  0.51100000000E-03 0. -1.
    9900012    2    1    2    0    0  0.56313565070E+00 -0.93222367720E+00  0.45476740579E+00  0.90007755899E+02  0.90000017477E+02 0.  0.
         12    1    1    2    0    0 -0.56313565070E+00  0.93222367720E+00 -0.45476740579E+00  0.11802441014E+01  0.00000000000E+00 0. -1.
         11    1    3    3    0    0  0.10593529270E+02 -0.36369033590E+02 -0.16821105894E+02  0.41447304742E+02  0.51100000000E-03 0. -1.
        -11    1    3    3    0    0 -0.64429878826E+01  0.76072267301E+01 -0.64000519879E+01  0.11846630622E+02  0.51100000000E-03 0.  1.
        -12    1    3    3    0    0 -0.35874057367E+01  0.27829583182E+02  0.23675925288E+02  0.36713820535E+02  0.00000000000E+00 0.  1.
</event>
<event>
 7    1  0.1698110E-015  0.9000777E+02  0.7816164E-02  0.1186339E+00
        -11   -1    0    0    0    0  0.00000000000E+00  0.00000000000E+00  0.45593999997E+02  0.45594000000E+02  0.51100000000E-03 0.  1.
         11   -1    0    0    0    0 -0.00000000000E+00 -0.00000000000E+00 -0.45593999997E+02  0.45594000000E+02  0.51100000000E-03 0. -1.
    9900012    2    1    2    0    0  0.10667556875E+01 -0.39342260762E+00 -0.31652848492E+00  0.90007771494E+02  0.90000033278E+02 0.  0.
         12    1    1    2    0    0 -0.10667556875E+01  0.39342260762E+00  0.31652848492E+00  0.11802285061E+01  0.00000000000E+00 0. -1.
         11    1    3    3    0    0  0.22123591762E+02 -0.10162161826E+02 -0.29849956136E+02  0.38519381187E+02  0.51100000000E-03 0. -1.
        -11    1    3    3    0    0  0.15501138553E+01  0.83829980333E+01 -0.52270772956E+01  0.99999923153E+01  0.51100000000E-03 0.  1.
        -12    1    3    3    0    0 -0.22606949930E+02  0.13857411854E+01  0.34760504947E+02  0.41488397992E+02  0.00000000000E+00 0.  1.
</event>
<event>
 7    1  0.1698110E-015  0.9000769E+02  0.7816164E-02  0.1186339E+00
        -11   -1    0    0    0    0  0.00000000000E+00  0.00000000000E+00  0.45593999997E+02  0.45594000000E+02  0.51100000000E-03 0.  1.
         11   -1    0    0    0    0 -0.00000000000E+00 -0.00000000000E+00 -0.45593999997E+02  0.45594000000E+02  0.51100000000E-03 0. -1.
    9900012    2    1    2    0    0 -0.36014708265E+00 -0.52772381626E+00  0.99243589533E+00  0.90007691840E+02  0.89999952572E+02 0.  0.
         12    1    1    2    0    0  0.36014708265E+00  0.52772381626E+00 -0.99243589533E+00  0.11803081605E+01  0.00000000000E+00 0. -1.
         11    1    3    3    0    0 -0.34104134957E+01 -0.30248336988E-01 -0.90798294104E+01  0.96992338644E+01  0.51100000000E-03 0. -1.
        -11    1    3    3    0    0 -0.95264947935E+01 -0.36637249691E+02 -0.68460901774E+01  0.38469612929E+02  0.51100000000E-03 0.  1.
         12    1    3    3    0    0  0.12576761207E+02  0.36139774212E+02  0.16918355483E+02  0.41838845046E+02  0.00000000000E+00 0. -1.
</event>
<event>
 7    1  0.1698110E-015  0.9000771E+02  0.7816164E-02  0.1186339E+00
        -11   -1    0    0    0    0  0.00000000000E+00  0.00000000000E+00  0.45593999997E+02  0.45594000000E+02  0.51100000000E-03 0. -1.
         11   -1    0    0    0    0 -0.00000000000E+00 -0.00000000000E+00 -0.45593999997E+02  0.45594000000E+02  0.51100000000E-03 0.  1.
    9900012    2    1    2    0    0 -0.10138343597E+01  0.50665948540E+00 -0.32943761607E+00  0.90007706356E+02  0.89999967280E+02 0.  0.
         12    1    1    2    0    0  0.10138343597E+01 -0.50665948540E+00  0.32943761607E+00  0.11802936439E+01  0.00000000000E+00 0. -1.
         11    1    3    3    0    0 -0.90215726223E+01  0.95143930933E+00  0.91390471718E+01  0.12876963649E+02  0.51100000000E-03 0. -1.
        -11    1    3    3    0    0  0.37059805906E+02 -0.10616913532E+02  0.11091462634E+02  0.40114443912E+02  0.51100000000E-03 0.  1.
         12    1    3    3    0    0 -0.29052067644E+02  0.10172133708E+02 -0.20559947421E+02  0.37016298795E+02  0.00000000000E+00 0. -1.
</event>
<event>
 7    1  0.1698110E-015  0.9000772E+02  0.7816164E-02  0.1186339E+00
        -11   -1    0    0    0    0  0.00000000000E+00  0.00000000000E+00  0.45593999997E+02  0.45594000000E+02  0.51100000000E-03 0. -1.
         11   -1    0    0    0    0 -0.00000000000E+00 -0.00000000000E+00 -0.45593999997E+02  0.45594000000E+02  0.51100000000E-03 0.  1.
    9900012    2    1    2    0    0 -0.63569736121E+00 -0.98966571086E+00  0.97533965037E-01  0.90007719428E+02  0.89999980524E+02 0.  0.
         12    1    1    2    0    0  0.63569736121E+00  0.98966571086E+00 -0.97533965037E-01  0.11802805720E+01  0.00000000000E+00 0. -1.
         11    1    3    3    0    0  0.63856556206E+01 -0.66416068664E+01 -0.13716041340E+01  0.93149792074E+01  0.51100000000E-03 0. -1.
        -11    1    3    3    0    0 -0.35105220576E+02 -0.21786057948E+02  0.27693546344E+01  0.41408672497E+02  0.51100000000E-03 0.  1.
         12    1    3    3    0    0  0.28083867594E+02  0.27437999104E+02 -0.13002165353E+01  0.39284067724E+02  0.00000000000E+00 0. -1.
</event>
<event>
 7    1  0.1698110E-015  0.9000776E+02  0.7816164E-02  0.1186339E+00
        -11   -1    0    0    0    0  0.00000000000E+00  0.00000000000E+00  0.45593999997E+02  0.45594000000E+02  0.51100000000E-03 0.  1.
         11   -1    0    0    0    0 -0.00000000000E+00 -0.00000000000E+00 -0.45593999997E+02  0.45594000000E+02  0.51100000000E-03 0. -1.
    9900012    2    1    2    0    0 -0.92590024188E+00 -0.64957771505E+00  0.33724042647E+00  0.90007756986E+02  0.90000018579E+02 0.  0.
         12    1    1    2    0    0  0.92590024188E+00  0.64957771505E+00 -0.33724042647E+00  0.11802430136E+01  0.00000000000E+00 0. -1.
         11    1    3    3    0    0  0.31463933955E+02  0.22166695411E+02 -0.14466717763E+02  0.41117240282E+02  0.51100000000E-03 0. -1.
        -11    1    3    3    0    0 -0.72762596893E+01 -0.12425043621E+02 -0.50217175565E+01  0.15249370857E+02  0.51100000000E-03 0.  1.
        -12    1    3    3    0    0 -0.25113574507E+02 -0.10391229504E+02  0.19825675746E+02  0.33641145847E+02  0.00000000000E+00 0.  1.
</event>
<event>
 7    1  0.1698110E-015  0.9000778E+02  0.7816164E-02  0.1186339E+00
        -11   -1    0    0    0    0  0.00000000000E+00  0.00000000000E+00  0.45593999997E+02  0.45594000000E+02  0.51100000000E-03 0.  1.
         11   -1    0    0    0    0 -0.00000000000E+00 -0.00000000000E+00 -0.45593999997E+02  0.45594000000E+02  0.51100000000E-03 0. -1.
    9900012    2    1    2    0    0  0.51499547007E+00 -0.98444758830E+00  0.39819377321E+00  0.90007781516E+02  0.90000043432E+02 0.  0.
         12    1    1    2    0    0 -0.51499547007E+00  0.98444758830E+00 -0.39819377321E+00  0.11802184837E+01  0.00000000000E+00 0. -1.
         11    1    3    3    0    0 -0.30467962947E+02 -0.74228253635E+01 -0.20277683442E+02  0.37344069791E+02  0.51100000000E-03 0. -1.
        -11    1    3    3    0    0 -0.59838831094E+01  0.63607891811E+01 -0.24361234717E+01  0.90664874071E+01  0.51100000000E-03 0.  1.
        -12    1    3    3    0    0  0.36966841527E+02  0.77588594106E-01  0.23112000687E+02  0.43597224318E+02  0.00000000000E+00 0.  1.
</event>
<event>
 7    1  0.1698110E-015  0.9000771E+02  0.7816164E-02  0.1186339E+00
        -11   -1    0    0    0    0  0.00000000000E+00  0.00000000000E+00  0.45593999997E+02  0.45594000000E+02  0.51100000000E-03 0.  1.
         11   -1    0    0    0    0 -0.00000000000E+00 -0.00000000000E+00 -0.45593999997E+02  0.45594000000E+02  0.51100000000E-03 0. -1.
    9900012    2    1    2    0    0 -0.59789436427E+00 -0.38920018996E+00  0.94028721434E+00  0.90007705755E+02  0.89999966671E+02 0.  0.
         12    1    1    2    0    0  0.59789436427E+00  0.38920018996E+00 -0.94028721434E+00  0.11802942447E+01  0.00000000000E+00 0. -1.
         11    1    3    3    0    0  0.30199789425E+02 -0.20040499137E+02  0.15712195266E+02  0.39503442474E+02  0.51100000000E-03 0. -1.
        -11    1    3    3    0    0 -0.44616890668E+01 -0.52094172229E+01  0.56857521177E+01  0.89091231070E+01  0.51100000000E-03 0.  1.
        -12    1    3    3    0    0 -0.26335994722E+02  0.24860716170E+02 -0.20457660169E+02  0.41595140174E+02  0.00000000000E+00 0.  1.
</event>
<event>
 7    1  0.1698110E-015  0.9000768E+02  0.7816164E-02  0.1186339E+00
        -11   -1    0    0    0    0  0.00000000000E+00  0.00000000000E+00  0.45593999997E+02  0.45594000000E+02  0.51100000000E-03 0. -1.
         11   -1    0    0    0    0 -0.00000000000E+00 -0.00000000000E+00 -0.45593999997E+02  0.45594000000E+02  0.51100000000E-03 0.  1.
    9900012    2    1    2    0    0 -0.44577699410E+00  0.95440854836E+00 -0.53249230759E+00  0.90007677644E+02  0.89999938189E+02 0.  0.
         12    1    1    2    0    0  0.44577699410E+00 -0.95440854836E+00  0.53249230759E+00  0.11803223557E+01  0.00000000000E+00 0. -1.
         11    1    3    3    0    0 -0.20852037526E+01 -0.66554053356E+01 -0.85945773712E+01  0.11068389916E+02  0.51100000000E-03 0. -1.
        -11    1    3    3    0    0 -0.69724950668E+01 -0.29586769495E+02 -0.15451638538E+02  0.34099057910E+02  0.51100000000E-03 0.  1.
         12    1    3    3    0    0  0.86119218252E+01  0.37196583379E+02  0.23513723602E+02  0.44840229819E+02  0.00000000000E+00 0. -1.
</event>
<event>
 7    1  0.1698110E-015  0.9000774E+02  0.7816164E-02  0.1186339E+00
        -11   -1    0    0    0    0  0.00000000000E+00  0.00000000000E+00  0.45593999997E+02  0.45594000000E+02  0.51100000000E-03 0. -1.
         11   -1    0    0    0    0 -0.00000000000E+00 -0.00000000000E+00 -0.45593999997E+02  0.45594000000E+02  0.51100000000E-03 0.  1.
    9900012    2    1    2    0    0  0.81270829457E+00 -0.56777159204E+00 -0.64043454200E+00  0.90007739116E+02  0.90000000472E+02 0.  0.
         12    1    1    2    0    0 -0.81270829457E+00  0.56777159204E+00  0.64043454200E+00  0.11802608845E+01  0.00000000000E+00 0. -1.
         11    1    3    3    0    0 -0.55086540355E+01 -0.40825130668E+01 -0.52318388837E+01  0.86246345192E+01  0.51100000000E-03 0. -1.
        -11    1    3    3    0    0  0.10298753369E+02 -0.15341859058E+01 -0.37441116455E+02  0.38862002638E+02  0.51100000000E-03 0.  1.
         12    1    3    3    0    0 -0.39773910393E+01  0.50489273806E+01  0.42032520797E+02  0.42521101958E+02  0.00000000000E+00 0. -1.
</event>
<event>
 7    1  0.2851157E-015  0.9000783E+02  0.7816164E-02  0.1186339E+00
        -11   -1    0    0    0    0  0.00000000000E+00  0.00000000000E+00  0.45593999997E+02  0.45594000000E+02  0.51100000000E-03 0.  1.
         11   -1    0    0    0    0 -0.00000000000E+00 -0.00000000000E+00 -0.45593999997E+02  0.45594000000E+02  0.51100000000E-03 0. -1.
    9900012    2    1    2    0    0 -0.61589519342E+00  0.99672695249E+00  0.14149064228E+00  0.90007825814E+02  0.90000088315E+02 0.  0.
         12    1    1    2    0    0  0.61589519342E+00 -0.99672695249E+00 -0.14149064228E+00  0.11801741859E+01  0.00000000000E+00 0. -1.
         11    1    3    3    0    0  0.30053901704E+01 -0.36144251073E+01  0.79028786725E+01  0.91952123687E+01  0.51100000000E-03 0. -1.
        -11    1    3    3    0    0  0.68284640799E+01 -0.29008841946E+02  0.20073643418E+02  0.35931768577E+02  0.51100000000E-03 0.  1.
         12    1    3    3    0    0 -0.10449749444E+02  0.33619994006E+02 -0.27835031448E+02  0.44880844868E+02  0.00000000000E+00 0. -1.
</event>
<event>
 7    1  0.1698110E-015  0.9000776E+02  0.7816164E-02  0.1186339E+00
        -11   -1    0    0    0    0  0.00000000000E+00  0.00000000000E+00  0.45593999997E+02  0.45594000000E+02  0.51100000000E-03 0.  1.
         11   -1    0    0    0    0 -0.00000000000E+00 -0.00000000000E+00 -0.45593999997E+02  0.45594000000E+02  0.51100000000E-03 0. -1.
    9900012    2    1    2    0    0 -0.23202671637E+00  0.52001691395E+00  0.10337880642E+01  0.90007757758E+02  0.90000019360E+02 0.  0.
         12    1    1    2    0    0  0.23202671637E+00 -0.52001691395E+00 -0.10337880642E+01  0.11802422419E+01  0.00000000000E+00 0. -1.
         11    1    3    3    0    0  0.16775145842E+02 -0.18425388796E+02 -0.10606691423E+02  0.27081402724E+02  0.51100000000E-03 0. -1.
        -11    1    3    3    0    0  0.10689955844E+02 -0.14358655563E+02  0.75139680019E+01  0.19414063483E+02  0.51100000000E-03 0.  1.
        -12    1    3    3    0    0 -0.27697128402E+02  0.33304061273E+02  0.41265114857E+01  0.43512291551E+02  0.00000000000E+00 0.  1.
</event>
<event>
 7    1  0.2442195E-015  0.9000771E+02  0.7816164E-02  0.1186339E+00
        -11   -1    0    0    0    0  0.00000000000E+00  0.00000000000E+00  0.45593999997E+02  0.45594000000E+02  0.51100000000E-03 0.  1.
         11   -1    0    0    0    0 -0.00000000000E+00 -0.00000000000E+00 -0.45593999997E+02  0.45594000000E+02  0.51100000000E-03 0. -1.
    9900012    2    1    2    0    0 -0.10445112774E+01  0.41358982958E+00  0.36198779242E+00  0.90007705326E+02  0.89999966236E+02 0.  0.
         12    1    1    2    0    0  0.10445112774E+01 -0.41358982958E+00 -0.36198779242E+00  0.11802946740E+01  0.00000000000E+00 0. -1.
         11    1    3    3    0    0  0.38527792038E+01  0.96213879416E+00  0.89003031870E+01  0.97460256379E+01  0.51100000000E-03 0. -1.
        -11    1    3    3    0    0 -0.16629041900E+02  0.33691779828E+02  0.10975131507E+02  0.39142235174E+02  0.51100000000E-03 0.  1.
         12    1    3    3    0    0  0.11731751419E+02 -0.34240328793E+02 -0.19513446901E+02  0.41119444515E+02  0.00000000000E+00 0. -1.
</event>
<event>
 7    1  0.1698110E-015  0.9000775E+02  0.7816164E-02  0.1186339E+00
        -11   -1    0    0    0    0  0.00000000000E+00  0.00000000000E+00  0.45593999997E+02  0.45594000000E+02  0.51100000000E-03 0.  1.
         11   -1    0    0    0    0 -0.00000000000E+00 -0.00000000000E+00 -0.45593999997E+02  0.45594000000E+02  0.51100000000E-03 0. -1.
    9900012    2    1    2    0    0  0.64099984116E+00  0.61565281808E+00 -0.77659021743E+00  0.90007745132E+02  0.90000006567E+02 0.  0.
         12    1    1    2    0    0 -0.64099984116E+00 -0.61565281808E+00  0.77659021743E+00  0.11802548685E+01  0.00000000000E+00 0. -1.
         11    1    3    3    0    0 -0.34429941347E+02  0.18782988507E+02 -0.44368249359E+01  0.39470329796E+02  0.51100000000E-03 0. -1.
        -11    1    3    3    0    0  0.50098641876E+01  0.87280361874E+01  0.10032698226E+01  0.10113550586E+02  0.51100000000E-03 0.  1.
        -12    1    3    3    0    0  0.30061077001E+02 -0.26895371876E+02  0.26569648960E+01  0.40423864749E+02  0.00000000000E+00 0.  1.
</event>
<event>
 7    1  0.1698110E-015  0.9000781E+02  0.7816164E-02  0.1186339E+00
        -11   -1    0    0    0    0  0.00000000000E+00  0.00000000000E+00  0.45593999997E+02  0.45594000000E+02  0.51100000000E-03 0. -1.
         11   -1    0    0    0    0 -0.00000000000E+00 -0.00000000000E+00 -0.45593999997E+02  0.45594000000E+02  0.51100000000E-03 0.  1.
    9900012    2    1    2    0    0 -0.33878281091E-01  0.11794009502E+01 -0.26549354968E-01  0.90007813910E+02  0.90000076253E+02 0.  0.
         12    1    1    2    0    0  0.33878281091E-01 -0.11794009502E+01  0.26549354968E-01  0.11801860902E+01  0.00000000000E+00 0. -1.
         11    1    3    3    0    0 -0.35859155473E+02  0.63298377859E+01  0.98392435586E+01  0.37719445803E+02  0.51100000000E-03 0. -1.
        -11    1    3    3    0    0 -0.65647812398E+01  0.33705999005E+01 -0.46850097892E+01  0.87410876555E+01  0.51100000000E-03 0.  1.
        -12    1    3    3    0    0  0.42390058432E+02 -0.85210367362E+01 -0.51807831243E+01  0.43547280451E+02  0.00000000000E+00 0.  1.
</event>
<event>
 7    1  0.1698110E-015  0.9000680E+02  0.7816164E-02  0.1186341E+00
        -11   -1    0    0    0    0  0.00000000000E+00  0.00000000000E+00  0.45593999997E+02  0.45594000000E+02  0.51100000000E-03 0.  1.
         11   -1    0    0    0    0 -0.00000000000E+00 -0.00000000000E+00 -0.45593999997E+02  0.45594000000E+02  0.51100000000E-03 0. -1.
    9900012    2    1    2    0    0 -0.39331111820E+00 -0.95965551682E+00  0.56532784490E+00  0.90006802337E+02  0.89999051323E+02 0.  0.
         12    1    1    2    0    0  0.39331111820E+00  0.95965551682E+00 -0.56532784490E+00  0.11811976629E+01  0.00000000000E+00 0. -1.
         11    1    3    3    0    0 -0.25312255165E+02 -0.25806711243E+02 -0.13696167863E+02  0.38655939014E+02  0.51100000000E-03 0. -1.
        -11    1    3    3    0    0  0.95525205402E+01 -0.82821278992E+01  0.18366877178E+01  0.12775668798E+02  0.51100000000E-03 0.  1.
        -12    1    3    3    0    0  0.15366423506E+02  0.33129183625E+02  0.12424807990E+02  0.38575194525E+02  0.00000000000E+00 0.  1.
</event>
<event>
 7    1  0.1698110E-015  0.9000766E+02  0.7816164E-02  0.1186339E+00
        -11   -1    0    0    0    0  0.00000000000E+00  0.00000000000E+00  0.45593999997E+02  0.45594000000E+02  0.51100000000E-03 0.  1.
         11   -1    0    0    0    0 -0.00000000000E+00 -0.00000000000E+00 -0.45593999997E+02  0.45594000000E+02  0.51100000000E-03 0. -1.
    9900012    2    1    2    0    0 -0.56187194653E+00 -0.41840636357E+00  0.94997330466E+00  0.90007655453E+02  0.89999915705E+02 0.  0.
         12    1    1    2    0    0  0.56187194653E+00  0.41840636357E+00 -0.94997330466E+00  0.11803445467E+01  0.00000000000E+00 0. -1.
         11    1    3    3    0    0  0.17168187169E+02  0.35137755945E+02  0.13794522053E+01  0.39131974550E+02  0.51100000000E-03 0. -1.
        -11    1    3    3    0    0 -0.52776275926E+01  0.32842505058E+01  0.70594236273E+01  0.94061212305E+01  0.51100000000E-03 0.  1.
        -12    1    3    3    0    0 -0.12452431523E+02 -0.38840412814E+02 -0.74889025280E+01  0.41469559673E+02  0.00000000000E+00 0.  1.
</event>
<event>
 7    1  0.1698110E-015  0.9000772E+02  0.7816164E-02  0.1186339E+00
        -11   -1    0    0    0    0  0.00000000000E+00  0.00000000000E+00  0.45593999997E+02  0.45594000000E+02  0.51100000000E-03 0.  1.
         11   -1    0    0    0    0 -0.00000000000E+00 -0.00000000000E+00 -0.45593999997E+02  0.45594000000E+02  0.51100000000E-03 0. -1.
    9900012    2    1    2    0    0  0.65237763098E+00 -0.87840271247E+00 -0.44257501894E+00  0.90007720141E+02  0.89999981247E+02 0.  0.
         12    1    1    2    0    0 -0.65237763098E+00  0.87840271247E+00  0.44257501894E+00  0.11802798592E+01  0.00000000000E+00 0. -1.
         11    1    3    3    0    0  0.13696661045E+02 -0.56761357571E+00 -0.24267190795E+02  0.27871441625E+02  0.51100000000E-03 0. -1.
        -11    1    3    3    0    0  0.20770146248E+02 -0.62158174475E+01  0.15958338878E+02  0.26920325810E+02  0.51100000000E-03 0.  1.
        -12    1    3    3    0    0 -0.33814429662E+02  0.59050283107E+01  0.78662768976E+01  0.35215952705E+02  0.00000000000E+00 0.  1.
</event>
<event>
 7    1  0.1698110E-015  0.9000789E+02  0.7816164E-02  0.1186339E+00
        -11   -1    0    0    0    0  0.00000000000E+00  0.00000000000E+00  0.45593999997E+02  0.45594000000E+02  0.51100000000E-03 0.  1.
         11   -1    0    0    0    0 -0.00000000000E+00 -0.00000000000E+00 -0.45593999997E+02  0.45594000000E+02  0.51100000000E-03 0. -1.
    9900012    2    1    2    0    0 -0.17769129279E-01  0.79865638755E+00  0.86860839242E+00  0.90007894790E+02  0.90000158201E+02 0.  0.
         12    1    1    2    0    0  0.17769129279E-01 -0.79865638755E+00 -0.86860839242E+00  0.11801052100E+01  0.00000000000E+00 0. -1.
         11    1    3    3    0    0 -0.12074228780E+02 -0.26817134009E+02 -0.21736692388E+02  0.36570882862E+02  0.51100000000E-03 0. -1.
        -11    1    3    3    0    0  0.24109143390E+00  0.27310006245E+00 -0.95780987569E+01  0.95850239844E+01  0.51100000000E-03 0.  1.
        -12    1    3    3    0    0  0.11815368217E+02  0.27342690334E+02  0.32183399537E+02  0.43851987943E+02  0.00000000000E+00 0.  1.
</event>
<event>
 7    1  0.1698110E-015  0.9000777E+02  0.7816164E-02  0.1186339E+00
        -11   -1    0    0    0    0  0.00000000000E+00  0.00000000000E+00  0.45593999997E+02  0.45594000000E+02  0.51100000000E-03 0. -1.
         11   -1    0    0    0    0 -0.00000000000E+00 -0.00000000000E+00 -0.45593999997E+02  0.45594000000E+02  0.51100000000E-03 0.  1.
    9900012    2    1    2    0    0 -0.22720042960E+00 -0.18627132119E+00 -0.11430726735E+01  0.90007774523E+02  0.90000036346E+02 0.  0.
         12    1    1    2    0    0  0.22720042960E+00  0.18627132119E+00  0.11430726735E+01  0.11802254773E+01  0.00000000000E+00 0. -1.
         11    1    3    3    0    0  0.37538523780E+02  0.11679741918E+02 -0.60744221169E+00  0.39318267067E+02  0.51100000000E-03 0. -1.
        -11    1    3    3    0    0 -0.60951053981E+01  0.97989490043E+01 -0.38737334879E+01  0.12172736866E+02  0.51100000000E-03 0.  1.
        -12    1    3    3    0    0 -0.31670618811E+02 -0.21664962243E+02  0.33381030261E+01  0.38516770590E+02  0.00000000000E+00 0.  1.
</event>
<event>
 7    1  0.1698110E-015  0.9000775E+02  0.7816164E-02  0.1186339E+00
        -11   -1    0    0    0    0  0.00000000000E+00  0.00000000000E+00  0.45593999997E+02  0.45594000000E+02  0.51100000000E-03 0.  1.
         11   -1    0    0    0    0 -0.00000000000E+00 -0.00000000000E+00 -0.45593999997E+02  0.45594000000E+02  0.51100000000E-03 0. -1.
    9900012    2    1    2    0    0 -0.28579037552E+00 -0.76857004676E+00  0.84889322697E+00  0.90007747584E+02  0.90000009052E+02 0.  0.
         12    1    1    2    0    0  0.28579037552E+00  0.76857004676E+00 -0.84889322697E+00  0.11802524164E+01  0.00000000000E+00 0. -1.
         11    1    3    3    0    0  0.15556831799E+02  0.11097313981E+02 -0.37078031107E+02  0.41712657363E+02  0.51100000000E-03 0. -1.
        -11    1    3    3    0    0 -0.79631611010E+01 -0.21150343276E+01 -0.11568320160E+00  0.82400660065E+01  0.51100000000E-03 0.  1.
        -12    1    3    3    0    0 -0.78794610730E+01 -0.97508497000E+01  0.38042607536E+02  0.40055024214E+02  0.00000000000E+00 0.  1.
</event>
<event>
 7    1  0.1698110E-015  0.9000779E+02  0.7816164E-02  0.1186339E+00
        -11   -1    0    0    0    0  0.00000000000E+00  0.00000000000E+00  0.45593999997E+02  0.45594000000E+02  0.51100000000E-03 0. -1.
         11   -1    0    0    0    0 -0.00000000000E+00 -0.00000000000E+00 -0.45593999997E+02  0.45594000000E+02  0.51100000000E-03 0.  1.
    9900012    2    1    2    0    0  0.38915093020E+00 -0.61632307170E+00 -0.92822638780E+00  0.90007789509E+02  0.90000051531E+02 0.  0.
         12    1    1    2    0    0 -0.38915093020E+00  0.61632307170E+00  0.92822638780E+00  0.11802104906E+01  0.00000000000E+00 0. -1.
         11    1    3    3    0    0  0.75675537777E+00  0.80052599257E+01 -0.52207074693E+01  0.95871086320E+01  0.51100000000E-03 0. -1.
        -11    1    3    3    0    0  0.37234204497E+02 -0.16737132774E+02 -0.41630258983E+01  0.41034721674E+02  0.51100000000E-03 0.  1.
         12    1    3    3    0    0 -0.37601808944E+02  0.81155497771E+01  0.84555069798E+01  0.39385959203E+02  0.00000000000E+00 0. -1.
</event>
<event>
 7    1  0.1698110E-015  0.9000711E+02  0.7816164E-02  0.1186340E+00
        -11   -1    0    0    0    0  0.00000000000E+00  0.00000000000E+00  0.45593999997E+02  0.45594000000E+02  0.51100000000E-03 0. -1.
         11   -1    0    0    0    0 -0.00000000000E+00 -0.00000000000E+00 -0.45593999997E+02  0.45594000000E+02  0.51100000000E-03 0.  1.
    9900012    2    1    2    0    0  0.64541899126E+00 -0.41701193159E+00 -0.89667477943E+00  0.90007114618E+02  0.89999367729E+02 0.  0.
         12    1    1    2    0    0 -0.64541899126E+00  0.41701193159E+00  0.89667477943E+00  0.11808853820E+01  0.00000000000E+00 0. -1.
         11    1    3    3    0    0 -0.12169898133E+01  0.37777138489E+01 -0.21908039266E+01  0.45334102214E+01  0.51100000000E-03 0. -1.
        -11    1    3    3    0    0 -0.86224326230E+00 -0.94121549291E+01 -0.41354495000E+02  0.42420824848E+02  0.51100000000E-03 0.  1.
         12    1    3    3    0    0  0.27246520669E+01  0.52174291486E+01  0.42648624147E+02  0.43052879549E+02  0.00000000000E+00 0. -1.
</event>
<event>
 7    1  0.1698110E-015  0.9000765E+02  0.7816164E-02  0.1186339E+00
        -11   -1    0    0    0    0  0.00000000000E+00  0.00000000000E+00  0.45593999997E+02  0.45594000000E+02  0.51100000000E-03 0. -1.
         11   -1    0    0    0    0 -0.00000000000E+00 -0.00000000000E+00 -0.45593999997E+02  0.45594000000E+02  0.51100000000E-03 0.  1.
    9900012    2    1    2    0    0 -0.19513765907E+00  0.60676987875E+00 -0.99346628214E+00  0.90007651049E+02  0.89999911243E+02 0.  0.
         12    1    1    2    0    0  0.19513765907E+00 -0.60676987875E+00  0.99346628214E+00  0.11803489507E+01  0.00000000000E+00 0. -1.
         11    1    3    3    0    0  0.56112276448E+01 -0.46596023399E+00  0.72810929034E+01  0.92042006036E+01  0.51100000000E-03 0. -1.
        -11    1    3    3    0    0 -0.76461634605E+01 -0.38060524319E+02 -0.13880635397E+02  0.41227895488E+02  0.51100000000E-03 0.  1.
         12    1    3    3    0    0  0.18397981567E+01  0.39133254432E+02  0.56060762114E+01  0.39575554957E+02  0.00000000000E+00 0. -1.
</event>
<event>
 7    1  0.1726274E-015  0.9000779E+02  0.7816164E-02  0.1186339E+00
        -11   -1    0    0    0    0  0.00000000000E+00  0.00000000000E+00  0.45593999997E+02  0.45594000000E+02  0.51100000000E-03 0.  1.
         11   -1    0    0    0    0 -0.00000000000E+00 -0.00000000000E+00 -0.45593999997E+02  0.45594000000E+02  0.51100000000E-03 0. -1.
    9900012    2    1    2    0    0 -0.24241485234E+00 -0.35548452656E+00  0.10989821666E+01  0.90007789844E+02  0.90000051870E+02 0.  0.
         12    1    1    2    0    0  0.24241485234E+00  0.35548452656E+00 -0.10989821666E+01  0.11802101558E+01  0.00000000000E+00 0. -1.
         11    1    3    3    0    0 -0.65607325765E+01  0.13653069568E+01 -0.61878668941E+01  0.91212374153E+01  0.51100000000E-03 0. -1.
        -11    1    3    3    0    0 -0.12086277928E+02 -0.27254467472E+02  0.29827086013E+02  0.42172730189E+02  0.51100000000E-03 0.  1.
         12    1    3    3    0    0  0.18404595652E+02  0.25533675988E+02 -0.22540236952E+02  0.38713822240E+02  0.00000000000E+00 0. -1.
</event>
<event>
 7    1  0.1698110E-015  0.9000779E+02  0.7816164E-02  0.1186339E+00
        -11   -1    0    0    0    0  0.00000000000E+00  0.00000000000E+00  0.45593999997E+02  0.45594000000E+02  0.51100000000E-03 0.  1.
         11   -1    0    0    0    0 -0.00000000000E+00 -0.00000000000E+00 -0.45593999997E+02  0.45594000000E+02  0.51100000000E-03 0. -1.
    9900012    2    1    2    0    0 -0.17660308533E+00 -0.18331054702E-01  0.11667758964E+01  0.90007792107E+02  0.90000054163E+02 0.  0.
         12    1    1    2    0    0  0.17660308533E+00  0.18331054702E-01 -0.11667758964E+01  0.11802078926E+01  0.00000000000E+00 0. -1.
         11    1    3    3    0    0  0.59897674757E+01 -0.26922388298E+01 -0.67610860696E+01  0.94253779463E+01  0.51100000000E-03 0. -1.
        -11    1    3    3    0    0  0.33287814703E+02  0.14719878271E+02  0.13777681147E+02  0.38917578574E+02  0.51100000000E-03 0.  1.
         12    1    3    3    0    0 -0.39454185264E+02 -0.12045970496E+02 -0.58498191809E+01  0.41664835587E+02  0.00000000000E+00 0. -1.
</event>
<event>
 7    1  0.1698110E-015  0.9000785E+02  0.7816164E-02  0.1186339E+00
        -11   -1    0    0    0    0  0.00000000000E+00  0.00000000000E+00  0.45593999997E+02  0.45594000000E+02  0.51100000000E-03 0.  1.
         11   -1    0    0    0    0 -0.00000000000E+00 -0.00000000000E+00 -0.45593999997E+02  0.45594000000E+02  0.51100000000E-03 0. -1.
    9900012    2    1    2    0    0  0.10211476661E+01  0.12564667866E+00  0.57812082182E+00  0.90007850294E+02  0.90000113118E+02 0.  0.
         12    1    1    2    0    0 -0.10211476661E+01 -0.12564667866E+00 -0.57812082182E+00  0.11801497060E+01  0.00000000000E+00 0. -1.
         11    1    3    3    0    0 -0.72181657357E+01 -0.62230200491E+01 -0.88770188072E+01  0.13024183594E+02  0.51100000000E-03 0. -1.
        -11    1    3    3    0    0 -0.21665891238E+02 -0.22941208824E+02  0.14674256161E+02  0.34800053155E+02  0.51100000000E-03 0.  1.
         12    1    3    3    0    0  0.29905204640E+02  0.29289875551E+02 -0.52191165323E+01  0.42183613545E+02  0.00000000000E+00 0. -1.
</event>
<event>
 7    1  0.1698110E-015  0.9000800E+02  0.7816164E-02  0.1186339E+00
        -11   -1    0    0    0    0  0.00000000000E+00  0.00000000000E+00  0.45593999997E+02  0.45594000000E+02  0.51100000000E-03 0. -1.
         11   -1    0    0    0    0 -0.00000000000E+00 -0.00000000000E+00 -0.45593999997E+02  0.45594000000E+02  0.51100000000E-03 0.  1.
    9900012    2    1    2    0    0  0.80644770440E+00  0.40566439371E+00 -0.75991548924E+00  0.90008002944E+02  0.90000267783E+02 0.  0.
         12    1    1    2    0    0 -0.80644770440E+00 -0.40566439371E+00  0.75991548924E+00  0.11799970555E+01  0.00000000000E+00 0. -1.
         11    1    3    3    0    0 -0.12988879890E+01 -0.88942790959E+01 -0.63857570485E+01  0.11026023943E+02  0.51100000000E-03 0. -1.
        -11    1    3    3    0    0 -0.50368624897E+01 -0.30116547558E+02 -0.14894206948E+02  0.33973722513E+02  0.51100000000E-03 0.  1.
         12    1    3    3    0    0  0.71421981831E+01  0.39416491047E+02  0.20520048507E+02  0.45008256488E+02  0.00000000000E+00 0. -1.
</event>
<event>
 7    1  0.1698110E-015  0.9000785E+02  0.7816164E-02  0.1186339E+00
        -11   -1    0    0    0    0  0.00000000000E+00  0.00000000000E+00  0.45593999997E+02  0.45594000000E+02  0.51100000000E-03 0.  1.
         11   -1    0    0    0    0 -0.00000000000E+00 -0.00000000000E+00 -0.45593999997E+02  0.45594000000E+02  0.51100000000E-03 0. -1.
    9900012    2    1    2    0    0  0.39020432329E+00 -0.24877429228E+00  0.10856345302E+01  0.90007851537E+02  0.90000114377E+02 0.  0.
         12    1    1    2    0    0 -0.39020432329E+00  0.24877429228E+00 -0.10856345302E+01  0.11801484633E+01  0.00000000000E+00 0. -1.
         11    1    3    3    0    0 -0.43905749574E+01 -0.32507600006E+02 -0.14543264660E+02  0.35882136975E+02  0.51100000000E-03 0. -1.
        -11    1    3    3    0    0  0.14643613109E+02 -0.32190346482E+01  0.48136956786E+01  0.15747039572E+02  0.51100000000E-03 0.  1.
        -12    1    3    3    0    0 -0.98628338279E+01  0.35477860362E+02  0.10815203512E+02  0.38378674990E+02  0.00000000000E+00 0.  1.
</event>
<event>
 7    1  0.1698110E-015  0.9000758E+02  0.7816164E-02  0.1186339E+00
        -11   -1    0    0    0    0  0.00000000000E+00  0.00000000000E+00  0.45593999997E+02  0.45594000000E+02  0.51100000000E-03 0.  1.
         11   -1    0    0    0    0 -0.00000000000E+00 -0.00000000000E+00 -0.45593999997E+02  0.45594000000E+02  0.51100000000E-03 0. -1.
    9900012    2    1    2    0    0 -0.10675776442E+01 -0.33917457914E+00 -0.37232911557E+00  0.90007580417E+02  0.89999839678E+02 0.  0.
         12    1    1    2    0    0  0.10675776442E+01  0.33917457914E+00  0.37232911557E+00  0.11804195829E+01  0.00000000000E+00 0. -1.
         11    1    3    3    0    0  0.26910074567E+01  0.17771708421E+01  0.99588117277E+01  0.10467940993E+02  0.51100000000E-03 0. -1.
        -11    1    3    3    0    0  0.85291884892E+01 -0.36116569927E+02  0.94979379945E+01  0.38306194094E+02  0.51100000000E-03 0.  1.
         12    1    3    3    0    0 -0.12287773590E+02  0.34000224506E+02 -0.19829078838E+02  0.41233445330E+02  0.00000000000E+00 0. -1.
</event>
<event>
 7    1  0.1698110E-015  0.9000773E+02  0.7816164E-02  0.1186339E+00
        -11   -1    0    0    0    0  0.00000000000E+00  0.00000000000E+00  0.45593999997E+02  0.45594000000E+02  0.51100000000E-03 0.  1.
         11   -1    0    0    0    0 -0.00000000000E+00 -0.00000000000E+00 -0.45593999997E+02  0.45594000000E+02  0.51100000000E-03 0. -1.
    9900012    2    1    2    0    0  0.37125239032E+00 -0.80516312351E+00  0.77905070173E+00  0.90007730544E+02  0.89999991787E+02 0.  0.
         12    1    1    2    0    0 -0.37125239032E+00  0.80516312351E+00 -0.77905070173E+00  0.11802694559E+01  0.00000000000E+00 0. -1.
         11    1    3    3    0    0 -0.65071969246E+01 -0.69385709271E+01 -0.41466489672E+01  0.10376997458E+02  0.51100000000E-03 0. -1.
        -11    1    3    3    0    0 -0.27971756359E+02 -0.89871675026E+00 -0.21534406166E+02  0.35312285324E+02  0.51100000000E-03 0.  1.
         12    1    3    3    0    0  0.34850205674E+02  0.70321245538E+01  0.26460105835E+02  0.44318447762E+02  0.00000000000E+00 0. -1.
</event>
<event>
 7    1  0.1698110E-015  0.9000774E+02  0.7816164E-02  0.1186339E+00
        -11   -1    0    0    0    0  0.00000000000E+00  0.00000000000E+00  0.45593999997E+02  0.45594000000E+02  0.51100000000E-03 0. -1.
         11   -1    0    0    0    0 -0.00000000000E+00 -0.00000000000E+00 -0.45593999997E+02  0.45594000000E+02  0.51100000000E-03 0.  1.
    9900012    2    1    2    0    0  0.56425778703E+00  0.80322884350E+00 -0.65532911363E+00  0.90007737456E+02  0.89999998791E+02 0.  0.
         12    1    1    2    0    0 -0.56425778703E+00 -0.80322884350E+00  0.65532911363E+00  0.11802625439E+01  0.00000000000E+00 0. -1.
         11    1    3    3    0    0 -0.37132290629E+01  0.92210238385E+01 -0.29253723490E+01  0.10362101830E+02  0.51100000000E-03 0. -1.
        -11    1    3    3    0    0  0.29799749258E+02 -0.20419996549E+02 -0.22119666330E+02  0.42358953643E+02  0.51100000000E-03 0.  1.
         12    1    3    3    0    0 -0.25522262408E+02  0.12002201554E+02  0.24389709565E+02  0.37286681983E+02  0.00000000000E+00 0. -1.
</event>
<event>
 7    1  0.1698110E-015  0.9000775E+02  0.7816164E-02  0.1186339E+00
        -11   -1    0    0    0    0  0.00000000000E+00  0.00000000000E+00  0.45593999997E+02  0.45594000000E+02  0.51100000000E-03 0. -1.
         11   -1    0    0    0    0 -0.00000000000E+00 -0.00000000000E+00 -0.45593999997E+02  0.45594000000E+02  0.51100000000E-03 0.  1.
    9900012    2    1    2    0    0 -0.73609546655E+00 -0.37629171003E+00 -0.84235159180E+00  0.90007750793E+02  0.90000012303E+02 0.  0.
         12    1    1    2    0    0  0.73609546655E+00  0.37629171003E+00  0.84235159180E+00  0.11802492072E+01  0.00000000000E+00 0. -1.
         11    1    3    3    0    0 -0.15823688821E+01  0.52758697742E+01 -0.65975731588E+01  0.85945718335E+01  0.51100000000E-03 0. -1.
        -11    1    3    3    0    0 -0.93592154814E+01  0.24317880621E+02 -0.25831560873E+02  0.36690922170E+02  0.51100000000E-03 0.  1.
         12    1    3    3    0    0  0.10205488897E+02 -0.29970042105E+02  0.31586782440E+02  0.44722256789E+02  0.00000000000E+00 0. -1.
</event>
<event>
 7    1  0.1698110E-015  0.9000775E+02  0.7816164E-02  0.1186339E+00
        -11   -1    0    0    0    0  0.00000000000E+00  0.00000000000E+00  0.45593999997E+02  0.45594000000E+02  0.51100000000E-03 0.  1.
         11   -1    0    0    0    0 -0.00000000000E+00 -0.00000000000E+00 -0.45593999997E+02  0.45594000000E+02  0.51100000000E-03 0. -1.
    9900012    2    1    2    0    0  0.35875053882E-01 -0.16583086986E+00  0.11679879820E+01  0.90007753067E+02  0.90000014607E+02 0.  0.
         12    1    1    2    0    0 -0.35875053882E-01  0.16583086986E+00 -0.11679879820E+01  0.11802469331E+01  0.00000000000E+00 0. -1.
         11    1    3    3    0    0  0.87140772562E+01  0.73651673352E+00  0.40109824262E+01  0.96211007484E+01  0.51100000000E-03 0. -1.
        -11    1    3    3    0    0 -0.35123405265E+01  0.30485710448E+02 -0.26658078983E+02  0.40649332748E+02  0.51100000000E-03 0.  1.
         12    1    3    3    0    0 -0.51658616758E+01 -0.31388058051E+02  0.23815084539E+02  0.39737319571E+02  0.00000000000E+00 0. -1.
</event>
<event>
 7    1  0.1698110E-015  0.9000757E+02  0.7816164E-02  0.1186339E+00
        -11   -1    0    0    0    0  0.00000000000E+00  0.00000000000E+00  0.45593999997E+02  0.45594000000E+02  0.51100000000E-03 0.  1.
         11   -1    0    0    0    0 -0.00000000000E+00 -0.00000000000E+00 -0.45593999997E+02  0.45594000000E+02  0.51100000000E-03 0. -1.
    9900012    2    1    2    0    0  0.53256102209E+00  0.42831643684E+00  0.96246072640E+00  0.90007573441E+02  0.89999832610E+02 0.  0.
         12    1    1    2    0    0 -0.53256102209E+00 -0.42831643684E+00 -0.96246072640E+00  0.11804265594E+01  0.00000000000E+00 0. -1.
         11    1    3    3    0    0  0.18800917028E+02  0.34037880580E+02  0.10982245634E+02  0.40406206391E+02  0.51100000000E-03 0. -1.
        -11    1    3    3    0    0  0.57749715523E+01 -0.23765538917E+01 -0.79800824309E+01  0.10133115054E+02  0.51100000000E-03 0.  1.
        -12    1    3    3    0    0 -0.24043327559E+02 -0.31233010251E+02 -0.20397024768E+01  0.39468251996E+02  0.00000000000E+00 0.  1.
</event>
<event>
 7    1  0.1698110E-015  0.9000775E+02  0.7816164E-02  0.1186339E+00
        -11   -1    0    0    0    0  0.00000000000E+00  0.00000000000E+00  0.45593999997E+02  0.45594000000E+02  0.51100000000E-03 0. -1.
         11   -1    0    0    0    0 -0.00000000000E+00 -0.00000000000E+00 -0.45593999997E+02  0.45594000000E+02  0.51100000000E-03 0.  1.
    9900012    2    1    2    0    0 -0.74718028236E+00  0.13809402318E+00 -0.90313350693E+00  0.90007746440E+02  0.90000007893E+02 0.  0.
         12    1    1    2    0    0  0.74718028236E+00 -0.13809402318E+00  0.90313350693E+00  0.11802535596E+01  0.00000000000E+00 0. -1.
         11    1    3    3    0    0 -0.11118074531E+01 -0.35485715960E+02 -0.17539150438E+02  0.39599166043E+02  0.51100000000E-03 0. -1.
        -11    1    3    3    0    0  0.64464470103E+01 -0.38384244980E+01  0.41486397879E+01  0.85732954011E+01  0.51100000000E-03 0.  1.
        -12    1    3    3    0    0 -0.60818198396E+01  0.39462234481E+02  0.12487377143E+02  0.41835284996E+02  0.00000000000E+00 0.  1.
</event>
<event>
 7    1  0.1698110E-015  0.9000768E+02  0.7816164E-02  0.1186339E+00
        -11   -1    0    0    0    0  0.00000000000E+00  0.00000000000E+00  0.45593999997E+02  0.45594000000E+02  0.51100000000E-03 0. -1.
         11   -1    0    0    0    0 -0.00000000000E+00 -0.00000000000E+00 -0.45593999997E+02  0.45594000000E+02  0.51100000000E-03 0.  1.
    9900012    2    1    2    0    0  0.76528769474E+00 -0.83669128940E+00  0.32777188736E+00  0.90007681408E+02  0.89999942002E+02 0.  0.
         12    1    1    2    0    0 -0.76528769474E+00  0.83669128940E+00 -0.32777188736E+00  0.11803185924E+01  0.00000000000E+00 0. -1.
         11    1    3    3    0    0 -0.21196128945E+02  0.32319175132E+02 -0.31393614480E+01  0.38777062215E+02  0.51100000000E-03 0. -1.
        -11    1    3    3    0    0  0.97141475660E+01  0.45221060359E+01 -0.29074111050E+01  0.11102573824E+02  0.51100000000E-03 0.  1.
        -12    1    3    3    0    0  0.12247269073E+02 -0.37677972457E+02  0.63745444404E+01  0.40128045368E+02  0.00000000000E+00 0.  1.
</event>
<event>
 7    1  0.1698110E-015  0.9000774E+02  0.7816164E-02  0.1186339E+00
        -11   -1    0    0    0    0  0.00000000000E+00  0.00000000000E+00  0.45593999997E+02  0.45594000000E+02  0.51100000000E-03 0. -1.
         11   -1    0    0    0    0 -0.00000000000E+00 -0.00000000000E+00 -0.45593999997E+02  0.45594000000E+02  0.51100000000E-03 0.  1.
    9900012    2    1    2    0    0  0.81078415460E-01  0.46413388922E+00 -0.10821370531E+01  0.90007739614E+02  0.90000000977E+02 0.  0.
         12    1    1    2    0    0 -0.81078415460E-01 -0.46413388922E+00  0.10821370531E+01  0.11802603858E+01  0.00000000000E+00 0. -1.
         11    1    3    3    0    0  0.15746208905E+02  0.12182854282E+01  0.34271646838E+02  0.37735567990E+02  0.51100000000E-03 0. -1.
        -11    1    3    3    0    0  0.46453502520E+01  0.77749671994E+01  0.16516410701E+01  0.92063734663E+01  0.51100000000E-03 0.  1.
        -12    1    3    3    0    0 -0.20310480741E+02 -0.85291187384E+01 -0.37005424961E+02  0.43065798158E+02  0.00000000000E+00 0.  1.
</event>
<event>
 7    1  0.1698110E-015  0.9000776E+02  0.7816164E-02  0.1186339E+00
        -11   -1    0    0    0    0  0.00000000000E+00  0.00000000000E+00  0.45593999997E+02  0.45594000000E+02  0.51100000000E-03 0. -1.
         11   -1    0    0    0    0 -0.00000000000E+00 -0.00000000000E+00 -0.45593999997E+02  0.45594000000E+02  0.51100000000E-03 0.  1.
    9900012    2    1    2    0    0 -0.25280686979E+00 -0.95236403130E+00  0.64965368078E+00  0.90007763385E+02  0.90000025062E+02 0.  0.
         12    1    1    2    0    0  0.25280686979E+00  0.95236403130E+00 -0.64965368078E+00  0.11802366146E+01  0.00000000000E+00 0. -1.
         11    1    3    3    0    0 -0.12039885328E+02  0.10012587867E+02 -0.23864013327E+01  0.15840002086E+02  0.51100000000E-03 0. -1.
        -11    1    3    3    0    0 -0.26940837634E+02 -0.17698233107E+02 -0.82455729299E+01  0.33271995142E+02  0.51100000000E-03 0.  1.
         12    1    3    3    0    0  0.38727916091E+02  0.67332812087E+01  0.11281627943E+02  0.40895766158E+02  0.00000000000E+00 0. -1.
</event>
<event>
 7    1  0.1698110E-015  0.9000773E+02  0.7816164E-02  0.1186339E+00
        -11   -1    0    0    0    0  0.00000000000E+00  0.00000000000E+00  0.45593999997E+02  0.45594000000E+02  0.51100000000E-03 0. -1.
         11   -1    0    0    0    0 -0.00000000000E+00 -0.00000000000E+00 -0.45593999997E+02  0.45594000000E+02  0.51100000000E-03 0.  1.
    9900012    2    1    2    0    0  0.84096922823E+00 -0.24916079410E+00 -0.78976498179E+00  0.90007729238E+02  0.89999990464E+02 0.  0.
         12    1    1    2    0    0 -0.84096922823E+00  0.24916079410E+00  0.78976498179E+00  0.11802707616E+01  0.00000000000E+00 0. -1.
         11    1    3    3    0    0 -0.10672304538E+02  0.13511918884E+02 -0.70490603437E+01  0.18605356435E+02  0.51100000000E-03 0. -1.
        -11    1    3    3    0    0 -0.25141269120E+02 -0.91678386679E+00 -0.12700409762E+02  0.28181985629E+02  0.51100000000E-03 0.  1.
         12    1    3    3    0    0  0.36654542886E+02 -0.12844295811E+02  0.18959705124E+02  0.43220387174E+02  0.00000000000E+00 0. -1.
</event>
<event>
 7    1  0.1698110E-015  0.9000774E+02  0.7816164E-02  0.1186339E+00
        -11   -1    0    0    0    0  0.00000000000E+00  0.00000000000E+00  0.45593999997E+02  0.45594000000E+02  0.51100000000E-03 0. -1.
         11   -1    0    0    0    0 -0.00000000000E+00 -0.00000000000E+00 -0.45593999997E+02  0.45594000000E+02  0.51100000000E-03 0.  1.
    9900012    2    1    2    0    0 -0.81388218064E+00 -0.77387884705E-01 -0.85124233252E+00  0.90007742995E+02  0.90000004403E+02 0.  0.
         12    1    1    2    0    0  0.81388218064E+00  0.77387884705E-01  0.85124233252E+00  0.11802570048E+01  0.00000000000E+00 0. -1.
         11    1    3    3    0    0  0.14177767908E+02  0.46570610844E+00  0.35353757600E+02  0.38093492380E+02  0.51100000000E-03 0. -1.
        -11    1    3    3    0    0  0.53597643847E+01 -0.96632620494E+01 -0.22288429980E+01  0.11272685974E+02  0.51100000000E-03 0.  1.
        -12    1    3    3    0    0 -0.20351414474E+02  0.91201680562E+01 -0.33976156934E+02  0.40641564641E+02  0.00000000000E+00 0.  1.
</event>
<event>
 7    1  0.1698110E-015  0.9000771E+02  0.7816164E-02  0.1186339E+00
        -11   -1    0    0    0    0  0.00000000000E+00  0.00000000000E+00  0.45593999997E+02  0.45594000000E+02  0.51100000000E-03 0.  1.
         11   -1    0    0    0    0 -0.00000000000E+00 -0.00000000000E+00 -0.45593999997E+02  0.45594000000E+02  0.51100000000E-03 0. -1.
    9900012    2    1    2    0    0 -0.51674157207E+00  0.10575302937E+01 -0.87711328857E-01  0.90007709590E+02  0.89999970557E+02 0.  0.
         12    1    1    2    0    0  0.51674157207E+00 -0.10575302937E+01  0.87711328857E-01  0.11802904098E+01  0.00000000000E+00 0. -1.
         11    1    3    3    0    0 -0.62171445188E+01 -0.32613009370E+01 -0.87660535098E+01  0.11230879937E+02  0.51100000000E-03 0. -1.
        -11    1    3    3    0    0  0.20857546094E+02  0.29103081038E+02 -0.17334789901E+02  0.39780918744E+02  0.51100000000E-03 0.  1.
         12    1    3    3    0    0 -0.15157143147E+02 -0.24784249807E+02  0.26013132082E+02  0.38995910909E+02  0.00000000000E+00 0. -1.
</event>
<event>
 7    1  0.1698110E-015  0.9000773E+02  0.7816164E-02  0.1186339E+00
        -11   -1    0    0    0    0  0.00000000000E+00  0.00000000000E+00  0.45593999997E+02  0.45594000000E+02  0.51100000000E-03 0.  1.
         11   -1    0    0    0    0 -0.00000000000E+00 -0.00000000000E+00 -0.45593999997E+02  0.45594000000E+02  0.51100000000E-03 0. -1.
    9900012    2    1    2    0    0  0.46410710500E-01  0.11331463520E+01 -0.32688301920E+00  0.90007734302E+02  0.89999995595E+02 0.  0.
         12    1    1    2    0    0 -0.46410710500E-01 -0.11331463520E+01  0.32688301920E+00  0.11802656978E+01  0.00000000000E+00 0. -1.
         11    1    3    3    0    0 -0.26776005322E+02  0.72195424202E+01 -0.25784355209E+02  0.37866993907E+02  0.51100000000E-03 0. -1.
        -11    1    3    3    0    0 -0.74692319924E+01 -0.14771029210E+01 -0.21105086931E+01  0.79009813821E+01  0.51100000000E-03 0.  1.
        -12    1    3    3    0    0  0.34291648025E+02 -0.46092931472E+01  0.27567980883E+02  0.44239759013E+02  0.00000000000E+00 0.  1.
</event>
<event>
 7    1  0.1698110E-015  0.9000788E+02  0.7816164E-02  0.1186339E+00
        -11   -1    0    0    0    0  0.00000000000E+00  0.00000000000E+00  0.45593999997E+02  0.45594000000E+02  0.51100000000E-03 0. -1.
         11   -1    0    0    0    0 -0.00000000000E+00 -0.00000000000E+00 -0.45593999997E+02  0.45594000000E+02  0.51100000000E-03 0.  1.
    9900012    2    1    2    0    0 -0.31118498221E+00 -0.69325989614E+00 -0.90290723041E+00  0.90007878462E+02  0.90000141658E+02 0.  0.
         12    1    1    2    0    0  0.31118498221E+00  0.69325989614E+00  0.90290723041E+00  0.11801215376E+01  0.00000000000E+00 0. -1.
         11    1    3    3    0    0  0.83199060071E+01  0.31895021039E+02  0.18007058494E+02  0.37560183159E+02  0.51100000000E-03 0. -1.
        -11    1    3    3    0    0 -0.97652977801E+01  0.29976778678E+01  0.29948002302E+01  0.10644996102E+02  0.51100000000E-03 0.  1.
        -12    1    3    3    0    0  0.11342067908E+01 -0.35585958803E+02 -0.21904765955E+02  0.41802699201E+02  0.00000000000E+00 0.  1.
</event>
<event>
 7    1  0.1698110E-015  0.9000706E+02  0.7816164E-02  0.1186340E+00
        -11   -1    0    0    0    0  0.00000000000E+00  0.00000000000E+00  0.45593999997E+02  0.45594000000E+02  0.51100000000E-03 0.  1.
         11   -1    0    0    0    0 -0.00000000000E+00 -0.00000000000E+00 -0.45593999997E+02  0.45594000000E+02  0.51100000000E-03 0. -1.
    9900012    2    1    2    0    0  0.27816925602E-01 -0.11714985780E+01 -0.14642128879E+00  0.90007058895E+02  0.89999311270E+02 0.  0.
         12    1    1    2    0    0 -0.27816925602E-01  0.11714985780E+01  0.14642128879E+00  0.11809411049E+01  0.00000000000E+00 0. -1.
         11    1    3    3    0    0  0.38764031366E+01 -0.13003318562E+00  0.77232514244E+01  0.86424546706E+01  0.51100000000E-03 0. -1.
        -11    1    3    3    0    0  0.11709878708E+02 -0.10867123058E+02  0.32933685196E+02  0.36603869246E+02  0.51100000000E-03 0.  1.
         12    1    3    3    0    0 -0.15558464919E+02  0.98256576659E+01 -0.40803357909E+02  0.44760734979E+02  0.00000000000E+00 0. -1.
</event>
<event>
 7    1  0.1698110E-015  0.9000708E+02  0.7816164E-02  0.1186340E+00
        -11   -1    0    0    0    0  0.00000000000E+00  0.00000000000E+00  0.45593999997E+02  0.45594000000E+02  0.51100000000E-03 0. -1.
         11   -1    0    0    0    0 -0.00000000000E+00 -0.00000000000E+00 -0.45593999997E+02  0.45594000000E+02  0.51100000000E-03 0.  1.
    9900012    2    1    2    0    0 -0.21106644230E-02 -0.10133660127E+01 -0.60635156152E+00  0.90007077756E+02  0.89999330380E+02 0.  0.
         12    1    1    2    0    0  0.21106644230E-02  0.10133660127E+01  0.60635156152E+00  0.11809222441E+01  0.00000000000E+00 0. -1.
         11    1    3    3    0    0  0.16057141165E+01 -0.81806742898E+01 -0.67847729611E+01  0.10748715926E+02  0.51100000000E-03 0. -1.
        -11    1    3    3    0    0  0.20921684957E+02  0.42257370647E+01  0.35949118104E+02  0.41808047645E+02  0.51100000000E-03 0.  1.
         12    1    3    3    0    0 -0.22529509738E+02  0.29415712124E+01 -0.29770696705E+02  0.37450314185E+02  0.00000000000E+00 0. -1.
</event>
<event>
 7    1  0.1698110E-015  0.9000777E+02  0.7816164E-02  0.1186339E+00
        -11   -1    0    0    0    0  0.00000000000E+00  0.00000000000E+00  0.45593999997E+02  0.45594000000E+02  0.51100000000E-03 0. -1.
         11   -1    0    0    0    0 -0.00000000000E+00 -0.00000000000E+00 -0.45593999997E+02  0.45594000000E+02  0.51100000000E-03 0.  1.
    9900012    2    1    2    0    0  0.45539734947E+00  0.73413354505E+00 -0.80411866678E+00  0.90007768820E+02  0.90000030568E+02 0.  0.
         12    1    1    2    0    0 -0.45539734947E+00 -0.73413354505E+00  0.80411866678E+00  0.11802311800E+01  0.00000000000E+00 0. -1.
         11    1    3    3    0    0 -0.35177150325E+01 -0.10181624387E+02  0.39385589243E+01  0.11469613806E+02  0.51100000000E-03 0. -1.
        -11    1    3    3    0    0  0.21473916461E+02 -0.28173080041E+02 -0.45096410744E+01  0.35709780033E+02  0.51100000000E-03 0.  1.
         12    1    3    3    0    0 -0.17500804079E+02  0.39088837973E+02 -0.23303651673E+00  0.42828374980E+02  0.00000000000E+00 0. -1.
</event>
<event>
 7    1  0.1698110E-015  0.9000762E+02  0.7816164E-02  0.1186339E+00
        -11   -1    0    0    0    0  0.00000000000E+00  0.00000000000E+00  0.45593999997E+02  0.45594000000E+02  0.51100000000E-03 0. -1.
         11   -1    0    0    0    0 -0.00000000000E+00 -0.00000000000E+00 -0.45593999997E+02  0.45594000000E+02  0.51100000000E-03 0.  1.
    9900012    2    1    2    0    0 -0.40471970753E+00  0.28905169543E-01 -0.11084551643E+01  0.90007615994E+02  0.89999875725E+02 0.  0.
         12    1    1    2    0    0  0.40471970753E+00 -0.28905169543E-01  0.11084551643E+01  0.11803840060E+01  0.00000000000E+00 0. -1.
         11    1    3    3    0    0  0.46247694941E+01  0.77019995469E+01  0.56924127109E+01  0.10635452629E+02  0.51100000000E-03 0. -1.
        -11    1    3    3    0    0 -0.42659127216E+01  0.29535942365E+02 -0.24073977252E+02  0.38342225858E+02  0.51100000000E-03 0.  1.
         12    1    3    3    0    0 -0.76357648002E+00 -0.37209036742E+02  0.17273109377E+02  0.41029937507E+02  0.00000000000E+00 0. -1.
</event>
<event>
 7    1  0.2552433E-015  0.9000777E+02  0.7816164E-02  0.1186339E+00
        -11   -1    0    0    0    0  0.00000000000E+00  0.00000000000E+00  0.45593999997E+02  0.45594000000E+02  0.51100000000E-03 0. -1.
         11   -1    0    0    0    0 -0.00000000000E+00 -0.00000000000E+00 -0.45593999997E+02  0.45594000000E+02  0.51100000000E-03 0.  1.
    9900012    2    1    2    0    0  0.45843958107E+00 -0.16652853433E+00 -0.10747309313E+01  0.90007769015E+02  0.90000030766E+02 0.  0.
         12    1    1    2    0    0 -0.45843958107E+00  0.16652853433E+00  0.10747309313E+01  0.11802309846E+01  0.00000000000E+00 0. -1.
         11    1    3    3    0    0 -0.42083488107E+01 -0.96267392216E+00  0.88187478834E+01  0.98187196358E+01  0.51100000000E-03 0. -1.
        -11    1    3    3    0    0 -0.20449241701E+02  0.25456197953E+02 -0.25749573863E+02  0.41584012009E+02  0.51100000000E-03 0.  1.
         12    1    3    3    0    0  0.25116030093E+02 -0.24660052565E+02  0.15856095049E+02  0.38605037370E+02  0.00000000000E+00 0. -1.
</event>
<event>
 7    1  0.1698110E-015  0.9000770E+02  0.7816164E-02  0.1186339E+00
        -11   -1    0    0    0    0  0.00000000000E+00  0.00000000000E+00  0.45593999997E+02  0.45594000000E+02  0.51100000000E-03 0. -1.
         11   -1    0    0    0    0 -0.00000000000E+00 -0.00000000000E+00 -0.45593999997E+02  0.45594000000E+02  0.51100000000E-03 0.  1.
    9900012    2    1    2    0    0  0.60184070340E+00 -0.46957845712E+00 -0.90021925652E+00  0.90007698823E+02  0.89999959647E+02 0.  0.
         12    1    1    2    0    0 -0.60184070340E+00  0.46957845712E+00  0.90021925652E+00  0.11803011774E+01  0.00000000000E+00 0. -1.
         11    1    3    3    0    0 -0.15600079818E+01 -0.46206575698E+01  0.82949982938E+01  0.96224268372E+01  0.51100000000E-03 0. -1.
        -11    1    3    3    0    0 -0.14199713249E+02  0.35475448824E+02  0.10894063359E+02  0.39734367270E+02  0.51100000000E-03 0.  1.
         12    1    3    3    0    0  0.16361561934E+02 -0.31324369711E+02 -0.20089280910E+02  0.40650904716E+02  0.00000000000E+00 0. -1.
</event>
<event>
 7    1  0.1698110E-015  0.9000773E+02  0.7816164E-02  0.1186339E+00
        -11   -1    0    0    0    0  0.00000000000E+00  0.00000000000E+00  0.45593999997E+02  0.45594000000E+02  0.51100000000E-03 0.  1.
         11   -1    0    0    0    0 -0.00000000000E+00 -0.00000000000E+00 -0.45593999997E+02  0.45594000000E+02  0.51100000000E-03 0. -1.
    9900012    2    1    2    0    0  0.72200612769E+00 -0.74442579226E+00  0.56353633352E+00  0.90007730621E+02  0.89999991865E+02 0.  0.
         12    1    1    2    0    0 -0.72200612769E+00  0.74442579226E+00 -0.56353633352E+00  0.11802693793E+01  0.00000000000E+00 0. -1.
         11    1    3    3    0    0 -0.17803319733E+02 -0.27817631454E+02 -0.40850198808E+01  0.33278614769E+02  0.51100000000E-03 0. -1.
        -11    1    3    3    0    0 -0.25949418857E+01 -0.11880559091E+02  0.21373508927E+01  0.12347051340E+02  0.51100000000E-03 0.  1.
        -12    1    3    3    0    0  0.21120267747E+02  0.38953764753E+02  0.25112053216E+01  0.44382064511E+02  0.00000000000E+00 0.  1.
</event>
<event>
 7    1  0.1698110E-015  0.9000773E+02  0.7816164E-02  0.1186339E+00
        -11   -1    0    0    0    0  0.00000000000E+00  0.00000000000E+00  0.45593999997E+02  0.45594000000E+02  0.51100000000E-03 0. -1.
         11   -1    0    0    0    0 -0.00000000000E+00 -0.00000000000E+00 -0.45593999997E+02  0.45594000000E+02  0.51100000000E-03 0.  1.
    9900012    2    1    2    0    0  0.29087038747E+00 -0.11433066820E+01 -0.35796514043E-01  0.90007730056E+02  0.89999991292E+02 0.  0.
         12    1    1    2    0    0 -0.29087038747E+00  0.11433066820E+01  0.35796514043E-01  0.11802699445E+01  0.00000000000E+00 0. -1.
         11    1    3    3    0    0 -0.36118364720E+02  0.20235653721E+02  0.27976520705E+01  0.41495117893E+02  0.51100000000E-03 0. -1.
        -11    1    3    3    0    0  0.19718557905E+01 -0.24317336540E+01 -0.82607180190E+01  0.88340820843E+01  0.51100000000E-03 0.  1.
        -12    1    3    3    0    0  0.34437379316E+02 -0.18947226750E+02  0.54272694345E+01  0.39678530079E+02  0.00000000000E+00 0.  1.
</event>
<event>
 7    1  0.1698110E-015  0.9000770E+02  0.7816164E-02  0.1186339E+00
        -11   -1    0    0    0    0  0.00000000000E+00  0.00000000000E+00  0.45593999997E+02  0.45594000000E+02  0.51100000000E-03 0. -1.
         11   -1    0    0    0    0 -0.00000000000E+00 -0.00000000000E+00 -0.45593999997E+02  0.45594000000E+02  0.51100000000E-03 0.  1.
    9900012    2    1    2    0    0  0.33210982535E-01  0.69200215019E+00  0.95558746732E+00  0.90007696076E+02  0.89999956864E+02 0.  0.
         12    1    1    2    0    0 -0.33210982535E-01 -0.69200215019E+00 -0.95558746732E+00  0.11803039240E+01  0.00000000000E+00 0. -1.
         11    1    3    3    0    0  0.17134267613E+02  0.74565114991E+01  0.54426962459E+01  0.19462929715E+02  0.51100000000E-03 0. -1.
        -11    1    3    3    0    0  0.81451564160E+01  0.15832893770E+02 -0.25183031635E+02  0.30841679280E+02  0.51100000000E-03 0.  1.
         12    1    3    3    0    0 -0.25246213047E+02 -0.22597403119E+02  0.20695922857E+02  0.39703087082E+02  0.00000000000E+00 0. -1.
</event>
<event>
 7    1  0.1698110E-015  0.9000789E+02  0.7816164E-02  0.1186339E+00
        -11   -1    0    0    0    0  0.00000000000E+00  0.00000000000E+00  0.45593999997E+02  0.45594000000E+02  0.51100000000E-03 0. -1.
         11   -1    0    0    0    0 -0.00000000000E+00 -0.00000000000E+00 -0.45593999997E+02  0.45594000000E+02  0.51100000000E-03 0.  1.
    9900012    2    1    2    0    0  0.10757584077E+01 -0.96869952206E-01 -0.47541658780E+00  0.90007889466E+02  0.90000152807E+02 0.  0.
         12    1    1    2    0    0 -0.10757584077E+01  0.96869952206E-01  0.47541658780E+00  0.11801105335E+01  0.00000000000E+00 0. -1.
         11    1    3    3    0    0  0.11041786258E+02 -0.97222123104E+01  0.33979726131E+02  0.37027884684E+02  0.51100000000E-03 0. -1.
        -11    1    3    3    0    0  0.25148119461E+01  0.49986617124E+01  0.72751914342E+01  0.91781974649E+01  0.51100000000E-03 0.  1.
        -12    1    3    3    0    0 -0.12480839797E+02  0.46266806458E+01 -0.41730334153E+02  0.43801807318E+02  0.00000000000E+00 0.  1.
</event>
<event>
 7    1  0.1698110E-015  0.9000775E+02  0.7816164E-02  0.1186339E+00
        -11   -1    0    0    0    0  0.00000000000E+00  0.00000000000E+00  0.45593999997E+02  0.45594000000E+02  0.51100000000E-03 0. -1.
         11   -1    0    0    0    0 -0.00000000000E+00 -0.00000000000E+00 -0.45593999997E+02  0.45594000000E+02  0.51100000000E-03 0.  1.
    9900012    2    1    2    0    0  0.61546856877E+00 -0.68325765063E+00 -0.73983060172E+00  0.90007749223E+02  0.90000010713E+02 0.  0.
         12    1    1    2    0    0 -0.61546856877E+00  0.68325765063E+00  0.73983060172E+00  0.11802507765E+01  0.00000000000E+00 0. -1.
         11    1    3    3    0    0 -0.27790285833E+02 -0.49524148208E+01  0.23797601021E+02  0.36920891293E+02  0.51100000000E-03 0. -1.
        -11    1    3    3    0    0 -0.78242558899E+00 -0.87838479256E+01  0.44955382973E+01  0.98983856777E+01  0.51100000000E-03 0.  1.
        -12    1    3    3    0    0  0.29188179991E+02  0.13053005096E+02 -0.29032969920E+02  0.43188472253E+02  0.00000000000E+00 0.  1.
</event>
<event>
 7    1  0.1698110E-015  0.9000775E+02  0.7816164E-02  0.1186339E+00
        -11   -1    0    0    0    0  0.00000000000E+00  0.00000000000E+00  0.45593999997E+02  0.45594000000E+02  0.51100000000E-03 0.  1.
         11   -1    0    0    0    0 -0.00000000000E+00 -0.00000000000E+00 -0.45593999997E+02  0.45594000000E+02  0.51100000000E-03 0. -1.
    9900012    2    1    2    0    0  0.10697694468E+01  0.32981424911E+00  0.37389950061E+00  0.90007752168E+02  0.90000013697E+02 0.  0.
         12    1    1    2    0    0 -0.10697694468E+01 -0.32981424911E+00 -0.37389950061E+00  0.11802478320E+01  0.00000000000E+00 0. -1.
         11    1    3    3    0    0  0.17655085768E+02 -0.21073775831E+02 -0.26898879264E+02  0.38462394455E+02  0.51100000000E-03 0. -1.
        -11    1    3    3    0    0  0.26510995595E+01  0.11118255309E+02 -0.50943510839E+01  0.12513846060E+02  0.51100000000E-03 0.  1.
        -12    1    3    3    0    0 -0.19236415881E+02  0.10285334771E+02  0.32367129848E+02  0.39031511653E+02  0.00000000000E+00 0.  1.
</event>
<event>
 7    1  0.1698110E-015  0.9000778E+02  0.7816164E-02  0.1186339E+00
        -11   -1    0    0    0    0  0.00000000000E+00  0.00000000000E+00  0.45593999997E+02  0.45594000000E+02  0.51100000000E-03 0. -1.
         11   -1    0    0    0    0 -0.00000000000E+00 -0.00000000000E+00 -0.45593999997E+02  0.45594000000E+02  0.51100000000E-03 0.  1.
    9900012    2    1    2    0    0 -0.11356773297E+01 -0.28825835465E+00  0.14165452261E+00  0.90007778885E+02  0.90000040766E+02 0.  0.
         12    1    1    2    0    0  0.11356773297E+01  0.28825835465E+00 -0.14165452261E+00  0.11802211149E+01  0.00000000000E+00 0. -1.
         11    1    3    3    0    0  0.56637322188E+01 -0.65997563615E+01  0.46586851461E+01  0.98660019375E+01  0.51100000000E-03 0. -1.
        -11    1    3    3    0    0  0.10741086296E+02 -0.30140223896E+02 -0.18955044168E+02  0.37190021928E+02  0.51100000000E-03 0.  1.
         12    1    3    3    0    0 -0.17540495845E+02  0.36451721903E+02  0.14438013544E+02  0.42951755020E+02  0.00000000000E+00 0. -1.
</event>
<event>
 7    1  0.1698110E-015  0.9000764E+02  0.7816164E-02  0.1186339E+00
        -11   -1    0    0    0    0  0.00000000000E+00  0.00000000000E+00  0.45593999997E+02  0.45594000000E+02  0.51100000000E-03 0.  1.
         11   -1    0    0    0    0 -0.00000000000E+00 -0.00000000000E+00 -0.45593999997E+02  0.45594000000E+02  0.51100000000E-03 0. -1.
    9900012    2    1    2    0    0  0.15189126900E+00 -0.10626043296E+01  0.49097747716E+00  0.90007636581E+02  0.89999896583E+02 0.  0.
         12    1    1    2    0    0 -0.15189126900E+00  0.10626043296E+01 -0.49097747716E+00  0.11803634194E+01  0.00000000000E+00 0. -1.
         11    1    3    3    0    0 -0.97247889230E+01  0.64935118203E+00 -0.27370677697E+01  0.10123473554E+02  0.51100000000E-03 0. -1.
        -11    1    3    3    0    0 -0.14075800654E+02 -0.45844399149E+01  0.36153449278E+02  0.39066829259E+02  0.51100000000E-03 0.  1.
         12    1    3    3    0    0  0.23952480846E+02  0.28724844032E+01 -0.32925404031E+02  0.40817333768E+02  0.00000000000E+00 0. -1.
</event>
<event>
 7    1  0.1698110E-015  0.9000772E+02  0.7816164E-02  0.1186339E+00
        -11   -1    0    0    0    0  0.00000000000E+00  0.00000000000E+00  0.45593999997E+02  0.45594000000E+02  0.51100000000E-03 0.  1.
         11   -1    0    0    0    0 -0.00000000000E+00 -0.00000000000E+00 -0.45593999997E+02  0.45594000000E+02  0.51100000000E-03 0. -1.
    9900012    2    1    2    0    0  0.95445937126E+00 -0.54708180391E+00  0.42751924990E+00  0.90007718720E+02  0.89999979807E+02 0.  0.
         12    1    1    2    0    0 -0.95445937126E+00  0.54708180391E+00 -0.42751924990E+00  0.11802812803E+01  0.00000000000E+00 0. -1.
         11    1    3    3    0    0  0.29143011701E+02  0.20116979727E+02 -0.49525063778E+01  0.35756612312E+02  0.51100000000E-03 0. -1.
        -11    1    3    3    0    0  0.73509189827E+01  0.60479887248E+01  0.64860152628E+00  0.95412190891E+01  0.51100000000E-03 0.  1.
        -12    1    3    3    0    0 -0.35539471312E+02 -0.26712050256E+02  0.47314241014E+01  0.44709887319E+02  0.00000000000E+00 0.  1.
</event>
<event>
 7    1  0.1698110E-015  0.9000778E+02  0.7816164E-02  0.1186339E+00
        -11   -1    0    0    0    0  0.00000000000E+00  0.00000000000E+00  0.45593999997E+02  0.45594000000E+02  0.51100000000E-03 0. -1.
         11   -1    0    0    0    0 -0.00000000000E+00 -0.00000000000E+00 -0.45593999997E+02  0.45594000000E+02  0.51100000000E-03 0.  1.
    9900012    2    1    2    0    0 -0.24278316202E+00  0.11078670134E+01  0.32649685038E+00  0.90007782572E+02  0.90000044502E+02 0.  0.
         12    1    1    2    0    0  0.24278316202E+00 -0.11078670134E+01 -0.32649685038E+00  0.11802174276E+01  0.00000000000E+00 0. -1.
         11    1    3    3    0    0 -0.28132030449E+02 -0.18127119400E+02 -0.21538223403E+02  0.39798224364E+02  0.51100000000E-03 0. -1.
        -11    1    3    3    0    0 -0.26593516995E+01 -0.40277693027E+01  0.80816014733E+01  0.94131482328E+01  0.51100000000E-03 0.  1.
        -12    1    3    3    0    0  0.30548598987E+02  0.23262755716E+02  0.13783118780E+02  0.40796409975E+02  0.00000000000E+00 0.  1.
</event>
<event>
 7    1  0.1698110E-015  0.9000781E+02  0.7816164E-02  0.1186339E+00
        -11   -1    0    0    0    0  0.00000000000E+00  0.00000000000E+00  0.45593999997E+02  0.45594000000E+02  0.51100000000E-03 0.  1.
         11   -1    0    0    0    0 -0.00000000000E+00 -0.00000000000E+00 -0.45593999997E+02  0.45594000000E+02  0.51100000000E-03 0. -1.
    9900012    2    1    2    0    0  0.19898298072E-01  0.68997884242E+00  0.95728275521E+00  0.90007806364E+02  0.90000068608E+02 0.  0.
         12    1    1    2    0    0 -0.19898298072E-01 -0.68997884242E+00 -0.95728275521E+00  0.11801936361E+01  0.00000000000E+00 0. -1.
         11    1    3    3    0    0  0.15483438894E+02  0.88861369938E+01 -0.24608226466E+02  0.30401728910E+02  0.51100000000E-03 0. -1.
        -11    1    3    3    0    0 -0.34538435092E+01  0.20121582888E+02  0.13531739041E+01  0.20460650351E+02  0.51100000000E-03 0.  1.
         12    1    3    3    0    0 -0.12009697086E+02 -0.28317741039E+02  0.24212335317E+02  0.39145427104E+02  0.00000000000E+00 0. -1.
</event>
<event>
 7    1  0.1698110E-015  0.9000782E+02  0.7816164E-02  0.1186339E+00
        -11   -1    0    0    0    0  0.00000000000E+00  0.00000000000E+00  0.45593999997E+02  0.45594000000E+02  0.51100000000E-03 0. -1.
         11   -1    0    0    0    0 -0.00000000000E+00 -0.00000000000E+00 -0.45593999997E+02  0.45594000000E+02  0.51100000000E-03 0.  1.
    9900012    2    1    2    0    0 -0.21732956314E+00  0.22437907550E+00 -0.11380842788E+01  0.90007824617E+02  0.90000087102E+02 0.  0.
         12    1    1    2    0    0  0.21732956314E+00 -0.22437907550E+00  0.11380842788E+01  0.11801753828E+01  0.00000000000E+00 0. -1.
         11    1    3    3    0    0  0.26813459491E+02 -0.53895151201E+01  0.23549492632E+02  0.36091371359E+02  0.51100000000E-03 0. -1.
        -11    1    3    3    0    0  0.30937042156E+01 -0.11207079529E+02 -0.23707992576E+00  0.11628664777E+02  0.51100000000E-03 0.  1.
        -12    1    3    3    0    0 -0.30124493270E+02  0.16820973724E+02 -0.24450496985E+02  0.42287788481E+02  0.00000000000E+00 0.  1.
</event>
<event>
 7    1  0.1698110E-015  0.9000779E+02  0.7816164E-02  0.1186339E+00
        -11   -1    0    0    0    0  0.00000000000E+00  0.00000000000E+00  0.45593999997E+02  0.45594000000E+02  0.51100000000E-03 0.  1.
         11   -1    0    0    0    0 -0.00000000000E+00 -0.00000000000E+00 -0.45593999997E+02  0.45594000000E+02  0.51100000000E-03 0. -1.
    9900012    2    1    2    0    0  0.20106874911E+00  0.10854960765E+01  0.41732826834E+00  0.90007791011E+02  0.90000053052E+02 0.  0.
         12    1    1    2    0    0 -0.20106874911E+00 -0.10854960765E+01 -0.41732826834E+00  0.11802089889E+01  0.00000000000E+00 0. -1.
         11    1    3    3    0    0  0.13701777379E+02 -0.27405358766E+02  0.27498010574E+02  0.41169563736E+02  0.51100000000E-03 0. -1.
        -11    1    3    3    0    0  0.73110651863E+01  0.61293172601E+01 -0.31966481761E+01  0.10061747565E+02  0.51100000000E-03 0.  1.
        -12    1    3    3    0    0 -0.20811773816E+02  0.22361537583E+02 -0.23884034129E+02  0.38776479710E+02  0.00000000000E+00 0.  1.
</event>
<event>
 7    1  0.1698110E-015  0.9000768E+02  0.7816164E-02  0.1186339E+00
        -11   -1    0    0    0    0  0.00000000000E+00  0.00000000000E+00  0.45593999997E+02  0.45594000000E+02  0.51100000000E-03 0. -1.
         11   -1    0    0    0    0 -0.00000000000E+00 -0.00000000000E+00 -0.45593999997E+02  0.45594000000E+02  0.51100000000E-03 0.  1.
    9900012    2    1    2    0    0  0.42392632950E+00 -0.85305361817E+00  0.69695599732E+00  0.90007677302E+02  0.89999937843E+02 0.  0.
         12    1    1    2    0    0 -0.42392632950E+00  0.85305361817E+00 -0.69695599732E+00  0.11803226976E+01  0.00000000000E+00 0. -1.
         11    1    3    3    0    0  0.58707232881E+01 -0.16432778819E+02  0.33327857671E+02  0.37619778160E+02  0.51100000000E-03 0. -1.
        -11    1    3    3    0    0 -0.57201978634E+01 -0.33383499204E+00  0.73708957478E+01  0.93360705751E+01  0.51100000000E-03 0.  1.
        -12    1    3    3    0    0  0.27340090479E+00  0.15913560192E+02 -0.40001797421E+02  0.43051828567E+02  0.00000000000E+00 0.  1.
</event>
<event>
 7    1  0.1698110E-015  0.9000733E+02  0.7816164E-02  0.1186340E+00
        -11   -1    0    0    0    0  0.00000000000E+00  0.00000000000E+00  0.45593999997E+02  0.45594000000E+02  0.51100000000E-03 0.  1.
         11   -1    0    0    0    0 -0.00000000000E+00 -0.00000000000E+00 -0.45593999997E+02  0.45594000000E+02  0.51100000000E-03 0. -1.
    9900012    2    1    2    0    0  0.55555390319E+00  0.41435192849E+00  0.95584733149E+00  0.90007334179E+02  0.89999590189E+02 0.  0.
         12    1    1    2    0    0 -0.55555390319E+00 -0.41435192849E+00 -0.95584733149E+00  0.11806658211E+01  0.00000000000E+00 0. -1.
         11    1    3    3    0    0 -0.87647735757E+01  0.28083483833E+01  0.82258781054E+01  0.12343951853E+02  0.51100000000E-03 0. -1.
        -11    1    3    3    0    0  0.40156424031E+02  0.12196640932E+02 -0.10891037205E+02  0.43357941978E+02  0.51100000000E-03 0.  1.
         12    1    3    3    0    0 -0.30836096552E+02 -0.14590637386E+02  0.36210064313E+01  0.34305440348E+02  0.00000000000E+00 0. -1.
</event>
<event>
 7    1  0.1698110E-015  0.9000777E+02  0.7816164E-02  0.1186339E+00
        -11   -1    0    0    0    0  0.00000000000E+00  0.00000000000E+00  0.45593999997E+02  0.45594000000E+02  0.51100000000E-03 0.  1.
         11   -1    0    0    0    0 -0.00000000000E+00 -0.00000000000E+00 -0.45593999997E+02  0.45594000000E+02  0.51100000000E-03 0. -1.
    9900012    2    1    2    0    0  0.18128703917E+00  0.80773045537E+00 -0.84121568910E+00  0.90007772346E+02  0.90000034141E+02 0.  0.
         12    1    1    2    0    0 -0.18128703917E+00 -0.80773045537E+00  0.84121568910E+00  0.11802276538E+01  0.00000000000E+00 0. -1.
         11    1    3    3    0    0  0.20728929824E+02 -0.24228536475E+02  0.31535736489E+01  0.32041465922E+02  0.51100000000E-03 0. -1.
        -11    1    3    3    0    0 -0.30633467159E+01  0.54891212867E+01  0.20888757365E+02  0.21814094758E+02  0.51100000000E-03 0.  1.
         12    1    3    3    0    0 -0.17484296069E+02  0.19547145644E+02 -0.24883546703E+02  0.36152211666E+02  0.00000000000E+00 0. -1.
</event>
<event>
 7    1  0.1698110E-015  0.9000774E+02  0.7816164E-02  0.1186339E+00
        -11   -1    0    0    0    0  0.00000000000E+00  0.00000000000E+00  0.45593999997E+02  0.45594000000E+02  0.51100000000E-03 0.  1.
         11   -1    0    0    0    0 -0.00000000000E+00 -0.00000000000E+00 -0.45593999997E+02  0.45594000000E+02  0.51100000000E-03 0. -1.
    9900012    2    1    2    0    0  0.11456926177E+01 -0.27296863003E+00 -0.76713721467E-01  0.90007742214E+02  0.90000003611E+02 0.  0.
         12    1    1    2    0    0 -0.11456926177E+01  0.27296863003E+00  0.76713721467E-01  0.11802577864E+01  0.00000000000E+00 0. -1.
         11    1    3    3    0    0  0.12826745859E+02 -0.26385663846E+02 -0.22481815832E+02  0.36961611292E+02  0.51100000000E-03 0. -1.
        -11    1    3    3    0    0  0.22388558220E+01 -0.27981936344E+01 -0.80469961345E+01  0.88088881283E+01  0.51100000000E-03 0.  1.
        -12    1    3    3    0    0 -0.13919909063E+02  0.28910888851E+02  0.30452098245E+02  0.44237242793E+02  0.00000000000E+00 0.  1.
</event>
<event>
 7    1  0.1698110E-015  0.9000774E+02  0.7816164E-02  0.1186339E+00
        -11   -1    0    0    0    0  0.00000000000E+00  0.00000000000E+00  0.45593999997E+02  0.45594000000E+02  0.51100000000E-03 0. -1.
         11   -1    0    0    0    0 -0.00000000000E+00 -0.00000000000E+00 -0.45593999997E+02  0.45594000000E+02  0.51100000000E-03 0.  1.
    9900012    2    1    2    0    0 -0.39559666456E+00  0.10822665403E+01 -0.25539017681E+00  0.90007736585E+02  0.89999997908E+02 0.  0.
         12    1    1    2    0    0  0.39559666456E+00 -0.10822665403E+01  0.25539017681E+00  0.11802634145E+01  0.00000000000E+00 0. -1.
         11    1    3    3    0    0 -0.52838102303E+01 -0.32976200664E+01 -0.76701110895E+01  0.98804631996E+01  0.51100000000E-03 0. -1.
        -11    1    3    3    0    0  0.19655831238E+02  0.31679967626E+02 -0.16671022695E+02  0.40839870818E+02  0.51100000000E-03 0.  1.
         12    1    3    3    0    0 -0.14767617673E+02 -0.27300081020E+02  0.24085743608E+02  0.39287402568E+02  0.00000000000E+00 0. -1.
</event>
<event>
 7    1  0.1698110E-015  0.9000772E+02  0.7816164E-02  0.1186339E+00
        -11   -1    0    0    0    0  0.00000000000E+00  0.00000000000E+00  0.45593999997E+02  0.45594000000E+02  0.51100000000E-03 0.  1.
         11   -1    0    0    0    0 -0.00000000000E+00 -0.00000000000E+00 -0.45593999997E+02  0.45594000000E+02  0.51100000000E-03 0. -1.
    9900012    2    1    2    0    0  0.65274806833E+00 -0.46270347150E+00 -0.86768811382E+00  0.90007721556E+02  0.89999982680E+02 0.  0.
         12    1    1    2    0    0 -0.65274806833E+00  0.46270347150E+00  0.86768811382E+00  0.11802784443E+01  0.00000000000E+00 0. -1.
         11    1    3    3    0    0  0.10227261389E+01 -0.26606939379E+02 -0.33683921070E+02  0.42936950646E+02  0.51100000000E-03 0. -1.
        -11    1    3    3    0    0  0.67795923019E+00  0.10060887485E+02 -0.46268155739E+00  0.10094313260E+02  0.51100000000E-03 0.  1.
        -12    1    3    3    0    0 -0.10479373008E+01  0.16083348422E+02  0.33278914514E+02  0.36976457649E+02  0.00000000000E+00 0.  1.
</event>
<event>
 7    1  0.1698110E-015  0.9000776E+02  0.7816164E-02  0.1186339E+00
        -11   -1    0    0    0    0  0.00000000000E+00  0.00000000000E+00  0.45593999997E+02  0.45594000000E+02  0.51100000000E-03 0. -1.
         11   -1    0    0    0    0 -0.00000000000E+00 -0.00000000000E+00 -0.45593999997E+02  0.45594000000E+02  0.51100000000E-03 0.  1.
    9900012    2    1    2    0    0 -0.39074979664E+00  0.87379823341E+00 -0.69047041938E+00  0.90007763517E+02  0.90000025195E+02 0.  0.
         12    1    1    2    0    0  0.39074979664E+00 -0.87379823341E+00  0.69047041938E+00  0.11802364832E+01  0.00000000000E+00 0. -1.
         11    1    3    3    0    0 -0.66247632209E+01 -0.55690613081E+01 -0.39183291649E+01  0.95002755377E+01  0.51100000000E-03 0. -1.
        -11    1    3    3    0    0 -0.16837250970E+02 -0.24651538826E+02 -0.19455962120E+02  0.35633212724E+02  0.51100000000E-03 0.  1.
         12    1    3    3    0    0  0.23071264395E+02  0.31094398368E+02  0.22683820866E+02  0.44874275255E+02  0.00000000000E+00 0. -1.
</event>
<event>
 7    1  0.1698110E-015  0.9000767E+02  0.7816164E-02  0.1186339E+00
        -11   -1    0    0    0    0  0.00000000000E+00  0.00000000000E+00  0.45593999997E+02  0.45594000000E+02  0.51100000000E-03 0. -1.
         11   -1    0    0    0    0 -0.00000000000E+00 -0.00000000000E+00 -0.45593999997E+02  0.45594000000E+02  0.51100000000E-03 0.  1.
    9900012    2    1    2    0    0  0.10535934313E-01 -0.11352566547E+01 -0.32288325454E+00  0.90007672811E+02  0.89999933292E+02 0.  0.
         12    1    1    2    0    0 -0.10535934313E-01  0.11352566547E+01  0.32288325454E+00  0.11803271894E+01  0.00000000000E+00 0. -1.
         11    1    3    3    0    0  0.10885021010E+02 -0.26949636904E+01 -0.12855772735E+01  0.11287126333E+02  0.51100000000E-03 0. -1.
        -11    1    3    3    0    0  0.21787628099E+02  0.20824399811E+02 -0.19237811596E+02  0.35755415827E+02  0.51100000000E-03 0.  1.
         12    1    3    3    0    0 -0.32662113174E+02 -0.19264692775E+02  0.20200505615E+02  0.42965130651E+02  0.00000000000E+00 0. -1.
</event>
<event>
 7    1  0.1698110E-015  0.9000781E+02  0.7816164E-02  0.1186339E+00
        -11   -1    0    0    0    0  0.00000000000E+00  0.00000000000E+00  0.45593999997E+02  0.45594000000E+02  0.51100000000E-03 0. -1.
         11   -1    0    0    0    0 -0.00000000000E+00 -0.00000000000E+00 -0.45593999997E+02  0.45594000000E+02  0.51100000000E-03 0.  1.
    9900012    2    1    2    0    0  0.10013508089E+01 -0.52344074674E+00 -0.34083008854E+00  0.90007805606E+02  0.90000067840E+02 0.  0.
         12    1    1    2    0    0 -0.10013508089E+01  0.52344074674E+00  0.34083008854E+00  0.11801943938E+01  0.00000000000E+00 0. -1.
         11    1    3    3    0    0 -0.73072917770E+01  0.24323794559E+01  0.12291058757E+02  0.14504589224E+02  0.51100000000E-03 0. -1.
        -11    1    3    3    0    0 -0.18863819834E+02  0.16280743098E+02  0.17620639017E+02  0.30518735462E+02  0.51100000000E-03 0.  1.
        -12    1    3    3    0    0  0.27172462420E+02 -0.19236563300E+02 -0.30252527863E+02  0.44984480920E+02  0.00000000000E+00 0.  1.
</event>
<event>
 7    1  0.1698110E-015  0.9000779E+02  0.7816164E-02  0.1186339E+00
        -11   -1    0    0    0    0  0.00000000000E+00  0.00000000000E+00  0.45593999997E+02  0.45594000000E+02  0.51100000000E-03 0. -1.
         11   -1    0    0    0    0 -0.00000000000E+00 -0.00000000000E+00 -0.45593999997E+02  0.45594000000E+02  0.51100000000E-03 0.  1.
    9900012    2    1    2    0    0  0.90730015720E+00  0.73709051123E+00  0.16250983698E+00  0.90007785848E+02  0.90000047821E+02 0.  0.
         12    1    1    2    0    0 -0.90730015720E+00 -0.73709051123E+00 -0.16250983698E+00  0.11802141518E+01  0.00000000000E+00 0. -1.
         11    1    3    3    0    0  0.21597255405E+02  0.26462706702E+02  0.20307661856E+02  0.39738110390E+02  0.51100000000E-03 0. -1.
        -11    1    3    3    0    0 -0.35199346213E+01  0.76249973622E+01 -0.52830426299E+01  0.99217470338E+01  0.51100000000E-03 0.  1.
        -12    1    3    3    0    0 -0.17170020627E+02 -0.33350613553E+02 -0.14862109389E+02  0.40347928425E+02  0.00000000000E+00 0.  1.
</event>
<event>
 7    1  0.1698110E-015  0.9000861E+02  0.7816164E-02  0.1186337E+00
        -11   -1    0    0    0    0  0.00000000000E+00  0.00000000000E+00  0.45593999997E+02  0.45594000000E+02  0.51100000000E-03 0. -1.
         11   -1    0    0    0    0 -0.00000000000E+00 -0.00000000000E+00 -0.45593999997E+02  0.45594000000E+02  0.51100000000E-03 0.  1.
    9900012    2    1    2    0    0  0.10884328517E+01 -0.15145725768E+00 -0.42818764613E+00  0.90008606074E+02  0.90000878869E+02 0.  0.
         12    1    1    2    0    0 -0.10884328517E+01  0.15145725768E+00  0.42818764613E+00  0.11793939265E+01  0.00000000000E+00 0. -1.
         11    1    3    3    0    0 -0.17005523423E-01 -0.16156517258E+02  0.35460777742E+02  0.38967936787E+02  0.51100000000E-03 0. -1.
        -11    1    3    3    0    0  0.92538937341E+01 -0.20465912724E+01  0.62827082916E+00  0.94983056159E+01  0.51100000000E-03 0.  1.
        -12    1    3    3    0    0 -0.81484553590E+01  0.18051651273E+02 -0.36517236217E+02  0.41542363671E+02  0.00000000000E+00 0.  1.
</event>
<event>
 7    1  0.1698110E-015  0.9000765E+02  0.7816164E-02  0.1186339E+00
        -11   -1    0    0    0    0  0.00000000000E+00  0.00000000000E+00  0.45593999997E+02  0.45594000000E+02  0.51100000000E-03 0.  1.
         11   -1    0    0    0    0 -0.00000000000E+00 -0.00000000000E+00 -0.45593999997E+02  0.45594000000E+02  0.51100000000E-03 0. -1.
    9900012    2    1    2    0    0 -0.52697486482E+00  0.67696383715E+00  0.81070353607E+00  0.90007651421E+02  0.89999911620E+02 0.  0.
         12    1    1    2    0    0  0.52697486482E+00 -0.67696383715E+00 -0.81070353607E+00  0.11803485792E+01  0.00000000000E+00 0. -1.
         11    1    3    3    0    0 -0.23098604266E+01  0.91854225653E+01  0.37308108642E+01  0.10179704949E+02  0.51100000000E-03 0. -1.
        -11    1    3    3    0    0 -0.10480243817E+02  0.31088043377E+02 -0.15810345096E+02  0.36417975833E+02  0.51100000000E-03 0.  1.
         12    1    3    3    0    0  0.12263129379E+02 -0.39596502105E+02  0.12890237768E+02  0.43409970638E+02  0.00000000000E+00 0. -1.
</event>
<event>
 7    1  0.1698110E-015  0.9000766E+02  0.7816164E-02  0.1186339E+00
        -11   -1    0    0    0    0  0.00000000000E+00  0.00000000000E+00  0.45593999997E+02  0.45594000000E+02  0.51100000000E-03 0. -1.
         11   -1    0    0    0    0 -0.00000000000E+00 -0.00000000000E+00 -0.45593999997E+02  0.45594000000E+02  0.51100000000E-03 0.  1.
    9900012    2    1    2    0    0 -0.10143446850E+01 -0.63276165492E-01 -0.60025901258E+00  0.90007656874E+02  0.89999917145E+02 0.  0.
         12    1    1    2    0    0  0.10143446850E+01  0.63276165493E-01  0.60025901258E+00  0.11803431261E+01  0.00000000000E+00 0. -1.
         11    1    3    3    0    0  0.20136169326E+02 -0.34880502463E+02  0.16741190906E+02  0.43616307047E+02  0.51100000000E-03 0. -1.
        -11    1    3    3    0    0 -0.62773217415E+01  0.65482437057E+01  0.16635035324E+01  0.92223374553E+01  0.51100000000E-03 0.  1.
        -12    1    3    3    0    0 -0.14873192270E+02  0.28268982592E+02 -0.19004953451E+02  0.37169012372E+02  0.00000000000E+00 0.  1.
</event>
<event>
 7    1  0.1698110E-015  0.9000775E+02  0.7816164E-02  0.1186339E+00
        -11   -1    0    0    0    0  0.00000000000E+00  0.00000000000E+00  0.45593999997E+02  0.45594000000E+02  0.51100000000E-03 0.  1.
         11   -1    0    0    0    0 -0.00000000000E+00 -0.00000000000E+00 -0.45593999997E+02  0.45594000000E+02  0.51100000000E-03 0. -1.
    9900012    2    1    2    0    0 -0.95771123224E+00 -0.17648046128E+00 -0.66681166199E+00  0.90007748353E+02  0.90000009831E+02 0.  0.
         12    1    1    2    0    0  0.95771123224E+00  0.17648046128E+00  0.66681166199E+00  0.11802516470E+01  0.00000000000E+00 0. -1.
         11    1    3    3    0    0  0.41819831252E+01 -0.53596312666E+00 -0.10399946289E+02  0.11222081911E+02  0.51100000000E-03 0. -1.
        -11    1    3    3    0    0 -0.48307676079E+01 -0.36502941265E+02 -0.83037338428E+01  0.37745900873E+02  0.51100000000E-03 0.  1.
         12    1    3    3    0    0 -0.30892674959E+00  0.36862423931E+02  0.18036868470E+02  0.41039765569E+02  0.00000000000E+00 0. -1.
</event>
<event>
 7    1  0.1698110E-015  0.9000779E+02  0.7816164E-02  0.1186339E+00
        -11   -1    0    0    0    0  0.00000000000E+00  0.00000000000E+00  0.45593999997E+02  0.45594000000E+02  0.51100000000E-03 0. -1.
         11   -1    0    0    0    0 -0.00000000000E+00 -0.00000000000E+00 -0.45593999997E+02  0.45594000000E+02  0.51100000000E-03 0.  1.
    9900012    2    1    2    0    0  0.36139113165E-01 -0.91027207185E+00 -0.75033341102E+00  0.90007787516E+02  0.90000049511E+02 0.  0.
         12    1    1    2    0    0 -0.36139113165E-01  0.91027207185E+00  0.75033341102E+00  0.11802124843E+01  0.00000000000E+00 0. -1.
         11    1    3    3    0    0 -0.86066710628E+01 -0.70763811237E+00  0.53777106384E+01  0.10173264493E+02  0.51100000000E-03 0. -1.
        -11    1    3    3    0    0 -0.57662810384E+01 -0.25787317862E+02  0.25468979252E+02  0.36700199781E+02  0.51100000000E-03 0.  1.
         12    1    3    3    0    0  0.14409091214E+02  0.25584683903E+02 -0.31597023301E+02  0.43134323242E+02  0.00000000000E+00 0. -1.
</event>
<event>
 7    1  0.1774133E-015  0.9000771E+02  0.7816164E-02  0.1186339E+00
        -11   -1    0    0    0    0  0.00000000000E+00  0.00000000000E+00  0.45593999997E+02  0.45594000000E+02  0.51100000000E-03 0. -1.
         11   -1    0    0    0    0 -0.00000000000E+00 -0.00000000000E+00 -0.45593999997E+02  0.45594000000E+02  0.51100000000E-03 0.  1.
    9900012    2    1    2    0    0  0.30679137872E+00  0.94154907211E+00 -0.64222135222E+00  0.90007710260E+02  0.89999971235E+02 0.  0.
         12    1    1    2    0    0 -0.30679137872E+00 -0.94154907211E+00  0.64222135222E+00  0.11802897401E+01  0.00000000000E+00 0. -1.
         11    1    3    3    0    0  0.18834562698E+01 -0.63805698744E+01  0.64818961132E+01  0.92883829015E+01  0.51100000000E-03 0. -1.
        -11    1    3    3    0    0  0.10345994762E+02 -0.18063539273E+02 -0.35289531832E+02  0.40971723369E+02  0.51100000000E-03 0.  1.
         12    1    3    3    0    0 -0.11922659653E+02  0.25385658219E+02  0.28165414367E+02  0.39747603989E+02  0.00000000000E+00 0. -1.
</event>
<event>
 7    1  0.1698110E-015  0.9000768E+02  0.7816164E-02  0.1186339E+00
        -11   -1    0    0    0    0  0.00000000000E+00  0.00000000000E+00  0.45593999997E+02  0.45594000000E+02  0.51100000000E-03 0.  1.
         11   -1    0    0    0    0 -0.00000000000E+00 -0.00000000000E+00 -0.45593999997E+02  0.45594000000E+02  0.51100000000E-03 0. -1.
    9900012    2    1    2    0    0  0.40650862123E+00 -0.11026144916E+01 -0.11018562978E+00  0.90007682734E+02  0.89999943346E+02 0.  0.
         12    1    1    2    0    0 -0.40650862123E+00  0.11026144916E+01  0.11018562978E+00  0.11803172663E+01  0.00000000000E+00 0. -1.
         11    1    3    3    0    0  0.23820878016E+02 -0.29151457110E+02 -0.64548508238E+01  0.38195638239E+02  0.51100000000E-03 0. -1.
        -11    1    3    3    0    0  0.89530497784E+01  0.79275783021E+01 -0.34794949337E+01  0.12454335925E+02  0.51100000000E-03 0.  1.
        -12    1    3    3    0    0 -0.32367419173E+02  0.20121264316E+02  0.98241601277E+01  0.39357708570E+02  0.00000000000E+00 0.  1.
</event>
<event>
 7    1  0.1698110E-015  0.9000773E+02  0.7816164E-02  0.1186339E+00
        -11   -1    0    0    0    0  0.00000000000E+00  0.00000000000E+00  0.45593999997E+02  0.45594000000E+02  0.51100000000E-03 0.  1.
         11   -1    0    0    0    0 -0.00000000000E+00 -0.00000000000E+00 -0.45593999997E+02  0.45594000000E+02  0.51100000000E-03 0. -1.
    9900012    2    1    2    0    0 -0.62150480336E+00 -0.10033144145E+01 -0.11178205251E-01  0.90007731816E+02  0.89999993076E+02 0.  0.
         12    1    1    2    0    0  0.62150480336E+00  0.10033144145E+01  0.11178205251E-01  0.11802681844E+01  0.00000000000E+00 0. -1.
         11    1    3    3    0    0 -0.74797059875E+01  0.10761485404E+02 -0.15424290526E+01  0.13196009147E+02  0.51100000000E-03 0. -1.
        -11    1    3    3    0    0  0.29840753628E+02  0.17274298680E+02  0.14732833818E+02  0.37495711282E+02  0.51100000000E-03 0.  1.
         12    1    3    3    0    0 -0.22982552444E+02 -0.29039098498E+02 -0.13201582970E+02  0.39316011387E+02  0.00000000000E+00 0. -1.
</event>
<event>
 7    1  0.1698110E-015  0.9000767E+02  0.7816164E-02  0.1186339E+00
        -11   -1    0    0    0    0  0.00000000000E+00  0.00000000000E+00  0.45593999997E+02  0.45594000000E+02  0.51100000000E-03 0.  1.
         11   -1    0    0    0    0 -0.00000000000E+00 -0.00000000000E+00 -0.45593999997E+02  0.45594000000E+02  0.51100000000E-03 0. -1.
    9900012    2    1    2    0    0 -0.71586995418E+00 -0.44528775847E-01  0.93740152973E+00  0.90007671982E+02  0.89999932452E+02 0.  0.
         12    1    1    2    0    0  0.71586995418E+00  0.44528775847E-01 -0.93740152973E+00  0.11803280184E+01  0.00000000000E+00 0. -1.
         11    1    3    3    0    0 -0.18089845867E+02 -0.19257556074E+02  0.33422226903E+02  0.42604474423E+02  0.51100000000E-03 0. -1.
        -11    1    3    3    0    0  0.89002349748E+01  0.62480053515E+01  0.58068651161E+00  0.10889855397E+02  0.51100000000E-03 0.  1.
        -12    1    3    3    0    0  0.84737409382E+01  0.12965021947E+02 -0.33065511885E+02  0.36513342161E+02  0.00000000000E+00 0.  1.
</event>
<event>
 7    1  0.1698110E-015  0.9000763E+02  0.7816164E-02  0.1186339E+00
        -11   -1    0    0    0    0  0.00000000000E+00  0.00000000000E+00  0.45593999997E+02  0.45594000000E+02  0.51100000000E-03 0. -1.
         11   -1    0    0    0    0 -0.00000000000E+00 -0.00000000000E+00 -0.45593999997E+02  0.45594000000E+02  0.51100000000E-03 0.  1.
    9900012    2    1    2    0    0 -0.61175362696E+00 -0.97609887984E+00  0.25739216423E+00  0.90007634697E+02  0.89999894675E+02 0.  0.
         12    1    1    2    0    0  0.61175362696E+00  0.97609887984E+00 -0.25739216423E+00  0.11803653034E+01  0.00000000000E+00 0. -1.
         11    1    3    3    0    0 -0.63367929471E+01  0.68025906137E+01  0.60651654068E+01  0.11100288987E+02  0.51100000000E-03 0. -1.
        -11    1    3    3    0    0  0.15515331211E+02 -0.27736281137E+02 -0.31627484532E+02  0.44836643184E+02  0.51100000000E-03 0.  1.
         12    1    3    3    0    0 -0.97902918911E+01  0.19957591644E+02  0.25819711290E+02  0.34070702526E+02  0.00000000000E+00 0. -1.
</event>
<event>
 7    1  0.1698110E-015  0.9000770E+02  0.7816164E-02  0.1186339E+00
        -11   -1    0    0    0    0  0.00000000000E+00  0.00000000000E+00  0.45593999997E+02  0.45594000000E+02  0.51100000000E-03 0. -1.
         11   -1    0    0    0    0 -0.00000000000E+00 -0.00000000000E+00 -0.45593999997E+02  0.45594000000E+02  0.51100000000E-03 0.  1.
    9900012    2    1    2    0    0 -0.45578917199E+00  0.67104824941E+00 -0.85736060292E+00  0.90007696342E+02  0.89999957133E+02 0.  0.
         12    1    1    2    0    0  0.45578917199E+00 -0.67104824941E+00  0.85736060292E+00  0.11803036583E+01  0.00000000000E+00 0. -1.
         11    1    3    3    0    0 -0.28912128392E+02  0.21425515683E+02  0.36841590164E+01  0.36173704792E+02  0.51100000000E-03 0. -1.
        -11    1    3    3    0    0 -0.52074005947E+01  0.75886404501E+01 -0.34036201320E+01  0.98127017227E+01  0.51100000000E-03 0.  1.
        -12    1    3    3    0    0  0.33663739815E+02 -0.28343107884E+02 -0.11378994873E+01  0.44021289827E+02  0.00000000000E+00 0.  1.
</event>
<event>
 7    1  0.1698110E-015  0.9000771E+02  0.7816164E-02  0.1186339E+00
        -11   -1    0    0    0    0  0.00000000000E+00  0.00000000000E+00  0.45593999997E+02  0.45594000000E+02  0.51100000000E-03 0.  1.
         11   -1    0    0    0    0 -0.00000000000E+00 -0.00000000000E+00 -0.45593999997E+02  0.45594000000E+02  0.51100000000E-03 0. -1.
    9900012    2    1    2    0    0 -0.45543766498E+00 -0.62891418075E+00  0.88889333147E+00  0.90007708566E+02  0.89999969519E+02 0.  0.
         12    1    1    2    0    0  0.45543766498E+00  0.62891418075E+00 -0.88889333147E+00  0.11802914336E+01  0.00000000000E+00 0. -1.
         11    1    3    3    0    0  0.69550539985E+01 -0.34855021823E+01  0.64470470612E+01  0.10103757601E+02  0.51100000000E-03 0. -1.
        -11    1    3    3    0    0  0.19996386485E+02  0.41788960845E+01  0.29190104716E+02  0.35628371539E+02  0.51100000000E-03 0.  1.
         12    1    3    3    0    0 -0.27406878149E+02 -0.13223080830E+01 -0.34748258446E+02  0.44275579426E+02  0.00000000000E+00 0. -1.
</event>
<event>
 7    1  0.1698110E-015  0.9000807E+02  0.7816164E-02  0.1186338E+00
        -11   -1    0    0    0    0  0.00000000000E+00  0.00000000000E+00  0.45593999997E+02  0.45594000000E+02  0.51100000000E-03 0.  1.
         11   -1    0    0    0    0 -0.00000000000E+00 -0.00000000000E+00 -0.45593999997E+02  0.45594000000E+02  0.51100000000E-03 0. -1.
    9900012    2    1    2    0    0  0.11551524169E+01  0.23922852572E+00  0.25270233346E-01  0.90008065265E+02  0.90000330926E+02 0.  0.
         12    1    1    2    0    0 -0.11551524169E+01 -0.23922852572E+00 -0.25270233346E-01  0.11799347348E+01  0.00000000000E+00 0. -1.
         11    1    3    3    0    0  0.62718354766E+00  0.37833059861E+02 -0.79645128765E+00  0.37846639382E+02  0.51100000000E-03 0. -1.
        -11    1    3    3    0    0  0.58641515867E+01  0.58630570372E+01 -0.92162808059E+00  0.83434471433E+01  0.51100000000E-03 0.  1.
        -12    1    3    3    0    0 -0.53361827175E+01 -0.43456888372E+02  0.17433496016E+01  0.43817978740E+02  0.00000000000E+00 0.  1.
</event>
<event>
 7    1  0.1698110E-015  0.9000674E+02  0.7816164E-02  0.1186341E+00
        -11   -1    0    0    0    0  0.00000000000E+00  0.00000000000E+00  0.45593999997E+02  0.45594000000E+02  0.51100000000E-03 0. -1.
         11   -1    0    0    0    0 -0.00000000000E+00 -0.00000000000E+00 -0.45593999997E+02  0.45594000000E+02  0.51100000000E-03 0.  1.
    9900012    2    1    2    0    0 -0.10023434933E+01 -0.45507720931E+00 -0.42847010911E+00  0.90006740342E+02  0.89998988509E+02 0.  0.
         12    1    1    2    0    0  0.10023434933E+01  0.45507720931E+00  0.42847010911E+00  0.11812596579E+01  0.00000000000E+00 0. -1.
         11    1    3    3    0    0  0.19967952053E+02 -0.27578423426E+01  0.35284271824E+02  0.40636247883E+02  0.51100000000E-03 0. -1.
        -11    1    3    3    0    0 -0.79981019360E+01 -0.22164188109E+00  0.29374676475E+01  0.85233488807E+01  0.51100000000E-03 0.  1.
        -12    1    3    3    0    0 -0.12972193611E+02  0.25244070144E+01 -0.38650209581E+02  0.40847143578E+02  0.00000000000E+00 0.  1.
</event>
<event>
 7    1  0.1698110E-015  0.9000768E+02  0.7816164E-02  0.1186339E+00
        -11   -1    0    0    0    0  0.00000000000E+00  0.00000000000E+00  0.45593999997E+02  0.45594000000E+02  0.51100000000E-03 0.  1.
         11   -1    0    0    0    0 -0.00000000000E+00 -0.00000000000E+00 -0.45593999997E+02  0.45594000000E+02  0.51100000000E-03 0. -1.
    9900012    2    1    2    0    0  0.76135657899E+00 -0.82340800823E+00  0.36809792314E+00  0.90007677726E+02  0.89999938272E+02 0.  0.
         12    1    1    2    0    0 -0.76135657899E+00  0.82340800823E+00 -0.36809792314E+00  0.11803222735E+01  0.00000000000E+00 0. -1.
         11    1    3    3    0    0  0.42188652693E+01  0.37111191750E+02 -0.43940895764E+01  0.37607810369E+02  0.51100000000E-03 0. -1.
        -11    1    3    3    0    0  0.75095944654E+01  0.10533345538E+01 -0.69007312671E+01  0.10252980786E+02  0.51100000000E-03 0.  1.
        -12    1    3    3    0    0 -0.10967103156E+02 -0.38987934312E+02  0.11662918767E+02  0.42146886572E+02  0.00000000000E+00 0.  1.
</event>
<event>
 7    1  0.1698110E-015  0.9000768E+02  0.7816164E-02  0.1186339E+00
        -11   -1    0    0    0    0  0.00000000000E+00  0.00000000000E+00  0.45593999997E+02  0.45594000000E+02  0.51100000000E-03 0. -1.
         11   -1    0    0    0    0 -0.00000000000E+00 -0.00000000000E+00 -0.45593999997E+02  0.45594000000E+02  0.51100000000E-03 0.  1.
    9900012    2    1    2    0    0  0.80977297915E+00  0.84347172922E+00 -0.16118295559E+00  0.90007679374E+02  0.89999939941E+02 0.  0.
         12    1    1    2    0    0 -0.80977297915E+00 -0.84347172922E+00  0.16118295559E+00  0.11803206263E+01  0.00000000000E+00 0. -1.
         11    1    3    3    0    0  0.30505578000E+02 -0.16546483280E+02  0.25179929081E+02  0.42876627979E+02  0.51100000000E-03 0. -1.
        -11    1    3    3    0    0  0.11172006652E+01  0.72878521999E+00 -0.78783711627E+01  0.79904942063E+01  0.51100000000E-03 0.  1.
        -12    1    3    3    0    0 -0.30813005686E+02  0.16661169789E+02 -0.17462740874E+02  0.39140557188E+02  0.00000000000E+00 0.  1.
</event>
<event>
 7    1  0.1698110E-015  0.9000791E+02  0.7816164E-02  0.1186339E+00
        -11   -1    0    0    0    0  0.00000000000E+00  0.00000000000E+00  0.45593999997E+02  0.45594000000E+02  0.51100000000E-03 0.  1.
         11   -1    0    0    0    0 -0.00000000000E+00 -0.00000000000E+00 -0.45593999997E+02  0.45594000000E+02  0.51100000000E-03 0. -1.
    9900012    2    1    2    0    0 -0.10833090339E+01 -0.33975787494E+00  0.32188872615E+00  0.90007912618E+02  0.90000176265E+02 0.  0.
         12    1    1    2    0    0  0.10833090339E+01  0.33975787494E+00 -0.32188872615E+00  0.11800873817E+01  0.00000000000E+00 0. -1.
         11    1    3    3    0    0  0.16649645160E+01 -0.20213213190E+01  0.81114474129E+01  0.85236979127E+01  0.51100000000E-03 0. -1.
        -11    1    3    3    0    0  0.21664609964E+02  0.11857755539E+01  0.29677331759E+02  0.36762826458E+02  0.51100000000E-03 0.  1.
         12    1    3    3    0    0 -0.24412883514E+02  0.49578789020E+00 -0.37466890446E+02  0.44721388248E+02  0.00000000000E+00 0. -1.
</event>
<event>
 7    1  0.1698110E-015  0.9000744E+02  0.7816164E-02  0.1186340E+00
        -11   -1    0    0    0    0  0.00000000000E+00  0.00000000000E+00  0.45593999997E+02  0.45594000000E+02  0.51100000000E-03 0.  1.
         11   -1    0    0    0    0 -0.00000000000E+00 -0.00000000000E+00 -0.45593999997E+02  0.45594000000E+02  0.51100000000E-03 0. -1.
    9900012    2    1    2    0    0  0.21568526037E-01 -0.11208622861E+01 -0.37003845645E+00  0.90007438301E+02  0.89999695686E+02 0.  0.
         12    1    1    2    0    0 -0.21568526037E-01  0.11208622861E+01  0.37003845645E+00  0.11805616989E+01  0.00000000000E+00 0. -1.
         11    1    3    3    0    0 -0.88851724573E+01 -0.52032986040E+00 -0.35034646621E+02  0.36147524076E+02  0.51100000000E-03 0. -1.
        -11    1    3    3    0    0  0.17442195901E+01 -0.64720042469E+01 -0.78648638043E+01  0.10333693622E+02  0.51100000000E-03 0.  1.
        -12    1    3    3    0    0  0.71625213932E+01  0.58714718212E+01  0.42529471968E+02  0.43526220603E+02  0.00000000000E+00 0.  1.
</event>
<event>
 7    1  0.1698110E-015  0.9000768E+02  0.7816164E-02  0.1186339E+00
        -11   -1    0    0    0    0  0.00000000000E+00  0.00000000000E+00  0.45593999997E+02  0.45594000000E+02  0.51100000000E-03 0. -1.
         11   -1    0    0    0    0 -0.00000000000E+00 -0.00000000000E+00 -0.45593999997E+02  0.45594000000E+02  0.51100000000E-03 0.  1.
    9900012    2    1    2    0    0  0.10634286378E+01  0.47908474689E+00  0.18100662089E+00  0.90007675443E+02  0.89999935959E+02 0.  0.
         12    1    1    2    0    0 -0.10634286378E+01 -0.47908474689E+00 -0.18100662089E+00  0.11803245568E+01  0.00000000000E+00 0. -1.
         11    1    3    3    0    0 -0.71595312461E+01  0.51312918251E+01 -0.93758562165E+01  0.12864514119E+02  0.51100000000E-03 0. -1.
        -11    1    3    3    0    0 -0.61427259435E+01  0.13074286518E+02 -0.28967185284E+02  0.32369242709E+02  0.51100000000E-03 0.  1.
         12    1    3    3    0    0  0.14365685828E+02 -0.17726493596E+02  0.38524048122E+02  0.44773918616E+02  0.00000000000E+00 0. -1.
</event>
<event>
 7    1  0.1698110E-015  0.9000767E+02  0.7816164E-02  0.1186339E+00
        -11   -1    0    0    0    0  0.00000000000E+00  0.00000000000E+00  0.45593999997E+02  0.45594000000E+02  0.51100000000E-03 0.  1.
         11   -1    0    0    0    0 -0.00000000000E+00 -0.00000000000E+00 -0.45593999997E+02  0.45594000000E+02  0.51100000000E-03 0. -1.
    9900012    2    1    2    0    0  0.90377860480E+00  0.10022640823E+00  0.75253326730E+00  0.90007674868E+02  0.89999935376E+02 0.  0.
         12    1    1    2    0    0 -0.90377860480E+00 -0.10022640823E+00 -0.75253326730E+00  0.11803251322E+01  0.00000000000E+00 0. -1.
         11    1    3    3    0    0  0.31155698469E+01 -0.71646737815E+01  0.62480679951E+01  0.10003883236E+02  0.51100000000E-03 0. -1.
        -11    1    3    3    0    0 -0.30222381362E+02 -0.22902320443E+02  0.27522144690E+01  0.38019512117E+02  0.51100000000E-03 0.  1.
         12    1    3    3    0    0  0.28010590120E+02  0.30167220633E+02 -0.82477491967E+01  0.41984279515E+02  0.00000000000E+00 0. -1.
</event>
<event>
 8    1  0.1698110E-015  0.9000772E+02  0.7816164E-02  0.1186339E+00
        -11   -1    0    0    0    0  0.00000000000E+00  0.00000000000E+00  0.45593999997E+02  0.45594000000E+02  0.51100000000E-03 0. -1.
         11   -1    0    0    0    0 -0.00000000000E+00 -0.00000000000E+00 -0.45593999997E+02  0.45594000000E+02  0.51100000000E-03 0.  1.
    9900012    2    1    2    0    0 -0.61896015439E+00  0.39580775985E+00 -0.92373459543E+00  0.90007719924E+02  0.89999981027E+02 0.  0.
         23    2    3    3    0    0 -0.26133545975E+02 -0.20678787340E+01 -0.96463142508E+01  0.62931028166E+02  0.56391706657E+02 0.  0.
         12    1    1    2    0    0  0.61896015439E+00 -0.39580775985E+00  0.92373459543E+00  0.11802800762E+01  0.00000000000E+00 0. -1.
         11    1    4    4    0    0 -0.78737460903E+01  0.11116647359E+02  0.20919294351E+02  0.24963825877E+02  0.51100000000E-03 0. -1.
        -11    1    4    4    0    0 -0.18259799884E+02 -0.13184526093E+02 -0.30565608602E+02  0.37967202288E+02  0.51100000000E-03 0.  1.
         12    1    3    3    0    0  0.25514585820E+02  0.24636864939E+01  0.87225796554E+01  0.27076691758E+02  0.00000000000E+00 0. -1.
</event>
<event>
 7    1  0.1698110E-015  0.9000775E+02  0.7816164E-02  0.1186339E+00
        -11   -1    0    0    0    0  0.00000000000E+00  0.00000000000E+00  0.45593999997E+02  0.45594000000E+02  0.51100000000E-03 0. -1.
         11   -1    0    0    0    0 -0.00000000000E+00 -0.00000000000E+00 -0.45593999997E+02  0.45594000000E+02  0.51100000000E-03 0.  1.
    9900012    2    1    2    0    0  0.27514199181E+00  0.68279519980E+00 -0.92253775842E+00  0.90007750740E+02  0.90000012250E+02 0.  0.
         12    1    1    2    0    0 -0.27514199181E+00 -0.68279519980E+00  0.92253775842E+00  0.11802492602E+01  0.00000000000E+00 0. -1.
         11    1    3    3    0    0 -0.48811981905E+01  0.78957970403E+01  0.36330874487E+01  0.99684016446E+01  0.51100000000E-03 0. -1.
        -11    1    3    3    0    0  0.13976061294E+01  0.16902373270E+02  0.31923187081E+02  0.36148767596E+02  0.51100000000E-03 0.  1.
         12    1    3    3    0    0  0.37587340530E+01 -0.24115375110E+02 -0.36478812288E+02  0.43890581499E+02  0.00000000000E+00 0. -1.
</event>
<event>
 7    1  0.1698110E-015  0.9000774E+02  0.7816164E-02  0.1186339E+00
        -11   -1    0    0    0    0  0.00000000000E+00  0.00000000000E+00  0.45593999997E+02  0.45594000000E+02  0.51100000000E-03 0.  1.
         11   -1    0    0    0    0 -0.00000000000E+00 -0.00000000000E+00 -0.45593999997E+02  0.45594000000E+02  0.51100000000E-03 0. -1.
    9900012    2    1    2    0    0 -0.55052396418E+00 -0.10260237454E+01 -0.19290005786E+00  0.90007740794E+02  0.90000002172E+02 0.  0.
         12    1    1    2    0    0  0.55052396418E+00  0.10260237454E+01  0.19290005786E+00  0.11802592061E+01  0.00000000000E+00 0. -1.
         11    1    3    3    0    0  0.35699541578E+01  0.84317430871E+01 -0.28465011140E+01  0.95886095462E+01  0.51100000000E-03 0. -1.
        -11    1    3    3    0    0  0.24843848475E+01  0.30727740207E+01  0.40146118175E+02  0.40340115431E+02  0.51100000000E-03 0.  1.
         12    1    3    3    0    0 -0.66048629695E+01 -0.12530540853E+02 -0.37492517119E+02  0.40079015816E+02  0.00000000000E+00 0. -1.
</event>
<event>
 7    1  0.1698110E-015  0.9000774E+02  0.7816164E-02  0.1186339E+00
        -11   -1    0    0    0    0  0.00000000000E+00  0.00000000000E+00  0.45593999997E+02  0.45594000000E+02  0.51100000000E-03 0. -1.
         11   -1    0    0    0    0 -0.00000000000E+00 -0.00000000000E+00 -0.45593999997E+02  0.45594000000E+02  0.51100000000E-03 0.  1.
    9900012    2    1    2    0    0  0.19871758401E+00  0.11548976769E+01 -0.14051943122E+00  0.90007736033E+02  0.89999997348E+02 0.  0.
         12    1    1    2    0    0 -0.19871758401E+00 -0.11548976769E+01  0.14051943122E+00  0.11802639674E+01  0.00000000000E+00 0. -1.
         11    1    3    3    0    0  0.13920277778E+02 -0.26231136117E+02  0.20376539848E+02  0.36014580545E+02  0.51100000000E-03 0. -1.
        -11    1    3    3    0    0 -0.27065276139E+01 -0.10031371995E+02 -0.11767728101E+01  0.10456505646E+02  0.51100000000E-03 0.  1.
        -12    1    3    3    0    0 -0.11015032580E+02  0.37417405789E+02 -0.19340286469E+02  0.43536649841E+02  0.00000000000E+00 0.  1.
</event>
<event>
 7    1  0.1698110E-015  0.9000775E+02  0.7816164E-02  0.1186339E+00
        -11   -1    0    0    0    0  0.00000000000E+00  0.00000000000E+00  0.45593999997E+02  0.45594000000E+02  0.51100000000E-03 0. -1.
         11   -1    0    0    0    0 -0.00000000000E+00 -0.00000000000E+00 -0.45593999997E+02  0.45594000000E+02  0.51100000000E-03 0.  1.
    9900012    2    1    2    0    0  0.65516220942E+00 -0.20945171311E+00 -0.95911096681E+00  0.90007745202E+02  0.90000006639E+02 0.  0.
         12    1    1    2    0    0 -0.65516220942E+00  0.20945171311E+00  0.95911096681E+00  0.11802547977E+01  0.00000000000E+00 0. -1.
         11    1    3    3    0    0  0.40022533149E+01  0.38340822878E+01  0.79551425817E+01  0.96954892781E+01  0.51100000000E-03 0. -1.
        -11    1    3    3    0    0  0.11679748662E+02  0.35171365572E+02  0.13358422320E+01  0.37084039151E+02  0.51100000000E-03 0.  1.
         12    1    3    3    0    0 -0.15026839767E+02 -0.39214899573E+02 -0.10250095781E+02  0.43228216773E+02  0.00000000000E+00 0. -1.
</event>
<event>
 7    1  0.1698110E-015  0.9000729E+02  0.7816164E-02  0.1186340E+00
        -11   -1    0    0    0    0  0.00000000000E+00  0.00000000000E+00  0.45593999997E+02  0.45594000000E+02  0.51100000000E-03 0.  1.
         11   -1    0    0    0    0 -0.00000000000E+00 -0.00000000000E+00 -0.45593999997E+02  0.45594000000E+02  0.51100000000E-03 0. -1.
    9900012    2    1    2    0    0 -0.76499127800E+00  0.72726627011E+00  0.52910501342E+00  0.90007288351E+02  0.89999543756E+02 0.  0.
         12    1    1    2    0    0  0.76499127800E+00 -0.72726627011E+00 -0.52910501342E+00  0.11807116491E+01  0.00000000000E+00 0. -1.
         11    1    3    3    0    0 -0.37259785448E+02  0.71834628891E+00 -0.24066923966E+02  0.44362421738E+02  0.51100000000E-03 0. -1.
        -11    1    3    3    0    0  0.98222819896E+01 -0.18843002433E+01  0.11232393412E+01  0.10064267374E+02  0.51100000000E-03 0.  1.
        -12    1    3    3    0    0  0.26672512180E+02  0.18932202245E+01  0.23472789638E+02  0.35580599239E+02  0.00000000000E+00 0.  1.
</event>
<event>
 7    1  0.1698110E-015  0.9000787E+02  0.7816164E-02  0.1186339E+00
        -11   -1    0    0    0    0  0.00000000000E+00  0.00000000000E+00  0.45593999997E+02  0.45594000000E+02  0.51100000000E-03 0.  1.
         11   -1    0    0    0    0 -0.00000000000E+00 -0.00000000000E+00 -0.45593999997E+02  0.45594000000E+02  0.51100000000E-03 0. -1.
    9900012    2    1    2    0    0 -0.81766673165E+00 -0.73440411964E+00 -0.42984929484E+00  0.90007873434E+02  0.90000136563E+02 0.  0.
         12    1    1    2    0    0  0.81766673165E+00  0.73440411964E+00  0.42984929484E+00  0.11801265658E+01  0.00000000000E+00 0. -1.
         11    1    3    3    0    0  0.44894395025E+01  0.38897181494E+01  0.57140860248E+01  0.82423148258E+01  0.51100000000E-03 0. -1.
        -11    1    3    3    0    0 -0.12771066952E+02  0.34283505836E+02  0.11566770331E+02  0.38369898353E+02  0.51100000000E-03 0.  1.
         12    1    3    3    0    0  0.74639607182E+01 -0.38907628105E+02 -0.17710705650E+02  0.43395660255E+02  0.00000000000E+00 0. -1.
</event>
<event>
 7    1  0.1698110E-015  0.9000775E+02  0.7816164E-02  0.1186339E+00
        -11   -1    0    0    0    0  0.00000000000E+00  0.00000000000E+00  0.45593999997E+02  0.45594000000E+02  0.51100000000E-03 0.  1.
         11   -1    0    0    0    0 -0.00000000000E+00 -0.00000000000E+00 -0.45593999997E+02  0.45594000000E+02  0.51100000000E-03 0. -1.
    9900012    2    1    2    0    0 -0.68284740165E+00 -0.82758534051E+00 -0.49174899468E+00  0.90007747847E+02  0.90000009319E+02 0.  0.
         12    1    1    2    0    0  0.68284740165E+00  0.82758534051E+00  0.49174899468E+00  0.11802521525E+01  0.00000000000E+00 0. -1.
         11    1    3    3    0    0  0.21003128095E+00  0.14691582838E+02  0.37494058847E+01  0.15163929707E+02  0.51100000000E-03 0. -1.
        -11    1    3    3    0    0  0.29387215776E+02  0.12619356821E+02 -0.90272029593E+01  0.33231716946E+02  0.51100000000E-03 0.  1.
         12    1    3    3    0    0 -0.30280094459E+02 -0.28138524999E+02  0.47860480799E+01  0.41612101194E+02  0.00000000000E+00 0. -1.
</event>
<event>
 7    1  0.1698110E-015  0.9000781E+02  0.7816164E-02  0.1186339E+00
        -11   -1    0    0    0    0  0.00000000000E+00  0.00000000000E+00  0.45593999997E+02  0.45594000000E+02  0.51100000000E-03 0.  1.
         11   -1    0    0    0    0 -0.00000000000E+00 -0.00000000000E+00 -0.45593999997E+02  0.45594000000E+02  0.51100000000E-03 0. -1.
    9900012    2    1    2    0    0 -0.10096744416E+01 -0.61029985321E+00 -0.30801380393E-01  0.90007806324E+02  0.90000068567E+02 0.  0.
         12    1    1    2    0    0  0.10096744416E+01  0.61029985321E+00  0.30801380393E-01  0.11801936764E+01  0.00000000000E+00 0. -1.
         11    1    3    3    0    0  0.97619345310E-01 -0.54791947717E+01  0.43109411809E+01  0.69724686453E+01  0.51100000000E-03 0. -1.
        -11    1    3    3    0    0 -0.16191750816E+02 -0.13892149583E+02  0.32589004993E+02  0.38951352496E+02  0.51100000000E-03 0.  1.
         12    1    3    3    0    0  0.15084457030E+02  0.18761044501E+02 -0.36930747555E+02  0.44083985183E+02  0.00000000000E+00 0. -1.
</event>
<event>
 7    1  0.1698110E-015  0.9000695E+02  0.7816164E-02  0.1186341E+00
        -11   -1    0    0    0    0  0.00000000000E+00  0.00000000000E+00  0.45593999997E+02  0.45594000000E+02  0.51100000000E-03 0. -1.
         11   -1    0    0    0    0 -0.00000000000E+00 -0.00000000000E+00 -0.45593999997E+02  0.45594000000E+02  0.51100000000E-03 0.  1.
    9900012    2    1    2    0    0  0.84277487718E+00 -0.56854800135E+00 -0.60114114080E+00  0.90006946659E+02  0.89999197551E+02 0.  0.
         12    1    1    2    0    0 -0.84277487718E+00  0.56854800135E+00  0.60114114080E+00  0.11810533411E+01  0.00000000000E+00 0. -1.
         11    1    3    3    0    0 -0.48173899952E+01 -0.86894880739E+01 -0.27512621475E+00  0.99393231182E+01  0.51100000000E-03 0. -1.
        -11    1    3    3    0    0 -0.45606400027E+01  0.39068850217E+02  0.17350330885E+02  0.42990795254E+02  0.51100000000E-03 0.  1.
         12    1    3    3    0    0  0.10220804875E+02 -0.30947910144E+02 -0.17676345811E+02  0.37076828287E+02  0.00000000000E+00 0. -1.
</event>
<event>
 7    1  0.1698110E-015  0.9000770E+02  0.7816164E-02  0.1186339E+00
        -11   -1    0    0    0    0  0.00000000000E+00  0.00000000000E+00  0.45593999997E+02  0.45594000000E+02  0.51100000000E-03 0.  1.
         11   -1    0    0    0    0 -0.00000000000E+00 -0.00000000000E+00 -0.45593999997E+02  0.45594000000E+02  0.51100000000E-03 0. -1.
    9900012    2    1    2    0    0 -0.56411392305E+00 -0.10367612323E+01 -0.23971709858E-02  0.90007701683E+02  0.89999962545E+02 0.  0.
         12    1    1    2    0    0  0.56411392305E+00  0.10367612323E+01  0.23971709858E-02  0.11802983171E+01  0.00000000000E+00 0. -1.
         11    1    3    3    0    0  0.36953545209E+01  0.14534127203E+01 -0.99372889052E+01  0.10701297333E+02  0.51100000000E-03 0. -1.
        -11    1    3    3    0    0  0.99165135051E+01  0.22204678476E+02  0.34152663660E+02  0.41925999352E+02  0.51100000000E-03 0.  1.
         12    1    3    3    0    0 -0.14175981949E+02 -0.24694852429E+02 -0.24217771926E+02  0.37380404997E+02  0.00000000000E+00 0. -1.
</event>
<event>
 7    1  0.1698110E-015  0.9000787E+02  0.7816164E-02  0.1186339E+00
        -11   -1    0    0    0    0  0.00000000000E+00  0.00000000000E+00  0.45593999997E+02  0.45594000000E+02  0.51100000000E-03 0. -1.
         11   -1    0    0    0    0 -0.00000000000E+00 -0.00000000000E+00 -0.45593999997E+02  0.45594000000E+02  0.51100000000E-03 0.  1.
    9900012    2    1    2    0    0  0.79492708205E+00  0.62435710491E+00 -0.60907854518E+00  0.90007869696E+02  0.90000132776E+02 0.  0.
         12    1    1    2    0    0 -0.79492708205E+00 -0.62435710491E+00  0.60907854518E+00  0.11801303040E+01  0.00000000000E+00 0. -1.
         11    1    3    3    0    0 -0.17357227734E+02 -0.96736236981E+01  0.21474941443E+02  0.29257912781E+02  0.51100000000E-03 0. -1.
        -11    1    3    3    0    0 -0.87966905094E+01  0.18270018611E+02  0.58713472687E+01  0.21110378087E+02  0.51100000000E-03 0.  1.
        -12    1    3    3    0    0  0.26948845326E+02 -0.79720378082E+01 -0.27955367256E+02  0.39639578828E+02  0.00000000000E+00 0.  1.
</event>
<event>
 7    1  0.1698110E-015  0.9000773E+02  0.7816164E-02  0.1186339E+00
        -11   -1    0    0    0    0  0.00000000000E+00  0.00000000000E+00  0.45593999997E+02  0.45594000000E+02  0.51100000000E-03 0.  1.
         11   -1    0    0    0    0 -0.00000000000E+00 -0.00000000000E+00 -0.45593999997E+02  0.45594000000E+02  0.51100000000E-03 0. -1.
    9900012    2    1    2    0    0  0.10382171951E+01 -0.27958566025E+00  0.48679902897E+00  0.90007730378E+02  0.89999991619E+02 0.  0.
         12    1    1    2    0    0 -0.10382171951E+01  0.27958566025E+00 -0.48679902897E+00  0.11802696218E+01  0.00000000000E+00 0. -1.
         11    1    3    3    0    0 -0.34621034154E+02 -0.55511466286E+00 -0.45276742427E+01  0.34920251896E+02  0.51100000000E-03 0. -1.
        -11    1    3    3    0    0 -0.93704013810E+01  0.24983994445E+01 -0.21921360542E+00  0.97002307545E+01  0.51100000000E-03 0.  1.
        -12    1    3    3    0    0  0.45029652730E+02 -0.22228704419E+01  0.52336868770E+01  0.45387247728E+02  0.00000000000E+00 0.  1.
</event>
<event>
 7    1  0.1698110E-015  0.9000776E+02  0.7816164E-02  0.1186339E+00
        -11   -1    0    0    0    0  0.00000000000E+00  0.00000000000E+00  0.45593999997E+02  0.45594000000E+02  0.51100000000E-03 0. -1.
         11   -1    0    0    0    0 -0.00000000000E+00 -0.00000000000E+00 -0.45593999997E+02  0.45594000000E+02  0.51100000000E-03 0.  1.
    9900012    2    1    2    0    0 -0.47447490063E+00 -0.75865030257E+00 -0.76961028971E+00  0.90007755656E+02  0.90000017231E+02 0.  0.
         12    1    1    2    0    0  0.47447490063E+00  0.75865030257E+00  0.76961028971E+00  0.11802443437E+01  0.00000000000E+00 0. -1.
         11    1    3    3    0    0 -0.85611948185E+01  0.81438485492E+00 -0.12799609965E+01  0.86945718599E+01  0.51100000000E-03 0. -1.
        -11    1    3    3    0    0  0.24876142864E+02 -0.15600084687E+02 -0.31163772432E+02  0.42817821505E+02  0.51100000000E-03 0.  1.
         12    1    3    3    0    0 -0.16789422946E+02  0.14027049529E+02  0.31674123138E+02  0.38495362291E+02  0.00000000000E+00 0. -1.
</event>
<event>
 7    1  0.1698110E-015  0.9000783E+02  0.7816164E-02  0.1186339E+00
        -11   -1    0    0    0    0  0.00000000000E+00  0.00000000000E+00  0.45593999997E+02  0.45594000000E+02  0.51100000000E-03 0.  1.
         11   -1    0    0    0    0 -0.00000000000E+00 -0.00000000000E+00 -0.45593999997E+02  0.45594000000E+02  0.51100000000E-03 0. -1.
    9900012    2    1    2    0    0  0.11252245735E+01 -0.25587858859E+00  0.24740273721E+00  0.90007825306E+02  0.90000087800E+02 0.  0.
         12    1    1    2    0    0 -0.11252245735E+01  0.25587858859E+00 -0.24740273721E+00  0.11801746935E+01  0.00000000000E+00 0. -1.
         11    1    3    3    0    0  0.26591308474E+00  0.15308414378E+02 -0.33542883698E+02  0.36871985403E+02  0.51100000000E-03 0. -1.
        -11    1    3    3    0    0 -0.35684386776E+01  0.53460641108E+01 -0.54662789649E+01  0.84376751571E+01  0.51100000000E-03 0.  1.
        -12    1    3    3    0    0  0.44277501664E+01 -0.20910357077E+02  0.39256565400E+02  0.44698164746E+02  0.00000000000E+00 0.  1.
</event>
<event>
 7    1  0.1698110E-015  0.9000785E+02  0.7816164E-02  0.1186339E+00
        -11   -1    0    0    0    0  0.00000000000E+00  0.00000000000E+00  0.45593999997E+02  0.45594000000E+02  0.51100000000E-03 0.  1.
         11   -1    0    0    0    0 -0.00000000000E+00 -0.00000000000E+00 -0.45593999997E+02  0.45594000000E+02  0.51100000000E-03 0. -1.
    9900012    2    1    2    0    0  0.50830698767E-01  0.91560872930E+00  0.74285573535E+00  0.90007848421E+02  0.90000111220E+02 0.  0.
         12    1    1    2    0    0 -0.50830698767E-01 -0.91560872930E+00 -0.74285573535E+00  0.11801515787E+01  0.00000000000E+00 0. -1.
         11    1    3    3    0    0 -0.63236428082E+01  0.86321032358E+01 -0.12035889905E+01  0.10768021701E+02  0.51100000000E-03 0. -1.
        -11    1    3    3    0    0  0.92542313783E+01  0.22695373420E+02  0.29324702001E+02  0.38218567749E+02  0.51100000000E-03 0.  1.
         12    1    3    3    0    0 -0.28797578714E+01 -0.30411867926E+02 -0.27378257275E+02  0.41021258971E+02  0.00000000000E+00 0. -1.
</event>
<event>
 7    1  0.1698110E-015  0.9000779E+02  0.7816164E-02  0.1186339E+00
        -11   -1    0    0    0    0  0.00000000000E+00  0.00000000000E+00  0.45593999997E+02  0.45594000000E+02  0.51100000000E-03 0.  1.
         11   -1    0    0    0    0 -0.00000000000E+00 -0.00000000000E+00 -0.45593999997E+02  0.45594000000E+02  0.51100000000E-03 0. -1.
    9900012    2    1    2    0    0  0.94521080103E+00 -0.53938951649E+00 -0.45665809199E+00  0.90007787679E+02  0.90000049677E+02 0.  0.
         12    1    1    2    0    0 -0.94521080103E+00  0.53938951649E+00  0.45665809199E+00  0.11802123207E+01  0.00000000000E+00 0. -1.
         11    1    3    3    0    0 -0.10928445880E+01 -0.18035482533E+01  0.10946341676E+02  0.11147622704E+02  0.51100000000E-03 0. -1.
        -11    1    3    3    0    0  0.78940932826E+01  0.35992724974E+02 -0.20927277199E+02  0.42376218461E+02  0.51100000000E-03 0.  1.
         12    1    3    3    0    0 -0.58560378935E+01 -0.34728566237E+02  0.95242774311E+01  0.36483946515E+02  0.00000000000E+00 0. -1.
</event>
<event>
 7    1  0.1698110E-015  0.9000780E+02  0.7816164E-02  0.1186339E+00
        -11   -1    0    0    0    0  0.00000000000E+00  0.00000000000E+00  0.45593999997E+02  0.45594000000E+02  0.51100000000E-03 0.  1.
         11   -1    0    0    0    0 -0.00000000000E+00 -0.00000000000E+00 -0.45593999997E+02  0.45594000000E+02  0.51100000000E-03 0. -1.
    9900012    2    1    2    0    0  0.55213483635E-02  0.87828753249E+00  0.78832747687E+00  0.90007796761E+02  0.90000058878E+02 0.  0.
         12    1    1    2    0    0 -0.55213483635E-02 -0.87828753249E+00 -0.78832747687E+00  0.11802032392E+01  0.00000000000E+00 0. -1.
         11    1    3    3    0    0  0.30809911660E+02 -0.26374025412E+02  0.89101364474E+01  0.41523853443E+02  0.51100000000E-03 0. -1.
        -11    1    3    3    0    0 -0.10783878010E+02 -0.30577811926E+01  0.22829056073E+00  0.11211341026E+02  0.51100000000E-03 0.  1.
        -12    1    3    3    0    0 -0.20020512302E+02  0.30310094137E+02 -0.83500995313E+01  0.37272602292E+02  0.00000000000E+00 0.  1.
</event>
<event>
 7    1  0.1698110E-015  0.9000774E+02  0.7816164E-02  0.1186339E+00
        -11   -1    0    0    0    0  0.00000000000E+00  0.00000000000E+00  0.45593999997E+02  0.45594000000E+02  0.51100000000E-03 0.  1.
         11   -1    0    0    0    0 -0.00000000000E+00 -0.00000000000E+00 -0.45593999997E+02  0.45594000000E+02  0.51100000000E-03 0. -1.
    9900012    2    1    2    0    0 -0.12347100730E+00  0.98672948074E+00 -0.63572295598E+00  0.90007735693E+02  0.89999997004E+02 0.  0.
         12    1    1    2    0    0  0.12347100730E+00 -0.98672948074E+00  0.63572295598E+00  0.11802643071E+01  0.00000000000E+00 0. -1.
         11    1    3    3    0    0 -0.40309742245E+01  0.27484317528E+01 -0.84035876977E+01  0.97171455044E+01  0.51100000000E-03 0. -1.
        -11    1    3    3    0    0 -0.23329312927E+02  0.57488012229E+01 -0.26570347213E+02  0.35823022045E+02  0.51100000000E-03 0.  1.
         12    1    3    3    0    0  0.27236816144E+02 -0.75105034949E+01  0.34338211955E+02  0.44467568144E+02  0.00000000000E+00 0. -1.
</event>
<event>
 7    1  0.1698110E-015  0.9000787E+02  0.7816164E-02  0.1186339E+00
        -11   -1    0    0    0    0  0.00000000000E+00  0.00000000000E+00  0.45593999997E+02  0.45594000000E+02  0.51100000000E-03 0.  1.
         11   -1    0    0    0    0 -0.00000000000E+00 -0.00000000000E+00 -0.45593999997E+02  0.45594000000E+02  0.51100000000E-03 0. -1.
    9900012    2    1    2    0    0 -0.30076964286E+00  0.99966165987E+00  0.55038844287E+00  0.90007867274E+02  0.90000130322E+02 0.  0.
         12    1    1    2    0    0  0.30076964286E+00 -0.99966165987E+00 -0.55038844287E+00  0.11801327257E+01  0.00000000000E+00 0. -1.
         11    1    3    3    0    0  0.39471921644E+02 -0.17688806598E+01  0.66791347659E+01  0.40072089770E+02  0.51100000000E-03 0. -1.
        -11    1    3    3    0    0  0.15323131211E+00  0.84672045710E+01 -0.44587493777E+01  0.95706572061E+01  0.51100000000E-03 0.  1.
        -12    1    3    3    0    0 -0.39925922599E+02 -0.56986622513E+01 -0.16699969453E+01  0.40365120298E+02  0.00000000000E+00 0.  1.
</event>
<event>
 7    1  0.1698110E-015  0.9000779E+02  0.7816164E-02  0.1186339E+00
        -11   -1    0    0    0    0  0.00000000000E+00  0.00000000000E+00  0.45593999997E+02  0.45594000000E+02  0.51100000000E-03 0.  1.
         11   -1    0    0    0    0 -0.00000000000E+00 -0.00000000000E+00 -0.45593999997E+02  0.45594000000E+02  0.51100000000E-03 0. -1.
    9900012    2    1    2    0    0 -0.27157495361E+00  0.37264154549E+00  0.10864085505E+01  0.90007788911E+02  0.90000050924E+02 0.  0.
         12    1    1    2    0    0  0.27157495361E+00 -0.37264154549E+00 -0.10864085505E+01  0.11802110893E+01  0.00000000000E+00 0. -1.
         11    1    3    3    0    0  0.86380347547E+00 -0.29985344421E+01 -0.25758785903E+01  0.40462965806E+01  0.51100000000E-03 0. -1.
        -11    1    3    3    0    0 -0.14932432107E+02 -0.99704644302E+01  0.40567832976E+02  0.44363687428E+02  0.51100000000E-03 0.  1.
         12    1    3    3    0    0  0.13797053678E+02  0.13341640418E+02 -0.36905545836E+02  0.41597804902E+02  0.00000000000E+00 0. -1.
</event>
<event>
 7    1  0.1698110E-015  0.9000790E+02  0.7816164E-02  0.1186339E+00
        -11   -1    0    0    0    0  0.00000000000E+00  0.00000000000E+00  0.45593999997E+02  0.45594000000E+02  0.51100000000E-03 0.  1.
         11   -1    0    0    0    0 -0.00000000000E+00 -0.00000000000E+00 -0.45593999997E+02  0.45594000000E+02  0.51100000000E-03 0. -1.
    9900012    2    1    2    0    0 -0.71172864857E+00  0.37364003733E+00 -0.86397926992E+00  0.90007904781E+02  0.90000168324E+02 0.  0.
         12    1    1    2    0    0  0.71172864857E+00 -0.37364003733E+00  0.86397926992E+00  0.11800952188E+01  0.00000000000E+00 0. -1.
         11    1    3    3    0    0 -0.24560764860E+02 -0.16819787259E+02 -0.23689984343E+02  0.38044076705E+02  0.51100000000E-03 0. -1.
        -11    1    3    3    0    0  0.87851715664E+00 -0.98831874234E+01  0.32566934878E+00  0.99274995254E+01  0.51100000000E-03 0.  1.
        -12    1    3    3    0    0  0.22970519054E+02  0.27076614720E+02  0.22500335724E+02  0.42036328551E+02  0.00000000000E+00 0.  1.
</event>
<event>
 7    1  0.1698110E-015  0.9000773E+02  0.7816164E-02  0.1186339E+00
        -11   -1    0    0    0    0  0.00000000000E+00  0.00000000000E+00  0.45593999997E+02  0.45594000000E+02  0.51100000000E-03 0.  1.
         11   -1    0    0    0    0 -0.00000000000E+00 -0.00000000000E+00 -0.45593999997E+02  0.45594000000E+02  0.51100000000E-03 0. -1.
    9900012    2    1    2    0    0 -0.22037319269E+00  0.71739123193E+00 -0.91094393126E+00  0.90007731654E+02  0.89999992911E+02 0.  0.
         12    1    1    2    0    0  0.22037319269E+00 -0.71739123193E+00  0.91094393126E+00  0.11802683464E+01  0.00000000000E+00 0. -1.
         11    1    3    3    0    0 -0.36409618690E+02  0.13014554742E+02  0.12749186300E+02  0.40713397302E+02  0.51100000000E-03 0. -1.
        -11    1    3    3    0    0 -0.82306804421E+00 -0.54287713771E+01  0.48675167194E+01  0.73376916633E+01  0.51100000000E-03 0.  1.
        -12    1    3    3    0    0  0.37012313541E+02 -0.68683921331E+01 -0.18527646951E+02  0.41956642689E+02  0.00000000000E+00 0.  1.
</event>
<event>
 7    1  0.1698110E-015  0.9000764E+02  0.7816164E-02  0.1186339E+00
        -11   -1    0    0    0    0  0.00000000000E+00  0.00000000000E+00  0.45593999997E+02  0.45594000000E+02  0.51100000000E-03 0.  1.
         11   -1    0    0    0    0 -0.00000000000E+00 -0.00000000000E+00 -0.45593999997E+02  0.45594000000E+02  0.51100000000E-03 0. -1.
    9900012    2    1    2    0    0  0.68715839461E+00 -0.84947747044E+00  0.44659779643E+00  0.90007640638E+02  0.89999900694E+02 0.  0.
         12    1    1    2    0    0 -0.68715839461E+00  0.84947747044E+00 -0.44659779643E+00  0.11803593622E+01  0.00000000000E+00 0. -1.
         11    1    3    3    0    0 -0.82095491910E+00 -0.25518010612E+01  0.81455261628E+01  0.85752698130E+01  0.51100000000E-03 0. -1.
        -11    1    3    3    0    0  0.33049461678E+02 -0.73348626703E+01  0.19276010561E+02  0.38956792874E+02  0.51100000000E-03 0.  1.
         12    1    3    3    0    0 -0.31541348364E+02  0.90371862610E+01 -0.26974938928E+02  0.42475577951E+02  0.00000000000E+00 0. -1.
</event>
<event>
 7    1  0.1698110E-015  0.9000749E+02  0.7816164E-02  0.1186340E+00
        -11   -1    0    0    0    0  0.00000000000E+00  0.00000000000E+00  0.45593999997E+02  0.45594000000E+02  0.51100000000E-03 0.  1.
         11   -1    0    0    0    0 -0.00000000000E+00 -0.00000000000E+00 -0.45593999997E+02  0.45594000000E+02  0.51100000000E-03 0. -1.
    9900012    2    1    2    0    0  0.62313813681E+00  0.38457522937E-01  0.10019088736E+01  0.90007490996E+02  0.89999749076E+02 0.  0.
         12    1    1    2    0    0 -0.62313813681E+00 -0.38457522937E-01 -0.10019088736E+01  0.11805090044E+01  0.00000000000E+00 0. -1.
         11    1    3    3    0    0  0.13594650898E+02 -0.56195214217E+01 -0.36772067919E+02  0.39605284159E+02  0.51100000000E-03 0. -1.
        -11    1    3    3    0    0  0.89933120083E+01  0.24175072169E+01  0.43560989707E+01  0.10281031102E+02  0.51100000000E-03 0.  1.
        -12    1    3    3    0    0 -0.21964824769E+02  0.32404717277E+01  0.33417877822E+02  0.40121175734E+02  0.00000000000E+00 0.  1.
</event>
<event>
 7    1  0.1698110E-015  0.9000764E+02  0.7816164E-02  0.1186339E+00
        -11   -1    0    0    0    0  0.00000000000E+00  0.00000000000E+00  0.45593999997E+02  0.45594000000E+02  0.51100000000E-03 0.  1.
         11   -1    0    0    0    0 -0.00000000000E+00 -0.00000000000E+00 -0.45593999997E+02  0.45594000000E+02  0.51100000000E-03 0. -1.
    9900012    2    1    2    0    0 -0.10153065567E+01 -0.47080233327E+00  0.37514904006E+00  0.90007644527E+02  0.89999904634E+02 0.  0.
         12    1    1    2    0    0  0.10153065567E+01  0.47080233327E+00 -0.37514904006E+00  0.11803554733E+01  0.00000000000E+00 0. -1.
         11    1    3    3    0    0  0.31626129958E+02 -0.21159397071E+02 -0.58813078982E+01  0.38503531830E+02  0.51100000000E-03 0. -1.
        -11    1    3    3    0    0  0.53616649484E+01  0.47594088299E+01  0.73709905032E+01  0.10282554385E+02  0.51100000000E-03 0.  1.
        -12    1    3    3    0    0 -0.38003101463E+02  0.15929185908E+02 -0.11145335648E+01  0.41221558311E+02  0.00000000000E+00 0.  1.
</event>
<event>
 7    1  0.1698110E-015  0.9000729E+02  0.7816164E-02  0.1186340E+00
        -11   -1    0    0    0    0  0.00000000000E+00  0.00000000000E+00  0.45593999997E+02  0.45594000000E+02  0.51100000000E-03 0.  1.
         11   -1    0    0    0    0 -0.00000000000E+00 -0.00000000000E+00 -0.45593999997E+02  0.45594000000E+02  0.51100000000E-03 0. -1.
    9900012    2    1    2    0    0  0.69310033681E+00  0.84177731476E+00  0.45288053823E+00  0.90007289237E+02  0.89999544654E+02 0.  0.
         12    1    1    2    0    0 -0.69310033681E+00 -0.84177731476E+00 -0.45288053823E+00  0.11807107632E+01  0.00000000000E+00 0. -1.
         11    1    3    3    0    0  0.31092922432E+02 -0.31185228294E+01  0.17366885578E+02  0.35750576568E+02  0.51100000000E-03 0. -1.
        -11    1    3    3    0    0  0.89920276529E+01 -0.23766224995E+01  0.28552720975E+01  0.97292073073E+01  0.51100000000E-03 0.  1.
        -12    1    3    3    0    0 -0.39391849748E+02  0.63369226437E+01 -0.19769277138E+02  0.44527505361E+02  0.00000000000E+00 0.  1.
</event>
<event>
 7    1  0.1698110E-015  0.9000773E+02  0.7816164E-02  0.1186339E+00
        -11   -1    0    0    0    0  0.00000000000E+00  0.00000000000E+00  0.45593999997E+02  0.45594000000E+02  0.51100000000E-03 0. -1.
         11   -1    0    0    0    0 -0.00000000000E+00 -0.00000000000E+00 -0.45593999997E+02  0.45594000000E+02  0.51100000000E-03 0.  1.
    9900012    2    1    2    0    0  0.46297363391E+00 -0.69414384692E+00 -0.83477705412E+00  0.90007731812E+02  0.89999993072E+02 0.  0.
         12    1    1    2    0    0 -0.46297363391E+00  0.69414384692E+00  0.83477705412E+00  0.11802681882E+01  0.00000000000E+00 0. -1.
         11    1    3    3    0    0  0.26683503615E+02 -0.19775174372E+02  0.17706586579E+02  0.37637615429E+02  0.51100000000E-03 0. -1.
        -11    1    3    3    0    0  0.86498521454E-01 -0.63939245339E+00  0.92789038326E+01  0.93013096551E+01  0.51100000000E-03 0.  1.
        -12    1    3    3    0    0 -0.26307028503E+02  0.19720422978E+02 -0.27820267466E+02  0.43068806728E+02  0.00000000000E+00 0.  1.
</event>
<event>
 7    1  0.1698110E-015  0.9000774E+02  0.7816164E-02  0.1186339E+00
        -11   -1    0    0    0    0  0.00000000000E+00  0.00000000000E+00  0.45593999997E+02  0.45594000000E+02  0.51100000000E-03 0. -1.
         11   -1    0    0    0    0 -0.00000000000E+00 -0.00000000000E+00 -0.45593999997E+02  0.45594000000E+02  0.51100000000E-03 0.  1.
    9900012    2    1    2    0    0  0.11062033082E+01  0.37325872869E+00 -0.17319653777E+00  0.90007743723E+02  0.90000005141E+02 0.  0.
         12    1    1    2    0    0 -0.11062033082E+01 -0.37325872869E+00  0.17319653777E+00  0.11802562765E+01  0.00000000000E+00 0. -1.
         11    1    3    3    0    0  0.34608310763E+01 -0.63987400987E+01 -0.38283409679E+01  0.82205487297E+01  0.51100000000E-03 0. -1.
        -11    1    3    3    0    0 -0.32510542546E+02  0.63140741985E+01 -0.23974568580E+02  0.40884995395E+02  0.51100000000E-03 0.  1.
         12    1    3    3    0    0  0.30155914777E+02  0.45792462893E+00  0.27629713010E+02  0.40902199599E+02  0.00000000000E+00 0. -1.
</event>
<event>
 7    1  0.1698110E-015  0.9000773E+02  0.7816164E-02  0.1186339E+00
        -11   -1    0    0    0    0  0.00000000000E+00  0.00000000000E+00  0.45593999997E+02  0.45594000000E+02  0.51100000000E-03 0. -1.
         11   -1    0    0    0    0 -0.00000000000E+00 -0.00000000000E+00 -0.45593999997E+02  0.45594000000E+02  0.51100000000E-03 0.  1.
    9900012    2    1    2    0    0  0.13012291015E-01 -0.10705909028E+01 -0.49669733653E+00  0.90007727809E+02  0.89999989016E+02 0.  0.
         12    1    1    2    0    0 -0.13012291015E-01  0.10705909028E+01  0.49669733653E+00  0.11802721911E+01  0.00000000000E+00 0. -1.
         11    1    3    3    0    0  0.34610966522E+01  0.46477900344E+01 -0.73050899864E+01  0.93244561348E+01  0.51100000000E-03 0. -1.
        -11    1    3    3    0    0 -0.31293208130E+02 -0.29897384340E+02  0.67672237613E+01  0.43805408150E+02  0.51100000000E-03 0.  1.
         12    1    3    3    0    0  0.27845123769E+02  0.24179003403E+02  0.41168888587E-01  0.36877863525E+02  0.00000000000E+00 0. -1.
</event>
<event>
 7    1  0.1698110E-015  0.9000773E+02  0.7816164E-02  0.1186339E+00
        -11   -1    0    0    0    0  0.00000000000E+00  0.00000000000E+00  0.45593999997E+02  0.45594000000E+02  0.51100000000E-03 0.  1.
         11   -1    0    0    0    0 -0.00000000000E+00 -0.00000000000E+00 -0.45593999997E+02  0.45594000000E+02  0.51100000000E-03 0. -1.
    9900012    2    1    2    0    0 -0.99414857744E+00  0.48141858604E+00  0.41587207303E+00  0.90007726799E+02  0.89999987992E+02 0.  0.
         12    1    1    2    0    0  0.99414857744E+00 -0.48141858604E+00 -0.41587207303E+00  0.11802732015E+01  0.00000000000E+00 0. -1.
         11    1    3    3    0    0  0.33561061872E+02 -0.62260179944E+01 -0.19133899413E+02  0.39130733204E+02  0.51100000000E-03 0. -1.
        -11    1    3    3    0    0 -0.24083489363E+01 -0.87104549950E+01  0.10957171072E+02  0.14203230935E+02  0.51100000000E-03 0.  1.
        -12    1    3    3    0    0 -0.32146861513E+02  0.15417891575E+02  0.85926004139E+01  0.36673762660E+02  0.00000000000E+00 0.  1.
</event>
<event>
 7    1  0.1698110E-015  0.9000758E+02  0.7816164E-02  0.1186339E+00
        -11   -1    0    0    0    0  0.00000000000E+00  0.00000000000E+00  0.45593999997E+02  0.45594000000E+02  0.51100000000E-03 0.  1.
         11   -1    0    0    0    0 -0.00000000000E+00 -0.00000000000E+00 -0.45593999997E+02  0.45594000000E+02  0.51100000000E-03 0. -1.
    9900012    2    1    2    0    0  0.76759139606E+00 -0.82073432395E+00 -0.36136082375E+00  0.90007583537E+02  0.89999842839E+02 0.  0.
         12    1    1    2    0    0 -0.76759139606E+00  0.82073432395E+00  0.36136082375E+00  0.11804164633E+01  0.00000000000E+00 0. -1.
         11    1    3    3    0    0  0.35123579763E+02  0.10508344565E+02  0.23604275466E+01  0.36737756863E+02  0.51100000000E-03 0. -1.
        -11    1    3    3    0    0  0.70521613329E+01  0.34068077099E+01  0.40205702263E+01  0.88036528466E+01  0.51100000000E-03 0.  1.
        -12    1    3    3    0    0 -0.41408149700E+02 -0.14735886599E+02 -0.67423585966E+01  0.44466173827E+02  0.00000000000E+00 0.  1.
</event>
<event>
 7    1  0.1698110E-015  0.9000779E+02  0.7816164E-02  0.1186339E+00
        -11   -1    0    0    0    0  0.00000000000E+00  0.00000000000E+00  0.45593999997E+02  0.45594000000E+02  0.51100000000E-03 0. -1.
         11   -1    0    0    0    0 -0.00000000000E+00 -0.00000000000E+00 -0.45593999997E+02  0.45594000000E+02  0.51100000000E-03 0.  1.
    9900012    2    1    2    0    0  0.11342196299E+01  0.13013708443E+00  0.29916909265E+00  0.90007791554E+02  0.90000053603E+02 0.  0.
         12    1    1    2    0    0 -0.11342196299E+01 -0.13013708443E+00 -0.29916909265E+00  0.11802084458E+01  0.00000000000E+00 0. -1.
         11    1    3    3    0    0  0.11789014581E+02 -0.24389265073E+02  0.33879635603E+02  0.43377953207E+02  0.51100000000E-03 0. -1.
        -11    1    3    3    0    0  0.40058026776E+01  0.14859826013E+01 -0.86913938561E+01  0.96847780979E+01  0.51100000000E-03 0.  1.
        -12    1    3    3    0    0 -0.14660597629E+02  0.23033419556E+02 -0.24889072654E+02  0.36945060250E+02  0.00000000000E+00 0.  1.
</event>
<event>
 7    1  0.1698110E-015  0.9000774E+02  0.7816164E-02  0.1186339E+00
        -11   -1    0    0    0    0  0.00000000000E+00  0.00000000000E+00  0.45593999997E+02  0.45594000000E+02  0.51100000000E-03 0.  1.
         11   -1    0    0    0    0 -0.00000000000E+00 -0.00000000000E+00 -0.45593999997E+02  0.45594000000E+02  0.51100000000E-03 0. -1.
    9900012    2    1    2    0    0 -0.53187950575E+00  0.90574500925E+00  0.53828436040E+00  0.90007737367E+02  0.89999998700E+02 0.  0.
         12    1    1    2    0    0  0.53187950575E+00 -0.90574500925E+00 -0.53828436040E+00  0.11802626331E+01  0.00000000000E+00 0. -1.
         11    1    3    3    0    0  0.63907724131E+01 -0.20257052757E+02 -0.28700464810E+02  0.35705837605E+02  0.51100000000E-03 0. -1.
        -11    1    3    3    0    0  0.18890553264E+01  0.49589641181E+01 -0.97891334168E+01  0.11134944475E+02  0.51100000000E-03 0.  1.
        -12    1    3    3    0    0 -0.88117072453E+01  0.16203833648E+02  0.39027882588E+02  0.43166955287E+02  0.00000000000E+00 0.  1.
</event>
<event>
 7    1  0.1698110E-015  0.9000764E+02  0.7816164E-02  0.1186339E+00
        -11   -1    0    0    0    0  0.00000000000E+00  0.00000000000E+00  0.45593999997E+02  0.45594000000E+02  0.51100000000E-03 0.  1.
         11   -1    0    0    0    0 -0.00000000000E+00 -0.00000000000E+00 -0.45593999997E+02  0.45594000000E+02  0.51100000000E-03 0. -1.
    9900012    2    1    2    0    0  0.25358922165E+00  0.20278487515E+00  0.11348249747E+01  0.90007636953E+02  0.89999896961E+02 0.  0.
         12    1    1    2    0    0 -0.25358922165E+00 -0.20278487515E+00 -0.11348249747E+01  0.11803630467E+01  0.00000000000E+00 0. -1.
         11    1    3    3    0    0  0.29409171542E+02  0.81231148646E+01 -0.16613193226E+02  0.34740215246E+02  0.51100000000E-03 0. -1.
        -11    1    3    3    0    0 -0.33577517838E+00  0.15134787626E+02  0.78674276428E+01  0.17060801840E+02  0.51100000000E-03 0.  1.
        -12    1    3    3    0    0 -0.28819807142E+02 -0.23055117615E+02  0.98805905574E+01  0.38206619868E+02  0.00000000000E+00 0.  1.
</event>
<event>
 7    1  0.1698110E-015  0.9000774E+02  0.7816164E-02  0.1186339E+00
        -11   -1    0    0    0    0  0.00000000000E+00  0.00000000000E+00  0.45593999997E+02  0.45594000000E+02  0.51100000000E-03 0.  1.
         11   -1    0    0    0    0 -0.00000000000E+00 -0.00000000000E+00 -0.45593999997E+02  0.45594000000E+02  0.51100000000E-03 0. -1.
    9900012    2    1    2    0    0 -0.35102368364E+00  0.60486140982E+00  0.95075967345E+00  0.90007737780E+02  0.89999999119E+02 0.  0.
         12    1    1    2    0    0  0.35102368364E+00 -0.60486140982E+00 -0.95075967345E+00  0.11802622201E+01  0.00000000000E+00 0. -1.
         11    1    3    3    0    0  0.71573721611E+01  0.11879096488E+02 -0.31618237095E+02  0.34526132521E+02  0.51100000000E-03 0. -1.
        -11    1    3    3    0    0  0.13220906410E+02  0.25103288607E+01 -0.12200968542E+01  0.13512318598E+02  0.51100000000E-03 0.  1.
        -12    1    3    3    0    0 -0.20729302255E+02 -0.13784563938E+02  0.33789093623E+02  0.41969286661E+02  0.00000000000E+00 0.  1.
</event>
<event>
 7    1  0.1698110E-015  0.9000776E+02  0.7816164E-02  0.1186339E+00
        -11   -1    0    0    0    0  0.00000000000E+00  0.00000000000E+00  0.45593999997E+02  0.45594000000E+02  0.51100000000E-03 0.  1.
         11   -1    0    0    0    0 -0.00000000000E+00 -0.00000000000E+00 -0.45593999997E+02  0.45594000000E+02  0.51100000000E-03 0. -1.
    9900012    2    1    2    0    0 -0.10620930668E+01 -0.45787274334E+00 -0.23511192597E+00  0.90007759876E+02  0.90000021507E+02 0.  0.
         12    1    1    2    0    0  0.10620930668E+01  0.45787274334E+00  0.23511192597E+00  0.11802401237E+01  0.00000000000E+00 0. -1.
         11    1    3    3    0    0  0.37084602467E+02  0.94573120599E+01 -0.12368320713E+02  0.40220440687E+02  0.51100000000E-03 0. -1.
        -11    1    3    3    0    0 -0.55101313648E+01  0.46862559813E+01 -0.62721778996E+01  0.95740669856E+01  0.51100000000E-03 0.  1.
        -12    1    3    3    0    0 -0.32636564169E+02 -0.14601440785E+02  0.18405386687E+02  0.40213252204E+02  0.00000000000E+00 0.  1.
</event>
<event>
 7    1  0.1698110E-015  0.9000776E+02  0.7816164E-02  0.1186339E+00
        -11   -1    0    0    0    0  0.00000000000E+00  0.00000000000E+00  0.45593999997E+02  0.45594000000E+02  0.51100000000E-03 0.  1.
         11   -1    0    0    0    0 -0.00000000000E+00 -0.00000000000E+00 -0.45593999997E+02  0.45594000000E+02  0.51100000000E-03 0. -1.
    9900012    2    1    2    0    0 -0.34775619942E+00  0.59748588012E+00  0.95658175124E+00  0.90007757483E+02  0.90000019082E+02 0.  0.
         12    1    1    2    0    0  0.34775619942E+00 -0.59748588012E+00 -0.95658175124E+00  0.11802425166E+01  0.00000000000E+00 0. -1.
         11    1    3    3    0    0 -0.14706630460E+02  0.34900699954E+02 -0.18581010821E+02  0.42185279425E+02  0.51100000000E-03 0. -1.
        -11    1    3    3    0    0  0.78334956483E+01 -0.69158501216E+00 -0.95105295816E+00  0.79212654224E+01  0.51100000000E-03 0.  1.
        -12    1    3    3    0    0  0.65253786118E+01 -0.33611629062E+02  0.20488645530E+02  0.39901212637E+02  0.00000000000E+00 0.  1.
</event>
<event>
 7    1  0.1698110E-015  0.9000776E+02  0.7816164E-02  0.1186339E+00
        -11   -1    0    0    0    0  0.00000000000E+00  0.00000000000E+00  0.45593999997E+02  0.45594000000E+02  0.51100000000E-03 0.  1.
         11   -1    0    0    0    0 -0.00000000000E+00 -0.00000000000E+00 -0.45593999997E+02  0.45594000000E+02  0.51100000000E-03 0. -1.
    9900012    2    1    2    0    0  0.19169170502E+00  0.41955137846E+00  0.10863646100E+01  0.90007763950E+02  0.90000025634E+02 0.  0.
         12    1    1    2    0    0 -0.19169170502E+00 -0.41955137846E+00 -0.10863646100E+01  0.11802360505E+01  0.00000000000E+00 0. -1.
         11    1    3    3    0    0  0.20213380623E+01  0.11013161732E+02  0.53689162559E+00  0.11209986253E+02  0.51100000000E-03 0. -1.
        -11    1    3    3    0    0  0.19736960501E+02  0.27303106338E+02  0.78368254867E+01  0.34589348931E+02  0.51100000000E-03 0.  1.
         12    1    3    3    0    0 -0.21566606858E+02 -0.37896716692E+02 -0.72873525023E+01  0.44208428765E+02  0.00000000000E+00 0. -1.
</event>
<event>
 7    1  0.1698110E-015  0.9000774E+02  0.7816164E-02  0.1186339E+00
        -11   -1    0    0    0    0  0.00000000000E+00  0.00000000000E+00  0.45593999997E+02  0.45594000000E+02  0.51100000000E-03 0. -1.
         11   -1    0    0    0    0 -0.00000000000E+00 -0.00000000000E+00 -0.45593999997E+02  0.45594000000E+02  0.51100000000E-03 0.  1.
    9900012    2    1    2    0    0  0.10995968935E+01  0.41654129898E+00  0.10189281908E+00  0.90007744888E+02  0.90000006321E+02 0.  0.
         12    1    1    2    0    0 -0.10995968935E+01 -0.41654129898E+00 -0.10189281908E+00  0.11802551116E+01  0.00000000000E+00 0. -1.
         11    1    3    3    0    0 -0.27224842989E+02  0.22018611977E+02  0.16763075721E+02  0.38820253182E+02  0.51100000000E-03 0. -1.
        -11    1    3    3    0    0  0.19502247006E+01 -0.62057984513E+01  0.91329251650E+01  0.11212744228E+02  0.51100000000E-03 0.  1.
        -12    1    3    3    0    0  0.26374215182E+02 -0.15396272227E+02 -0.25794108067E+02  0.39974747478E+02  0.00000000000E+00 0.  1.
</event>
<event>
 7    1  0.1698110E-015  0.9000775E+02  0.7816164E-02  0.1186339E+00
        -11   -1    0    0    0    0  0.00000000000E+00  0.00000000000E+00  0.45593999997E+02  0.45594000000E+02  0.51100000000E-03 0.  1.
         11   -1    0    0    0    0 -0.00000000000E+00 -0.00000000000E+00 -0.45593999997E+02  0.45594000000E+02  0.51100000000E-03 0. -1.
    9900012    2    1    2    0    0  0.19110972879E+00  0.11508923062E+01 -0.17862897600E+00  0.90007752424E+02  0.90000013956E+02 0.  0.
         12    1    1    2    0    0 -0.19110972879E+00 -0.11508923062E+01  0.17862897600E+00  0.11802475757E+01  0.00000000000E+00 0. -1.
         11    1    3    3    0    0 -0.72765657548E+01  0.16491074753E+02  0.62334749906E+01  0.19072497644E+02  0.51100000000E-03 0. -1.
        -11    1    3    3    0    0  0.37981613139E+01 -0.28755125459E+02  0.23901097802E+02  0.37583849536E+02  0.51100000000E-03 0.  1.
         12    1    3    3    0    0  0.36695141696E+01  0.13414943013E+02 -0.30313201768E+02  0.33351405244E+02  0.00000000000E+00 0. -1.
</event>
<event>
 7    1  0.2715479E-015  0.9000776E+02  0.7816164E-02  0.1186339E+00
        -11   -1    0    0    0    0  0.00000000000E+00  0.00000000000E+00  0.45593999997E+02  0.45594000000E+02  0.51100000000E-03 0.  1.
         11   -1    0    0    0    0 -0.00000000000E+00 -0.00000000000E+00 -0.45593999997E+02  0.45594000000E+02  0.51100000000E-03 0. -1.
    9900012    2    1    2    0    0  0.67483834805E+00 -0.95837897860E+00 -0.13809560043E+00  0.90007759576E+02  0.90000021203E+02 0.  0.
         12    1    1    2    0    0 -0.67483834805E+00  0.95837897860E+00  0.13809560043E+00  0.11802404236E+01  0.00000000000E+00 0. -1.
         11    1    3    3    0    0  0.19539181701E+01  0.81696064684E+01 -0.39512137536E+01  0.92829066812E+01  0.51100000000E-03 0. -1.
        -11    1    3    3    0    0  0.39215108423E+02 -0.45309587758E+00  0.22596231404E+01  0.39282768761E+02  0.51100000000E-03 0.  1.
         12    1    3    3    0    0 -0.40494188245E+02 -0.86748895694E+01  0.15534950128E+01  0.41442084135E+02  0.00000000000E+00 0. -1.
</event>
<event>
 7    1  0.1698110E-015  0.9000770E+02  0.7816164E-02  0.1186339E+00
        -11   -1    0    0    0    0  0.00000000000E+00  0.00000000000E+00  0.45593999997E+02  0.45594000000E+02  0.51100000000E-03 0.  1.
         11   -1    0    0    0    0 -0.00000000000E+00 -0.00000000000E+00 -0.45593999997E+02  0.45594000000E+02  0.51100000000E-03 0. -1.
    9900012    2    1    2    0    0  0.11947335772E+00 -0.71126801317E+00 -0.93431371515E+00  0.90007695722E+02  0.89999956506E+02 0.  0.
         12    1    1    2    0    0 -0.11947335772E+00  0.71126801317E+00  0.93431371515E+00  0.11803042778E+01  0.00000000000E+00 0. -1.
         11    1    3    3    0    0  0.26507561902E+00 -0.23686164600E+02 -0.33209739526E+02  0.40792051409E+02  0.51100000000E-03 0. -1.
        -11    1    3    3    0    0  0.29731502813E+01 -0.65606510857E+01  0.41552037282E+01  0.83154965905E+01  0.51100000000E-03 0.  1.
        -12    1    3    3    0    0 -0.31187525426E+01  0.29535547673E+02  0.28120222082E+02  0.40900147722E+02  0.00000000000E+00 0.  1.
</event>
<event>
 7    1  0.2169876E-015  0.9000780E+02  0.7816164E-02  0.1186339E+00
        -11   -1    0    0    0    0  0.00000000000E+00  0.00000000000E+00  0.45593999997E+02  0.45594000000E+02  0.51100000000E-03 0.  1.
         11   -1    0    0    0    0 -0.00000000000E+00 -0.00000000000E+00 -0.45593999997E+02  0.45594000000E+02  0.51100000000E-03 0. -1.
    9900012    2    1    2    0    0 -0.10064827474E+00  0.68436941426E+00  0.95623624526E+00  0.90007796913E+02  0.90000059032E+02 0.  0.
         12    1    1    2    0    0  0.10064827474E+00 -0.68436941426E+00 -0.95623624526E+00  0.11802030872E+01  0.00000000000E+00 0. -1.
         11    1    3    3    0    0 -0.23838664754E+00 -0.91506046409E+01  0.65678512559E+00  0.91772414401E+01  0.51100000000E-03 0. -1.
        -11    1    3    3    0    0 -0.28611800488E+02 -0.12639099185E+02  0.22122359666E+02  0.38311626862E+02  0.51100000000E-03 0.  1.
         12    1    3    3    0    0  0.28749538861E+02  0.22474073240E+02 -0.21822908547E+02  0.42518928610E+02  0.00000000000E+00 0. -1.
</event>
<event>
 7    1  0.1698110E-015  0.9000778E+02  0.7816164E-02  0.1186339E+00
        -11   -1    0    0    0    0  0.00000000000E+00  0.00000000000E+00  0.45593999997E+02  0.45594000000E+02  0.51100000000E-03 0.  1.
         11   -1    0    0    0    0 -0.00000000000E+00 -0.00000000000E+00 -0.45593999997E+02  0.45594000000E+02  0.51100000000E-03 0. -1.
    9900012    2    1    2    0    0  0.97168403868E+00 -0.62600371035E+00  0.23845925389E+00  0.90007782506E+02  0.90000044435E+02 0.  0.
         12    1    1    2    0    0 -0.97168403868E+00  0.62600371035E+00 -0.23845925389E+00  0.11802174936E+01  0.00000000000E+00 0. -1.
         11    1    3    3    0    0  0.34616440184E+02 -0.17563672476E+02  0.71565673529E+01  0.39471470437E+02  0.51100000000E-03 0. -1.
        -11    1    3    3    0    0 -0.27117491732E+01 -0.68720198469E+01  0.58955300361E+01  0.94517466651E+01  0.51100000000E-03 0.  1.
        -12    1    3    3    0    0 -0.30933006973E+02  0.23809688613E+02 -0.12813638135E+02  0.41084565404E+02  0.00000000000E+00 0.  1.
</event>
<event>
 7    1  0.1698110E-015  0.9000774E+02  0.7816164E-02  0.1186339E+00
        -11   -1    0    0    0    0  0.00000000000E+00  0.00000000000E+00  0.45593999997E+02  0.45594000000E+02  0.51100000000E-03 0.  1.
         11   -1    0    0    0    0 -0.00000000000E+00 -0.00000000000E+00 -0.45593999997E+02  0.45594000000E+02  0.51100000000E-03 0. -1.
    9900012    2    1    2    0    0  0.74877700276E+00 -0.89906307600E+00  0.15500115173E+00  0.90007742921E+02  0.90000004328E+02 0.  0.
         12    1    1    2    0    0 -0.74877700276E+00  0.89906307600E+00 -0.15500115173E+00  0.11802570786E+01  0.00000000000E+00 0. -1.
         11    1    3    3    0    0 -0.61875269012E+01 -0.22535242036E+01  0.35813445716E+01  0.74959915749E+01  0.51100000000E-03 0. -1.
        -11    1    3    3    0    0 -0.95885589572E+01  0.36940468473E+02  0.12510755206E+02  0.40162889213E+02  0.51100000000E-03 0.  1.
         12    1    3    3    0    0  0.16524862861E+02 -0.35586007345E+02 -0.15937098626E+02  0.42348862133E+02  0.00000000000E+00 0. -1.
</event>
<event>
 7    1  0.1698110E-015  0.9000747E+02  0.7816164E-02  0.1186340E+00
        -11   -1    0    0    0    0  0.00000000000E+00  0.00000000000E+00  0.45593999997E+02  0.45594000000E+02  0.51100000000E-03 0. -1.
         11   -1    0    0    0    0 -0.00000000000E+00 -0.00000000000E+00 -0.45593999997E+02  0.45594000000E+02  0.51100000000E-03 0.  1.
    9900012    2    1    2    0    0  0.27450441784E+00  0.61908674954E+00 -0.96696425926E+00  0.90007474288E+02  0.89999732148E+02 0.  0.
         12    1    1    2    0    0 -0.27450441784E+00 -0.61908674954E+00  0.96696425926E+00  0.11805257124E+01  0.00000000000E+00 0. -1.
         11    1    3    3    0    0  0.42187350201E+01  0.10349798726E+02 -0.33472370286E+01  0.11667049962E+02  0.51100000000E-03 0. -1.
        -11    1    3    3    0    0  0.22330322228E+02  0.24623598319E+02 -0.72701495776E+01  0.34026753594E+02  0.51100000000E-03 0.  1.
         12    1    3    3    0    0 -0.26274552831E+02 -0.34354310295E+02  0.96504223469E+01  0.44313670732E+02  0.00000000000E+00 0. -1.
</event>
<event>
 7    1  0.1698110E-015  0.9000778E+02  0.7816164E-02  0.1186339E+00
        -11   -1    0    0    0    0  0.00000000000E+00  0.00000000000E+00  0.45593999997E+02  0.45594000000E+02  0.51100000000E-03 0.  1.
         11   -1    0    0    0    0 -0.00000000000E+00 -0.00000000000E+00 -0.45593999997E+02  0.45594000000E+02  0.51100000000E-03 0. -1.
    9900012    2    1    2    0    0 -0.23037340284E+00 -0.10644732533E+01 -0.45469492422E+00  0.90007778544E+02  0.90000040421E+02 0.  0.
         12    1    1    2    0    0  0.23037340284E+00  0.10644732533E+01  0.45469492422E+00  0.11802214562E+01  0.00000000000E+00 0. -1.
         11    1    3    3    0    0  0.34452909550E+01  0.22840836487E+02 -0.19469988167E+02  0.30210168497E+02  0.51100000000E-03 0. -1.
        -11    1    3    3    0    0  0.70982090850E+01  0.14854469212E+02  0.53541865803E+01  0.17312051929E+02  0.51100000000E-03 0.  1.
        -12    1    3    3    0    0 -0.10773873443E+02 -0.38759778952E+02  0.13661106662E+02  0.42485558118E+02  0.00000000000E+00 0.  1.
</event>
<event>
 7    1  0.1698110E-015  0.9000771E+02  0.7816164E-02  0.1186339E+00
        -11   -1    0    0    0    0  0.00000000000E+00  0.00000000000E+00  0.45593999997E+02  0.45594000000E+02  0.51100000000E-03 0.  1.
         11   -1    0    0    0    0 -0.00000000000E+00 -0.00000000000E+00 -0.45593999997E+02  0.45594000000E+02  0.51100000000E-03 0. -1.
    9900012    2    1    2    0    0 -0.95222638431E+00  0.33968549666E+00  0.60907473755E+00  0.90007706240E+02  0.89999967163E+02 0.  0.
         12    1    1    2    0    0  0.95222638431E+00 -0.33968549666E+00 -0.60907473755E+00  0.11802937598E+01  0.00000000000E+00 0. -1.
         11    1    3    3    0    0  0.45620038638E+01  0.86970633174E+01  0.32504021298E+00  0.98263137036E+01  0.51100000000E-03 0. -1.
        -11    1    3    3    0    0  0.76464552919E+01  0.34084504750E+02 -0.55314690968E+01  0.35366918062E+02  0.51100000000E-03 0.  1.
         12    1    3    3    0    0 -0.13160685540E+02 -0.42441882571E+02  0.58155036214E+01  0.44814474474E+02  0.00000000000E+00 0. -1.
</event>
<event>
 7    1  0.1698110E-015  0.9000770E+02  0.7816164E-02  0.1186339E+00
        -11   -1    0    0    0    0  0.00000000000E+00  0.00000000000E+00  0.45593999997E+02  0.45594000000E+02  0.51100000000E-03 0. -1.
         11   -1    0    0    0    0 -0.00000000000E+00 -0.00000000000E+00 -0.45593999997E+02  0.45594000000E+02  0.51100000000E-03 0.  1.
    9900012    2    1    2    0    0  0.18419176180E+00 -0.39029922575E-01 -0.11651821430E+01  0.90007703695E+02  0.89999964584E+02 0.  0.
         12    1    1    2    0    0 -0.18419176180E+00  0.39029922575E-01  0.11651821430E+01  0.11802963045E+01  0.00000000000E+00 0. -1.
         11    1    3    3    0    0  0.33670375542E+02 -0.10033415380E+02 -0.71565778854E+01  0.35854988783E+02  0.51100000000E-03 0. -1.
        -11    1    3    3    0    0  0.80055891992E+01 -0.24235745338E+01 -0.46283396951E+01  0.95595345358E+01  0.51100000000E-03 0.  1.
        -12    1    3    3    0    0 -0.41491772980E+02  0.12417959991E+02  0.10619735437E+02  0.44593180377E+02  0.00000000000E+00 0.  1.
</event>
<event>
 7    1  0.1698110E-015  0.9000769E+02  0.7816164E-02  0.1186339E+00
        -11   -1    0    0    0    0  0.00000000000E+00  0.00000000000E+00  0.45593999997E+02  0.45594000000E+02  0.51100000000E-03 0.  1.
         11   -1    0    0    0    0 -0.00000000000E+00 -0.00000000000E+00 -0.45593999997E+02  0.45594000000E+02  0.51100000000E-03 0. -1.
    9900012    2    1    2    0    0 -0.76555127754E+00 -0.88366115242E+00  0.16184859436E+00  0.90007694633E+02  0.89999955403E+02 0.  0.
         12    1    1    2    0    0  0.76555127754E+00  0.88366115242E+00 -0.16184859436E+00  0.11803053666E+01  0.00000000000E+00 0. -1.
         11    1    3    3    0    0 -0.62053072457E+01 -0.63607522430E+01  0.65579016300E+01  0.11044051845E+02  0.51100000000E-03 0. -1.
        -11    1    3    3    0    0  0.65744008176E+01 -0.18812872594E+02  0.29503787877E+02  0.35603657406E+02  0.51100000000E-03 0.  1.
         12    1    3    3    0    0 -0.11346448494E+01  0.24289963684E+02 -0.35899840913E+02  0.43359985382E+02  0.00000000000E+00 0. -1.
</event>
<event>
 7    1  0.1698110E-015  0.9000779E+02  0.7816164E-02  0.1186339E+00
        -11   -1    0    0    0    0  0.00000000000E+00  0.00000000000E+00  0.45593999997E+02  0.45594000000E+02  0.51100000000E-03 0.  1.
         11   -1    0    0    0    0 -0.00000000000E+00 -0.00000000000E+00 -0.45593999997E+02  0.45594000000E+02  0.51100000000E-03 0. -1.
    9900012    2    1    2    0    0  0.89958136120E+00 -0.44898862409E+00 -0.61811337812E+00  0.90007787494E+02  0.90000049489E+02 0.  0.
         12    1    1    2    0    0 -0.89958136120E+00  0.44898862409E+00  0.61811337812E+00  0.11802125055E+01  0.00000000000E+00 0. -1.
         11    1    3    3    0    0 -0.50644477253E+01  0.24940402916E+01  0.59982375764E+01  0.82369728676E+01  0.51100000000E-03 0. -1.
        -11    1    3    3    0    0  0.24431314729E+02  0.32968207709E+02 -0.52260586990E+01  0.41365487411E+02  0.51100000000E-03 0.  1.
         12    1    3    3    0    0 -0.18467285643E+02 -0.35911236624E+02 -0.13902922555E+01  0.40405327216E+02  0.00000000000E+00 0. -1.
</event>
<event>
 7    1  0.1698110E-015  0.9000781E+02  0.7816164E-02  0.1186339E+00
        -11   -1    0    0    0    0  0.00000000000E+00  0.00000000000E+00  0.45593999997E+02  0.45594000000E+02  0.51100000000E-03 0.  1.
         11   -1    0    0    0    0 -0.00000000000E+00 -0.00000000000E+00 -0.45593999997E+02  0.45594000000E+02  0.51100000000E-03 0. -1.
    9900012    2    1    2    0    0 -0.66991633880E+00 -0.14411201686E+00  0.96088452804E+00  0.90007807113E+02  0.90000069367E+02 0.  0.
         12    1    1    2    0    0  0.66991633880E+00  0.14411201686E+00 -0.96088452804E+00  0.11801928870E+01  0.00000000000E+00 0. -1.
         11    1    3    3    0    0  0.13119740615E+02 -0.83956335929E+01 -0.38695148740E+02  0.41712453698E+02  0.51100000000E-03 0. -1.
        -11    1    3    3    0    0  0.50053597010E+01  0.51914122000E+01  0.50756862213E+01  0.88185586829E+01  0.51100000000E-03 0.  1.
        -12    1    3    3    0    0 -0.18795016655E+02  0.30601093760E+01  0.34580347047E+02  0.39476794732E+02  0.00000000000E+00 0.  1.
</event>
<event>
 7    1  0.1698110E-015  0.9000681E+02  0.7816164E-02  0.1186341E+00
        -11   -1    0    0    0    0  0.00000000000E+00  0.00000000000E+00  0.45593999997E+02  0.45594000000E+02  0.51100000000E-03 0. -1.
         11   -1    0    0    0    0 -0.00000000000E+00 -0.00000000000E+00 -0.45593999997E+02  0.45594000000E+02  0.51100000000E-03 0.  1.
    9900012    2    1    2    0    0  0.37397281596E+00  0.48451432442E+00 -0.10102461333E+01  0.90006811172E+02  0.89999060274E+02 0.  0.
         12    1    1    2    0    0 -0.37397281596E+00 -0.48451432442E+00  0.10102461333E+01  0.11811888281E+01  0.00000000000E+00 0. -1.
         11    1    3    3    0    0  0.10916464982E+02 -0.49876490563E+01  0.13994999518E+02  0.18436536079E+02  0.51100000000E-03 0. -1.
        -11    1    3    3    0    0 -0.32949055240E+01  0.28786524779E+02 -0.30960936946E+02  0.42404009576E+02  0.51100000000E-03 0.  1.
         12    1    3    3    0    0 -0.72475866420E+01 -0.23314361398E+02  0.15955691294E+02  0.29166265517E+02  0.00000000000E+00 0. -1.
</event>
<event>
 7    1  0.1698110E-015  0.9000773E+02  0.7816164E-02  0.1186339E+00
        -11   -1    0    0    0    0  0.00000000000E+00  0.00000000000E+00  0.45593999997E+02  0.45594000000E+02  0.51100000000E-03 0. -1.
         11   -1    0    0    0    0 -0.00000000000E+00 -0.00000000000E+00 -0.45593999997E+02  0.45594000000E+02  0.51100000000E-03 0.  1.
    9900012    2    1    2    0    0 -0.74068803232E+00 -0.17934190118E+00 -0.90125236185E+00  0.90007729650E+02  0.89999990882E+02 0.  0.
         12    1    1    2    0    0  0.74068803232E+00  0.17934190118E+00  0.90125236185E+00  0.11802703497E+01  0.00000000000E+00 0. -1.
         11    1    3    3    0    0  0.18976120048E+02  0.22820692155E+02  0.28540792699E+02  0.41175890648E+02  0.51100000000E-03 0. -1.
        -11    1    3    3    0    0  0.56956787194E+01 -0.47395206304E+01 -0.35506311333E+01  0.82164952131E+01  0.51100000000E-03 0.  1.
        -12    1    3    3    0    0 -0.25412486800E+02 -0.18260513426E+02 -0.25891413928E+02  0.40615343789E+02  0.00000000000E+00 0.  1.
</event>
<event>
 7    1  0.1698110E-015  0.9000774E+02  0.7816164E-02  0.1186339E+00
        -11   -1    0    0    0    0  0.00000000000E+00  0.00000000000E+00  0.45593999997E+02  0.45594000000E+02  0.51100000000E-03 0. -1.
         11   -1    0    0    0    0 -0.00000000000E+00 -0.00000000000E+00 -0.45593999997E+02  0.45594000000E+02  0.51100000000E-03 0.  1.
    9900012    2    1    2    0    0 -0.27341119274E+00  0.11219004650E+01 -0.24413500084E+00  0.90007738913E+02  0.90000000267E+02 0.  0.
         12    1    1    2    0    0  0.27341119274E+00 -0.11219004650E+01  0.24413500084E+00  0.11802610865E+01  0.00000000000E+00 0. -1.
         11    1    3    3    0    0  0.24007441796E+01  0.21578719127E+01 -0.18086424649E+02  0.18372227427E+02  0.51100000000E-03 0. -1.
        -11    1    3    3    0    0  0.13956842824E+02 -0.34916729970E+01 -0.23191441946E+02  0.27291541212E+02  0.51100000000E-03 0.  1.
         12    1    3    3    0    0 -0.16630998196E+02  0.24557015494E+01  0.41033731594E+02  0.44343970274E+02  0.00000000000E+00 0. -1.
</event>
<event>
 7    1  0.1698110E-015  0.9000761E+02  0.7816164E-02  0.1186339E+00
        -11   -1    0    0    0    0  0.00000000000E+00  0.00000000000E+00  0.45593999997E+02  0.45594000000E+02  0.51100000000E-03 0.  1.
         11   -1    0    0    0    0 -0.00000000000E+00 -0.00000000000E+00 -0.45593999997E+02  0.45594000000E+02  0.51100000000E-03 0. -1.
    9900012    2    1    2    0    0 -0.73442406582E+00  0.85074114980E+00  0.36080537758E+00  0.90007610347E+02  0.89999870003E+02 0.  0.
         12    1    1    2    0    0  0.73442406582E+00 -0.85074114980E+00 -0.36080537758E+00  0.11803896530E+01  0.00000000000E+00 0. -1.
         11    1    3    3    0    0 -0.50223163158E+01  0.13090061962E+02  0.27089617343E+01  0.14279770911E+02  0.51100000000E-03 0. -1.
        -11    1    3    3    0    0  0.63447619786E+01  0.26335594742E+01  0.34898825150E+02  0.35568520312E+02  0.51100000000E-03 0.  1.
         12    1    3    3    0    0 -0.20568697286E+01 -0.14872880286E+02 -0.37246981507E+02  0.40159319124E+02  0.00000000000E+00 0. -1.
</event>
<event>
 7    1  0.1698110E-015  0.9000777E+02  0.7816164E-02  0.1186339E+00
        -11   -1    0    0    0    0  0.00000000000E+00  0.00000000000E+00  0.45593999997E+02  0.45594000000E+02  0.51100000000E-03 0.  1.
         11   -1    0    0    0    0 -0.00000000000E+00 -0.00000000000E+00 -0.45593999997E+02  0.45594000000E+02  0.51100000000E-03 0. -1.
    9900012    2    1    2    0    0 -0.10306113922E+01  0.30416338601E+00  0.48811722469E+00  0.90007773906E+02  0.90000035722E+02 0.  0.
         12    1    1    2    0    0  0.10306113922E+01 -0.30416338601E+00 -0.48811722469E+00  0.11802260937E+01  0.00000000000E+00 0. -1.
         11    1    3    3    0    0 -0.11192607537E+01  0.99044274444E+01 -0.11241483401E+01  0.10030659868E+02  0.51100000000E-03 0. -1.
        -11    1    3    3    0    0  0.16894563740E+02  0.27683071862E+02 -0.15129911998E+02  0.35786771145E+02  0.51100000000E-03 0.  1.
         12    1    3    3    0    0 -0.16805914378E+02 -0.37283335920E+02  0.16742177563E+02  0.44190342893E+02  0.00000000000E+00 0. -1.
</event>
<event>
 7    1  0.1698110E-015  0.9000778E+02  0.7816164E-02  0.1186339E+00
        -11   -1    0    0    0    0  0.00000000000E+00  0.00000000000E+00  0.45593999997E+02  0.45594000000E+02  0.51100000000E-03 0. -1.
         11   -1    0    0    0    0 -0.00000000000E+00 -0.00000000000E+00 -0.45593999997E+02  0.45594000000E+02  0.51100000000E-03 0.  1.
    9900012    2    1    2    0    0 -0.97488366170E+00 -0.55504289950E+00 -0.36667191655E+00  0.90007780076E+02  0.90000041973E+02 0.  0.
         12    1    1    2    0    0  0.97488366170E+00  0.55504289950E+00  0.36667191655E+00  0.11802199238E+01  0.00000000000E+00 0. -1.
         11    1    3    3    0    0  0.10357523911E+02 -0.61598499015E+00 -0.20549572035E+01  0.10577362074E+02  0.51100000000E-03 0. -1.
        -11    1    3    3    0    0  0.15427374638E+01 -0.15858754099E+02 -0.34415561556E+02  0.37925070836E+02  0.51100000000E-03 0.  1.
         12    1    3    3    0    0 -0.12875145036E+02  0.15919696189E+02  0.36103846843E+02  0.41505347166E+02  0.00000000000E+00 0. -1.
</event>
<event>
 7    1  0.1698110E-015  0.9000773E+02  0.7816164E-02  0.1186339E+00
        -11   -1    0    0    0    0  0.00000000000E+00  0.00000000000E+00  0.45593999997E+02  0.45594000000E+02  0.51100000000E-03 0.  1.
         11   -1    0    0    0    0 -0.00000000000E+00 -0.00000000000E+00 -0.45593999997E+02  0.45594000000E+02  0.51100000000E-03 0. -1.
    9900012    2    1    2    0    0  0.61758892151E+00  0.67433139870E+00  0.74625867873E+00  0.90007728452E+02  0.89999989668E+02 0.  0.
         12    1    1    2    0    0 -0.61758892151E+00 -0.67433139870E+00 -0.74625867873E+00  0.11802715479E+01  0.00000000000E+00 0. -1.
         11    1    3    3    0    0  0.19227942814E+02 -0.12464581243E+02 -0.20152989386E+02  0.30515939308E+02  0.51100000000E-03 0. -1.
        -11    1    3    3    0    0  0.16683232392E+02  0.26693144741E+01 -0.51415880419E+00  0.16903249461E+02  0.51100000000E-03 0.  1.
        -12    1    3    3    0    0 -0.35293586284E+02  0.10469598167E+02  0.21413406869E+02  0.42588539683E+02  0.00000000000E+00 0.  1.
</event>
<event>
 7    1  0.1698110E-015  0.9000772E+02  0.7816164E-02  0.1186339E+00
        -11   -1    0    0    0    0  0.00000000000E+00  0.00000000000E+00  0.45593999997E+02  0.45594000000E+02  0.51100000000E-03 0. -1.
         11   -1    0    0    0    0 -0.00000000000E+00 -0.00000000000E+00 -0.45593999997E+02  0.45594000000E+02  0.51100000000E-03 0.  1.
    9900012    2    1    2    0    0  0.66986507270E+00  0.11928985707E+00 -0.96442226124E+00  0.90007720549E+02  0.89999981660E+02 0.  0.
         12    1    1    2    0    0 -0.66986507270E+00 -0.11928985707E+00  0.96442226124E+00  0.11802794515E+01  0.00000000000E+00 0. -1.
         11    1    3    3    0    0  0.87437911240E+01 -0.56222434994E+00  0.46129222058E+01  0.99019710653E+01  0.51100000000E-03 0. -1.
        -11    1    3    3    0    0  0.32596071524E+02  0.71657562714E+01  0.11809659257E+02  0.35402259727E+02  0.51100000000E-03 0.  1.
         12    1    3    3    0    0 -0.40669997575E+02 -0.64842420644E+01 -0.17387003724E+02  0.44703489757E+02  0.00000000000E+00 0. -1.
</event>
<event>
 7    1  0.1698110E-015  0.9000749E+02  0.7816164E-02  0.1186340E+00
        -11   -1    0    0    0    0  0.00000000000E+00  0.00000000000E+00  0.45593999997E+02  0.45594000000E+02  0.51100000000E-03 0. -1.
         11   -1    0    0    0    0 -0.00000000000E+00 -0.00000000000E+00 -0.45593999997E+02  0.45594000000E+02  0.51100000000E-03 0.  1.
    9900012    2    1    2    0    0  0.14861383221E+00 -0.87620846064E+00 -0.77703555350E+00  0.90007486726E+02  0.89999744751E+02 0.  0.
         12    1    1    2    0    0 -0.14861383221E+00  0.87620846064E+00  0.77703555350E+00  0.11805132735E+01  0.00000000000E+00 0. -1.
         11    1    3    3    0    0  0.18203480963E+01  0.76463911396E+01  0.39183165124E+01  0.87826060600E+01  0.51100000000E-03 0. -1.
        -11    1    3    3    0    0  0.16542749092E+01  0.19844172270E+02  0.30173435507E+02  0.36151957196E+02  0.51100000000E-03 0.  1.
         12    1    3    3    0    0 -0.33260091733E+01 -0.28366771870E+02 -0.34868787573E+02  0.45072923470E+02  0.00000000000E+00 0. -1.
</event>
<event>
 7    1  0.1698110E-015  0.9000773E+02  0.7816164E-02  0.1186339E+00
        -11   -1    0    0    0    0  0.00000000000E+00  0.00000000000E+00  0.45593999997E+02  0.45594000000E+02  0.51100000000E-03 0.  1.
         11   -1    0    0    0    0 -0.00000000000E+00 -0.00000000000E+00 -0.45593999997E+02  0.45594000000E+02  0.51100000000E-03 0. -1.
    9900012    2    1    2    0    0  0.78059043703E+00 -0.28774246600E+00  0.83721538156E+00  0.90007725984E+02  0.89999987167E+02 0.  0.
         12    1    1    2    0    0 -0.78059043703E+00  0.28774246600E+00 -0.83721538156E+00  0.11802740157E+01  0.00000000000E+00 0. -1.
         11    1    3    3    0    0  0.11174734284E+02 -0.28762647253E+02 -0.58208557813E+01  0.31401384135E+02  0.51100000000E-03 0. -1.
        -11    1    3    3    0    0 -0.11290019065E+02 -0.12591753329E+02  0.43634786493E+01  0.17465873256E+02  0.51100000000E-03 0.  1.
        -12    1    3    3    0    0  0.89587521764E+00  0.41066658116E+02  0.22945925135E+01  0.41140468593E+02  0.00000000000E+00 0.  1.
</event>
<event>
 7    1  0.1698110E-015  0.9000772E+02  0.7816164E-02  0.1186339E+00
        -11   -1    0    0    0    0  0.00000000000E+00  0.00000000000E+00  0.45593999997E+02  0.45594000000E+02  0.51100000000E-03 0.  1.
         11   -1    0    0    0    0 -0.00000000000E+00 -0.00000000000E+00 -0.45593999997E+02  0.45594000000E+02  0.51100000000E-03 0. -1.
    9900012    2    1    2    0    0  0.55029016838E+00 -0.23548801266E+00  0.10172413768E+01  0.90007722960E+02  0.89999984103E+02 0.  0.
         12    1    1    2    0    0 -0.55029016838E+00  0.23548801266E+00 -0.10172413768E+01  0.11802770404E+01  0.00000000000E+00 0. -1.
         11    1    3    3    0    0  0.57992029416E+01  0.79197352902E+01 -0.47027932765E+01  0.10884356972E+02  0.51100000000E-03 0. -1.
        -11    1    3    3    0    0 -0.50784868022E+01  0.32854986568E+02 -0.10734047644E+02  0.34935096245E+02  0.51100000000E-03 0.  1.
         12    1    3    3    0    0 -0.17042597109E+00 -0.41010209870E+02  0.16454082298E+02  0.44188269743E+02  0.00000000000E+00 0. -1.
</event>
<event>
 7    1  0.1698110E-015  0.9000778E+02  0.7816164E-02  0.1186339E+00
        -11   -1    0    0    0    0  0.00000000000E+00  0.00000000000E+00  0.45593999997E+02  0.45594000000E+02  0.51100000000E-03 0. -1.
         11   -1    0    0    0    0 -0.00000000000E+00 -0.00000000000E+00 -0.45593999997E+02  0.45594000000E+02  0.51100000000E-03 0.  1.
    9900012    2    1    2    0    0  0.89474573372E+00 -0.76076796570E+00  0.11652236923E+00  0.90007781678E+02  0.90000043596E+02 0.  0.
         12    1    1    2    0    0 -0.89474573372E+00  0.76076796570E+00 -0.11652236923E+00  0.11802183223E+01  0.00000000000E+00 0. -1.
         11    1    3    3    0    0 -0.34259403647E+01  0.32902327535E+02  0.27543745767E+02  0.43046000462E+02  0.51100000000E-03 0. -1.
        -11    1    3    3    0    0  0.57252074236E+01 -0.85101913068E+01 -0.77228008185E+00  0.10285804437E+02  0.51100000000E-03 0.  1.
        -12    1    3    3    0    0 -0.14045213251E+01 -0.25152904194E+02 -0.26654943316E+02  0.36675976779E+02  0.00000000000E+00 0.  1.
</event>
<event>
 7    1  0.1698110E-015  0.9000778E+02  0.7816164E-02  0.1186339E+00
        -11   -1    0    0    0    0  0.00000000000E+00  0.00000000000E+00  0.45593999997E+02  0.45594000000E+02  0.51100000000E-03 0.  1.
         11   -1    0    0    0    0 -0.00000000000E+00 -0.00000000000E+00 -0.45593999997E+02  0.45594000000E+02  0.51100000000E-03 0. -1.
    9900012    2    1    2    0    0 -0.24197368078E+00  0.29743076320E+00  0.11162020411E+01  0.90007778276E+02  0.90000040149E+02 0.  0.
         12    1    1    2    0    0  0.24197368078E+00 -0.29743076320E+00 -0.11162020411E+01  0.11802217239E+01  0.00000000000E+00 0. -1.
         11    1    3    3    0    0 -0.69995246487E+01  0.52808967399E+01 -0.26199934093E+00  0.87721069078E+01  0.51100000000E-03 0. -1.
        -11    1    3    3    0    0  0.26081046979E+02  0.18874847725E+02  0.26395380906E+02  0.41631682906E+02  0.51100000000E-03 0.  1.
         12    1    3    3    0    0 -0.19323496011E+02 -0.23858313702E+02 -0.25017179524E+02  0.39603988462E+02  0.00000000000E+00 0. -1.
</event>
<event>
 7    1  0.1698110E-015  0.9000778E+02  0.7816164E-02  0.1186339E+00
        -11   -1    0    0    0    0  0.00000000000E+00  0.00000000000E+00  0.45593999997E+02  0.45594000000E+02  0.51100000000E-03 0. -1.
         11   -1    0    0    0    0 -0.00000000000E+00 -0.00000000000E+00 -0.45593999997E+02  0.45594000000E+02  0.51100000000E-03 0.  1.
    9900012    2    1    2    0    0  0.70337775260E+00  0.63933347878E+00  0.69959081795E+00  0.90007781854E+02  0.90000043774E+02 0.  0.
         12    1    1    2    0    0 -0.70337775260E+00 -0.63933347878E+00 -0.69959081795E+00  0.11802181462E+01  0.00000000000E+00 0. -1.
         11    1    3    3    0    0 -0.93452922728E+01  0.43671825798E+01 -0.34330546703E+01  0.10871643665E+02  0.51100000000E-03 0. -1.
        -11    1    3    3    0    0  0.35230934047E+02  0.17009319611E+02 -0.14315946770E+02  0.41659116645E+02  0.51100000000E-03 0.  1.
         12    1    3    3    0    0 -0.25182264022E+02 -0.20737168712E+02  0.18448592258E+02  0.37477021544E+02  0.00000000000E+00 0. -1.
</event>
<event>
 7    1  0.1698110E-015  0.9000774E+02  0.7816164E-02  0.1186339E+00
        -11   -1    0    0    0    0  0.00000000000E+00  0.00000000000E+00  0.45593999997E+02  0.45594000000E+02  0.51100000000E-03 0. -1.
         11   -1    0    0    0    0 -0.00000000000E+00 -0.00000000000E+00 -0.45593999997E+02  0.45594000000E+02  0.51100000000E-03 0.  1.
    9900012    2    1    2    0    0 -0.58716324891E-01 -0.94184300470E+00 -0.70886546757E+00  0.90007743204E+02  0.90000004615E+02 0.  0.
         12    1    1    2    0    0  0.58716324891E-01  0.94184300470E+00  0.70886546757E+00  0.11802567955E+01  0.00000000000E+00 0. -1.
         11    1    3    3    0    0 -0.98754690169E-01  0.96451482535E+01 -0.58749047187E+01  0.11293942759E+02  0.51100000000E-03 0. -1.
        -11    1    3    3    0    0  0.16911559889E+01 -0.17344087565E+01 -0.36249592320E+02  0.36330443514E+02  0.51100000000E-03 0.  1.
         12    1    3    3    0    0 -0.16511176236E+01 -0.88525825018E+01  0.41415631571E+02  0.42383356932E+02  0.00000000000E+00 0. -1.
</event>
<event>
 7    1  0.1698110E-015  0.9000775E+02  0.7816164E-02  0.1186339E+00
        -11   -1    0    0    0    0  0.00000000000E+00  0.00000000000E+00  0.45593999997E+02  0.45594000000E+02  0.51100000000E-03 0. -1.
         11   -1    0    0    0    0 -0.00000000000E+00 -0.00000000000E+00 -0.45593999997E+02  0.45594000000E+02  0.51100000000E-03 0.  1.
    9900012    2    1    2    0    0 -0.10642515727E+01 -0.45664041229E+00  0.22769206842E+00  0.90007747674E+02  0.90000009143E+02 0.  0.
         12    1    1    2    0    0  0.10642515727E+01  0.45664041229E+00 -0.22769206842E+00  0.11802523265E+01  0.00000000000E+00 0. -1.
         11    1    3    3    0    0 -0.97223775185E+01 -0.36079592904E+02 -0.13942601523E+02  0.39883051365E+02  0.51100000000E-03 0. -1.
        -11    1    3    3    0    0 -0.78077426804E+01  0.14640390409E+01 -0.30086877427E+01  0.84944957632E+01  0.51100000000E-03 0.  1.
        -12    1    3    3    0    0  0.16465868626E+02  0.34158913450E+02  0.17178981334E+02  0.41630200545E+02  0.00000000000E+00 0.  1.
</event>
<event>
 7    1  0.1698110E-015  0.9000697E+02  0.7816164E-02  0.1186341E+00
        -11   -1    0    0    0    0  0.00000000000E+00  0.00000000000E+00  0.45593999997E+02  0.45594000000E+02  0.51100000000E-03 0. -1.
         11   -1    0    0    0    0 -0.00000000000E+00 -0.00000000000E+00 -0.45593999997E+02  0.45594000000E+02  0.51100000000E-03 0.  1.
    9900012    2    1    2    0    0 -0.68050855711E+00 -0.70155342489E+00 -0.66299525452E+00  0.90006970021E+02  0.89999221222E+02 0.  0.
         12    1    1    2    0    0  0.68050855711E+00  0.70155342489E+00  0.66299525452E+00  0.11810299792E+01  0.00000000000E+00 0. -1.
         11    1    3    3    0    0 -0.29322074784E+02  0.14087418442E+01  0.22169579158E+01  0.29439489226E+02  0.51100000000E-03 0. -1.
        -11    1    3    3    0    0 -0.13840488364E+02 -0.82336286513E+01 -0.67719490033E+01  0.17470290567E+02  0.51100000000E-03 0.  1.
        -12    1    3    3    0    0  0.42482054591E+02  0.61233333823E+01  0.38919958329E+01  0.43097190228E+02  0.00000000000E+00 0.  1.
</event>
<event>
 7    1  0.1698110E-015  0.9000731E+02  0.7816164E-02  0.1186340E+00
        -11   -1    0    0    0    0  0.00000000000E+00  0.00000000000E+00  0.45593999997E+02  0.45594000000E+02  0.51100000000E-03 0. -1.
         11   -1    0    0    0    0 -0.00000000000E+00 -0.00000000000E+00 -0.45593999997E+02  0.45594000000E+02  0.51100000000E-03 0.  1.
    9900012    2    1    2    0    0  0.61744625694E+00 -0.45959373916E+00 -0.89530508983E+00  0.90007306353E+02  0.89999561995E+02 0.  0.
         12    1    1    2    0    0 -0.61744625694E+00  0.45959373916E+00  0.89530508983E+00  0.11806936475E+01  0.00000000000E+00 0. -1.
         11    1    3    3    0    0  0.21004289292E+02 -0.29953458422E+02  0.23209433024E+01  0.36657558814E+02  0.51100000000E-03 0. -1.
        -11    1    3    3    0    0  0.31479727998E+01 -0.81982339059E+01 -0.12462713428E+01  0.88698345219E+01  0.51100000000E-03 0.  1.
        -12    1    3    3    0    0 -0.23534815835E+02  0.37692098589E+02 -0.19699770494E+01  0.44479913017E+02  0.00000000000E+00 0.  1.
</event>
